Membrane in water
40167
    1TCq1    O1    1   2.132   1.216  10.806 -0.3243 -0.1928 -0.6946
    1TCq1    C1    2   2.032   1.127  10.793 -0.5592 -0.8464 -0.7713
    1TCq1    O2    3   2.036   1.013  10.751 -0.0483 -0.3686  0.3271
    1TCq1    C2    4   1.910   1.185  10.830 -0.7016  0.5312 -0.1727
    1TCq1    C3    5   1.895   1.319  10.820 -0.6602  0.5212 -0.9991
    1TCq1    C4    6   1.786   1.383  10.874  0.0324 -0.3173  0.1929
    1TCq1    C5    7   1.695   1.311  10.932  0.1346  0.8528  0.1762
    1TCq1    C6    8   1.712   1.174  10.949 -0.2122  0.8289  0.2086
    1TCq1    C7    9   1.818   1.107  10.893 -0.0230 -0.3190  0.7994
    1TCq1    C8   10   1.655   1.113  11.075 -0.1553  0.3341 -0.3622
    1TCq1    O4   11   1.580   1.176  11.148 -0.0784 -0.8155  0.3302
    1TCq1    C9   12   1.779   1.523  10.870 -0.6958 -0.9432  0.2715
    1TCq1    O5   13   1.679   1.570  10.932  0.4879  0.2468  0.6061
    1TCq1    O6   14   1.875   1.593  10.826 -0.2206 -0.4112  0.3310
    1TCq1    H1   15   2.110   1.295  10.859  2.7609 -0.3507  0.8236
    1TCq1    H2   16   1.961   1.374  10.754  0.1937 -0.1542 -0.7072
    1TCq1    H3   17   1.612   1.363  10.980  1.1397  2.9774 -0.3685
    1TCq1    H4   18   1.844   1.001  10.896  0.2163 -0.2996 -0.3118
    2MPD2     C   19   1.599   0.727  11.411  0.3539  0.2988  0.1412
    2MPD2    C1   20   1.574   0.861  11.421  0.0322  0.9044  0.3267
    2MPD2    C2   21   1.590   0.941  11.312 -0.1890 -0.7434  0.2991
    2MPD2    C3   22   1.643   0.897  11.193  0.1781  0.3693  0.5986
    2MPD2    C4   23   1.677   0.762  11.185 -1.0415  0.9060  0.6616
    2MPD2    C5   24   1.652   0.679  11.290  0.4698  0.8102  0.1813
    2MPD2     H   25   1.581   1.045  11.342  1.1128  0.0890 -2.1282
    2MPD2    H1   26   1.719   0.715  11.097 -3.0668  0.2791  0.0341
    2MPD2    H2   27   1.578   0.655  11.489 -0.4825 -1.4664 -1.7290
    2MPD2    H3   28   1.682   0.576  11.277 -3.3848  0.0387 -2.6334
    2MPD2     N   29   1.678   0.980  11.081  0.0378  0.7563 -0.3617
    2MPD2    H5   30   1.716   0.931  11.001 -2.2512  1.0146 -1.6021
    2MPD2    N1   31   1.513   0.916  11.533  0.2463  0.0763  0.0685
    2MPD2    H7   32   1.487   1.011  11.511 -0.3380  0.2198  1.3963
    3TCq1    O1   33   1.183   2.847  10.626  0.1433  0.0101 -0.0863
    3TCq1    C1   34   1.208   2.753  10.536  0.0480 -0.8804  0.4322
    3TCq1    O2   35   1.293   2.766  10.447 -0.7786 -0.3545  0.6301
    3TCq1    C2   36   1.089   2.668  10.527 -1.2079  1.0339 -1.3122
    3TCq1    C3   37   1.080   2.597  10.414  0.2102 -0.1997  0.4263
    3TCq1    C4   38   0.980   2.507  10.402  0.2301  0.4025  0.8051
    3TCq1    C5   39   0.900   2.477  10.510 -0.3141 -0.8799 -0.1704
    3TCq1    C6   40   0.924   2.537  10.629  0.7187 -0.1201  0.4176
    3TCq1    C7   41   1.022   2.634  10.643  0.1970  0.4045  0.5643
    3TCq1    C8   42   0.815   2.538  10.730  0.3794 -0.2647 -0.1428
    3TCq1    O4   43   0.733   2.447  10.726 -0.5399 -0.3852 -0.3753
    3TCq1    C9   44   0.969   2.428  10.282  0.3975  0.4075  0.3455
    3TCq1    O5   45   0.849   2.398  10.254  0.0124 -0.5641  0.5423
    3TCq1    O6   46   1.063   2.441  10.198 -0.4594  0.1507  0.0356
    3TCq1    H1   47   1.094   2.843  10.666 -0.1608  0.5175 -0.6994
    3TCq1    H2   48   1.150   2.607  10.332  1.1786  1.1632  1.4206
    3TCq1    H3   49   0.822   2.404  10.493  0.2761 -1.4832 -0.2789
    3TCq1    H4   50   1.041   2.678  10.740  0.1475  1.5359  0.0647
    4MPD2     C   51   0.541   2.706  11.122  0.6171 -0.6707  0.8201
    4MPD2    C1   52   0.609   2.816  11.066 -0.1035 -0.0472  0.3098
    4MPD2    C2   53   0.695   2.788  10.967  0.2109  0.1956  0.0039
    4MPD2    C3   54   0.722   2.663  10.922 -0.1721  0.1013 -0.0969
    4MPD2    C4   55   0.657   2.559  10.981 -0.0112 -0.0829 -0.4121
    4MPD2    C5   56   0.566   2.582  11.076  0.1378  0.1547 -0.3653
    4MPD2     H   57   0.731   2.874  10.912 -2.1328  1.7223  0.8470
    4MPD2    H1   58   0.675   2.455  10.957 -4.0016 -0.6355 -0.9710
    4MPD2    H2   59   0.458   2.715  11.192 -0.5113 -0.8271 -0.5099
    4MPD2    H3   60   0.509   2.500  11.118  1.9998 -1.8203 -1.6815
    4MPD2     N   61   0.817   2.647  10.816 -0.2645  0.0938  0.4616
    4MPD2    H5   62   0.872   2.728  10.789 -0.1422 -1.4240 -3.8666
    4MPD2    N1   63   0.593   2.948  11.114  0.8872 -0.4401 -0.2370
    4MPD2    H7   64   0.628   3.021  11.053 -0.0677 -0.2505 -0.5676
    5TCq1    O1   65   1.359   0.205  11.702  0.2133 -0.1319  0.4787
    5TCq1    C1   66   1.446   0.182  11.800  0.1807  0.9130  0.3870
    5TCq1    O2   67   1.425   0.211  11.919 -0.6334  0.0321 -0.7538
    5TCq1    C2   68   1.494   0.048  11.772 -0.3237 -0.3451 -0.4291
    5TCq1    C3   69   1.473   4.671  11.863  0.2607 -0.5984  0.0655
    5TCq1    C4   70   1.522   4.543  11.834  0.4051 -0.0075 -0.1887
    5TCq1    C5   71   1.581   4.512  11.721 -0.4008  0.0748  0.3273
    5TCq1    C6   72   1.593   4.610  11.629 -0.0339 -0.1809  0.2884
    5TCq1    C7   73   1.549   0.021  11.645  0.9842  0.4968 -0.8530
    5TCq1    C8   74   1.629   4.565  11.491 -0.5258  0.2009  0.6090
    5TCq1    O4   75   1.705   4.469  11.490  0.1134  0.1459 -0.0237
    5TCq1    C9   76   1.516   4.445  11.938  0.3310 -0.0508 -0.1497
    5TCq1    O5   77   1.445   4.467  12.037  0.0938 -0.4839  0.4600
    5TCq1    O6   78   1.557   4.330  11.902  0.4195 -0.0447 -0.5480
    5TCq1    H1   79   1.365   0.151  11.620  2.8174  2.3841 -0.9932
    5TCq1    H2   80   1.431   4.696  11.960 -0.6709  0.8151 -0.7114
    5TCq1    H3   81   1.621   4.414  11.701 -2.8467 -1.1835  1.6519
    5TCq1    H4   82   1.590   0.099  11.582 -0.2630  1.6264 -0.2638
    6MPD2     C   83   1.478   4.678  11.171  0.2381 -0.4598 -0.4196
    6MPD2    C1   84   1.538   4.593  11.259  0.1840 -0.6212 -0.0843
    6MPD2    C2   85   1.593   4.480  11.210  1.2220 -1.0130  0.4988
    6MPD2    C3   86   1.582   4.442  11.078  0.5995  0.3791 -0.3907
    6MPD2    C4   87   1.517   4.530  10.993  0.9569 -0.3132 -0.2388
    6MPD2    C5   88   1.487   4.654  11.036 -0.0917 -0.4068 -0.2166
    6MPD2     H   89   1.626   4.403  11.279 -1.2604 -0.9403  1.7883
    6MPD2    H1   90   1.498   4.511  10.888 -1.2866 -1.1326  0.3203
    6MPD2    H2   91   1.432   0.050  11.204 -0.3362 -0.9941  0.2851
    6MPD2    H3   92   1.444   0.012  10.974 -1.2588 -1.9073 -1.2561
    6MPD2     N   93   1.629   4.311  11.042  0.1018 -0.6230 -0.6427
    6MPD2    H5   94   1.673   4.260  11.118  0.2272 -0.1952 -0.4283
    6MPD2    N1   95   1.547   4.629  11.398  0.3591 -0.0376  0.1640
    6MPD2    H7   96   1.473   4.694  11.422  0.3041 -0.7729  2.0068
    7TCq1    O1   97   3.227   3.773  12.761  0.1102 -0.1788 -0.3159
    7TCq1    C1   98   3.199   3.642  12.764 -0.1035  0.0465  0.6719
    7TCq1    O2   99   3.124   3.583  12.691  0.7913 -0.5431 -0.4283
    7TCq1    C2  100   3.307   3.571  12.831 -0.4381 -0.3282  1.0460
    7TCq1    C3  101   3.431   3.628  12.852  0.4982 -0.0989  0.4739
    7TCq1    C4  102   3.515   3.555  12.935  0.1840  0.2260  0.3425
    7TCq1    C5  103   3.483   3.433  12.987  0.2844 -0.8812 -0.7354
    7TCq1    C6  104   3.365   3.381  12.955 -0.3130  0.5840 -0.2788
    7TCq1    C7  105   3.271   3.449  12.885  0.4932  0.5279  0.1668
    7TCq1    C8  106   3.348   3.236  12.953 -0.6435  0.3486  0.6080
    7TCq1    O4  107   3.235   3.193  12.946 -0.4629  0.3300 -0.4018
    7TCq1    C9  108   3.652   3.602  12.961  0.5211 -0.4404  0.0319
    7TCq1    O5  109   3.733   3.512  13.004 -0.1535  0.2106  0.1000
    7TCq1    O6  110   3.681   3.719  12.923  0.1935  0.2067  0.3187
    7TCq1    H1  111   3.273   3.803  12.842  0.8702  0.4599 -0.9958
    7TCq1    H2  112   3.469   3.719  12.806  0.4436 -0.5908 -0.5494
    7TCq1    H3  113   3.539   3.385  13.066 -0.1947 -0.8428 -0.3764
    7TCq1    H4  114   3.175   3.404  12.861  0.3412  0.7757  0.3149
    8MPD2     C  115   3.538   2.778  13.093 -0.0308 -0.2383 -0.3196
    8MPD2    C1  116   3.408   2.824  13.097  0.4838 -0.1798 -0.4032
    8MPD2    C2  117   3.386   2.948  13.046  0.4493 -0.2400  0.4833
    8MPD2    C3  118   3.484   3.036  13.003 -0.0805 -0.2664 -0.1086
    8MPD2    C4  119   3.611   2.986  12.997 -0.7183  0.5162  0.5328
    8MPD2    C5  120   3.631   2.855  13.031 -0.1089  0.2349 -0.1786
    8MPD2     H  121   3.286   2.986  13.058  0.4482 -0.2702  0.5722
    8MPD2    H1  122   3.690   3.044  12.952  1.1961 -1.6350  1.1268
    8MPD2    H2  123   3.566   2.676  13.114  2.3530  0.4223 -0.2992
    8MPD2    H3  124   3.727   2.808  13.011  0.7865  1.8842  0.1932
    8MPD2     N  125   3.464   3.170  12.963 -0.0930 -0.4198  0.3292
    8MPD2    H5  126   3.547   3.224  12.943 -1.7435  1.7083 -0.7572
    8MPD2    N1  127   3.311   2.738  13.156  1.0673 -0.2038  0.0264
    8MPD2    H7  128   3.343   2.650  13.195  2.5458  0.7299  0.9351
    9TCq1    O1  129   0.849   1.669  10.647  1.2699 -0.0237 -0.2607
    9TCq1    C1  130   0.878   1.637  10.515  0.0749 -0.3070  0.6023
    9TCq1    O2  131   0.794   1.625  10.429 -0.2216 -0.2101 -0.1797
    9TCq1    C2  132   1.013   1.674  10.482 -0.3859 -0.0383 -0.4689
    9TCq1    C3  133   1.062   1.615  10.369 -0.3041  0.7177  0.1915
    9TCq1    C4  134   1.195   1.634  10.337 -0.3852 -0.6174  0.2901
    9TCq1    C5  135   1.277   1.707  10.418  0.6335  0.2768  0.5504
    9TCq1    C6  136   1.216   1.775  10.526 -0.7463  0.1813 -0.0629
    9TCq1    C7  137   1.088   1.762  10.562 -0.2113  0.0976  0.3388
    9TCq1    C8  138   1.302   1.862  10.599 -0.4891 -0.5470 -0.4142
    9TCq1    O4  139   1.394   1.916  10.534 -0.5655 -0.1081  0.4008
    9TCq1    C9  140   1.242   1.566  10.215 -0.3047  0.9058  0.6720
    9TCq1    O5  141   1.361   1.582  10.172  0.3140  0.8546 -0.6018
    9TCq1    O6  142   1.153   1.499  10.160 -0.1798  0.5463 -0.1347
    9TCq1    H1  143   0.918   1.658  10.716 -2.1788 -2.1637  2.8474
    9TCq1    H2  144   0.992   1.565  10.303  0.4086  0.0246 -0.0453
    9TCq1    H3  145   1.383   1.710  10.396  0.9641  0.0912  2.1082
    9TCq1    H4  146   1.047   1.827  10.639 -0.4051  2.1626 -1.5185
   10MPD2     C  147   1.423   2.060  10.787 -0.1072  0.0766 -0.6826
   10MPD2    C1  148   1.324   1.976  10.820  0.0979 -1.0849  0.3452
   10MPD2    C2  149   1.282   1.973  10.955  0.5145  0.2485  1.1657
   10MPD2    C3  150   1.332   2.056  11.047  0.0875 -0.5288 -0.7083
   10MPD2    C4  151   1.446   2.132  11.017 -0.6475 -0.6472 -0.8850
   10MPD2    C5  152   1.481   2.132  10.881  0.4090  0.2494 -0.1295
   10MPD2     H  153   1.191   1.919  10.980 -0.2464  0.1102 -1.9463
   10MPD2    H1  154   1.476   2.209  11.087  0.7710  0.8301 -3.1695
   10MPD2    H2  155   1.450   2.075  10.683  2.2127  0.9873  0.0484
   10MPD2    H3  156   1.547   2.211  10.849 -0.0383  0.4668 -0.5017
   10MPD2     N  157   1.274   2.074  11.176 -0.6421 -0.1326 -0.6052
   10MPD2    H5  158   1.323   2.141  11.235  1.3026 -1.7650 -0.3635
   10MPD2    N1  159   1.267   1.882  10.731  0.0132 -0.2230  0.3117
   10MPD2    H7  160   1.190   1.828  10.771 -0.9922 -0.1820 -1.5726
   11TCq1    O1  161   2.372   2.047  14.136  0.5575  0.0259  0.3081
   11TCq1    C1  162   2.302   1.933  14.163 -0.6155 -0.2261  0.0658
   11TCq1    O2  163   2.234   1.863  14.091 -0.9259 -0.0858 -0.6091
   11TCq1    C2  164   2.281   1.934  14.303  0.5020 -0.2811 -0.1255
   11TCq1    C3  165   2.386   1.982  14.386  0.7234  0.1622 -0.5276
   11TCq1    C4  166   2.358   1.979  14.521  0.6036 -0.1149  0.3574
   11TCq1    C5  167   2.244   1.928  14.571 -0.9321  0.4550 -0.1954
   11TCq1    C6  168   2.139   1.891  14.483  0.1115  0.4017 -0.4072
   11TCq1    C7  169   2.165   1.885  14.344  0.3622  0.3118 -1.2070
   11TCq1    C8  170   2.010   1.857  14.537 -0.7495  0.6189  0.2167
   11TCq1    O4  171   1.997   1.905  14.648  0.0026 -0.1299  0.1173
   11TCq1    C9  172   2.451   2.042  14.607 -0.3517 -0.1875  0.5080
   11TCq1    O5  173   2.445   2.005  14.726 -0.5284 -0.0369 -0.1181
   11TCq1    O6  174   2.532   2.122  14.554 -0.4899 -0.7864 -0.7610
   11TCq1    H1  175   2.393   2.092  14.220  1.5281  0.6841 -0.2803
   11TCq1    H2  176   2.480   2.017  14.346  0.3124  2.0118  0.1302
   11TCq1    H3  177   2.232   1.931  14.678 -2.0891 -1.3645 -0.2710
   11TCq1    H4  178   2.090   1.864  14.268 -0.7681 -0.0743  0.0183
   12MPD2     C  179   1.719   1.881  14.542 -0.1160 -0.1961 -0.2741
   12MPD2    C1  180   1.785   1.817  14.441 -0.7707 -0.5214 -0.1251
   12MPD2    C2  181   1.712   1.755  14.340 -0.4141 -0.1227  0.4855
   12MPD2    C3  182   1.575   1.762  14.333 -0.1584 -0.4964 -0.2216
   12MPD2    C4  183   1.516   1.853  14.421 -0.0548  0.8633  0.9403
   12MPD2    C5  184   1.585   1.907  14.529  0.3177 -0.2212  0.0101
   12MPD2     H  185   1.766   1.701  14.263 -0.7806  0.6895 -0.3355
   12MPD2    H1  186   1.410   1.873  14.423 -0.3138 -0.3364 -0.8552
   12MPD2    H2  187   1.766   1.932  14.625 -0.9137  0.4028 -0.2027
   12MPD2    H3  188   1.535   1.958  14.611  0.7321  0.3891 -0.1139
   12MPD2     N  189   1.495   1.677  14.247 -0.6883 -0.0212 -0.1988
   12MPD2    H5  190   1.544   1.615  14.184 -1.5544 -1.1529  0.2520
   12MPD2    N1  191   1.926   1.806  14.444 -0.0440 -0.3895  0.8208
   12MPD2    H7  192   1.959   1.773  14.354 -2.4006 -0.9555  0.1485
   13TCq1    O1  193   1.553   2.839  10.419  0.0041  0.1920 -0.1318
   13TCq1    C1  194   1.635   2.757  10.352  1.1697 -0.3152  0.3144
   13TCq1    O2  195   1.749   2.786  10.319  0.0165  0.6806 -0.0235
   13TCq1    C2  196   1.561   2.635  10.319 -0.4320 -0.0416  0.6613
   13TCq1    C3  197   1.600   2.572  10.205 -0.3691  0.2545  0.3622
   13TCq1    C4  198   1.557   2.444  10.187  0.2143  0.2929 -0.1429
   13TCq1    C5  199   1.488   2.374  10.285  0.4300 -0.0181 -0.4212
   13TCq1    C6  200   1.448   2.441  10.396  0.4210 -0.2971 -0.5032
   13TCq1    C7  201   1.484   2.565  10.419 -0.3616 -0.3641  1.2219
   13TCq1    C8  202   1.360   2.377  10.492  0.0368  0.7351  0.2822
   13TCq1    O4  203   1.363   2.417  10.609  0.3670 -0.3708  0.8273
   13TCq1    C9  204   1.590   2.376  10.068  0.2731 -0.3903  0.7170
   13TCq1    O5  205   1.550   2.261  10.061 -0.3908 -0.3849 -0.1400
   13TCq1    O6  206   1.640   2.437   9.970 -0.2015  0.4923 -0.2919
   13TCq1    H1  207   1.462   2.806  10.406  0.0760  0.1626 -0.5511
   13TCq1    H2  208   1.652   2.632  10.130  0.0214 -1.4990 -0.7584
   13TCq1    H3  209   1.462   2.269  10.271  0.7897  0.2460 -3.0170
   13TCq1    H4  210   1.457   2.612  10.513 -1.8580  1.5100 -0.1620
   14MPD2     C  211   1.101   2.122  10.429  0.6862  0.5427 -0.7384
   14MPD2    C1  212   1.181   2.206  10.508  0.3420  0.3555 -0.4554
   14MPD2    C2  213   1.152   2.221  10.642  0.9798 -0.2856  0.2975
   14MPD2    C3  214   1.036   2.163  10.697  0.2602 -0.9743  0.0519
   14MPD2    C4  215   0.951   2.101  10.613 -0.0280 -0.1380  1.2731
   14MPD2    C5  216   0.981   2.091  10.483  0.3173  0.5445 -0.3454
   14MPD2     H  217   1.207   2.290  10.705  0.3341 -0.4173  1.0065
   14MPD2    H1  218   0.856   2.060  10.644 -1.5405  2.2630 -0.1258
   14MPD2    H2  219   1.105   2.121  10.321 -0.5307 -1.5310 -0.7420
   14MPD2    H3  220   0.909   2.041  10.419  1.1265 -0.3096 -0.5963
   14MPD2     N  221   1.004   2.189  10.833 -0.0641 -0.0746 -0.2941
   14MPD2    H5  222   1.065   2.253  10.882  1.8152 -2.5681  0.6231
   14MPD2    N1  223   1.285   2.277  10.436 -0.2811 -0.0003  0.0497
   14MPD2    H7  224   1.305   2.258  10.339 -1.5031  0.3363 -0.2735
   15TCq1    O1  225   4.165   1.699   2.676  0.5477  0.3661  0.1435
   15TCq1    C1  226   4.123   1.717   2.800 -0.2869 -0.0140  0.0676
   15TCq1    O2  227   4.163   1.793   2.891  0.2231 -0.1126  0.0847
   15TCq1    C2  228   4.003   1.632   2.813 -0.0224  0.3837 -0.1045
   15TCq1    C3  229   3.924   1.654   2.930 -0.1705  0.7769  0.1913
   15TCq1    C4  230   3.804   1.586   2.938  0.5017 -0.0712 -0.4663
   15TCq1    C5  231   3.769   1.496   2.845 -0.1816 -0.1706 -0.2210
   15TCq1    C6  232   3.846   1.475   2.737  0.1115  0.5541  0.4343
   15TCq1    C7  233   3.966   1.539   2.724 -0.0277 -0.1860  0.9238
   15TCq1    C8  234   3.804   1.386   2.628  0.2539 -0.2820 -0.8505
   15TCq1    O4  235   3.896   1.337   2.567  0.3115 -0.0653  0.1403
   15TCq1    C9  236   3.724   1.604   3.052 -0.2638  0.4994  0.1185
   15TCq1    O5  237   3.617   1.540   3.057  0.1391 -0.7264 -0.5273
   15TCq1    O6  238   3.783   1.647   3.156 -0.1431 -0.1885 -0.4408
   15TCq1    H1  239   4.121   1.622   2.634 -0.9875  1.1929  0.2213
   15TCq1    H2  240   3.947   1.740   2.992  0.2897  0.7061  0.1150
   15TCq1    H3  241   3.685   1.429   2.860 -1.8771  2.2897  1.3433
   15TCq1    H4  242   4.006   1.528   2.624  0.2984 -2.4225  1.2878
   16MPD2     C  243   3.478   1.275   2.518 -0.1282 -0.1255 -0.4565
   16MPD2    C1  244   3.615   1.272   2.523  0.4921  0.0957 -0.2698
   16MPD2    C2  245   3.681   1.189   2.431  0.3793 -0.3589 -0.8980
   16MPD2    C3  246   3.617   1.113   2.342 -0.1493  0.5121 -0.7311
   16MPD2    C4  247   3.480   1.119   2.343 -0.2885  0.4245  0.0931
   16MPD2    C5  248   3.410   1.196   2.429 -0.4759 -0.6146  0.4223
   16MPD2     H  249   3.788   1.202   2.419  0.4538 -0.4848 -0.3930
   16MPD2    H1  250   3.423   1.052   2.279 -1.7512  1.0723  0.7115
   16MPD2    H2  251   3.420   1.339   2.583  0.0847  0.2091 -0.5959
   16MPD2    H3  252   3.302   1.204   2.430 -0.4508 -0.3523  0.9118
   16MPD2     N  253   3.684   1.018   2.263 -0.5464 -0.0121 -0.8059
   16MPD2    H5  254   3.779   0.997   2.289 -1.3514  0.7296  2.7850
   16MPD2    N1  255   3.670   1.361   2.619  0.1421  0.5404  0.0601
   16MPD2    H7  256   3.607   1.424   2.666 -0.3984 -0.7333  1.0170
   17TCq1    O1  257   1.712   1.840  11.007 -0.2706  0.2562  0.1699
   17TCq1    C1  258   1.651   1.889  11.116  0.1145 -0.5560  0.2655
   17TCq1    O2  259   1.687   1.979  11.187  0.2398  0.6802  0.4332
   17TCq1    C2  260   1.523   1.814  11.130 -0.2826 -0.3900  0.2900
   17TCq1    C3  261   1.464   1.818  11.255  0.1870 -0.3806 -0.3360
   17TCq1    C4  262   1.363   1.741  11.297 -0.1904  0.0320  0.7995
   17TCq1    C5  263   1.309   1.655  11.204  0.5732 -0.3440 -1.1677
   17TCq1    C6  264   1.366   1.650  11.077  0.7276  0.1778 -0.2923
   17TCq1    C7  265   1.466   1.734  11.037 -0.2309 -0.0475  0.1972
   17TCq1    C8  266   1.319   1.548  10.988 -0.4308  0.1556  0.3762
   17TCq1    O4  267   1.209   1.497  11.013  0.0739  0.0189  0.3006
   17TCq1    C9  268   1.322   1.730  11.429  0.1165 -0.1543  0.3733
   17TCq1    O5  269   1.214   1.665  11.453  0.0457  0.1721 -0.3935
   17TCq1    O6  270   1.386   1.791  11.519  0.0606 -0.5359  0.3428
   17TCq1    H1  271   1.676   1.756  10.972  0.5032 -0.2039  0.4760
   17TCq1    H2  272   1.514   1.872  11.334 -0.5219 -0.4890  0.1878
   17TCq1    H3  273   1.238   1.582  11.242  2.1032 -1.3577 -0.2445
   17TCq1    H4  274   1.500   1.731  10.935 -0.3857 -1.4462  0.1962
   18MPD2     C  275   1.250   1.400  10.738  0.5032 -0.0538  0.4452
   18MPD2    C1  276   1.375   1.459  10.760  0.0950  1.0351 -0.3804
   18MPD2    C2  277   1.479   1.448  10.677  0.3100  0.3615 -0.0996
   18MPD2    C3  278   1.463   1.382  10.555 -0.0650 -0.5030  0.6161
   18MPD2    C4  279   1.346   1.316  10.528 -0.0353  0.4477  0.8963
   18MPD2    C5  280   1.246   1.321  10.626  0.2927  0.6675  0.0091
   18MPD2     H  281   1.572   1.498  10.700 -0.0190  0.0601  1.8826
   18MPD2    H1  282   1.330   1.263  10.435  1.4593  0.8951  0.3876
   18MPD2    H2  283   1.167   1.406  10.808  0.3628 -0.2657  0.2978
   18MPD2    H3  284   1.154   1.270  10.601 -0.3737  1.4461  0.8598
   18MPD2     N  285   1.564   1.349  10.456 -0.0645 -0.3426  0.0010
   18MPD2    H5  286   1.540   1.288  10.378 -1.2181  1.6600 -1.2190
   18MPD2    N1  287   1.408   1.523  10.881 -0.4598  0.2131 -0.4341
   18MPD2    H7  288   1.506   1.544  10.901 -0.2329 -0.2396 -1.0718
   19TMC2    C1  289   2.735   1.066  13.760  0.4144 -0.4030  0.4095
   19TMC2    C2  290   2.804   0.996  13.664  0.5240 -0.7127  0.1282
   19TMC2    C3  291   2.790   0.862  13.661 -0.9825 -0.9542 -0.6727
   19TMC2    C4  292   2.639   1.009  13.838 -0.4220 -0.1090  0.6659
   19TMC2    C5  293   2.625   0.870  13.823 -0.2037 -0.0212  0.8727
   19TMC2    C6  294   2.694   0.800  13.732  0.1039 -0.4222  0.0317
   19TMC2     C  295   2.763   1.203  13.789  0.0665 -0.5664 -0.0823
   19TMC2     O  296   2.787   1.272  13.693 -0.2955 -0.5210 -0.5007
   19TMC2     H  297   2.877   1.052  13.606  0.9570 -2.1170 -0.6706
   19TMC2    H1  298   2.566   1.062  13.900 -0.9077 -0.8198  0.6981
   19TMC2    H2  299   2.694   0.692  13.735  1.4856 -0.4428 -1.0248
   19TMC2    C7  300   2.498   0.810  13.865  0.2739  0.0281  0.4971
   19TMC2    C8  301   2.869   0.791  13.559 -0.4310  0.6026 -0.0860
   19TMC2    O1  302   2.470   0.703  13.822 -0.5694 -0.2542 -0.1438
   19TMC2    O2  303   2.852   0.670  13.548 -0.5299 -0.5431 -0.4817
   19TMC2    O5  304   2.990   0.845  13.574 -0.3814 -0.6267 -0.1622
   19TMC2    H5  305   2.996   0.940  13.549 -0.0188 -0.9074 -1.1584
   20MPD2     C  306   2.825   1.461  13.930  0.6883  0.1684 -0.3435
   20MPD2    C1  307   2.780   1.341  13.987 -1.3559 -0.3688 -0.3319
   20MPD2    C2  308   2.770   1.332  14.128  0.4716 -0.2213  0.5505
   20MPD2    C3  309   2.820   1.432  14.211  0.4756 -0.2316  0.8148
   20MPD2    C4  310   2.871   1.541  14.151  0.4584 -0.7931 -0.5417
   20MPD2    C5  311   2.871   1.562  14.016 -0.2186  0.1111  0.9763
   20MPD2     H  312   2.716   1.249  14.171 -0.1482 -0.4875 -0.7204
   20MPD2    H1  313   2.901   1.626  14.212 -0.6941 -2.3738  2.2018
   20MPD2    H2  314   2.829   1.474  13.822 -1.6212 -1.7067 -0.6414
   20MPD2    H3  315   2.910   1.653  13.970 -0.7369 -0.3071 -0.2767
   20MPD2     N  316   2.804   1.438  14.354 -0.1804  0.2928  0.1359
   20MPD2    H5  317   2.867   1.507  14.392 -0.0916  0.3633 -0.1399
   20MPD2    N1  318   2.732   1.234  13.916 -0.1673 -0.6111  0.0966
   20MPD2    H7  319   2.704   1.155  13.973  0.6967 -0.2800  0.9819
   21MPD2     C  320   0.545   2.288  14.302 -0.5290  0.1711  0.3833
   21MPD2    C1  321   0.589   2.161  14.345 -0.6128  0.5521 -0.3359
   21MPD2    C2  322   0.512   2.086  14.428 -0.2474 -0.0608  0.2144
   21MPD2    C3  323   0.389   2.126  14.467  0.8871  0.1689  0.0156
   21MPD2    C4  324   0.346   2.252  14.427  0.0542  0.2543  0.1423
   21MPD2    C5  325   0.420   2.330  14.341  0.4411  0.4774  0.3543
   21MPD2     H  326   0.553   1.996  14.473  0.8059 -0.1503 -0.9203
   21MPD2    H1  327   0.244   2.286  14.442 -0.8280 -1.9628 -0.7387
   21MPD2    H2  328   0.606   2.348  14.235 -1.5766 -1.6000 -2.1282
   21MPD2    H3  329   0.383   2.425  14.305 -0.3764 -0.2720 -0.7716
   21MPD2     N  330   0.306   2.052  14.554  0.1036 -0.0358 -0.3519
   21MPD2    H5  331   0.219   2.100  14.574 -1.2107 -2.5418 -0.1221
   21MPD2    N1  332   0.712   2.102  14.302 -1.0299  0.0145 -0.4407
   21MPD2    H7  333   0.739   2.011  14.338 -0.0986  0.2117 -0.6397
   22TCq2    C1  334   0.327   1.927  14.598 -0.4484  0.8123  0.4094
   22TCq2    O2  335   0.423   1.851  14.580 -0.0004 -0.3588 -0.1147
   22TCq2    C2  336   0.226   1.862  14.686 -0.6791  0.0410 -0.0096
   22TCq2    C3  337   0.256   1.733  14.738 -0.6407  0.1750 -0.0067
   22TCq2    C4  338   0.187   1.687  14.847  0.1896  0.0450 -0.1232
   22TCq2    C5  339   0.084   1.755  14.899  0.8064  0.3337 -0.5388
   22TCq2    C6  340   0.055   1.883  14.849  0.3009  0.0381  0.2433
   22TCq2    C7  341   0.132   1.937  14.743 -0.0475  0.4893 -0.3583
   22TCq2    C8  342   4.700   1.974  14.928  0.5311 -0.0355 -0.1281
   22TCq2    O4  343   4.677   1.943  15.042 -0.0289  0.4001 -0.1527
   22TCq2    C9  344   0.213   1.554  14.896 -0.4796 -0.3605  0.6272
   22TCq2    O5  345   0.310   1.498  14.840 -0.3826  0.4284  0.5170
   22TCq2    O6  346   0.180   1.528  15.011 -0.4249 -0.2423 -0.3739
   22TCq2    H2  347   0.330   1.663  14.700 -0.9380  1.1856 -2.4563
   22TCq2    H3  348   0.032   1.714  14.985  1.4769 -1.6610 -1.0881
   22TCq2    H4  349   0.112   2.038  14.709  2.6956  1.8455  2.1063
   23MPD2     C  350   2.338   2.639  14.500  0.0623 -0.3944  0.8482
   23MPD2    C1  351   2.255   2.647  14.607 -0.5387  0.4162 -0.3735
   23MPD2    C2  352   2.166   2.751  14.623  0.4208  0.1287  0.0234
   23MPD2    C3  353   2.158   2.853  14.523  0.2959 -0.0267  0.7600
   23MPD2    C4  354   2.250   2.841  14.417  0.3255  0.0389 -0.3127
   23MPD2    C5  355   2.340   2.739  14.412  0.5774 -0.0086  0.2824
   23MPD2     H  356   2.115   2.748  14.718  0.9850  1.2940  0.3566
   23MPD2    H1  357   2.247   2.907  14.331 -2.3300  0.4281  0.0720
   23MPD2    H2  358   2.409   2.557  14.491  3.5551  2.6757  0.4325
   23MPD2    H3  359   2.403   2.739  14.324  1.4017  1.8593  0.8784
   23MPD2     N  360   2.065   2.963  14.531  0.4455 -0.2810 -0.3652
   23MPD2    H5  361   2.070   3.025  14.451  1.0510 -0.3054 -0.3404
   23MPD2    N1  362   2.251   2.559  14.714 -0.0944  0.7483  0.1522
   23MPD2    H7  363   2.181   2.586  14.783 -0.6533 -1.5356  0.4925
   24TCq2    C1  364   1.976   2.981  14.639  0.4416 -0.0364  0.0323
   24TCq2    O2  365   1.952   2.898  14.727 -0.4263  0.1876 -0.3745
   24TCq2    C2  366   1.864   3.069  14.602 -0.2296  0.1898 -0.7884
   24TCq2    C3  367   1.894   3.173  14.519 -0.0908  0.2990  0.4158
   24TCq2    C4  368   1.785   3.237  14.468  0.3672  0.1451  0.2700
   24TCq2    C5  369   1.654   3.196  14.490  0.3594 -0.0011  0.3757
   24TCq2    C6  370   1.632   3.093  14.581 -0.0412 -1.0646 -0.0352
   24TCq2    C7  371   1.738   3.024  14.638  0.0343 -0.7969 -0.6795
   24TCq2    C8  372   1.507   3.020  14.593  0.4571  0.5485  0.4828
   24TCq2    O4  373   1.515   2.914  14.653  0.3338 -0.1251 -0.2231
   24TCq2    C9  374   1.815   3.353  14.381  0.4438 -0.5996 -0.6396
   24TCq2    O5  375   1.719   3.424  14.349  0.3857 -0.0657 -0.1570
   24TCq2    O6  376   1.918   3.357  14.318 -0.1803 -0.0012  0.3840
   24TCq2    H2  377   1.995   3.209  14.509 -1.1788  3.0667 -0.8107
   24TCq2    H3  378   1.573   3.257  14.452 -0.6095 -2.0985 -0.9367
   24TCq2    H4  379   1.727   2.946  14.712  0.4384 -2.4476 -2.3390
   25TMC2    C1  380   0.555   1.090  11.188 -0.8626  0.8956 -0.5438
   25TMC2    C2  381   0.477   1.190  11.147 -0.1168 -0.2024  0.5735
   25TMC2    C3  382   0.422   1.275  11.242 -0.1145  0.2206 -0.9138
   25TMC2    C4  383   0.568   1.050  11.319  0.1917 -0.6475  0.9626
   25TMC2    C5  384   0.509   1.140  11.409 -0.2430  0.0998 -0.9666
   25TMC2    C6  385   0.438   1.250  11.380  0.0094 -1.0849 -0.9693
   25TMC2     C  386   0.595   1.006  11.073 -0.2171  0.2171  0.4059
   25TMC2     O  387   0.588   1.052  10.959 -0.2317  0.0085  0.7362
   25TMC2     H  388   0.460   1.217  11.043 -1.2188 -0.4683  0.6856
   25TMC2    H1  389   0.614   0.958  11.351  1.1057  0.5955  3.2384
   25TMC2    H2  390   0.389   1.315  11.452 -1.3363 -2.8271 -0.2833
   25TMC2    C7  391   0.536   1.124  11.550 -0.5998  0.0683 -0.6451
   25TMC2    C8  392   0.307   1.352  11.207  0.3920 -0.0087  0.2257
   25TMC2    O1  393   0.449   1.161  11.625 -0.2706  0.2353  0.3177
   25TMC2    O2  394   0.274   1.456  11.263  0.3723  0.4025  0.0739
   25TMC2    O5  395   0.228   1.303  11.117  0.5438 -0.0168 -0.0710
   25TMC2    H5  396   0.254   1.210  11.102  1.6023  0.8910 -3.7690
   26MPD2     C  397   0.851   0.623  10.857  0.2409  0.2247 -0.1303
   26MPD2    C1  398   0.797   0.582  10.973  0.6129 -0.4671  0.1281
   26MPD2    C2  399   0.730   0.673  11.060  0.4262  0.1841  0.2514
   26MPD2    C3  400   0.714   0.806  11.025 -1.2852 -0.4156 -0.7737
   26MPD2    C4  401   0.781   0.849  10.907 -0.0985  0.5134 -0.0537
   26MPD2    C5  402   0.843   0.753  10.829 -0.1991  0.1249  0.7744
   26MPD2     H  403   0.672   0.634  11.143 -0.2130  0.0120 -0.2792
   26MPD2    H1  404   0.775   0.949  10.867  1.9691  1.2598  1.5289
   26MPD2    H2  405   0.900   0.559  10.784 -3.4421 -3.1518  0.3579
   26MPD2    H3  406   0.891   0.788  10.738  0.7979 -1.1393  0.8097
   26MPD2     N  407   0.643   0.885  11.112  0.0761  0.0724  0.1955
   26MPD2    H5  408   0.634   0.853  11.208  0.1919  2.7538  1.1125
   26MPD2    N1  409   0.808   0.445  11.000 -0.3445 -0.1125  0.2235
   26MPD2    H7  410   0.838   0.382  10.926 -1.1930 -0.8046  0.4704
   27TMC2    C1  411   3.878   3.683  12.187 -0.0928 -0.4524 -0.5659
   27TMC2    C2  412   3.916   3.750  12.074  0.0834 -0.4330 -0.8364
   27TMC2    C3  413   4.031   3.715  12.006  0.3975 -0.5501 -0.0391
   27TMC2    C4  414   3.962   3.594  12.247  0.0112  0.5849 -0.7816
   27TMC2    C5  415   4.077   3.559  12.187  0.3889 -0.0220  0.4413
   27TMC2    C6  416   4.110   3.622  12.066  0.3542 -0.6836 -0.4639
   27TMC2     C  417   3.754   3.613  12.147  0.5283  0.5069  0.5641
   27TMC2     O  418   3.671   3.687  12.093  0.2610  0.5278 -0.5157
   27TMC2     H  419   3.857   3.833  12.037  1.6859  0.8065 -0.6095
   27TMC2    H1  420   3.943   3.551  12.345 -0.1088 -0.7031 -1.3658
   27TMC2    H2  421   4.204   3.606  12.014  0.8360  2.2020 -0.4821
   27TMC2    C7  422   4.090   3.416  12.205  0.4641 -0.7503  0.6172
   27TMC2    C8  423   4.094   3.829  11.954  0.0659  0.0442  0.7599
   27TMC2    O1  424   3.994   3.362  12.257  0.2614 -0.2484  0.0582
   27TMC2    O2  425   4.029   3.921  11.911 -0.0173  0.1067 -0.0911
   27TMC2    O5  426   4.205   3.852  12.035  0.0889 -0.2829 -0.3847
   27TMC2    H5  427   4.246   3.786  12.096 -1.6852 -1.5272 -0.5431
   28MPD2     C  428   3.429   3.223  12.183  0.2621  0.5085 -0.1396
   28MPD2    C1  429   3.557   3.171  12.212  0.7519  0.3586 -0.5034
   28MPD2    C2  430   3.663   3.263  12.198 -0.6544  0.4385 -0.9620
   28MPD2    C3  431   3.647   3.397  12.178  0.6691  0.4899  0.1318
   28MPD2    C4  432   3.517   3.445  12.176 -0.2898  0.0440  0.6412
   28MPD2    C5  433   3.418   3.358  12.172 -0.3984 -0.4204 -0.3054
   28MPD2     H  434   3.765   3.228  12.209 -0.2404  2.0594  0.2909
   28MPD2    H1  435   3.486   3.548  12.165  0.8362  0.3027 -0.1414
   28MPD2    H2  436   3.339   3.163  12.177  0.7113 -0.3420  1.5997
   28MPD2    H3  437   3.320   3.405  12.170 -1.6349 -2.9444  1.4171
   28MPD2     N  438   3.754   3.482  12.177 -0.2979  0.2330 -0.3113
   28MPD2    H5  439   3.846   3.447  12.202 -1.0241 -1.5307 -0.1112
   28MPD2    N1  440   3.559   3.050  12.283 -0.1998  0.4863  0.1972
   28MPD2    H7  441   3.465   3.022  12.309 -0.3461 -0.2047 -1.0333
   29MPD2     C  442   3.820   0.057  13.558  0.0611  1.0197 -0.0819
   29MPD2    C1  443   3.933   0.024  13.611 -0.0217 -0.2616  0.1721
   29MPD2    C2  444   3.987   0.106  13.711  0.4077 -0.3843 -0.3022
   29MPD2    C3  445   3.933   0.221  13.750  0.2591 -0.3079 -0.2737
   29MPD2    C4  446   3.809   0.255  13.693 -0.1929 -0.2656 -0.2450
   29MPD2    C5  447   3.757   0.174  13.591  0.8587  0.1234 -0.0879
   29MPD2     H  448   4.070   0.065  13.767 -0.3237 -2.5428 -0.7708
   29MPD2    H1  449   3.751   0.344  13.715 -1.1780 -0.8762 -0.3994
   29MPD2    H2  450   3.782   4.707  13.484  2.1423  1.3617 -1.4825
   29MPD2    H3  451   3.667   0.210  13.542 -0.4389 -2.5306  0.3198
   29MPD2     N  452   3.967   0.304  13.863  0.0281  0.4793 -0.0906
   29MPD2    H5  453   3.909   0.386  13.878 -2.6266 -1.3914 -0.0115
   29MPD2    N1  454   4.010   4.638  13.582  0.2930  0.2205  0.2879
   29MPD2    H7  455   4.090   4.622  13.643  1.8047 -2.2299 -2.3401
   30TCq2    C1  456   4.081   0.297  13.937  0.0576 -0.4632 -0.1910
   30TCq2    O2  457   4.180   0.233  13.919  0.3501 -0.0150 -0.2025
   30TCq2    C2  458   4.079   0.404  14.036 -0.3623  0.0919  0.3260
   30TCq2    C3  459   3.965   0.426  14.097 -0.4190  0.1197 -0.0776
   30TCq2    C4  460   3.950   0.541  14.169 -0.2120  0.4113 -0.3160
   30TCq2    C5  461   4.049   0.641  14.158  0.3397 -0.1525 -1.5425
   30TCq2    C6  462   4.157   0.609  14.078  0.2568 -0.0473  0.1247
   30TCq2    C7  463   4.180   0.489  14.022  0.2897  0.9532  0.1709
   30TCq2    C8  464   4.237   0.719  14.026 -0.6848  0.6870  0.2581
   30TCq2    O4  465   4.275   0.719  13.907 -0.0854 -0.2046  0.1929
   30TCq2    C9  466   3.821   0.559  14.238  0.0702 -0.6321  0.2525
   30TCq2    O5  467   3.792   0.669  14.292 -0.1194  0.5703 -0.4696
   30TCq2    O6  468   3.760   0.452  14.267  0.0596  0.5810 -0.4843
   30TCq2    H2  469   3.883   0.355  14.097  0.2660 -0.6653 -0.5237
   30TCq2    H3  470   4.038   0.741  14.198 -3.1457 -0.8094 -0.8752
   30TCq2    H4  471   4.272   0.466  13.969 -0.0038  1.3063 -0.4943
   31MPD2     C  472   1.728   3.922  14.693  0.6223  0.0709 -0.4764
   31MPD2    C1  473   1.611   3.976  14.656  0.5258  0.5096  0.6641
   31MPD2    C2  474   1.496   3.930  14.712  0.0864 -0.2079 -0.0745
   31MPD2    C3  475   1.503   3.811  14.790  0.0742 -0.4694  0.0843
   31MPD2    C4  476   1.628   3.760  14.830  0.0081  0.5937 -0.0327
   31MPD2    C5  477   1.745   3.811  14.778  0.4896 -0.3437  0.0916
   31MPD2     H  478   1.402   3.972  14.680 -0.3796 -1.3071 -0.1598
   31MPD2    H1  479   1.637   3.676  14.898  0.5809 -0.4204 -1.3735
   31MPD2    H2  480   1.812   3.967  14.643  0.3581  2.7320  1.4453
   31MPD2    H3  481   1.840   3.768  14.808 -0.2681 -2.0037  0.1204
   31MPD2     N  482   1.387   3.745  14.842  0.8640  0.0628 -0.4175
   31MPD2    H5  483   1.407   3.665  14.900 -1.7594 -0.5894 -0.3954
   31MPD2    N1  484   1.627   4.067  14.547  0.3947  0.4172  0.5388
   31MPD2    H7  485   1.720   4.108  14.536  0.1615  1.0577  0.9359
   32TCq2    C1  486   1.259   3.780  14.820  0.4553 -0.2582  0.4168
   32TCq2    O2  487   1.216   3.867  14.741  0.3753 -0.1626 -0.0959
   32TCq2    C2  488   1.167   3.696  14.889  0.6439 -0.4212 -0.6423
   32TCq2    C3  489   1.041   3.674  14.834  0.3086 -0.2328  0.3025
   32TCq2    C4  490   0.952   3.590  14.895  0.0236  0.1507 -0.1225
   32TCq2    C5  491   0.986   3.526  15.014  0.6711 -0.9921  1.0868
   32TCq2    C6  492   1.109   3.552  15.066 -0.0984  0.2461 -0.1260
   32TCq2    C7  493   1.201   3.632  15.005  0.2750 -0.2833 -0.0375
   32TCq2    C8  494   1.139   3.505  15.202  0.2669  0.3394  0.5325
   32TCq2    O4  495   1.258   3.513  15.219  0.2141  0.3332 -0.3105
   32TCq2    C9  496   0.808   3.586  14.859 -0.6374 -0.3205  0.1551
   32TCq2    O5  497   0.723   3.554  14.948 -0.1410  0.1122  0.1669
   32TCq2    O6  498   0.776   3.651  14.756  0.5190 -0.0147 -0.6799
   32TCq2    H2  499   1.002   3.730  14.750  1.0997  0.7129  0.5707
   32TCq2    H3  500   0.910   3.460  15.055 -1.0021  0.8471  0.9821
   32TCq2    H4  501   1.291   3.666  15.056  1.5425 -2.1463 -1.0227
   33MPD2     C  502   1.598   1.142   9.856 -0.5046 -0.5126  0.6550
   33MPD2    C1  503   1.723   1.196   9.881  1.2781 -0.1880  0.2266
   33MPD2    C2  504   1.821   1.172   9.783  0.1389  0.3815 -0.0923
   33MPD2    C3  505   1.783   1.120   9.660  0.2690  0.8931  0.8958
   33MPD2    C4  506   1.660   1.067   9.646  0.0051 -0.2743 -0.0973
   33MPD2    C5  507   1.567   1.073   9.747 -0.5765  0.0279  0.0322
   33MPD2     H  508   1.923   1.201   9.804  0.0419  0.8547 -0.2743
   33MPD2    H1  509   1.624   0.994   9.575 -1.4540 -1.6384  2.0191
   33MPD2    H2  510   1.530   1.148   9.940  1.7307 -0.3157  2.4589
   33MPD2    H3  511   1.482   1.007   9.737 -0.1155 -1.1161  3.7145
   33MPD2     N  512   1.880   1.101   9.557 -0.1372  0.4377 -0.1937
   33MPD2    H5  513   1.851   1.051   9.474 -2.9961  0.8053  0.6086
   33MPD2    N1  514   1.743   1.265  10.003  0.2137  0.2661  0.0264
   33MPD2    H7  515   1.670   1.247  10.072  0.7673 -3.0892 -0.2639
   34TCq2    C1  516   1.989   1.175   9.533 -0.5638  0.0412  0.5104
   34TCq2    O2  517   2.014   1.280   9.592  0.0405 -0.2455 -0.0338
   34TCq2    C2  518   2.064   1.143   9.410  0.5310 -0.0152  0.6299
   34TCq2    C3  519   2.037   1.026   9.342  0.5942 -0.6823  0.1581
   34TCq2    C4  520   2.097   1.003   9.220  0.1511 -0.9133  0.2509
   34TCq2    C5  521   2.180   1.101   9.173 -0.2884 -0.2579  0.6653
   34TCq2    C6  522   2.190   1.221   9.237 -0.1890 -0.1176  0.1356
   34TCq2    C7  523   2.140   1.239   9.362 -0.5830 -0.2172 -0.2565
   34TCq2    C8  524   2.239   1.351   9.180 -0.4526  0.3656  0.9136
   34TCq2    O4  525   2.253   1.448   9.250 -0.5971 -0.4383  0.3574
   34TCq2    C9  526   2.067   0.876   9.152 -0.6711 -0.0894 -0.3345
   34TCq2    O5  527   2.060   0.772   9.221  0.4444 -0.1339 -0.1462
   34TCq2    O6  528   2.059   0.882   9.023 -0.6259  0.1202  0.4298
   34TCq2    H2  529   1.988   0.938   9.383  0.0137 -1.8524 -3.0867
   34TCq2    H3  530   2.235   1.092   9.081  0.5698 -1.5572  1.3082
   34TCq2    H4  531   2.148   1.330   9.420 -1.0894 -1.2859  1.4797
   35MPD2     C  532   3.433   3.564  11.822 -0.5905 -0.2601  0.0922
   35MPD2    C1  533   3.449   3.444  11.759  0.6746 -0.3070 -0.5410
   35MPD2    C2  534   3.490   3.427  11.626 -0.1182 -0.3733  0.0685
   35MPD2    C3  535   3.493   3.542  11.546  0.1068  0.4856 -0.4747
   35MPD2    C4  536   3.490   3.663  11.611 -0.7222 -0.0015 -0.1405
   35MPD2    C5  537   3.463   3.670  11.748  0.1268  0.5924 -0.4648
   35MPD2     H  538   3.495   3.327  11.584 -1.1416 -0.1738 -0.5352
   35MPD2    H1  539   3.492   3.752  11.550  0.2068 -0.1514 -0.3283
   35MPD2    H2  540   3.393   3.574  11.922 -0.9479 -2.2807  0.1557
   35MPD2    H3  541   3.460   3.761  11.807  0.8296  1.2058 -1.3783
   35MPD2     N  542   3.485   3.519  11.405  0.1022  0.6673 -0.8231
   35MPD2    H5  543   3.471   3.424  11.372 -1.5311  1.4401 -2.4064
   35MPD2    N1  544   3.420   3.331  11.836  0.2222 -0.1662 -0.5524
   35MPD2    H7  545   3.363   3.350  11.918 -0.6216  0.7889 -1.3557
   36TCq2    C1  546   3.468   3.614  11.310 -0.0950 -0.0769  0.3710
   36TCq2    O2  547   3.484   3.735  11.319 -0.4571  0.7469 -0.0120
   36TCq2    C2  548   3.429   3.564  11.182 -0.2159 -0.0360  0.2477
   36TCq2    C3  549   3.403   3.653  11.082  0.3096 -0.1810  0.0191
   36TCq2    C4  550   3.344   3.606  10.968  0.5073 -0.1581  0.3004
   36TCq2    C5  551   3.324   3.473  10.937 -0.0500  1.2373  0.0505
   36TCq2    C6  552   3.356   3.382  11.041 -0.2553  0.1662 -0.8383
   36TCq2    C7  553   3.410   3.432  11.162 -0.0746  0.7232  0.0415
   36TCq2    C8  554   3.328   3.242  11.037 -0.3125 -0.1444  0.0523
   36TCq2    O4  555   3.361   3.181  11.135  0.4049  0.6341 -0.3250
   36TCq2    C9  556   3.300   3.703  10.871  0.0200  0.2216 -0.0690
   36TCq2    O5  557   3.343   3.823  10.878 -0.9636 -0.6392 -0.2431
   36TCq2    O6  558   3.263   3.658  10.761  0.1458  0.3005  0.3103
   36TCq2    H2  559   3.435   3.755  11.095 -0.2944 -0.1346  1.1397
   36TCq2    H3  560   3.288   3.448  10.838 -0.8772  0.3787  0.5667
   36TCq2    H4  561   3.454   3.362  11.232 -2.1683  0.4133  1.0334
   37TMC2    C1  562   0.718   2.607  11.807 -0.1019  0.0941 -0.7152
   37TMC2    C2  563   0.671   2.550  11.693  0.0669  0.3833 -0.3000
   37TMC2    C3  564   0.707   2.616  11.578  0.2991  0.2392 -0.3597
   37TMC2    C4  565   0.815   2.703  11.810 -0.2670  0.2026 -0.0397
   37TMC2    C5  566   0.851   2.759  11.690 -0.6215  0.3715  0.0873
   37TMC2    C6  567   0.796   2.715  11.572 -0.2817  0.5345  0.6121
   37TMC2     C  568   0.658   2.560  11.930  0.4434  0.4084  0.1342
   37TMC2     O  569   0.535   2.552  11.929 -0.2594  0.4281  0.2154
   37TMC2     H  570   0.614   2.458  11.697 -1.2090  1.1579 -0.6686
   37TMC2    H1  571   0.836   2.753  11.903  1.8842 -0.8101  0.0070
   37TMC2    H2  572   0.816   2.761  11.477 -0.0563 -0.8366 -0.0076
   37TMC2    C7  573   0.972   2.842  11.691 -0.2975 -0.0008 -0.1202
   37TMC2    C8  574   0.628   2.576  11.467 -0.2151 -0.1670 -0.1608
   37TMC2    O1  575   1.005   2.879  11.801  0.1929  0.0791  0.1541
   37TMC2    O2  576   0.574   2.470  11.465 -0.5779  0.1605  0.0443
   37TMC2    O5  577   0.566   2.690  11.429 -0.8069  0.1545  0.2045
   37TMC2    H5  578   0.617   2.771  11.451 -0.9832  0.4653 -0.5550
   38MPD2     C  579   0.635   2.530  12.442 -0.0271  0.1337  0.1685
   38MPD2    C1  580   0.758   2.580  12.405  0.7232  0.0985  0.2168
   38MPD2    C2  581   0.794   2.578  12.275  1.4450 -0.3486 -0.2554
   38MPD2    C3  582   0.699   2.544  12.177 -0.3982  0.6588  0.5132
   38MPD2    C4  583   0.577   2.499  12.213  0.0204 -0.2783  0.8464
   38MPD2    C5  584   0.541   2.497  12.348 -0.1403  0.5807 -0.3187
   38MPD2     H  585   0.896   2.612  12.261  0.7700  1.0858 -1.6638
   38MPD2    H1  586   0.503   2.464  12.141  0.1035 -0.5332  0.8837
   38MPD2    H2  587   0.600   2.542  12.544 -2.0096  0.0677 -0.4939
   38MPD2    H3  588   0.438   2.478  12.376  0.3164 -0.0998  0.8847
   38MPD2     N  589   0.746   2.553  12.038 -0.2101  0.5993  0.3168
   38MPD2    H5  590   0.844   2.574  12.025 -0.1732 -0.0816 -0.4952
   38MPD2    N1  591   0.849   2.636  12.494  0.0098 -0.2261 -0.1809
   38MPD2    H7  592   0.930   2.676  12.448 -0.8765 -1.7333 -3.0338
   39MPD2     C  593   4.117   0.460   1.710  0.9182  0.2117  0.1852
   39MPD2    C1  594   4.021   0.419   1.796  0.7063  0.2090 -0.2051
   39MPD2    C2  595   3.886   0.414   1.754 -0.6034 -0.4276  0.4357
   39MPD2    C3  596   3.857   0.475   1.636 -0.4733  0.1501  0.2700
   39MPD2    C4  597   3.953   0.526   1.551  0.0557  1.4295 -0.0045
   39MPD2    C5  598   4.085   0.518   1.589  0.0336 -0.0490  0.6793
   39MPD2     H  599   3.814   0.354   1.808 -0.3503 -1.5981 -0.5246
   39MPD2    H1  600   3.918   0.595   1.475  1.0744  1.6776 -0.2510
   39MPD2    H2  601   4.223   0.451   1.730  0.7488 -3.6947 -0.7137
   39MPD2    H3  602   4.169   0.556   1.532 -0.0328 -2.1246 -0.7868
   39MPD2     N  603   3.726   0.479   1.584 -0.1417 -0.0903 -0.8904
   39MPD2    H5  604   3.715   0.526   1.494 -0.0209  0.0612 -0.8263
   39MPD2    N1  605   4.077   0.365   1.919 -0.2080 -0.4545 -0.3533
   39MPD2    H7  606   4.174   0.375   1.947 -0.3134  1.2189 -0.6353
   40TCq2    C1  607   3.997   0.312   2.012 -0.3436  1.2329  0.4609
   40TCq2    O2  608   3.877   0.287   2.009 -0.0444  0.2476 -0.8073
   40TCq2    C2  609   4.066   0.307   2.143 -0.3727 -0.0213  0.1205
   40TCq2    C3  610   3.986   0.316   2.254  0.2775 -0.3447 -0.8136
   40TCq2    C4  611   4.040   0.312   2.384  0.6832  0.0423 -0.2744
   40TCq2    C5  612   4.181   0.322   2.387  0.0578 -0.0051  0.0576
   40TCq2    C6  613   4.263   0.327   2.276  0.0249 -0.8812 -0.2286
   40TCq2    C7  614   4.207   0.315   2.150 -0.0682  0.6441  1.0440
   40TCq2    C8  615   4.409   0.310   2.282 -0.4505 -0.2048  0.5377
   40TCq2    O4  616   4.480   0.317   2.178 -0.1799 -0.4183  0.2586
   40TCq2    C9  617   3.961   0.309   2.504 -0.2432  0.0416  0.3926
   40TCq2    O5  618   4.021   0.321   2.612 -0.9915 -0.1813  0.2647
   40TCq2    O6  619   3.837   0.300   2.488  0.0730  0.0803  0.0341
   40TCq2    H2  620   3.878   0.312   2.242  0.2055 -1.9594  0.3298
   40TCq2    H3  621   4.223   0.326   2.487 -0.3707 -3.0131  0.3372
   40TCq2    H4  622   4.273   0.296   2.066 -1.8443  1.5928 -0.5689
   41TMC2    C1  623   2.659   3.160  13.721  1.0007 -0.2153 -0.4755
   41TMC2    C2  624   2.580   3.239  13.805  0.0966 -0.4952 -0.6392
   41TMC2    C3  625   2.501   3.334  13.749  0.5055  0.1951 -0.4573
   41TMC2    C4  626   2.644   3.170  13.579  0.2019 -0.2310  0.6498
   41TMC2    C5  627   2.554   3.264  13.529 -0.4351  1.0423  0.2619
   41TMC2    C6  628   2.484   3.345  13.613 -0.9208 -0.1579  0.1367
   41TMC2     C  629   2.764   3.084  13.783 -0.2962 -0.2597  0.6918
   41TMC2     O  630   2.863   3.065  13.714 -0.9729 -0.2608  0.0749
   41TMC2     H  631   2.590   3.252  13.912 -1.9221 -2.2113 -0.2314
   41TMC2    H1  632   2.708   3.117  13.509  2.9231  1.6237  1.7158
   41TMC2    H2  633   2.430   3.432  13.577 -0.5340  0.4869  1.1212
   41TMC2    C7  634   2.603   3.335  13.408  0.1783  0.2077  0.6280
   41TMC2    C8  635   2.434   3.425  13.847  0.7939  0.1602  0.3065
   41TMC2    O1  636   2.579   3.453  13.411  0.5138 -0.0505  0.2687
   41TMC2    O2  637   2.467   3.439  13.963 -0.1033  0.0241 -0.5637
   41TMC2    O5  638   2.323   3.475  13.789 -0.7895  0.0292 -1.0462
   41TMC2    H5  639   2.315   3.466  13.692 -1.1399 -0.8480 -0.9327
   42MPD2     C  640   2.946   2.935  13.982 -1.0012  0.8700 -0.0510
   42MPD2    C1  641   2.819   2.977  14.009 -0.3069  0.2034 -0.1992
   42MPD2    C2  642   2.770   2.950  14.138  0.0877 -0.5482 -0.1349
   42MPD2    C3  643   2.856   2.884  14.231  0.6618 -0.2000  0.0620
   42MPD2    C4  644   2.980   2.842  14.190 -0.0268 -0.4567 -1.0833
   42MPD2    C5  645   3.023   2.869  14.067  0.1744  0.3051 -0.7346
   42MPD2     H  646   2.668   2.972  14.167 -1.6591 -4.6670 -3.0801
   42MPD2    H1  647   3.042   2.785  14.258 -0.7090 -2.5676 -2.2548
   42MPD2    H2  648   2.986   2.951  13.883 -0.6277 -2.0771 -0.3941
   42MPD2    H3  649   3.127   2.845  14.046  0.6775  2.0505 -0.1963
   42MPD2     N  650   2.823   2.851  14.367 -0.2287 -0.3861 -0.2434
   42MPD2    H5  651   2.895   2.818  14.431 -0.6943 -0.1789  0.3942
   42MPD2    N1  652   2.733   3.043  13.910  0.2615  0.7449 -0.2106
   42MPD2    H7  653   2.636   3.053  13.937 -0.1311 -2.3383 -0.5046
   43MPD2     C  654   0.275   1.799   1.041 -0.3180  0.5654  0.5357
   43MPD2    C1  655   0.188   1.710   1.101  0.2080 -0.5928  0.9673
   43MPD2    C2  656   0.107   1.750   1.209  0.9269 -0.2274  0.0327
   43MPD2    C3  657   0.125   1.875   1.262 -0.3416 -0.9082 -0.6080
   43MPD2    C4  658   0.226   1.955   1.209 -0.0917 -0.6165  0.4013
   43MPD2    C5  659   0.292   1.921   1.096  0.0669 -1.0413 -0.5073
   43MPD2     H  660   0.043   1.678   1.260 -0.3675 -0.5157 -1.9928
   43MPD2    H1  661   0.254   2.051   1.251 -2.7088  1.1790 -1.9608
   43MPD2    H2  662   0.324   1.776   0.948  0.8890 -0.4036  1.4104
   43MPD2    H3  663   0.370   1.982   1.051 -1.9720  1.1726 -1.0784
   43MPD2     N  664   0.041   1.934   1.363 -0.6296 -0.3798 -0.0868
   43MPD2    H5  665   0.056   2.032   1.385  1.9023 -0.8377  0.2350
   43MPD2    N1  666   0.170   1.575   1.059  0.2320 -0.3335  0.2974
   43MPD2    H7  667   0.102   1.520   1.109  0.0039 -0.1793  0.1541
   44TCq2    C1  668   4.475   1.842   1.871 -0.7112  0.2326 -0.0522
   44TCq2    O2  669   4.580   1.864   1.931  0.3737  0.3519  0.3559
   44TCq2    C2  670   4.472   1.861   1.726  0.2855 -0.1976  0.1480
   44TCq2    C3  671   4.370   1.934   1.681  0.1677  0.6457 -0.6175
   44TCq2    C4  672   4.382   1.989   1.554 -0.8516  0.7294  0.4963
   44TCq2    C5  673   4.503   1.972   1.488 -0.4831 -0.8221 -0.3293
   44TCq2    C6  674   4.614   1.924   1.548 -0.1754 -0.0288 -0.5009
   44TCq2    C7  675   4.598   1.854   1.664  0.2681  0.6104  1.0693
   44TCq2    C8  676   4.686   1.854   1.451  0.7199  0.5740  0.0079
   44TCq2    O4  677   4.690   1.737   1.487  0.0001 -0.4351  0.4803
   44TCq2    C9  678   4.268   2.055   1.499 -0.3709  0.4615  0.3099
   44TCq2    O5  679   4.275   2.084   1.375  0.2581  0.4775  0.4950
   44TCq2    O6  680   4.180   2.090   1.577 -0.4629 -0.1631 -0.0905
   44TCq2    H2  681   4.282   1.947   1.743  0.2854 -2.3524  0.1842
   44TCq2    H3  682   4.504   2.023   1.392  0.7575  0.3318  0.2892
   44TCq2    H4  683   4.681   1.799   1.707  0.7999  1.1375  0.7051
   45TMC2    C1  684   4.697   3.915   9.254 -0.3041 -0.7259 -0.8341
   45TMC2    C2  685   4.595   3.990   9.229  0.0517  0.0732  0.5520
   45TMC2    C3  686   4.604   4.122   9.264 -0.4085 -0.3648  0.2432
   45TMC2    C4  687   0.099   3.964   9.296  0.1498 -0.7855  0.1796
   45TMC2    C5  688   0.107   4.093   9.334 -0.2008  0.4437 -0.2030
   45TMC2    C6  689   0.001   4.173   9.317 -0.1650  0.1910  0.8732
   45TMC2     C  690   4.700   3.774   9.210  0.7055  0.1645  0.5212
   45TMC2     O  691   0.076   3.704   9.257  0.1158  0.4634 -0.1082
   45TMC2     H  692   4.518   3.960   9.159  2.3747 -2.9777 -0.7016
   45TMC2    H1  693   0.179   3.897   9.323  0.2855 -0.0729  1.5374
   45TMC2    H2  694   4.712   4.272   9.359 -2.6069 -0.1143  1.0864
   45TMC2    C7  695   0.216   4.121   9.431  0.1361 -0.0409 -0.1332
   45TMC2    C8  696   4.490   4.177   9.321  0.5747 -0.1606 -0.4288
   45TMC2    O1  697   0.290   4.032   9.474  0.2245 -0.7945 -1.0994
   45TMC2    O2  698   4.493   4.272   9.398  0.1712  0.5564 -0.2982
   45TMC2    O5  699   4.377   4.109   9.292  0.1363 -0.5469 -0.2589
   45TMC2    H5  700   4.388   4.041   9.222  3.3959 -0.4144  0.0935
   46MPD2     C  701   4.663   3.499   9.083  0.5140  0.2333  0.9772
   46MPD2    C1  702   4.567   3.597   9.097 -0.6031 -0.1318 -0.8648
   46MPD2    C2  703   4.435   3.561   9.067 -0.6174  0.1409  0.2294
   46MPD2    C3  704   4.395   3.436   9.060  0.1741 -0.0277 -0.5079
   46MPD2    C4  705   4.486   3.340   9.049 -0.3657 -0.0889 -0.5000
   46MPD2    C5  706   4.623   3.369   9.056  0.0018 -0.1348  0.2330
   46MPD2     H  707   4.357   3.636   9.076 -1.2111 -0.8446  3.1758
   46MPD2    H1  708   4.456   3.238   9.028 -0.0823 -0.1962 -0.3809
   46MPD2    H2  709   0.046   3.516   9.114  1.1244 -1.5795 -0.0460
   46MPD2    H3  710   4.699   3.293   9.041  0.7639  0.4757  0.9773
   46MPD2     N  711   4.258   3.415   9.072 -0.6018 -0.1513  0.1207
   46MPD2    H5  712   4.198   3.496   9.071  0.8054  0.8618 -2.2959
   46MPD2    N1  713   4.595   3.730   9.136  0.0971 -0.2017 -0.3772
   46MPD2    H7  714   4.526   3.801   9.117  0.4338  0.3819  0.5775
   47TMC2    C1  715   1.300   3.688   9.015  0.0664  0.4331 -0.0600
   47TMC2    C2  716   1.293   3.565   8.958 -0.1385 -0.4381  0.2198
   47TMC2    C3  717   1.167   3.532   8.919 -0.0554  0.0912 -0.1079
   47TMC2    C4  718   1.199   3.782   9.026 -0.6437  0.1500 -0.5933
   47TMC2    C5  719   1.074   3.742   8.984 -0.4806  0.4249 -0.2287
   47TMC2    C6  720   1.058   3.619   8.925  0.2615  0.1945  0.0083
   47TMC2     C  721   1.428   3.735   9.068 -0.2795  0.5062  0.6613
   47TMC2     O  722   1.444   3.850   9.103 -0.3470 -0.0970  0.1596
   47TMC2     H  723   1.376   3.498   8.937 -0.1173 -0.6591  0.9766
   47TMC2    H1  724   1.211   3.880   9.070  2.7000 -0.0896 -0.9965
   47TMC2    H2  725   0.960   3.585   8.895  1.5540 -3.7344  0.2615
   47TMC2    C7  726   0.968   3.837   8.953 -0.8472 -0.3579  0.2326
   47TMC2    C8  727   1.148   3.415   8.839  0.6091  0.1105  0.8297
   47TMC2    O1  728   0.886   3.798   8.870 -0.6400  0.6669 -0.0809
   47TMC2    O2  729   1.068   3.410   8.744 -0.3127 -0.0795  0.4461
   47TMC2    O5  730   1.224   3.314   8.885 -0.7911  0.3412  0.1511
   47TMC2    H5  731   1.240   3.330   8.980  3.4232  1.2740 -0.7473
   48MPD2     C  732   1.684   3.753   9.218  0.6897 -0.9203  0.3432
   48MPD2    C1  733   1.641   3.638   9.143 -0.3310  0.4024 -0.9502
   48MPD2    C2  734   1.727   3.535   9.107 -0.0037 -0.4185  0.0015
   48MPD2    C3  735   1.858   3.548   9.129 -1.0251  1.0558  0.8497
   48MPD2    C4  736   1.905   3.659   9.205 -0.4814 -0.2004 -0.6708
   48MPD2    C5  737   1.817   3.759   9.244  0.0354 -0.5856 -0.4621
   48MPD2     H  738   1.684   3.456   9.046 -2.3289  0.9113 -0.0928
   48MPD2    H1  739   2.007   3.674   9.238 -1.1735  0.2123  1.3113
   48MPD2    H2  740   1.618   3.834   9.248 -0.3205 -1.8756  0.6949
   48MPD2    H3  741   1.858   3.848   9.291 -4.7489  0.1059  2.3475
   48MPD2     N  742   1.956   3.444   9.090  0.2490  0.0894 -0.2313
   48MPD2    H5  743   2.053   3.451   9.118 -0.9949  1.4724  3.7914
   48MPD2    N1  744   1.515   3.631   9.091 -0.1412 -0.5522 -0.3204
   48MPD2    H7  745   1.488   3.538   9.063  1.2624 -1.6726  2.0433
   49MPD2     C  746   0.613   1.071  10.045  0.5066 -0.7580 -0.5516
   49MPD2    C1  747   0.632   1.197  10.093 -0.6965 -0.2261 -0.6609
   49MPD2    C2  748   0.702   1.205  10.216 -0.2089 -0.3623  0.5358
   49MPD2    C3  749   0.735   1.102  10.293  0.2639  0.0588  0.3365
   49MPD2    C4  750   0.711   0.977  10.236 -0.7481 -0.4323 -0.5449
   49MPD2    C5  751   0.655   0.961  10.120 -0.2447  0.5784  0.0170
   49MPD2     H  752   0.730   1.306  10.244 -1.1302  0.3256 -1.0658
   49MPD2    H1  753   0.739   0.888  10.290 -2.1528 -0.2235  0.5241
   49MPD2    H2  754   0.562   1.045   9.953  0.1172  0.0377 -0.5624
   49MPD2    H3  755   0.637   0.863  10.077 -0.1583  0.2955  0.6212
   49MPD2     N  756   0.806   1.110  10.417 -0.7833 -0.5499 -0.4237
   49MPD2    H5  757   0.807   1.030  10.479 -1.9350 -0.4828 -0.3151
   49MPD2    N1  758   0.604   1.318  10.027  0.0915  0.3413  0.1837
   49MPD2    H7  759   0.616   1.404  10.080  3.2854 -0.0424  0.0564
   50TCq2    C1  760   0.562   1.337   9.894 -0.2031  0.2407  0.1728
   50TCq2    O2  761   0.564   1.252   9.807  0.0516 -0.1008  0.4394
   50TCq2    C2  762   0.514   1.473   9.870 -0.4526 -0.9651  0.1693
   50TCq2    C3  763   0.499   1.569   9.971  0.0255  0.1971  0.2427
   50TCq2    C4  764   0.447   1.689   9.935  0.5347 -0.2279 -0.4693
   50TCq2    C5  765   0.395   1.710   9.806  0.6257  0.1115  0.0905
   50TCq2    C6  766   0.413   1.608   9.711  0.2534  0.4570  0.3520
   50TCq2    C7  767   0.474   1.486   9.743 -0.4057 -0.1531  0.2235
   50TCq2    C8  768   0.407   1.641   9.569 -0.1946 -0.0691  0.0890
   50TCq2    O4  769   0.478   1.576   9.490 -0.8735 -0.3661 -0.8851
   50TCq2    C9  770   0.446   1.803  10.025  0.4054 -0.6884  0.4069
   50TCq2    O5  771   0.411   1.918   9.984 -0.4691 -0.2651 -0.0383
   50TCq2    O6  772   0.485   1.784  10.140 -0.1944  0.5783  0.1972
   50TCq2    H2  773   0.529   1.551  10.074  1.2924 -1.4129 -0.4163
   50TCq2    H3  774   0.349   1.805   9.782 -0.0081  0.2603  1.9482
   50TCq2    H4  775   0.472   1.409   9.666 -1.1124  1.0083 -0.9154
   51MPD2     C  776   0.943   4.276   1.673 -0.1278  0.5178  0.5012
   51MPD2    C1  777   0.944   4.134   1.673  0.2704  1.0585  0.5307
   51MPD2    C2  778   0.993   4.080   1.787 -0.6570  0.6117 -0.1847
   51MPD2    C3  779   1.037   4.150   1.899  0.1212 -0.5634  0.8602
   51MPD2    C4  780   1.040   4.285   1.886  0.0722  0.4253 -0.3869
   51MPD2    C5  781   0.985   4.348   1.778  0.5423  0.3196  0.5717
   51MPD2     H  782   0.977   3.974   1.802  2.6539  0.1166 -0.3094
   51MPD2    H1  783   1.076   4.349   1.965 -0.5933 -0.5548  0.6998
   51MPD2    H2  784   0.921   4.322   1.577 -2.4749 -0.0919  0.7473
   51MPD2    H3  785   0.994   4.455   1.769  0.8489 -0.1121 -4.3880
   51MPD2     N  786   1.060   4.092   2.030  0.3345 -0.1687 -0.1106
   51MPD2    H5  787   1.103   4.154   2.098  1.2082  0.6422 -1.4003
   51MPD2    N1  788   0.915   4.050   1.560 -0.5408  0.6214  0.3003
   51MPD2    H7  789   0.894   3.954   1.583  0.6904  0.5870  1.3259
   52TCq2    C1  790   1.059   3.961   2.064 -0.1083 -0.3129  0.0996
   52TCq2    O2  791   1.013   3.866   2.000  0.0302 -0.0885 -0.1262
   52TCq2    C2  792   1.120   3.938   2.195  0.2585 -0.1421  0.0838
   52TCq2    C3  793   1.116   3.808   2.241  0.0200  0.2051  0.1472
   52TCq2    C4  794   1.156   3.779   2.363  0.1423  0.2674 -0.2397
   52TCq2    C5  795   1.211   3.878   2.442  0.3067 -0.9440 -0.1825
   52TCq2    C6  796   1.207   4.006   2.400  0.3629  0.2305  0.8631
   52TCq2    C7  797   1.169   4.038   2.271 -0.2504 -0.3324 -0.0293
   52TCq2    C8  798   1.265   4.109   2.492  0.1182 -0.0321  0.3516
   52TCq2    O4  799   1.308   4.214   2.442 -0.1199  0.0476 -0.2096
   52TCq2    C9  800   1.169   3.645   2.406  0.3280 -0.4943  0.3241
   52TCq2    O5  801   1.140   3.552   2.326  0.1393 -0.2489  0.5932
   52TCq2    O6  802   1.210   3.627   2.521  0.1708 -0.0763  0.5098
   52TCq2    H2  803   1.056   3.737   2.185 -2.1829  1.8677  0.3824
   52TCq2    H3  804   1.252   3.847   2.537 -0.8169 -0.9945  0.2828
   52TCq2    H4  805   1.175   4.140   2.235  0.0769 -0.5183 -0.5116
   53TMC2    C1  806   1.556   3.241  11.823  0.0516  0.2528 -0.4795
   53TMC2    C2  807   1.603   3.360  11.864 -0.4527 -0.0598  0.5164
   53TMC2    C3  808   1.621   3.375  11.997  0.2221 -0.0557 -0.4546
   53TMC2    C4  809   1.503   3.152  11.914 -0.5799  0.5252 -0.3551
   53TMC2    C5  810   1.510   3.175  12.042  0.7685 -0.3553  0.1122
   53TMC2    C6  811   1.572   3.290  12.089 -0.8471  0.3957  0.3835
   53TMC2     C  812   1.493   3.243  11.694 -0.6655 -0.5416 -0.1800
   53TMC2     O  813   1.566   3.281  11.604 -0.0502 -0.2113 -0.0870
   53TMC2     H  814   1.643   3.427  11.790 -2.2532  1.2609  0.7605
   53TMC2    H1  815   1.471   3.052  11.886 -0.2569  0.5546 -0.8181
   53TMC2    H2  816   1.591   3.306  12.195  4.0092  0.9869 -0.5914
   53TMC2    C7  817   1.381   3.143  12.101 -0.1452 -0.6127 -0.3108
   53TMC2    C8  818   1.709   3.477  12.050  0.3327  0.1953  0.2617
   53TMC2    O1  819   1.295   3.093  12.030 -0.0599  0.0447  0.2052
   53TMC2    O2  820   1.695   3.527  12.160 -0.0454 -0.2810  0.3141
   53TMC2    O5  821   1.792   3.528  11.961  0.0066 -0.1102  0.3083
   53TMC2    H5  822   1.805   3.483  11.875  0.4156  1.6854 -0.5741
   54MPD2     C  823   1.343   3.108  11.473 -0.0828  0.1971  0.3695
   54MPD2    C1  824   1.297   3.116  11.604 -0.2512 -0.2897 -0.3721
   54MPD2    C2  825   1.187   3.036  11.640 -0.1324  0.0470 -0.1449
   54MPD2    C3  826   1.133   2.954  11.541 -0.1307  0.7278  1.0998
   54MPD2    C4  827   1.174   2.956  11.412  0.5814  0.1038 -0.0141
   54MPD2    C5  828   1.285   3.026  11.381 -0.0738 -0.0969 -0.4039
   54MPD2     H  829   1.159   3.036  11.745  0.8579 -1.1412  0.1232
   54MPD2    H1  830   1.143   2.892  11.330 -0.6334  0.1813  0.3839
   54MPD2    H2  831   1.431   3.165  11.444 -0.7751  0.8891 -0.4010
   54MPD2    H3  832   1.324   3.019  11.280  1.1438 -0.5801  0.0989
   54MPD2     N  833   1.036   2.864  11.571 -0.2634 -0.3813  0.1973
   54MPD2    H5  834   1.006   2.801  11.498  0.4851  1.7118 -1.9148
   54MPD2    N1  835   1.378   3.171  11.705 -0.4439  0.1594 -0.8024
   54MPD2    H7  836   1.347   3.169  11.802 -2.4203 -1.1709 -1.4578
   55MPD2     C  837   2.114   0.849   0.063 -0.4086 -0.0771  0.0463
   55MPD2    C1  838   2.041   0.746   0.120  0.5170 -0.1144  0.5186
   55MPD2    C2  839   1.918   0.777   0.171 -0.8489  0.0587  0.5755
   55MPD2    C3  840   1.873   0.906   0.172 -0.2552 -0.1397  0.0933
   55MPD2    C4  841   1.946   1.005   0.113 -0.1381 -0.3084  0.2998
   55MPD2    C5  842   2.064   0.972   0.060  0.4089 -0.0376 -0.1182
   55MPD2     H  843   1.851   0.696   0.197 -2.7711  1.5841  0.3164
   55MPD2    H1  844   1.914   1.109   0.109  1.4785  0.2622  2.3305
   55MPD2    H2  845   2.209   0.836   0.012 -0.9343 -0.3899 -0.8542
   55MPD2    H3  846   2.131   1.049   0.024  0.5715  0.5654  1.4706
   55MPD2     N  847   1.748   0.930   0.232  0.0853  0.3318 -0.4261
   55MPD2    H5  848   1.701   0.852   0.278 -1.7201  3.0374  2.3221
   55MPD2    N1  849   2.103   0.615   0.139 -0.4303  0.1433 -0.3271
   55MPD2    H7  850   2.203   0.616   0.122 -0.3351 -1.8873  0.0541
   56TCq2    C1  851   2.052   0.513   0.216  0.1834 -0.4694  0.1584
   56TCq2    O2  852   1.936   0.490   0.255 -0.1108  0.2089 -0.0038
   56TCq2    C2  853   2.153   0.418   0.255  0.7506  0.4092  0.5877
   56TCq2    C3  854   2.227   0.366   0.154 -0.5648  0.6548  0.0129
   56TCq2    C4  855   2.302   0.257   0.181 -0.5839  0.2217  0.8562
   56TCq2    C5  856   2.314   0.201   0.302  0.6259  0.7229 -0.0178
   56TCq2    C6  857   2.238   0.257   0.397  0.0133  0.1567  0.5122
   56TCq2    C7  858   2.149   0.358   0.378  0.6793 -0.2114  0.9792
   56TCq2    C8  859   2.232   0.168   0.513  0.0910 -0.1964  0.1838
   56TCq2    O4  860   2.306   0.074   0.517  0.0970  0.3189 -0.1326
   56TCq2    C9  861   2.378   0.206   0.062  0.3386 -0.9681 -0.0928
   56TCq2    O5  862   2.325   0.215  17.632  0.3779 -0.0030 -0.0678
   56TCq2    O6  863   2.484   0.147   0.092 -0.2096 -0.1826 -0.5639
   56TCq2    H2  864   2.222   0.415   0.057  1.0821 -0.1474 -0.4688
   56TCq2    H3  865   2.395   0.128   0.310 -0.4650 -0.4679  0.2654
   56TCq2    H4  866   2.094   0.408   0.456 -2.8428 -1.0587 -0.9814
   57TMC2    C1  867   0.896   1.889  13.059  0.2506 -0.1697 -0.3125
   57TMC2    C2  868   0.888   1.882  12.919 -0.0540  0.0913 -0.1658
   57TMC2    C3  869   1.005   1.863  12.851 -0.3701 -0.0796 -0.0010
   57TMC2    C4  870   1.013   1.863  13.122  0.6380 -0.3693  0.0918
   57TMC2    C5  871   1.125   1.829  13.048  0.8016  0.2630 -0.2913
   57TMC2    C6  872   1.126   1.824  12.908 -0.4519 -0.2678 -0.0638
   57TMC2     C  873   0.784   1.924  13.139  0.9308 -0.0839  0.0965
   57TMC2     O  874   0.809   1.965  13.251 -0.2156  0.1136 -0.2662
   57TMC2     H  875   0.809   1.943  12.877 -1.2751 -0.8812  0.7034
   57TMC2    H1  876   1.015   1.849  13.229 -1.0061  2.6002  0.4823
   57TMC2    H2  877   1.220   1.817  12.855 -0.7202 -0.6985 -0.4758
   57TMC2    C7  878   1.241   1.794  13.128 -0.9507 -0.5895 -0.0476
   57TMC2    C8  879   0.993   1.882  12.708 -0.0011  0.1626 -0.1220
   57TMC2    O1  880   1.244   1.842  13.239 -0.6787  0.0506  0.4164
   57TMC2    O2  881   0.891   1.851  12.652 -0.1827 -0.4603 -0.0679
   57TMC2    O5  882   1.068   1.991  12.681 -0.0863  0.1229  0.2887
   57TMC2    H5  883   1.133   2.001  12.753 -1.0167  1.2650  0.9674
   58MPD2     C  884   0.302   1.808  13.265 -0.2181 -0.6651 -0.6775
   58MPD2    C1  885   0.390   1.897  13.321 -0.2059  0.1765 -0.3541
   58MPD2    C2  886   0.517   1.912  13.266  0.5762  0.7142  0.0553
   58MPD2    C3  887   0.555   1.852  13.148 -0.0540 -0.0076  0.1635
   58MPD2    C4  888   0.459   1.775  13.085  0.2545  0.8108  0.1175
   58MPD2    C5  889   0.334   1.752  13.140 -0.0481  0.7261 -0.4825
   58MPD2     H  890   0.587   1.977  13.318 -2.3197  3.0455  1.0765
   58MPD2    H1  891   0.481   1.726  12.990 -1.5684  0.3247 -0.0503
   58MPD2    H2  892   0.202   1.798  13.307 -0.7010 -0.3668 -1.7538
   58MPD2    H3  893   0.263   1.689  13.089 -0.8255  1.3046 -0.1162
   58MPD2     N  894   0.675   1.868  13.084 -0.6904 -0.5522  0.0780
   58MPD2    H5  895   0.680   1.836  12.988 -0.0828 -0.0989 -0.0377
   58MPD2    N1  896   0.379   1.933  13.456  0.0626  0.0685  0.4921
   58MPD2    H7  897   0.462   1.983  13.489 -1.0027  0.9537  1.8341
   59MPD2     C  898   3.418   2.362  13.222  0.4166  0.6168 -0.1910
   59MPD2    C1  899   3.522   2.388  13.133 -0.6515  0.1580 -0.2678
   59MPD2    C2  900   3.640   2.444  13.176 -0.1819  0.2936  0.0061
   59MPD2    C3  901   3.665   2.452  13.311 -0.0738  0.1581  0.0755
   59MPD2    C4  902   3.567   2.405  13.399  0.0617 -0.5797 -0.0013
   59MPD2    C5  903   3.449   2.358  13.356 -0.6498  0.1974 -0.1308
   59MPD2     H  904   3.721   2.477  13.112  0.7791 -0.4739  0.8142
   59MPD2    H1  905   3.586   2.392  13.505 -2.1184  0.4588  0.5160
   59MPD2    H2  906   3.318   2.332  13.194  0.6393 -0.5024  0.1752
   59MPD2    H3  907   3.367   2.328  13.421 -0.2655 -0.7586 -0.0789
   59MPD2     N  908   3.784   2.500  13.372 -0.2634 -0.3722  0.3612
   59MPD2    H5  909   3.773   2.526  13.469 -1.9130 -0.6002  0.2302
   59MPD2    N1  910   3.511   2.382  12.995 -0.0257  0.1245 -0.1022
   59MPD2    H7  911   3.589   2.419  12.942 -1.9055  1.9338 -1.6411
   60TCq2    C1  912   3.408   2.314  12.927 -0.4683 -0.2773  0.4114
   60TCq2    O2  913   3.330   2.237  12.975  0.1628 -0.4646  0.7477
   60TCq2    C2  914   3.455   2.273  12.799 -0.1324 -0.3832  0.4731
   60TCq2    C3  915   3.421   2.145  12.750 -0.1313 -0.9837 -0.4003
   60TCq2    C4  916   3.461   2.111  12.618  0.0431 -0.1013 -0.1627
   60TCq2    C5  917   3.527   2.198  12.539  0.5055 -0.0296 -0.1139
   60TCq2    C6  918   3.556   2.320  12.594  0.2061 -0.2533  0.1790
   60TCq2    C7  919   3.519   2.362  12.719 -0.0189 -0.2676  0.0470
   60TCq2    C8  920   3.639   2.402  12.508 -0.6003  0.3624  0.8535
   60TCq2    O4  921   3.742   2.458  12.544 -0.3053  0.3509 -0.2827
   60TCq2    C9  922   3.432   1.981  12.574 -0.4176 -0.5106  0.2365
   60TCq2    O5  923   3.506   1.929  12.486  0.0112  0.1381 -0.0962
   60TCq2    O6  924   3.350   1.913  12.643 -0.1402 -0.2149 -0.2569
   60TCq2    H2  925   3.371   2.081  12.822 -1.9934  0.1360 -0.6944
   60TCq2    H3  926   3.527   2.174  12.433 -0.7793 -1.7383  0.2718
   60TCq2    H4  927   3.540   2.464  12.748  0.4115 -0.7219  1.3192
   61MPD2     C  928   3.222   3.114  14.868 -0.0508 -0.3713  0.3391
   61MPD2    C1  929   3.162   3.236  14.864  0.1501 -0.0222  0.0138
   61MPD2    C2  930   3.215   3.340  14.783  0.5445  1.4000 -0.6372
   61MPD2    C3  931   3.317   3.316  14.694  0.7560 -0.7844  0.9260
   61MPD2    C4  932   3.361   3.185  14.684  0.4182  0.4024 -0.4894
   61MPD2    C5  933   3.322   3.090  14.780 -0.4677  0.1924 -0.0157
   61MPD2     H  934   3.181   3.441  14.804  0.8135  1.0830  1.3076
   61MPD2    H1  935   3.426   3.144  14.608 -0.7647  0.2325 -1.4005
   61MPD2    H2  936   3.178   3.033  14.925 -2.2550  0.3691 -0.2841
   61MPD2    H3  937   3.377   2.997  14.775 -0.4807  0.0269  2.7146
   61MPD2     N  938   3.361   3.430  14.622  0.1053  0.0704  0.1156
   61MPD2    H5  939   3.310   3.517  14.634  0.0679 -0.1659  1.6728
   61MPD2    N1  940   3.063   3.275  14.951 -0.3123 -0.0116  0.3458
   61MPD2    H7  941   3.033   3.371  14.935  1.0163  0.2478 -0.5975
   62TCq2    C1  942   3.001   3.207  15.053 -0.1887  0.1674 -0.4976
   62TCq2    O2  943   3.006   3.088  15.075  0.1263 -0.0490  0.2581
   62TCq2    C2  944   2.894   3.284  15.121  0.2459  0.0125 -0.5998
   62TCq2    C3  945   2.792   3.217  15.179  0.1213 -0.1412 -0.5735
   62TCq2    C4  946   2.688   3.293  15.223 -0.2026  0.3894 -0.7363
   62TCq2    C5  947   2.677   3.428  15.226 -0.2446  0.3796  0.4320
   62TCq2    C6  948   2.782   3.489  15.158  0.1792 -0.1913 -0.4704
   62TCq2    C7  949   2.892   3.425  15.119 -0.0920 -0.5488 -0.3957
   62TCq2    C8  950   2.782   3.633  15.138 -0.1776  0.5591 -0.2170
   62TCq2    O4  951   2.893   3.690  15.127 -0.1442  0.1452  0.1283
   62TCq2    C9  952   2.574   3.224  15.288  0.1950 -0.7606  0.0319
   62TCq2    O5  953   2.580   3.093  15.296 -0.3221 -0.9285  0.0675
   62TCq2    O6  954   2.488   3.295  15.348 -0.2015  0.7888 -0.0834
   62TCq2    H2  955   2.787   3.109  15.181 -1.1433 -0.0451  0.9290
   62TCq2    H3  956   2.585   3.480  15.247 -1.2856 -0.9181 -0.9115
   62TCq2    H4  957   2.975   3.478  15.074  0.3375 -1.4408 -0.6759
   63TMC2    C1  958   2.996   3.821   9.633  0.0167 -0.3807 -0.2633
   63TMC2    C2  959   3.084   3.834   9.738 -0.5210 -0.2771 -0.0244
   63TMC2    C3  960   3.172   3.939   9.745 -0.0828 -0.9784  0.8154
   63TMC2    C4  961   3.014   3.894   9.520 -0.5483 -0.8176  0.0093
   63TMC2    C5  962   3.113   3.992   9.533  0.2054  0.2056  0.3315
   63TMC2    C6  963   3.190   4.025   9.642 -0.0612 -0.0291  0.3741
   63TMC2     C  964   2.889   3.726   9.629 -0.2683 -0.2072  0.4987
   63TMC2     O  965   2.848   3.699   9.514 -0.6469 -0.0980 -0.2144
   63TMC2     H  966   3.073   3.755   9.811  3.5614 -0.0364  0.8905
   63TMC2    H1  967   2.955   3.887   9.430 -0.9887  2.0702  0.0703
   63TMC2    H2  968   3.272   4.095   9.643  0.6043 -0.8588  2.4386
   63TMC2    C7  969   3.113   4.093   9.429  0.1535  0.1952  0.0212
   63TMC2    C8  970   3.224   3.962   9.878  0.1296  0.1486  0.3375
   63TMC2    O1  971   3.018   4.091   9.357 -0.5056 -0.2088 -0.0633
   63TMC2    O2  972   3.254   3.878   9.961  0.1235  0.5711 -0.1159
   63TMC2    O5  973   3.280   4.088   9.871  0.0410 -0.2478 -0.2988
   63TMC2    H5  974   3.226   4.147   9.814 -1.0354 -0.3962  0.5635
   64MPD2     C  975   2.594   3.348   9.808  0.1286  1.0547  0.0259
   64MPD2    C1  976   2.671   3.402   9.907 -0.6594 -0.0012 -0.6640
   64MPD2    C2  977   2.750   3.511   9.887 -0.8914  0.0198  0.2302
   64MPD2    C3  978   2.768   3.562   9.758  0.1200 -0.6960 -0.0879
   64MPD2    C4  979   2.687   3.517   9.660 -0.1958 -0.0422  0.3884
   64MPD2    C5  980   2.602   3.408   9.682 -0.3711  0.3230  0.7718
   64MPD2     H  981   2.821   3.552   9.958  1.4946  0.6625 -2.5534
   64MPD2    H1  982   2.676   3.566   9.564 -2.3288 -1.7612 -0.2277
   64MPD2    H2  983   2.536   3.257   9.815 -0.1913  1.1068 -1.8996
   64MPD2    H3  984   2.529   3.378   9.607 -1.0136  0.3350  1.3924
   64MPD2     N  985   2.862   3.664   9.751  0.1624 -0.0424  0.6641
   64MPD2    H5  986   2.901   3.703   9.835 -1.9524  2.9481  0.2461
   64MPD2    N1  987   2.692   3.327  10.029 -0.5506  0.2052 -0.7090
   64MPD2    H7  988   2.754   3.364  10.100  0.1233  0.0165 -1.1898
   65MPD2     C  989   3.626   2.892  15.818  0.0000  0.5189  0.0968
   65MPD2    C1  990   3.582   2.841  15.702  0.2456 -0.2291  0.1984
   65MPD2    C2  991   3.556   2.709  15.692  0.0282 -0.0651 -0.5493
   65MPD2    C3  992   3.580   2.617  15.791 -0.1303  0.1638  0.1082
   65MPD2    C4  993   3.621   2.670  15.911 -0.3053  0.1289 -0.1320
   65MPD2    C5  994   3.647   2.806  15.923 -0.5534 -0.3145 -0.6870
   65MPD2     H  995   3.514   2.672  15.600 -0.2635  0.5923 -0.6787
   65MPD2    H1  996   3.648   2.614  16.000 -2.2753 -0.0109  0.3868
   65MPD2    H2  997   3.642   2.996  15.843 -0.1220  0.5220  0.1632
   65MPD2    H3  998   3.696   2.839  16.013 -0.3836  0.2978 -1.0031
   65MPD2     N  999   3.549   2.477  15.773 -0.0758  0.0175 -0.4970
   65MPD2    H5 1000   3.544   2.411  15.850  1.9772 -0.3801 -0.7060
   65MPD2    N1 1001   3.553   2.914  15.589 -0.5872 -0.2108 -0.2515
   65MPD2    H7 1002   3.516   2.869  15.506  0.6324 -1.1342 -0.2903
   66TCq2    C1 1003   3.579   3.048  15.561 -0.0461  0.2009 -0.4648
   66TCq2    O2 1004   3.589   3.142  15.640  0.1082 -0.8220  0.2377
   66TCq2    C2 1005   3.545   3.069  15.430 -0.0324 -0.6018  0.3295
   66TCq2    C3 1006   3.517   2.962  15.351 -0.3710  0.1707  0.4173
   66TCq2    C4 1007   3.406   2.971  15.268  0.1467  0.2886  0.2534
   66TCq2    C5 1008   3.340   3.085  15.247 -0.6223 -0.0004  0.0208
   66TCq2    C6 1009   3.372   3.189  15.320  0.4555 -0.5141 -0.6042
   66TCq2    C7 1010   3.466   3.181  15.413 -0.1704  0.3416  1.0656
   66TCq2    C8 1011   3.291   3.311  15.321 -0.6393  0.1689 -0.3863
   66TCq2    O4 1012   3.250   3.351  15.215  0.0973 -0.4572 -0.0437
   66TCq2    C9 1013   3.383   2.854  15.187  0.3488 -0.5963  0.4158
   66TCq2    O5 1014   3.265   2.843  15.136  0.4841  0.7355  0.0203
   66TCq2    O6 1015   3.468   2.759  15.178 -0.2023 -0.1051  0.9988
   66TCq2    H2 1016   3.572   2.869  15.348  2.9551  2.1896 -1.4595
   66TCq2    H3 1017   3.258   3.090  15.176 -0.1186 -0.0558 -0.5600
   66TCq2    H4 1018   3.511   3.272  15.450  2.7306 -0.8105  0.3245
   67MPD2     C 1019   3.437   2.173  14.022 -0.0035 -0.3613  0.5059
   67MPD2    C1 1020   3.411   2.275  14.119  0.4430  0.0953  0.1737
   67MPD2    C2 1021   3.289   2.351  14.110  0.0990 -0.0344 -0.4678
   67MPD2    C3 1022   3.206   2.327  14.002 -0.8412  0.2940  0.0663
   67MPD2    C4 1023   3.245   2.238  13.907  0.3337 -0.7745 -0.5220
   67MPD2    C5 1024   3.351   2.159  13.915 -0.8242 -0.1087  0.3523
   67MPD2     H 1025   3.266   2.422  14.188 -0.9112 -0.6728 -0.1874
   67MPD2    H1 1026   3.183   2.212  13.822  0.1857  3.5560 -1.7461
   67MPD2    H2 1027   3.517   2.101  14.030  2.1364  1.6967 -2.5982
   67MPD2    H3 1028   3.348   2.073  13.849 -0.0385  1.0201 -1.1699
   67MPD2     N 1029   3.083   2.402  13.992 -0.4576 -0.2650 -0.0513
   67MPD2    H5 1030   3.029   2.405  13.907  0.9164 -1.2324 -0.9612
   67MPD2    N1 1031   3.512   2.299  14.226  0.0761  0.4294 -0.4839
   67MPD2    H7 1032   3.501   2.376  14.290  0.9897  1.1141 -1.1609
   68TCq2    C1 1033   3.613   2.213  14.268  0.2915  0.3904 -0.0425
   68TCq2    O2 1034   3.653   2.109  14.216 -1.0758 -0.9683  0.1424
   68TCq2    C2 1035   3.690   2.262  14.382  0.3489  0.6498  0.3885
   68TCq2    C3 1036   3.702   2.397  14.403  0.5595 -0.0589 -0.5923
   68TCq2    C4 1037   3.763   2.444  14.516  0.1724 -0.1866  0.2658
   68TCq2    C5 1038   3.822   2.357  14.597  0.8101  0.6246 -0.1768
   68TCq2    C6 1039   3.814   2.219  14.569 -0.2218 -0.4694  0.2041
   68TCq2    C7 1040   3.744   2.168  14.467 -0.0551 -0.1832 -0.4500
   68TCq2    C8 1041   3.857   2.134  14.674 -0.1452 -0.2552 -0.3737
   68TCq2    O4 1042   3.852   2.013  14.660  0.0246  0.0836 -0.2925
   68TCq2    C9 1043   3.795   2.589  14.531  0.2973  0.1709  0.4009
   68TCq2    O5 1044   3.879   2.623  14.620  0.1897  0.1858  0.3812
   68TCq2    O6 1045   3.726   2.671  14.467 -0.4510 -0.0348 -0.5812
   68TCq2    H2 1046   3.661   2.477  14.342  1.3741 -0.8235 -2.1510
   68TCq2    H3 1047   3.886   2.395  14.675  1.6528  1.8476 -1.4746
   68TCq2    H4 1048   3.726   2.061  14.463  0.3523 -0.3968  3.5001
   69TMC2    C1 1049   0.651   3.495  12.077  0.2287  0.5827  0.1147
   69TMC2    C2 1050   0.557   3.585  12.046  0.1756 -0.5623  0.1991
   69TMC2    C3 1051   0.599   3.695  11.973  0.5614 -0.6883  0.5174
   69TMC2    C4 1052   0.784   3.514  12.061  0.1097  0.5128 -0.0360
   69TMC2    C5 1053   0.827   3.629  12.006  0.0856 -0.3041  0.1631
   69TMC2    C6 1054   0.732   3.726  11.962 -1.0829 -0.0856  0.3632
   69TMC2     C 1055   0.615   3.378  12.155 -0.2823  0.1154 -0.0453
   69TMC2     O 1056   0.707   3.327  12.219 -0.3227  0.5678  0.2812
   69TMC2     H 1057   0.450   3.571  12.058 -0.0862  1.4327  0.1671
   69TMC2    H1 1058   0.850   3.428  12.070 -2.2661 -1.3798 -0.8132
   69TMC2    H2 1059   0.773   3.800  11.895 -2.1710  0.8560  0.7545
   69TMC2    C7 1060   0.958   3.674  12.051 -0.3317  0.7254  0.3359
   69TMC2    C8 1061   0.496   3.768  11.898  0.0217 -0.1154  0.0669
   69TMC2    O1 1062   1.007   3.772  12.005  0.0603  0.0892  0.2293
   69TMC2    O2 1063   0.374   3.761  11.919  0.6592  0.2860 -0.0846
   69TMC2    O5 1064   0.561   3.858  11.828  0.5842 -0.3029  0.5629
   69TMC2    H5 1065   0.638   3.823  11.779  1.1572  0.2340  1.0723
   70MPD2     C 1066   0.282   3.272  12.270 -0.2345  0.1973 -0.7730
   70MPD2    C1 1067   0.416   3.290  12.275  0.1942  0.0194  0.2163
   70MPD2    C2 1068   0.481   3.239  12.392  0.2437  0.7865  0.1357
   70MPD2    C3 1069   0.410   3.171  12.494  0.4344  0.0879 -0.0537
   70MPD2    C4 1070   0.274   3.146  12.473  0.5177  0.0502  0.5560
   70MPD2    C5 1071   0.205   3.204  12.369 -1.0034  0.3369  0.3729
   70MPD2     H 1072   0.588   3.254  12.401  0.4503  0.2323 -1.4769
   70MPD2    H1 1073   0.212   3.101  12.550  0.3935 -0.5000  0.1352
   70MPD2    H2 1074   0.228   3.315  12.186 -2.2236 -0.1665  0.3402
   70MPD2    H3 1075   0.097   3.196  12.365 -0.8747 -1.0549 -0.4692
   70MPD2     N 1076   0.462   3.119  12.614 -0.1942  0.9246 -0.4801
   70MPD2    H5 1077   0.423   3.027  12.629 -1.6313  1.5863 -0.1232
   70MPD2    N1 1078   0.481   3.354  12.167  0.6538  0.6403 -0.2924
   70MPD2    H7 1079   0.419   3.387  12.094  1.1564  0.3411 -0.8544
   71TMC2    C1 1080   4.683   0.065   2.011 -0.0034  0.4494 -0.4985
   71TMC2    C2 1081   0.083   0.065   2.070  0.0135 -0.7176  0.1584
   71TMC2    C3 1082   0.111   0.031   2.201  0.3093  0.1994  0.3426
   71TMC2    C4 1083   4.572   0.036   2.083 -0.0721 -0.2485 -0.2185
   71TMC2    C5 1084   4.595   4.719   2.217 -0.0656 -0.3941  0.4517
   71TMC2    C6 1085   0.001   4.718   2.270 -0.8289 -0.1503  0.0591
   71TMC2     C 1086   4.662   0.116   1.876 -0.0294 -0.5683  0.0467
   71TMC2     O 1087   4.551   0.150   1.838 -0.6495 -0.3944 -0.4109
   71TMC2     H 1088   0.155   0.120   2.011  1.5673 -1.9785  0.8830
   71TMC2    H1 1089   4.468   0.054   2.056 -0.1097 -2.1497 -1.3463
   71TMC2    H2 1090   0.022   4.673   2.367 -0.3961  1.0024  0.4978
   71TMC2    C7 1091   4.482   4.695   2.310 -0.6786 -0.4068  0.3272
   71TMC2    C8 1092   0.241   0.006   2.250 -0.4866  0.8465  0.2740
   71TMC2    O1 1093   4.502   4.663   2.428 -0.1744  0.0463  0.0271
   71TMC2    O2 1094   0.261   4.718   2.371 -0.1990  0.0871 -0.4917
   71TMC2    O5 1095   0.287   4.643   2.155 -0.6699  0.0134 -0.2386
   71TMC2    H5 1096   0.254   4.668   2.066  0.7010 -0.1463 -0.7944
   72MPD2     C 1097   0.157   0.320   1.459 -0.5006  0.1447  0.0622
   72MPD2    C1 1098   0.038   0.357   1.521  0.2470  0.5723 -0.4178
   72MPD2    C2 1099   4.714   0.281   1.627 -0.2124 -0.0905  0.5308
   72MPD2    C3 1100   0.081   0.185   1.680 -0.0370 -0.0276  0.3121
   72MPD2    C4 1101   0.191   0.143   1.610  0.2735 -0.2451 -0.1536
   72MPD2    C5 1102   0.233   0.213   1.502  0.1050 -0.2694  0.6170
   72MPD2     H 1103   4.623   0.309   1.679  0.1107  3.8082 -1.0846
   72MPD2    H1 1104   0.251   0.061   1.649 -1.2423 -0.0728  2.5203
   72MPD2    H2 1105   0.198   0.364   1.369  1.7532 -0.5683  0.7454
   72MPD2    H3 1106   0.317   0.174   1.445 -0.0593 -0.8409  0.7594
   72MPD2     N 1107   0.060   0.115   1.802  0.3624 -0.1866 -0.1638
   72MPD2    H5 1108   0.132   0.052   1.837  0.3085  0.0165  0.3195
   72MPD2    N1 1109   4.678   0.470   1.484 -0.3834  0.4342 -0.2029
   72MPD2    H7 1110   4.609   0.509   1.548  0.2210  0.2242  0.5735
   73TMC2    C1 1111   3.228   0.552  13.727  0.6756 -0.4820  1.3628
   73TMC2    C2 1112   3.122   0.474  13.708  0.7944 -0.1313 -0.1398
   73TMC2    C3 1113   3.033   0.458  13.809  0.0278  0.5519 -0.5597
   73TMC2    C4 1114   3.253   0.603  13.851  0.4534 -0.4268 -0.5343
   73TMC2    C5 1115   3.155   0.585  13.950  0.4151  0.2585 -0.0057
   73TMC2    C6 1116   3.048   0.505  13.940  0.1683  0.2970  0.0555
   73TMC2     C 1117   3.241   0.652  13.626 -0.2168  0.1408  0.7171
   73TMC2     O 1118   3.257   0.767  13.674 -0.5049 -0.5415  0.3912
   73TMC2     H 1119   3.089   0.436  13.611 -0.1935  0.9386 -0.2315
   73TMC2    H1 1120   3.334   0.674  13.865  0.1644  0.3208 -2.5894
   73TMC2    H2 1121   2.971   0.491  14.015 -0.5091  0.2442 -0.6504
   73TMC2    C7 1122   3.122   0.708  14.013 -0.7879  0.7246 -0.3423
   73TMC2    C8 1123   2.942   0.345  13.786 -0.6324  0.3419  0.2613
   73TMC2    O1 1124   3.071   0.704  14.125 -0.5645  0.0800  0.5455
   73TMC2    O2 1125   2.964   0.259  13.701 -0.8128 -0.6094 -0.2181
   73TMC2    O5 1126   2.834   0.358  13.860 -0.4392  0.3079 -0.4157
   73TMC2    H5 1127   2.815   0.439  13.912 -0.8211 -0.3800  0.5184
   74MPD2     C 1128   3.210   0.864  13.144 -0.0114  0.5817 -0.3242
   74MPD2    C1 1129   3.190   0.915  13.276 -0.3041  0.2012 -0.2905
   74MPD2    C2 1130   3.203   0.839  13.390  0.4976 -0.4261  1.2275
   74MPD2    C3 1131   3.220   0.700  13.382  0.6335  0.4637  0.2685
   74MPD2    C4 1132   3.230   0.645  13.255  0.4001 -0.5351  0.3188
   74MPD2    C5 1133   3.225   0.725  13.141 -0.2507  0.4594  0.6005
   74MPD2     H 1134   3.207   0.892  13.485  2.3108 -1.8125  1.9557
   74MPD2    H1 1135   3.239   0.540  13.230  2.4320 -0.2354 -0.1739
   74MPD2    H2 1136   3.206   0.923  13.053  0.3395 -1.6520 -1.7904
   74MPD2    H3 1137   3.221   0.673  13.046  1.7536  3.2863 -1.0367
   74MPD2     N 1138   3.236   0.610  13.495 -0.3805 -0.0143 -0.0086
   74MPD2    H5 1139   3.252   0.512  13.476  1.1121  0.7223 -2.6829
   74MPD2    N1 1140   3.171   1.052  13.283 -1.2438  0.1359  0.0458
   74MPD2    H7 1141   3.191   1.096  13.193 -1.0056  4.4079  2.2043
   75TCq2    C1 1142   3.034   2.478  14.097 -0.1790 -0.7550  0.5531
   75TCq2    O2 1143   3.048   2.452  14.219 -0.5086  0.4771  0.5877
   75TCq2    C2 1144   2.901   2.526  14.061 -0.3406 -0.4408  0.1934
   75TCq2    C3 1145   2.797   2.517  14.146 -0.1721 -0.6869  0.7150
   75TCq2    C4 1146   2.675   2.550  14.094 -0.1352  0.1220  0.3319
   75TCq2    C5 1147   2.650   2.600  13.970 -0.4363  0.1492  0.2287
   75TCq2    C6 1148   2.754   2.600  13.886  0.0017 -0.1403 -0.5147
   75TCq2    C7 1149   2.880   2.558  13.927 -0.3389 -0.1228 -0.4434
   75TCq2    C8 1150   2.733   2.667  13.760  0.7709  0.1299 -0.2623
   75TCq2    O4 1151   2.810   2.646  13.666 -0.0371 -0.1668  0.2492
   75TCq2    C9 1152   2.562   2.535  14.185 -0.3758  0.0403 -0.0185
   75TCq2    O5 1153   2.442   2.560  14.137 -0.0188 -0.2846  0.3519
   75TCq2    O6 1154   2.589   2.484  14.297  0.0730 -0.1867  0.2740
   75TCq2    H2 1155   2.809   2.463  14.239 -1.3233 -0.6851  0.8687
   75TCq2    H3 1156   2.549   2.631  13.946  0.5409  1.2841 -2.4710
   75TCq2    H4 1157   2.966   2.574  13.862  0.5253  1.6615  1.1341
   76MPD2     C 1158   2.155   3.591  12.296  0.1340 -0.3711  0.0464
   76MPD2    C1 1159   2.105   3.587  12.161 -0.5781 -0.2850  0.1417
   76MPD2    C2 1160   2.154   3.489  12.075  0.2417  0.2290 -0.3915
   76MPD2    C3 1161   2.239   3.397  12.117 -1.0088 -0.0182  0.5205
   76MPD2    C4 1162   2.300   3.409  12.240  0.1482 -0.1266  0.2321
   76MPD2    C5 1163   2.248   3.499  12.332 -0.5398  0.1942  0.0890
   76MPD2     H 1164   2.115   3.482  11.975  5.1815  0.6231 -2.3461
   76MPD2    H1 1165   2.368   3.336  12.282  1.4032  1.7835  1.5051
   76MPD2    H2 1166   2.122   3.659  12.374 -0.9166 -1.7764  0.8186
   76MPD2    H3 1167   2.262   3.485  12.439  0.0163  0.3316  0.0314
   76MPD2     N 1168   2.286   3.288  12.037 -0.0535 -0.3784 -0.6025
   76MPD2    H5 1169   2.345   3.220  12.083  0.0550  0.5663  0.6496
   76MPD2    N1 1170   2.007   3.676  12.108 -0.1994  0.3719  0.1220
   76MPD2    H7 1171   1.989   3.659  12.009  2.0531 -1.9054  0.0859
   77TCq2    C1 1172   2.253   3.260  11.907 -0.3669  0.3012  0.6947
   77TCq2    O2 1173   2.201   3.331  11.821  0.4037 -0.4334  0.8186
   77TCq2    C2 1174   2.262   3.120  11.862  0.1325 -0.1771  0.4018
   77TCq2    C3 1175   2.181   3.086  11.753  0.5091  0.2621  1.0361
   77TCq2    C4 1176   2.209   2.971  11.693 -0.5755 -0.3435  0.7126
   77TCq2    C5 1177   2.299   2.883  11.740 -0.2083 -0.2506  0.0905
   77TCq2    C6 1178   2.376   2.917  11.843 -0.1794  0.3450 -0.2643
   77TCq2    C7 1179   2.367   3.042  11.913 -0.1937 -0.2023  0.2252
   77TCq2    C8 1180   2.499   2.840  11.857 -0.4731  0.0146  0.1356
   77TCq2    O4 1181   2.536   2.782  11.753 -0.0336 -0.1115 -0.2464
   77TCq2    C9 1182   2.127   2.920  11.584  0.0580 -0.9216 -0.0794
   77TCq2    O5 1183   2.173   2.830  11.510 -0.6148  0.5137 -0.4913
   77TCq2    O6 1184   2.010   2.958  11.575  0.2943  0.7086 -0.1523
   77TCq2    H2 1185   2.100   3.138  11.703 -0.4444 -2.7926 -0.5840
   77TCq2    H3 1186   2.300   2.789  11.685  0.6686 -1.0534  1.4859
   77TCq2    H4 1187   2.447   3.063  11.983 -0.6723 -1.9518  1.2918
   78MPD1     C 1188   3.490   2.009   1.675 -0.5229  0.5502  0.4943
   78MPD1    C1 1189   3.624   2.029   1.652  0.1621 -0.0321 -0.5491
   78MPD1    C2 1190   3.701   2.078   1.758  0.3560 -1.0412 -0.1997
   78MPD1    C3 1191   3.636   2.136   1.867  0.3571 -0.2250 -0.4161
   78MPD1    C4 1192   3.500   2.125   1.883  0.2768  0.4277  0.4766
   78MPD1    C5 1193   3.431   2.049   1.788 -0.5207 -0.1965  0.3007
   78MPD1     H 1194   3.805   2.097   1.738 -0.1220 -0.3367 -2.0201
   78MPD1    H1 1195   3.450   2.175   1.966 -0.1628 -1.6697  1.4710
   78MPD1    H2 1196   3.435   1.965   1.593 -2.1010  0.1057  1.8014
   78MPD1    H3 1197   3.323   2.041   1.787 -0.3360 -2.1139 -2.6476
   78MPD1     N 1198   3.702   2.202   1.969  0.7149 -0.1558 -0.4125
   78MPD1    H5 1199   3.652   2.233   2.052  1.1361  2.7920 -1.2444
   78MPD1    N1 1200   3.685   1.950   1.552  0.5029 -0.1406  0.0397
   78MPD1    H6 1201   3.632   1.953   1.465  1.3553  1.9153 -0.4096
   78MPD1    H7 1202   3.775   1.983   1.518  1.3003 -1.3389  1.0184
   79TCq2    C1 1203   3.834   2.233   1.972 -0.3704  0.3267  0.8341
   79TCq2    O2 1204   3.907   2.242   1.876  0.3777  0.4012 -0.2460
   79TCq2    C2 1205   3.864   2.301   2.093 -0.4936 -0.4600 -0.4094
   79TCq2    C3 1206   3.798   2.270   2.207 -0.6528 -0.5113 -0.1291
   79TCq2    C4 1207   3.842   2.320   2.328  0.5764 -0.1685 -0.3775
   79TCq2    C5 1208   3.943   2.418   2.328 -0.6592  0.5930 -0.5557
   79TCq2    C6 1209   4.014   2.439   2.212 -0.4082  0.2033 -0.3426
   79TCq2    C7 1210   3.981   2.372   2.096 -0.4274  0.9396  0.3571
   79TCq2    C8 1211   4.103   2.556   2.193 -0.0119  0.2726 -0.2316
   79TCq2    O4 1212   4.166   2.570   2.091  0.2220 -0.4826  0.2321
   79TCq2    C9 1213   3.769   2.301   2.454  0.6020  0.2853  0.4755
   79TCq2    O5 1214   3.670   2.220   2.445 -0.3505 -0.5772  0.1119
   79TCq2    O6 1215   3.803   2.370   2.555  0.2157 -0.8673  0.0145
   79TCq2    H2 1216   3.727   2.188   2.205 -2.6390  1.1944  0.8726
   79TCq2    H3 1217   3.983   2.454   2.422 -2.0794  3.2798 -0.9778
   79TCq2    H4 1218   4.044   2.384   2.009  0.6178  0.7435  1.0820
   80MPD2     C 1219   1.641   2.862  12.212  0.3397 -0.6948  0.2627
   80MPD2    C1 1220   1.526   2.787  12.173 -0.2607  0.4614  0.1952
   80MPD2    C2 1221   1.430   2.757  12.272 -0.1305 -0.1938  0.0408
   80MPD2    C3 1222   1.469   2.782  12.407 -0.7596  0.9051  0.4663
   80MPD2    C4 1223   1.585   2.848  12.441  0.1113 -0.1993  0.4667
   80MPD2    C5 1224   1.668   2.889  12.342 -0.4897  0.5715 -0.7420
   80MPD2     H 1225   1.333   2.715  12.248 -1.0127  0.6766  2.0619
   80MPD2    H1 1226   1.611   2.881  12.541 -0.5107 -0.6751  0.7875
   80MPD2    H2 1227   1.711   2.897  12.138 -0.2496 -1.1869 -0.5281
   80MPD2    H3 1228   1.752   2.949  12.375 -0.8104  0.0006  1.0990
   80MPD2     N 1229   1.366   2.771  12.505  0.2377 -0.1436 -0.4225
   80MPD2    H5 1230   1.393   2.802  12.598 -0.7637 -1.9106  0.4483
   80MPD2    N1 1231   1.495   2.772  12.035  0.5215  0.4520  0.6302
   80MPD2    H7 1232   1.418   2.711  12.013 -0.4556  0.9392  2.7408
   81TCq2    C1 1233   1.568   2.811  11.927  0.2126  0.8982 -0.7164
   81TCq2    O2 1234   1.673   2.876  11.920 -0.0654  0.4471  0.0271
   81TCq2    C2 1235   1.515   2.768  11.792 -0.0177  0.5644 -0.2833
   81TCq2    C3 1236   1.596   2.775  11.686  0.4699  0.5432 -0.6103
   81TCq2    C4 1237   1.551   2.730  11.565 -0.1758  0.1945  1.0171
   81TCq2    C5 1238   1.424   2.683  11.544 -0.2969 -1.0975  0.3376
   81TCq2    C6 1239   1.355   2.669  11.657  0.0651  0.1415  0.2676
   81TCq2    C7 1240   1.393   2.715  11.782 -0.8328 -0.2119 -0.4775
   81TCq2    C8 1241   1.238   2.584  11.639 -0.1480  0.3812  0.5832
   81TCq2    O4 1242   1.191   2.579  11.526 -0.0194  0.3756 -0.0398
   81TCq2    C9 1243   1.639   2.755  11.453  0.0119 -0.5140  0.7863
   81TCq2    O5 1244   1.610   2.708  11.340  0.2368 -0.1405  0.0808
   81TCq2    O6 1245   1.744   2.815  11.474  0.0548 -0.1204 -0.6479
   81TCq2    H2 1246   1.693   2.821  11.701  1.2289 -1.7112  1.4176
   81TCq2    H3 1247   1.395   2.663  11.442 -1.9952 -1.5743  0.9261
   81TCq2    H4 1248   1.318   2.714  11.861  0.6579 -1.9305  0.8905
   82MPD2     C 1249   3.952   3.089  10.761  0.4457  0.7844  0.6065
   82MPD2    C1 1250   3.943   2.951  10.743 -0.6283 -0.3831 -0.6603
   82MPD2    C2 1251   3.974   2.870  10.849  0.3726 -0.3268 -0.2896
   82MPD2    C3 1252   4.016   2.920  10.968  0.3584  0.2260  0.0025
   82MPD2    C4 1253   4.020   3.057  10.988  0.5471  0.1851 -0.7857
   82MPD2    C5 1254   3.988   3.140  10.880 -0.2651  0.3302 -0.1383
   82MPD2     H 1255   3.971   2.762  10.837 -0.5962 -0.3150 -0.1770
   82MPD2    H1 1256   4.044   3.100  11.084 -1.5716 -0.3937  0.0178
   82MPD2    H2 1257   3.904   3.159  10.694  0.3109 -1.0822 -1.2489
   82MPD2    H3 1258   3.991   3.248  10.883 -0.8512  0.3366  0.2395
   82MPD2     N 1259   4.058   2.842  11.076 -0.3880 -0.3412  0.2734
   82MPD2    H5 1260   4.079   2.896  11.159 -2.3860  1.5517 -0.4572
   82MPD2    N1 1261   3.899   2.902  10.619 -0.4039 -0.3588  0.8315
   82MPD2    H7 1262   3.887   2.976  10.550 -1.3308 -0.3971  0.9509
   83TCq2    C1 1263   4.060   2.705  11.084  0.4142  0.5020 -0.1231
   83TCq2    O2 1264   4.024   2.615  11.007  0.3326 -0.4856 -0.1640
   83TCq2    C2 1265   4.145   2.660  11.194  0.5883  0.0950 -0.0926
   83TCq2    C3 1266   4.160   2.734  11.311 -0.1270  0.2790 -1.0372
   83TCq2    C4 1267   4.204   2.669  11.418  0.8114  0.3980  0.0153
   83TCq2    C5 1268   4.241   2.535  11.418  0.4231 -0.0327  0.3266
   83TCq2    C6 1269   4.224   2.465  11.304 -0.1333  0.0771 -0.3057
   83TCq2    C7 1270   4.176   2.525  11.191 -0.6338 -0.1476  0.4166
   83TCq2    C8 1271   4.196   2.321  11.321  0.7511 -0.4474  0.5692
   83TCq2    O4 1272   4.130   2.292  11.423  0.5879  0.6808  0.0876
   83TCq2    C9 1273   4.207   2.730  11.541 -0.4217  0.8473 -0.4117
   83TCq2    O5 1274   4.157   2.843  11.556 -0.3885  0.2375 -0.3806
   83TCq2    O6 1275   4.247   2.653  11.631  0.4215  0.0772 -0.2658
   83TCq2    H2 1276   4.130   2.837  11.327 -0.0907  0.1683 -0.2852
   83TCq2    H3 1277   4.268   2.482  11.509 -1.7479 -0.9284  0.4520
   83TCq2    H4 1278   4.171   2.472  11.097 -0.7558 -2.2143  1.5784
   84TCq2    C1 1279   0.855   1.223  10.481  1.3656  0.7734 -0.1588
   84TCq2    O2 1280   0.846   1.339  10.453  0.3574  0.3983 -0.0658
   84TCq2    C2 1281   0.900   1.190  10.614  0.6837  0.2138  0.5412
   84TCq2    C3 1282   0.984   1.088  10.631  0.6443  0.6113  0.5114
   84TCq2    C4 1283   1.044   1.072  10.748 -0.2564  0.4776  0.2339
   84TCq2    C5 1284   1.016   1.149  10.858  0.0572  0.0496  0.5395
   84TCq2    C6 1285   0.925   1.250  10.838  0.7672  0.9764  0.3782
   84TCq2    C7 1286   0.870   1.281  10.715 -0.2951 -0.7123  0.3489
   84TCq2    C8 1287   0.882   1.335  10.951  0.0941  0.2533  0.0710
   84TCq2    O4 1288   0.809   1.427  10.919 -0.7229  0.0312  0.3618
   84TCq2    C9 1289   1.135   0.968  10.773  0.3832 -0.1864 -0.4107
   84TCq2    O5 1290   1.151   0.930  10.889  0.1318  0.2748 -0.4860
   84TCq2    O6 1291   1.175   0.904  10.675 -1.0212  0.4123 -0.2764
   84TCq2    H2 1292   1.004   1.019  10.550 -0.8311 -1.7255  2.1574
   84TCq2    H3 1293   1.074   1.133  10.948 -1.3590 -1.1393  1.2533
   84TCq2    H4 1294   0.809   1.368  10.696 -0.0462 -0.3827  1.0889
   85MPD2     C 1295   0.693   3.572  16.059 -0.2784  0.7722  0.5880
   85MPD2    C1 1296   0.663   3.541  15.924  0.3913  0.3265 -0.8756
   85MPD2    C2 1297   0.707   3.627  15.825  0.0571 -0.8859 -0.1869
   85MPD2    C3 1298   0.783   3.739  15.854 -0.0130  0.7149  0.2087
   85MPD2    C4 1299   0.806   3.768  15.987  0.3643 -0.2762  0.2778
   85MPD2    C5 1300   0.773   3.675  16.086 -0.4209 -0.3710 -0.3798
   85MPD2     H 1301   0.684   3.602  15.722 -1.5752 -2.1991  0.4890
   85MPD2    H1 1302   0.868   3.849  16.024  0.7607 -0.7402  0.6272
   85MPD2    H2 1303   0.666   3.502  16.137  3.1247 -1.6635 -0.4409
   85MPD2    H3 1304   0.797   3.707  16.187  1.0426 -1.2762 -0.4396
   85MPD2     N 1305   0.819   3.840  15.757 -0.2741  0.3588 -0.3819
   85MPD2    H5 1306   0.765   3.844  15.671 -1.0425  1.2632  0.1385
   85MPD2    N1 1307   0.575   3.437  15.884  0.0570 -0.8479  0.0588
   85MPD2    H7 1308   0.552   3.435  15.786 -3.9870 -0.5530  0.9737
   86TCq2    C1 1309   0.933   3.916  15.763  0.8110  0.3635  0.0784
   86TCq2    O2 1310   1.029   3.912  15.845  0.1164  0.1789  0.0864
   86TCq2    C2 1311   0.941   4.007  15.656 -0.0298  0.3100  0.5282
   86TCq2    C3 1312   0.830   4.062  15.605  0.1756 -0.1479 -0.7745
   86TCq2    C4 1313   0.842   4.158  15.510  0.0083  0.6908  0.4354
   86TCq2    C5 1314   0.966   4.214  15.484 -0.1645  0.2155  0.3190
   86TCq2    C6 1315   1.078   4.160  15.544 -0.2026  0.0540  0.1889
   86TCq2    C7 1316   1.062   4.049  15.623  0.4348  0.4343 -0.2863
   86TCq2    C8 1317   1.205   4.167  15.476 -0.1044  0.0893  0.3456
   86TCq2    O4 1318   1.280   4.075  15.505 -0.5015 -0.7566 -0.4132
   86TCq2    C9 1319   0.719   4.209  15.453 -0.5257  0.1381  0.0852
   86TCq2    O5 1320   0.611   4.174  15.509 -0.2010  0.3173  0.0539
   86TCq2    O6 1321   0.735   4.303  15.370  0.0886 -0.1090 -0.8600
   86TCq2    H2 1322   0.730   4.027  15.627  0.3850 -0.5311 -0.4260
   86TCq2    H3 1323   0.973   4.298  15.415  3.3715  0.0118  0.4385
   86TCq2    H4 1324   1.146   3.987  15.651 -0.8231  0.2360  3.0524
   87MPD2     C 1325   2.937   2.291   1.337  0.3180  0.4151 -0.6950
   87MPD2    C1 1326   2.964   2.278   1.205  0.2677  0.0037 -0.7546
   87MPD2    C2 1327   2.931   2.383   1.116  0.3952  0.8731  0.0016
   87MPD2    C3 1328   2.868   2.496   1.164  0.8201  0.3497  0.0016
   87MPD2    C4 1329   2.844   2.507   1.303  0.0742 -0.2597 -0.1159
   87MPD2    C5 1330   2.882   2.403   1.386 -0.0237  0.5497 -0.3166
   87MPD2     H 1331   2.953   2.380   1.010 -1.8501 -1.5195 -0.4034
   87MPD2    H1 1332   2.814   2.600   1.349  0.6915 -0.4979  0.7456
   87MPD2    H2 1333   2.957   2.222   1.419 -3.1098  0.0501 -0.1608
   87MPD2    H3 1334   2.869   2.416   1.493 -2.0011  0.8277 -0.5870
   87MPD2     N 1335   2.848   2.613   1.085  0.6145  0.3204  0.3062
   87MPD2    H5 1336   2.808   2.692   1.134  0.8023  0.1956  0.6556
   87MPD2    N1 1337   3.042   2.166   1.168  0.6581 -0.4320  0.0079
   87MPD2    H7 1338   3.067   2.106   1.246  0.1549 -1.8960 -0.9673
   88TCq2    C1 1339   3.094   2.139   1.043  0.0072  0.1469  0.7550
   88TCq2    O2 1340   3.099   2.207   0.945  0.7650  0.4213 -0.1749
   88TCq2    C2 1341   3.152   2.010   1.033 -0.1641 -0.5347 -0.3071
   88TCq2    C3 1342   3.126   1.919   1.135 -0.6006 -0.1064  0.3473
   88TCq2    C4 1343   3.211   1.811   1.147 -0.1166  0.3440  0.0792
   88TCq2    C5 1344   3.315   1.795   1.067 -0.0551 -0.4660 -0.5868
   88TCq2    C6 1345   3.341   1.896   0.978 -0.1736 -0.0228  0.3375
   88TCq2    C7 1346   3.255   1.999   0.950 -0.3350  0.0848 -0.1323
   88TCq2    C8 1347   3.482   1.913   0.938 -0.2631 -0.1552  0.4448
   88TCq2    O4 1348   3.511   2.027   0.903 -0.2019  0.0709  0.1561
   88TCq2    C9 1349   3.192   1.711   1.250 -0.0760 -0.5790  0.8019
   88TCq2    O5 1350   3.291   1.638   1.276  0.4444  0.5802 -0.5513
   88TCq2    O6 1351   3.091   1.723   1.321 -0.6449 -0.4945  0.0052
   88TCq2    H2 1352   3.036   1.919   1.196 -1.1757 -0.5174 -0.5105
   88TCq2    H3 1353   3.382   1.712   1.086 -0.5336 -1.1165 -1.7175
   88TCq2    H4 1354   3.285   2.086   0.892  0.7406 -0.9045 -1.0742
   89MPD2     C 1355   4.579   0.211   2.582 -0.2940 -0.1627  1.1394
   89MPD2    C1 1356   4.574   0.267   2.459 -0.9548 -0.3212  0.3065
   89MPD2    C2 1357   4.671   0.337   2.407 -0.3734 -0.6747 -0.5383
   89MPD2    C3 1358   0.064   0.345   2.485  0.1019  0.7338  0.1201
   89MPD2    C4 1359   0.079   0.279   2.601 -0.0676  0.3780  0.3331
   89MPD2    C5 1360   4.695   0.204   2.650 -0.6812 -0.2875  0.0212
   89MPD2     H 1361   4.660   0.391   2.314 -0.0015  1.3058  0.5754
   89MPD2    H1 1362   0.165   0.295   2.664  1.2642  2.4660 -2.0491
   89MPD2    H2 1363   4.496   0.148   2.612 -0.7934 -0.0642 -0.0298
   89MPD2    H3 1364   4.696   0.146   2.742  0.7295 -0.3692 -0.0407
   89MPD2     N 1365   0.162   0.432   2.441  0.1211  0.0178  0.4152
   89MPD2    H5 1366   0.141   0.475   2.352  1.1077  0.6017  0.4593
   89MPD2    N1 1367   4.442   0.276   2.403  0.2582 -0.9055  0.0620
   89MPD2    H7 1368   4.366   0.238   2.459  1.7182 -1.5001  1.6500
   90TCq2    C1 1369   0.283   0.453   2.501  0.3783  0.0007 -0.5080
   90TCq2    O2 1370   0.336   0.401   2.595 -0.0289 -0.1042  0.3452
   90TCq2    C2 1371   0.354   0.541   2.411 -0.3220 -0.1545 -0.0911
   90TCq2    C3 1372   0.490   0.535   2.409 -1.0103 -0.0998 -0.4905
   90TCq2    C4 1373   0.560   0.627   2.334 -0.5146 -0.2219 -0.4066
   90TCq2    C5 1374   0.504   0.726   2.264 -0.6614  0.4033 -0.0974
   90TCq2    C6 1375   0.363   0.732   2.279  0.0196  0.8556  0.3987
   90TCq2    C7 1376   0.286   0.633   2.337 -0.0715  0.3659 -1.1092
   90TCq2    C8 1377   0.299   0.828   2.190 -0.3705  0.0536 -0.1551
   90TCq2    O4 1378   0.192   0.881   2.226  0.0263  0.0990 -0.5853
   90TCq2    C9 1379   0.697   0.614   2.330 -0.2169 -0.5191 -0.3222
   90TCq2    O5 1380   0.765   0.712   2.290  0.4983  0.0374  0.1905
   90TCq2    O6 1381   0.752   0.525   2.404 -0.7010 -0.3036  0.2650
   90TCq2    H2 1382   0.547   0.463   2.467 -3.0230 -1.3164 -0.0523
   90TCq2    H3 1383   0.570   0.800   2.222  1.0406  0.0223  1.9206
   90TCq2    H4 1384   0.179   0.650   2.350  0.0634  0.1939  0.2347
   91TMC2    C1 1385   1.203   0.156  16.335  1.3635 -0.2143 -0.6295
   91TMC2    C2 1386   1.306   0.088  16.395 -0.2331 -0.2100  0.3141
   91TMC2    C3 1387   1.286   4.674  16.403 -0.2055 -0.2186 -0.5410
   91TMC2    C4 1388   1.082   0.108  16.312  0.3024  0.5380  0.6793
   91TMC2    C5 1389   1.066   4.695  16.334  0.5483 -0.2131  0.3276
   91TMC2    C6 1390   1.165   4.617  16.389 -0.0441 -0.8112  0.0015
   91TMC2     C 1391   1.237   0.280  16.263 -1.0586 -0.3813 -0.6479
   91TMC2     O 1392   1.156   0.315  16.183  0.3726  0.0946  0.1700
   91TMC2     H 1393   1.411   0.115  16.400 -0.2698  0.6483 -3.4357
   91TMC2    H1 1394   0.990   0.163  16.294 -0.0204 -0.6811 -1.3398
   91TMC2    H2 1395   1.151   4.510  16.394  0.1532 -0.8493 -0.2705
   91TMC2    C7 1396   0.939   4.634  16.303 -0.3138  0.6715  0.8218
   91TMC2    C8 1397   1.379   4.609  16.494 -0.0567 -0.0350 -0.0190
   91TMC2    O1 1398   0.915   4.533  16.367  0.4433 -0.3612  0.6157
   91TMC2    O2 1399   1.495   4.648  16.506  0.1044 -0.1749 -0.1498
   91TMC2    O5 1400   1.300   4.558  16.589  0.1688 -0.5436  0.0906
   91TMC2    H5 1401   1.210   4.540  16.555  0.2005  0.5827 -0.5782
   92MPD2     C 1402   1.364   0.517  16.140 -0.9198 -0.4361  0.0885
   92MPD2    C1 1403   1.424   0.430  16.234 -0.1816 -0.0994  0.3455
   92MPD2    C2 1404   1.565   0.438  16.256 -0.0016  0.7575 -0.1390
   92MPD2    C3 1405   1.642   0.527  16.181 -0.6590  0.1066  0.3150
   92MPD2    C4 1406   1.579   0.615  16.104  0.4684  0.3893 -0.4658
   92MPD2    C5 1407   1.443   0.617  16.078  0.7308  0.1260  0.0703
   92MPD2     H 1408   1.621   0.366  16.314 -0.9958 -1.7533 -2.2781
   92MPD2    H1 1409   1.634   0.682  16.039 -2.7771  2.0461 -1.5370
   92MPD2    H2 1410   1.258   0.525  16.118 -0.6198  0.6112 -1.0067
   92MPD2    H3 1411   1.387   0.687  16.018  0.4025 -0.7511 -0.6423
   92MPD2     N 1412   1.782   0.519  16.201 -0.0328 -0.8752  0.7536
   92MPD2    H5 1413   1.813   0.457  16.274  1.7339 -0.6589  0.1985
   92MPD2    N1 1414   1.359   0.325  16.298 -0.4664  0.4512 -0.1057
   92MPD2    H7 1415   1.413   0.283  16.373  0.7821  0.2748 -1.1056
   93MPD2     C 1416   3.109   0.441  12.949  0.7661 -0.0131  0.3391
   93MPD2    C1 1417   3.109   0.363  13.066  0.3395 -0.5661  0.4902
   93MPD2    C2 1418   3.015   0.387  13.163 -0.0956  0.2536  0.4213
   93MPD2    C3 1419   2.908   0.480  13.133  0.2000  0.5440  0.4215
   93MPD2    C4 1420   2.907   0.549  13.012  0.4338  0.4865 -0.4205
   93MPD2    C5 1421   3.005   0.527  12.924  0.4331 -0.6353  0.1096
   93MPD2     H 1422   3.021   0.326  13.252 -0.6281 -0.2269  0.1273
   93MPD2    H1 1423   2.832   0.625  12.993 -0.9871 -0.9506 -0.4985
   93MPD2    H2 1424   3.178   0.427  12.867  0.5975  2.5563 -0.2451
   93MPD2    H3 1425   3.007   0.578  12.829  2.1908  0.2014  0.5933
   93MPD2     N 1426   2.806   0.505  13.227  0.4164  0.3636 -0.2183
   93MPD2    H5 1427   2.750   0.588  13.207 -1.1346 -1.1835 -2.3245
   93MPD2    N1 1428   3.208   0.266  13.085  0.3351  0.1161  0.1928
   93MPD2    H7 1429   3.231   0.242  13.181  0.7293 -2.2332 -0.4812
   94TCq2    C1 1430   3.273   0.202  12.983 -0.5063  0.5737  0.0459
   94TCq2    O2 1431   3.276   0.225  12.861 -0.5064 -0.1927  0.3447
   94TCq2    C2 1432   3.381   0.129  13.041  0.2751  0.4823  0.3566
   94TCq2    C3 1433   3.398   0.000  12.994  0.2740  0.7782  0.7375
   94TCq2    C4 1434   3.511   4.657  13.030 -0.2642  0.4519  0.3673
   94TCq2    C5 1435   3.604   4.710  13.107  1.0375 -0.4680  0.2732
   94TCq2    C6 1436   3.587   0.125  13.143  0.1083  0.5331 -0.1057
   94TCq2    C7 1437   3.471   0.197  13.118 -0.1349 -0.1236  0.3908
   94TCq2    C8 1438   3.692   0.200  13.210 -0.7349 -0.6755 -0.1482
   94TCq2    O4 1439   3.809   0.163  13.202  0.0910  0.3326  0.6290
   94TCq2    C9 1440   3.535   4.521  12.974 -0.6271  0.3856 -0.8933
   94TCq2    O5 1441   3.637   4.463  13.009 -0.1596  0.3556  0.6665
   94TCq2    O6 1442   3.449   4.470  12.897  0.1252  0.1671 -0.2534
   94TCq2    H2 1443   3.322   4.673  12.932 -0.7084  1.3145  1.5374
   94TCq2    H3 1444   3.698   4.662  13.131  1.8846  1.1275  0.1775
   94TCq2    H4 1445   3.449   0.297  13.155 -0.3424 -1.2665  3.3644
   95TMC2    C1 1446   2.798   2.019  16.334  0.7339  0.0022  0.0845
   95TMC2    C2 1447   2.690   1.935  16.330 -0.1791  0.3706  0.3462
   95TMC2    C3 1448   2.566   1.981  16.356 -0.2015 -0.2973  0.1830
   95TMC2    C4 1449   2.778   2.151  16.366 -0.5345 -0.2371 -0.0642
   95TMC2    C5 1450   2.654   2.187  16.409  0.4704  0.4481  0.5308
   95TMC2    C6 1451   2.547   2.103  16.413  0.5356 -0.4677  0.1814
   95TMC2     C 1452   2.913   1.990  16.253 -0.7735  0.8540 -0.0954
   95TMC2     O 1453   2.998   2.082  16.246  0.2129  0.0083 -0.1537
   95TMC2     H 1454   2.700   1.836  16.288  0.4959  1.1253 -1.2916
   95TMC2    H1 1455   2.858   2.223  16.356 -0.2207 -0.4828  0.6942
   95TMC2    H2 1456   2.451   2.132  16.454 -0.2475 -0.9114 -1.3438
   95TMC2    C7 1457   2.613   2.324  16.433 -1.1281  0.7035  0.2338
   95TMC2    C8 1458   2.481   1.877  16.400  0.7163 -0.5484  0.0287
   95TMC2    O1 1459   2.498   2.358  16.404  0.0631 -0.1604 -0.1588
   95TMC2    O2 1460   2.506   1.763  16.422  0.1394  0.1466 -0.3508
   95TMC2    O5 1461   2.360   1.916  16.372  0.3054 -0.0626  0.1191
   95TMC2    H5 1462   2.354   1.992  16.310 -1.3998  0.6317  1.1346
   96MPD2     C 1463   3.184   1.699  15.932 -0.0827  0.3982  0.0174
   96MPD2    C1 1464   3.172   1.838  15.936 -0.3372  0.1129  0.5254
   96MPD2    C2 1465   3.075   1.892  16.019  0.0274  0.0422  0.3109
   96MPD2    C3 1466   3.004   1.813  16.105 -0.0116  0.4975 -0.2633
   96MPD2    C4 1467   3.018   1.678  16.093 -0.0918 -0.1881  0.0688
   96MPD2    C5 1468   3.105   1.621  16.010  0.1814 -0.5334 -0.9602
   96MPD2     H 1469   3.057   1.998  16.012 -0.8436 -0.2429 -1.8473
   96MPD2    H1 1470   2.956   1.614  16.155 -0.5643  1.2163  1.0439
   96MPD2    H2 1471   3.256   1.652  15.867 -1.6687 -0.6408 -0.9692
   96MPD2    H3 1472   3.096   1.514  15.994 -0.8730 -0.5513 -0.2576
   96MPD2     N 1473   2.923   1.862  16.210  0.4170 -0.1270  0.4484
   96MPD2    H5 1474   2.861   1.799  16.260 -1.6895  0.1438 -1.8242
   96MPD2    N1 1475   3.255   1.916  15.852 -0.2169 -0.3856 -0.5923
   96MPD2    H7 1476   3.310   1.864  15.785 -2.7750 -1.4345 -1.8759
   97MPD2     C 1477   0.457   3.831   1.536  0.5249 -0.2199 -0.5197
   97MPD2    C1 1478   0.490   3.963   1.492  0.0595 -0.5849  0.0007
   97MPD2    C2 1479   0.490   3.979   1.355 -0.5087  0.2693 -0.5641
   97MPD2    C3 1480   0.458   3.874   1.266 -0.5699  0.1301  0.8577
   97MPD2    C4 1481   0.408   3.757   1.314 -0.2662 -0.0269 -0.5384
   97MPD2    C5 1482   0.404   3.733   1.453 -0.2273  0.5292  0.2235
   97MPD2     H 1483   0.516   4.073   1.308 -1.2111  0.5894 -0.3033
   97MPD2    H1 1484   0.374   3.681   1.245  2.0882  0.7173 -2.5105
   97MPD2    H2 1485   0.461   3.813   1.642 -3.4909  1.0474 -0.1158
   97MPD2    H3 1486   0.371   3.632   1.476  0.1230  0.3154 -0.2028
   97MPD2     N 1487   0.470   3.884   1.125  0.7685  0.1797  0.3970
   97MPD2    H5 1488   0.427   3.812   1.067  0.9861 -0.2055  0.7155
   97MPD2    N1 1489   0.530   4.057   1.588  0.4825 -0.2759 -0.1398
   97MPD2    H7 1490   0.522   4.024   1.683 -0.5890 -0.3615 -0.2559
   98TCq2    C1 1491   0.539   3.982   1.063  0.1997 -0.0510  0.2971
   98TCq2    O2 1492   0.598   4.080   1.111 -0.1016 -0.4991  0.0658
   98TCq2    C2 1493   0.521   3.981   0.915  0.7402  0.1079  0.3752
   98TCq2    C3 1494   0.452   3.877   0.851 -0.5746 -1.0875  0.0543
   98TCq2    C4 1495   0.420   3.888   0.716  0.5773 -0.6546  0.1534
   98TCq2    C5 1496   0.450   4.002   0.645  0.0862 -0.3053  0.7380
   98TCq2    C6 1497   0.530   4.091   0.708 -0.2580  0.1924  0.3022
   98TCq2    C7 1498   0.571   4.091   0.842 -0.2133  0.1315 -0.2185
   98TCq2    C8 1499   0.579   4.206   0.633 -0.2222  0.7608 -0.3034
   98TCq2    O4 1500   0.667   4.280   0.680 -0.4516 -0.8991  0.1999
   98TCq2    C9 1501   0.351   3.773   0.658 -0.4076 -0.8745 -0.4882
   98TCq2    O5 1502   0.291   3.694   0.737  0.5370  0.2826  0.1116
   98TCq2    O6 1503   0.323   3.790   0.539  0.0149 -0.1194 -0.5945
   98TCq2    H2 1504   0.408   3.789   0.898 -1.9128 -0.1452  0.5527
   98TCq2    H3 1505   0.427   4.005   0.539  2.4360 -0.7192  0.2245
   98TCq2    H4 1506   0.635   4.167   0.884  0.6773 -0.9643  0.4086
   99MPD2     C 1507   4.239   1.716   2.304 -0.1350  0.0444  0.6765
   99MPD2    C1 1508   4.168   1.659   2.199  0.1796 -0.0019  0.0901
   99MPD2    C2 1509   4.221   1.676   2.071 -0.3443  0.0356 -0.2092
   99MPD2    C3 1510   4.331   1.754   2.042 -0.1456  0.3492 -0.4474
   99MPD2    C4 1511   4.398   1.803   2.150 -0.0416  0.4143 -0.7041
   99MPD2    C5 1512   4.357   1.781   2.276 -0.5916 -0.0917 -0.4792
   99MPD2     H 1513   4.171   1.638   1.983 -0.4019  1.0416 -0.6033
   99MPD2    H1 1514   4.488   1.863   2.135 -0.9710  2.1304  0.5545
   99MPD2    H2 1515   4.202   1.717   2.406 -2.3254 -0.0622 -0.1237
   99MPD2    H3 1516   4.421   1.825   2.351  0.5173 -0.4221 -1.2361
   99MPD2     N 1517   4.369   1.777   1.912  0.0021  0.1298 -0.1234
   99MPD2    H5 1518   4.302   1.753   1.839 -1.7758  1.4142  1.0653
   99MPD2    N1 1519   4.038   1.604   2.216  0.4785  0.1080  0.0255
   99MPD2    H7 1520   3.993   1.571   2.131  0.0384 -0.3534  0.4333
  100TCq2    C1 1521   3.957   1.616   2.330  0.2290  0.2131 -1.3023
  100TCq2    O2 1522   3.969   1.684   2.427  0.5417  0.0255 -0.1998
  100TCq2    C2 1523   3.825   1.558   2.312 -0.2969  0.0586  0.3888
  100TCq2    C3 1524   3.816   1.458   2.217 -0.0401  0.4194 -0.1514
  100TCq2    C4 1525   3.689   1.434   2.166  0.3492  1.0796 -1.2941
  100TCq2    C5 1526   3.577   1.490   2.221  0.4138 -0.6027  0.9461
  100TCq2    C6 1527   3.596   1.593   2.316 -0.4904  0.3652  0.5210
  100TCq2    C7 1528   3.719   1.624   2.359 -0.0739 -0.2948 -0.1460
  100TCq2    C8 1529   3.485   1.642   2.400  0.4514 -0.3640 -1.1052
  100TCq2    O4 1530   3.510   1.728   2.484  0.2435  0.3422 -0.6257
  100TCq2    C9 1531   3.676   1.345   2.057 -0.4328 -0.3313 -0.7471
  100TCq2    O5 1532   3.560   1.342   2.008  0.1556 -1.0375  0.5059
  100TCq2    O6 1533   3.780   1.303   2.004  0.4831  0.3228  0.1723
  100TCq2    H2 1534   3.905   1.407   2.182 -0.1135  0.6649 -0.7096
  100TCq2    H3 1535   3.481   1.455   2.184  0.2686 -0.5631  1.2834
  100TCq2    H4 1536   3.734   1.706   2.428  2.3538 -0.4295 -0.5233
  101MPD2     C 1537   4.668   2.519  13.000 -0.7183 -0.5632 -0.3064
  101MPD2    C1 1538   4.542   2.580  12.983  0.4183 -0.8726 -0.6858
  101MPD2    C2 1539   4.444   2.559  13.078 -0.3464 -0.4868 -0.5017
  101MPD2    C3 1540   4.474   2.500  13.194  0.3500 -0.3212  0.2436
  101MPD2    C4 1541   4.598   2.443  13.215  0.0504  0.6707  0.0031
  101MPD2    C5 1542   4.698   2.455  13.117  0.5510  0.0671 -0.2596
  101MPD2     H 1543   4.343   2.594  13.059 -0.1710 -0.4060 -1.2917
  101MPD2    H1 1544   4.626   2.390  13.305 -1.2264  0.8451  0.5051
  101MPD2    H2 1545   0.029   2.526  12.929 -0.3688 -0.6459  0.0837
  101MPD2    H3 1546   0.077   2.418  13.138  0.1709 -0.6159  0.3368
  101MPD2     N 1547   4.364   2.483  13.284  0.2158  0.4788 -0.3663
  101MPD2    H5 1548   4.269   2.516  13.264 -0.0406 -0.1343 -0.1503
  101MPD2    N1 1549   4.517   2.660  12.864  0.2366  0.1347 -0.1782
  101MPD2    H7 1550   4.597   2.686  12.806  2.3140 -1.4806  2.0049
  102TCq2    C1 1551   4.596   2.836  12.404  0.1118 -0.1307  0.2978
  102TCq2    O2 1552   4.688   2.759  12.428  0.5398 -0.0808  0.4083
  102TCq2    C2 1553   4.494   2.851  12.511 -0.4180 -0.6041  0.2188
  102TCq2    C3 1554   4.400   2.954  12.495  0.3662  0.2990 -0.8286
  102TCq2    C4 1555   4.302   2.963  12.589  0.2829  0.3025 -0.0544
  102TCq2    C5 1556   4.303   2.877  12.694  0.0339  0.5577  0.2841
  102TCq2    C6 1557   4.402   2.785  12.709  0.0064 -0.2440 -0.2566
  102TCq2    C7 1558   4.499   2.769  12.618 -0.1649  0.9356 -0.2119
  102TCq2    C8 1559   4.394   2.705  12.826  0.3447 -0.6933  0.5604
  102TCq2    O4 1560   4.282   2.682  12.869  0.3969  0.1808 -0.1631
  102TCq2    C9 1561   4.191   3.053  12.571  0.4410 -0.3884  0.0198
  102TCq2    O5 1562   4.186   3.123  12.468 -0.3195 -0.4236 -0.2556
  102TCq2    O6 1563   4.097   3.043  12.653 -0.3698  0.1551  0.2164
  102TCq2    H2 1564   4.395   3.030  12.418  0.1959  0.2753 -0.8413
  102TCq2    H3 1565   4.227   2.883  12.772  1.9989 -0.3723  2.2391
  102TCq2    H4 1566   4.578   2.695  12.624 -0.5254  0.7628  2.6968
  103TMC2    C1 1567   2.915   2.907  12.515 -0.0948  0.4940  0.1743
  103TMC2    C2 1568   3.037   2.961  12.483 -0.4849  0.2037  0.4301
  103TMC2    C3 1569   3.093   3.062  12.565  0.0713  0.4539 -0.8465
  103TMC2    C4 1570   2.844   2.946  12.627  0.0449  0.2949 -0.5613
  103TMC2    C5 1571   2.908   3.042  12.701 -0.1783  0.6903 -0.6453
  103TMC2    C6 1572   3.028   3.094  12.674  0.1785 -0.4109 -0.3452
  103TMC2     C 1573   2.831   2.865  12.398 -0.7910  0.6532  0.1117
  103TMC2     O 1574   2.711   2.883  12.424  0.0889 -0.2292  0.0591
  103TMC2     H 1575   3.092   2.923  12.397  1.0975  0.1620  1.4678
  103TMC2    H1 1576   2.740   2.924  12.647  0.7279 -0.2209  2.3889
  103TMC2    H2 1577   3.082   3.156  12.745  1.5774 -1.3344 -0.6033
  103TMC2    C7 1578   2.847   3.076  12.831 -0.6289 -0.0315 -0.8969
  103TMC2    C8 1579   3.227   3.105  12.546 -0.3081  0.5172  0.2164
  103TMC2    O1 1580   2.794   2.988  12.897 -0.0031  0.6631  0.1221
  103TMC2    O2 1581   3.303   3.113  12.639 -0.3132  0.1741 -0.0784
  103TMC2    O5 1582   3.260   3.069  12.419  0.3393  0.0465 -0.3263
  103TMC2    H5 1583   3.181   3.093  12.367 -1.8184 -1.3392  2.3496
  104MPD2     C 1584   2.922   2.707  12.082 -0.0125  0.0565  0.0274
  104MPD2    C1 1585   2.841   2.773  12.173 -0.3989  0.3270  0.0684
  104MPD2    C2 1586   2.716   2.814  12.142 -0.1171 -0.5432 -0.3422
  104MPD2    C3 1587   2.673   2.785  12.013 -0.9267 -0.3081 -0.2158
  104MPD2    C4 1588   2.761   2.723  11.921  0.2765 -0.1356 -0.2767
  104MPD2    C5 1589   2.885   2.678  11.951 -0.3603 -0.1378  0.1899
  104MPD2     H 1590   2.650   2.871  12.207  2.1629 -0.3730  1.8326
  104MPD2    H1 1591   2.742   2.712  11.815  1.8748  2.3533 -0.8167
  104MPD2    H2 1592   3.015   2.667  12.121 -0.7437 -0.5910  1.1061
  104MPD2    H3 1593   2.953   2.632  11.881 -1.4047 -0.1077 -0.8478
  104MPD2     N 1594   2.546   2.836  11.983  0.2053 -0.4934  0.4567
  104MPD2    H5 1595   2.496   2.887  12.056  1.1223 -0.4123  1.0272
  104MPD2    N1 1596   2.895   2.792  12.304 -0.2977  0.0080  0.0036
  104MPD2    H7 1597   2.992   2.766  12.317  0.1331  0.9448 -1.4199
  105MPD2     C 1598   0.167   2.078   0.282  0.6482 -0.4867  0.9126
  105MPD2    C1 1599   0.035   2.047   0.255 -0.0248  0.0307  0.3402
  105MPD2    C2 1600   4.650   2.057   0.347  1.0513 -0.5661 -0.3139
  105MPD2    C3 1601   4.672   2.092   0.477 -1.2497  0.1105 -0.0181
  105MPD2    C4 1602   0.079   2.140   0.503 -0.4774  0.3105  0.4248
  105MPD2    C5 1603   0.183   2.130   0.410 -0.7982 -0.3361 -0.1635
  105MPD2     H 1604   4.551   2.021   0.321  0.5097 -0.9962  2.3091
  105MPD2    H1 1605   0.107   2.178   0.601  1.3185 -0.7143  0.3098
  105MPD2    H2 1606   0.250   2.069   0.213  0.2004  0.1681  0.2828
  105MPD2    H3 1607   0.281   2.148   0.454 -0.3081 -1.6333 -0.7201
  105MPD2     N 1608   4.564   2.096   0.564  0.2881 -0.1974 -0.3194
  105MPD2    H5 1609   4.482   2.063   0.513  0.9201 -0.4162 -1.2072
  105MPD2    N1 1610   0.008   2.020   0.121 -0.1903  0.1647 -0.1642
  105MPD2    H7 1611   4.631   2.024   0.091 -0.0740 -0.6418 -0.6510
  106TCq2    C1 1612   4.564   2.150   0.696 -0.1261 -0.1526  0.4581
  106TCq2    O2 1613   4.649   2.203   0.771 -0.0707 -0.4124 -0.0227
  106TCq2    C2 1614   4.424   2.163   0.750 -0.1358  0.4009  0.6202
  106TCq2    C3 1615   4.393   2.251   0.850  0.1407 -0.1514 -0.2602
  106TCq2    C4 1616   4.272   2.250   0.905 -0.4505  0.0197  0.1678
  106TCq2    C5 1617   4.186   2.143   0.877  0.1177  0.6723  0.1268
  106TCq2    C6 1618   4.218   2.052   0.782  0.2860 -0.4332  0.6991
  106TCq2    C7 1619   4.337   2.061   0.715  0.4346  0.2202 -0.8793
  106TCq2    C8 1620   4.132   1.935   0.771 -0.0959 -0.1840 -0.0166
  106TCq2    O4 1621   4.188   1.843   0.711  0.2701 -0.2557  0.0640
  106TCq2    C9 1622   4.239   2.353   1.006 -0.1918 -0.2847  0.3138
  106TCq2    O5 1623   4.190   2.306   1.111  0.5087 -0.4186  0.0906
  106TCq2    O6 1624   4.308   2.459   1.001 -0.4385 -0.3247  0.3077
  106TCq2    H2 1625   4.467   2.321   0.887  0.5872 -0.4729 -0.5399
  106TCq2    H3 1626   4.098   2.138   0.940 -0.0160  0.3532 -0.0846
  106TCq2    H4 1627   4.356   1.981   0.644  1.3998 -0.7600  0.4832
  107TMC2    C1 1628   0.305   1.899  11.491 -0.0422  0.4810  0.1049
  107TMC2    C2 1629   0.272   1.928  11.365  0.8729 -0.4285  0.8842
  107TMC2    C3 1630   0.324   1.853  11.264  0.2630 -0.4297  0.2350
  107TMC2    C4 1631   0.380   1.788  11.522  0.7677 -0.2939  0.1740
  107TMC2    C5 1632   0.426   1.711  11.419 -0.0339  0.5634  0.4917
  107TMC2    C6 1633   0.406   1.744  11.288  0.4187 -0.4063 -0.0825
  107TMC2     C 1634   0.221   1.962  11.596 -0.6549 -0.5781  0.2600
  107TMC2     O 1635   0.196   1.892  11.692 -0.2406  0.6404 -0.0988
  107TMC2     H 1636   0.204   2.007  11.337  0.8332 -0.4335  0.9648
  107TMC2    H1 1637   0.386   1.769  11.629  1.4753 -0.4595  0.1013
  107TMC2    H2 1638   0.445   1.687  11.204 -2.3025 -2.5115  0.0935
  107TMC2    C7 1639   0.540   1.622  11.445  0.0290  0.6407  0.3411
  107TMC2    C8 1640   0.304   1.895  11.126  0.6903 -0.5420 -1.1014
  107TMC2    O1 1641   0.551   1.592  11.564  0.1049  0.3357 -0.4123
  107TMC2    O2 1642   0.217   1.971  11.094 -0.0315 -0.4950  0.1074
  107TMC2    O5 1643   0.425   1.889  11.069  0.2553 -0.1105 -0.1657
  107TMC2    H5 1644   0.498   1.847  11.118 -1.2984 -0.9593  1.4303
  108MPD2     C 1645   0.078   2.299  11.607 -0.0574  0.3191 -0.7057
  108MPD2    C1 1646   0.104   2.172  11.650  0.5120  0.1084 -0.1884
  108MPD2    C2 1647   0.049   2.142  11.773  0.3182 -0.0632 -0.4180
  108MPD2    C3 1648   4.681   2.226  11.844  0.0259 -0.0978  0.1153
  108MPD2    C4 1649   4.664   2.356  11.793  0.5457  0.2976 -0.2393
  108MPD2    C5 1650   0.009   2.389  11.677  0.3730 -0.1846  0.2052
  108MPD2     H 1651   0.063   2.045  11.819 -0.7739 -0.5412 -1.1092
  108MPD2    H1 1652   4.611   2.430  11.851  0.3447 -0.5976  0.7245
  108MPD2    H2 1653   0.133   2.331  11.519 -0.2689 -2.7998 -1.9671
  108MPD2    H3 1654   0.010   2.491  11.643  2.0052 -0.4574 -0.5785
  108MPD2     N 1655   4.621   2.198  11.968  0.0044 -0.4106  0.0134
  108MPD2    H5 1656   4.556   2.270  11.999 -0.1265 -0.0124 -1.2033
  108MPD2    N1 1657   0.186   2.092  11.571 -0.6494 -0.0260 -0.0239
  108MPD2    H7 1658   0.228   2.136  11.490 -0.8909  0.2236 -0.0145
  109MPD2     C 1659   0.370   3.409   1.935 -0.6206 -0.4779  0.6698
  109MPD2    C1 1660   0.318   3.348   2.043 -0.5825 -0.0869 -0.0709
  109MPD2    C2 1661   0.358   3.400   2.166  0.5896 -0.6693 -0.7104
  109MPD2    C3 1662   0.454   3.503   2.172  0.5665  0.5173 -0.3837
  109MPD2    C4 1663   0.495   3.573   2.056 -0.8681  0.3334  0.0850
  109MPD2    C5 1664   0.447   3.523   1.939 -0.1048 -0.4130 -0.0013
  109MPD2     H 1665   0.342   3.345   2.258 -1.9903  2.3746  0.6690
  109MPD2    H1 1666   0.561   3.659   2.053  1.8393 -1.7068  0.5101
  109MPD2    H2 1667   0.342   3.376   1.836  0.3634 -0.5463  0.4134
  109MPD2    H3 1668   0.459   3.588   1.853  0.3237  0.9197  1.0676
  109MPD2     N 1669   0.523   3.540   2.293 -0.2100 -0.0888  0.0987
  109MPD2    H5 1670   0.589   3.617   2.283  0.1625 -0.4692 -0.4145
  109MPD2    N1 1671   0.233   3.239   2.015 -0.2877  0.6052 -0.6116
  109MPD2    H7 1672   0.227   3.208   1.918 -0.9494  0.5586 -0.5548
  110TCq2    C1 1673   0.501   3.486   2.419 -0.4805  0.0993 -0.0041
  110TCq2    O2 1674   0.415   3.406   2.452  0.0416 -0.0134  0.4447
  110TCq2    C2 1675   0.581   3.555   2.524 -0.4393 -0.9514 -0.3060
  110TCq2    C3 1676   0.508   3.598   2.630 -0.0870 -0.0333 -0.7723
  110TCq2    C4 1677   0.544   3.720   2.703 -0.7794  0.0822  0.3017
  110TCq2    C5 1678   0.649   3.785   2.655  0.0918 -0.2658 -0.3228
  110TCq2    C6 1679   0.715   3.743   2.539 -0.9974  0.1155 -0.2394
  110TCq2    C7 1680   0.683   3.623   2.471 -0.4140  0.6442 -0.1872
  110TCq2    C8 1681   0.748   3.848   2.444 -0.4644 -0.7011 -0.5441
  110TCq2    O4 1682   0.724   3.821   2.328 -0.3906  0.3340 -0.0554
  110TCq2    C9 1683   0.460   3.761   2.811 -0.5977  0.2603  0.5079
  110TCq2    O5 1684   0.354   3.695   2.827 -0.3103 -0.0139  0.2155
  110TCq2    O6 1685   0.477   3.885   2.845  0.1637  0.7850  0.0491
  110TCq2    H2 1686   0.422   3.541   2.664  0.5895 -0.4024  0.3181
  110TCq2    H3 1687   0.677   3.870   2.717  0.5269 -1.8581  1.6920
  110TCq2    H4 1688   0.742   3.577   2.393  1.6455  1.7570  0.7168
  111TMC2    C1 1689   4.661   3.692  11.778 -0.0551 -0.5958 -0.2012
  111TMC2    C2 1690   4.562   3.641  11.855 -0.0780 -0.2615 -0.2881
  111TMC2    C3 1691   4.592   3.541  11.942  0.8449 -0.2875  0.2846
  111TMC2    C4 1692   0.070   3.644  11.783  0.3273 -0.4558  0.3593
  111TMC2    C5 1693   0.101   3.547  11.869 -0.0775  0.6310 -0.4470
  111TMC2    C6 1694   0.003   3.496  11.952  0.3029 -0.7706  0.1410
  111TMC2     C 1695   4.628   3.795  11.676  0.0525 -0.3212 -0.2169
  111TMC2     O 1696   0.007   3.813  11.603  0.1747 -0.0889  0.3501
  111TMC2     H 1697   4.462   3.679  11.847 -0.0169  0.0585  0.5158
  111TMC2    H1 1698   0.150   3.680  11.719 -1.2526  0.8181 -0.9042
  111TMC2    H2 1699   0.034   3.410  12.010 -0.0334 -0.9849  0.0011
  111TMC2    C7 1700   0.235   3.481  11.864  0.7161 -0.0451 -0.1472
  111TMC2    C8 1701   4.485   3.474  12.019 -0.1437 -1.1924  0.4265
  111TMC2    O1 1702   0.252   3.397  11.952 -0.0524  0.3087 -0.3220
  111TMC2    O2 1703   4.383   3.458  11.954 -0.1369  0.0881  0.6759
  111TMC2    O5 1704   4.555   3.380  12.088 -0.0985  0.6283 -0.0630
  111TMC2    H5 1705   4.621   3.423  12.147 -0.6749  0.7138  0.5149
  112MPD2     C 1706   4.295   4.092  11.413  0.4343 -0.3808 -0.0523
  112MPD2    C1 1707   4.431   4.062  11.390 -0.5399 -0.4199  0.0493
  112MPD2    C2 1708   4.509   3.980  11.471 -0.8471 -0.7590  0.2975
  112MPD2    C3 1709   4.444   3.929  11.580  0.2614  0.1972  0.2659
  112MPD2    C4 1710   4.314   3.954  11.606  0.0917 -0.6012  0.2552
  112MPD2    C5 1711   4.235   4.028  11.520  0.4569 -0.1895 -0.2746
  112MPD2     H 1712   4.614   3.967  11.447 -0.9603  0.4308 -0.8642
  112MPD2    H1 1713   4.262   3.909  11.690 -0.7038  0.5776  0.3899
  112MPD2    H2 1714   4.232   4.151  11.347  1.0465 -0.4144 -0.6628
  112MPD2    H3 1715   4.129   4.029  11.541 -0.2007  0.8751 -3.5353
  112MPD2     N 1716   4.502   3.841  11.673 -0.5840 -0.2782 -0.7332
  112MPD2    H5 1717   4.437   3.813  11.745 -2.1166  1.3553 -1.4674
  112MPD2    N1 1718   4.500   4.107  11.282  0.0553  0.3613 -0.7321
  112MPD2    H7 1719   4.599   4.083  11.276 -0.0144  0.6894 -3.0913
  113MPD2     C 1720   2.748   1.185   1.658 -0.0879 -0.7510 -1.4999
  113MPD2    C1 1721   2.789   1.271   1.559  0.2531  0.3419  0.3449
  113MPD2    C2 1722   2.774   1.237   1.426  0.4399 -0.5252  0.0181
  113MPD2    C3 1723   2.727   1.109   1.392 -1.1278  0.3259  0.9610
  113MPD2    C4 1724   2.708   1.020   1.491 -0.6882 -0.0138 -0.1800
  113MPD2    C5 1725   2.703   1.059   1.623 -0.2891 -0.6408 -0.3753
  113MPD2     H 1726   2.788   1.313   1.350  0.1425 -1.3767 -0.8796
  113MPD2    H1 1727   2.691   0.916   1.466 -1.2561  0.1977 -0.6780
  113MPD2    H2 1728   2.743   1.212   1.763 -0.3723 -0.6793 -1.5328
  113MPD2    H3 1729   2.688   0.975   1.689  1.9666 -1.2836 -0.6830
  113MPD2     N 1730   2.707   1.065   1.263  0.2670  0.6931 -0.5755
  113MPD2    H5 1731   2.676   0.968   1.260  0.6571  0.6245 -2.3925
  113MPD2    N1 1732   2.832   1.403   1.588  0.6198 -0.2991  0.1092
  113MPD2    H7 1733   2.853   1.470   1.514  1.9753 -0.2385  0.5573
  114TCq2    C1 1734   2.701   1.144   1.156 -0.4556 -0.9248  0.1738
  114TCq2    O2 1735   2.751   1.255   1.138 -0.1430  0.2271 -0.0682
  114TCq2    C2 1736   2.660   1.075   1.037 -0.0700  0.2491 -0.0070
  114TCq2    C3 1737   2.692   1.141   0.926  0.4618  0.1502  0.1182
  114TCq2    C4 1738   2.648   1.083   0.810 -0.4575 -0.5226  0.6507
  114TCq2    C5 1739   2.558   0.982   0.811  0.4498  0.2078  0.1019
  114TCq2    C6 1740   2.513   0.928   0.931  0.6390 -0.3666  0.6173
  114TCq2    C7 1741   2.560   0.984   1.047  0.4291 -0.1489 -0.1593
  114TCq2    C8 1742   2.407   0.820   0.926  0.4950  0.7104 -0.6558
  114TCq2    O4 1743   2.351   0.801   0.818 -0.3220 -0.0608  0.2916
  114TCq2    C9 1744   2.649   1.158   0.687  0.8280  0.2770 -0.2487
  114TCq2    O5 1745   2.726   1.255   0.679 -0.2820 -0.4974 -0.0585
  114TCq2    O6 1746   2.538   1.162   0.627  0.2213 -0.1323 -0.1927
  114TCq2    H2 1747   2.767   1.217   0.911  0.0795  0.6765  0.9126
  114TCq2    H3 1748   2.519   0.944   0.718 -0.2191  2.4124 -0.5237
  114TCq2    H4 1749   2.521   0.960   1.145 -0.2606  0.5671 -0.2602
  115TMC2    C1 1750   3.693   4.098   0.439 -0.4668 -0.2094  0.1384
  115TMC2    C2 1751   3.716   4.108   0.571 -0.8768 -0.8116 -0.2221
  115TMC2    C3 1752   3.702   4.232   0.635 -0.1507  0.1248  0.0097
  115TMC2    C4 1753   3.653   4.212   0.368 -0.4195 -0.8898  0.0010
  115TMC2    C5 1754   3.627   4.332   0.439  0.1626  0.2078 -0.1213
  115TMC2    C6 1755   3.641   4.337   0.572 -0.0434  0.5104  0.0140
  115TMC2     C 1756   3.717   3.974   0.364  0.3511  0.5664  0.6162
  115TMC2     O 1757   3.637   3.958   0.272 -0.0427 -0.0280 -0.0796
  115TMC2     H 1758   3.757   4.021   0.622  1.1671  0.6637  0.6540
  115TMC2    H1 1759   3.618   4.186   0.269 -0.9895 -0.6609  0.1395
  115TMC2    H2 1760   3.627   4.433   0.621 -1.0431  0.0928  0.5539
  115TMC2    C7 1761   3.546   4.438   0.386  0.3342 -0.5838  0.4004
  115TMC2    C8 1762   3.755   4.249   0.774  0.3609 -0.1572 -0.8031
  115TMC2    O1 1763   3.481   4.509   0.461  0.5560 -0.6493  0.0324
  115TMC2    O2 1764   3.772   4.361   0.823 -0.1368 -0.1018  0.3048
  115TMC2    O5 1765   3.739   4.132   0.845  0.4008 -0.1188 -0.4147
  115TMC2    H5 1766   3.682   4.062   0.806  0.0042  0.9255 -1.6980
  116MPD2     C 1767   3.910   3.536   0.257 -0.0311 -0.3011  0.9405
  116MPD2    C1 1768   3.780   3.579   0.244  0.2893 -0.3676  0.6027
  116MPD2    C2 1769   3.745   3.691   0.315  0.2246 -0.0066  0.0551
  116MPD2    C3 1770   3.836   3.767   0.385 -0.4415  1.1420 -0.1681
  116MPD2    C4 1771   3.960   3.714   0.412 -0.8314 -0.2927  0.0618
  116MPD2    C5 1772   3.993   3.597   0.346  0.1690  0.3051  0.6899
  116MPD2     H 1773   3.648   3.739   0.309  1.4508  2.7028  2.1093
  116MPD2    H1 1774   4.027   3.763   0.481 -0.1905  0.0237 -0.7848
  116MPD2    H2 1775   3.944   3.452   0.198 -0.8760 -1.1198  1.6198
  116MPD2    H3 1776   4.087   3.552   0.373  0.4298 -0.7436 -1.9874
  116MPD2     N 1777   3.808   3.896   0.430 -0.5266 -0.8907 -0.0335
  116MPD2    H5 1778   3.877   3.940   0.490  0.1403 -0.3132 -1.2484
  116MPD2    N1 1779   3.695   3.503   0.161  0.0372  0.7100  0.1898
  116MPD2    H7 1780   3.732   3.418   0.118  0.3631  1.3435 -0.7767
  117TMC2    C1 1781   1.657   0.741  13.562 -0.0204  0.0814  0.6723
  117TMC2    C2 1782   1.670   0.635  13.477  0.1387  0.1750 -0.6302
  117TMC2    C3 1783   1.789   0.566  13.479 -0.6792 -0.1176  0.5350
  117TMC2    C4 1784   1.753   0.771  13.654  0.1514  0.6429 -0.7002
  117TMC2    C5 1785   1.873   0.700  13.638  0.9484  0.3546  0.0165
  117TMC2    C6 1786   1.889   0.600  13.552  0.1446 -0.3365 -0.5163
  117TMC2     C 1787   1.589   0.859  13.509 -0.2472  0.0011 -0.0055
  117TMC2     O 1788   1.556   0.844  13.394  0.3355 -0.2080 -0.4834
  117TMC2     H 1789   1.599   0.619  13.396  0.7914  2.8813 -1.7433
  117TMC2    H1 1790   1.752   0.857  13.719  0.7807 -0.3794  0.6560
  117TMC2    H2 1791   1.980   0.541  13.541 -0.4822 -1.3464 -0.2475
  117TMC2    C7 1792   1.993   0.721  13.721  0.0133  0.6269  0.3544
  117TMC2    C8 1793   1.807   0.454  13.392  0.7148  0.3538 -0.1305
  117TMC2    O1 1794   2.103   0.686  13.673  0.3586  0.6658 -0.1983
  117TMC2    O2 1795   1.721   0.383  13.348 -0.5959 -0.3258  0.3215
  117TMC2    O5 1796   1.913   0.487  13.326 -0.1371 -0.1033 -0.0642
  117TMC2    H5 1797   1.961   0.565  13.360  0.2240 -0.5538  0.4517
  118MPD2     C 1798   2.032   0.841  14.075  0.0565  0.0960 -0.5129
  118MPD2    C1 1799   2.076   0.792  13.954  0.3803 -0.0974 -0.5905
  118MPD2    C2 1800   2.209   0.793  13.932  0.5636 -0.1922  0.1936
  118MPD2    C3 1801   2.304   0.849  14.015 -0.8951  0.3751  1.0033
  118MPD2    C4 1802   2.256   0.910  14.131  0.6263 -0.4147 -0.6429
  118MPD2    C5 1803   2.123   0.900  14.161  0.4715  0.7878  0.2521
  118MPD2     H 1804   2.249   0.760  13.837 -3.5873  1.0313 -1.9764
  118MPD2    H1 1805   2.320   0.971  14.193  0.6702 -0.5696 -0.5354
  118MPD2    H2 1806   1.926   0.846  14.099 -0.3081 -1.0985 -1.8818
  118MPD2    H3 1807   2.093   0.947  14.253  1.6967  1.8431  0.1146
  118MPD2     N 1808   2.442   0.860  13.979 -0.1302  0.1088 -0.2355
  118MPD2    H5 1809   2.500   0.926  14.029  0.2819 -0.6947  0.3466
  118MPD2    N1 1810   1.971   0.760  13.854 -0.2330 -0.0332 -0.2877
  118MPD2    H7 1811   1.875   0.777  13.886  0.6669 -0.0280  2.4079
  119MPD2     C 1812   0.826   2.162  13.583  1.1211 -0.4506 -0.5029
  119MPD2    C1 1813   0.706   2.175  13.651  0.1293  0.5312 -0.6487
  119MPD2    C2 1814   0.597   2.233  13.579  0.0317 -0.1824 -0.6100
  119MPD2    C3 1815   0.607   2.268  13.445  0.1091 -0.1123  0.0365
  119MPD2    C4 1816   0.730   2.267  13.385 -0.3433 -0.5283 -0.5301
  119MPD2    C5 1817   0.834   2.218  13.452 -0.1469  0.5898 -0.7379
  119MPD2     H 1818   0.502   2.253  13.627  0.5811  1.4750 -0.2170
  119MPD2    H1 1819   0.749   2.310  13.287 -0.8133 -0.4395 -0.5795
  119MPD2    H2 1820   0.916   2.118  13.625  0.4732 -1.8396 -0.5831
  119MPD2    H3 1821   0.931   2.224  13.403  0.5975  1.4414  0.8412
  119MPD2     N 1822   0.502   2.289  13.353 -0.4057  0.2801  0.0927
  119MPD2    H5 1823   0.526   2.296  13.255 -1.8022  1.2994 -0.1757
  119MPD2    N1 1824   0.698   2.125  13.784  0.0834 -0.9491  0.1183
  119MPD2    H7 1825   0.789   2.108  13.824 -1.0929 -3.4950  1.7104
  120TCq2    C1 1826   0.373   2.283  13.386 -0.0552 -0.2935  0.3741
  120TCq2    O2 1827   0.329   2.268  13.494 -0.0109 -0.1901 -0.6804
  120TCq2    C2 1828   0.300   2.239  13.268 -0.1329  0.6402 -0.4788
  120TCq2    C3 1829   0.373   2.203  13.154 -0.3944  0.2663  0.1894
  120TCq2    C4 1830   0.305   2.139  13.057 -0.7726 -0.4037  0.0025
  120TCq2    C5 1831   0.170   2.098  13.076 -0.1713 -0.2071 -0.1065
  120TCq2    C6 1832   0.102   2.132  13.187  0.1379  0.3926 -0.0909
  120TCq2    C7 1833   0.171   2.198  13.288  0.5581  0.0895 -0.2222
  120TCq2    C8 1834   4.700   2.073  13.224  0.2479  0.2074 -0.0864
  120TCq2    O4 1835   4.624   2.025  13.138 -0.6511  0.0667 -0.2476
  120TCq2    C9 1836   0.369   2.100  12.934 -0.1157 -0.1059  0.3674
  120TCq2    O5 1837   0.306   2.024  12.857  0.3621 -0.3558  0.0543
  120TCq2    O6 1838   0.477   2.152  12.897 -0.4178  0.6599 -0.6278
  120TCq2    H2 1839   0.478   2.222  13.132 -0.8364  0.9632 -1.3105
  120TCq2    H3 1840   0.126   2.039  12.996  2.9612 -1.1036 -1.1609
  120TCq2    H4 1841   0.126   2.240  13.378 -0.3716 -2.7410  0.6280
  121TMC2    C1 1842   1.796   4.190  13.695  0.0273 -0.6939 -0.1433
  121TMC2    C2 1843   1.751   4.289  13.612  0.2493 -0.0725  0.2336
  121TMC2    C3 1844   1.641   4.351  13.656 -0.0223  0.0518 -0.4373
  121TMC2    C4 1845   1.717   4.136  13.797 -0.3931 -0.9134 -0.3466
  121TMC2    C5 1846   1.594   4.198  13.819  0.1469  0.2781  0.3594
  121TMC2    C6 1847   1.553   4.304  13.745 -0.1778  0.2036  0.3872
  121TMC2     C 1848   1.932   4.146  13.682 -0.7893 -0.3952  0.1702
  121TMC2     O 1849   1.990   4.138  13.790 -0.0002  0.2380  0.0664
  121TMC2     H 1850   1.823   4.342  13.552  0.2704  0.6546  0.9014
  121TMC2    H1 1851   1.748   4.064  13.872  3.1469 -0.0808 -0.9865
  121TMC2    H2 1852   1.464   4.359  13.771 -1.4175 -0.8967 -1.4764
  121TMC2    C7 1853   1.517   4.161  13.933  0.1040  0.3399 -0.1499
  121TMC2    C8 1854   1.593   4.469  13.590  0.0334  0.3640 -0.2175
  121TMC2    O1 1855   1.580   4.130  14.034  0.6186  0.0325 -0.0846
  121TMC2    O2 1856   1.475   4.485  13.559  0.3062  0.1531  0.0819
  121TMC2    O5 1857   1.687   4.545  13.536 -0.4068  0.2527 -0.1019
  121TMC2    H5 1858   1.780   4.541  13.568 -0.4007 -1.7932 -0.3736
  122MPD2     C 1859   2.210   4.158  13.598  0.0665 -0.5576 -0.3626
  122MPD2    C1 1860   2.101   4.163  13.508 -0.0291  0.2900  0.2620
  122MPD2    C2 1861   2.127   4.170  13.375  0.3671  0.0251  0.3896
  122MPD2    C3 1862   2.255   4.191  13.320 -1.1922 -0.0705  0.0513
  122MPD2    C4 1863   2.362   4.176  13.412  1.0746 -0.7676  0.6036
  122MPD2    C5 1864   2.338   4.172  13.541 -0.1246  0.2144  0.1235
  122MPD2     H 1865   2.052   4.151  13.298  0.4184 -1.0292  0.5958
  122MPD2    H1 1866   2.466   4.187  13.380  2.0792  1.2420  4.6250
  122MPD2    H2 1867   2.195   4.158  13.706 -0.5855  1.9479 -0.4412
  122MPD2    H3 1868   2.423   4.168  13.607 -0.0591  0.2881  0.0443
  122MPD2     N 1869   2.280   4.188  13.182 -0.2786 -0.3311 -0.3855
  122MPD2    H5 1870   2.378   4.173  13.160  0.0549 -2.1493  2.2739
  122MPD2    N1 1871   1.973   4.149  13.553  0.4492  0.9089  0.0558
  122MPD2    H7 1872   1.902   4.148  13.480 -1.5746  0.6526  2.0129
  123MPD2     C 1873   3.399   2.687   8.535  0.0855  0.7460  0.8946
  123MPD2    C1 1874   3.488   2.610   8.611  0.2896  0.3563  0.1610
  123MPD2    C2 1875   3.496   2.474   8.582 -0.2468  0.1638 -0.2734
  123MPD2    C3 1876   3.410   2.415   8.490 -0.3267 -0.2863 -0.0953
  123MPD2    C4 1877   3.316   2.490   8.424  0.1130 -0.5700 -0.1419
  123MPD2    C5 1878   3.313   2.623   8.454  0.1405 -0.5850  0.3070
  123MPD2     H 1879   3.574   2.412   8.624 -0.6332 -1.1472 -1.5039
  123MPD2    H1 1880   3.242   2.448   8.357 -0.9706  1.9988 -0.5761
  123MPD2    H2 1881   3.385   2.793   8.547  4.2178  1.3379  0.2850
  123MPD2    H3 1882   3.245   2.690   8.402  0.4747 -1.1230 -0.8239
  123MPD2     N 1883   3.420   2.282   8.454 -0.5401 -0.8271 -0.0833
  123MPD2    H5 1884   3.467   2.215   8.515  0.4913  0.9450  1.0515
  123MPD2    N1 1885   3.573   2.680   8.701  0.2659 -0.0683  0.1639
  123MPD2    H7 1886   3.556   2.780   8.700  2.1318  0.2494  0.5950
  124TCq2    C1 1887   3.377   2.228   8.334  0.3719  0.4471 -0.2619
  124TCq2    O2 1888   3.354   2.287   8.232 -0.7658 -0.2911 -0.3086
  124TCq2    C2 1889   3.379   2.086   8.333 -0.1483  0.4487 -0.3103
  124TCq2    C3 1890   3.365   2.021   8.210  0.3705  0.6801 -0.6314
  124TCq2    C4 1891   3.354   1.885   8.209 -0.9287 -0.0504  0.6941
  124TCq2    C5 1892   3.374   1.813   8.323  0.8852  0.6345  0.2411
  124TCq2    C6 1893   3.378   1.879   8.442  0.6147  0.1103 -0.2315
  124TCq2    C7 1894   3.373   2.014   8.452 -0.1616  0.0755 -0.2593
  124TCq2    C8 1895   3.404   1.808   8.567 -0.3014  1.0076  0.7101
  124TCq2    O4 1896   3.472   1.863   8.655 -0.3457 -0.4355  0.1834
  124TCq2    C9 1897   3.341   1.810   8.092  0.0128  1.0869  0.3750
  124TCq2    O5 1898   3.325   1.685   8.101  0.4924  0.6304  0.2759
  124TCq2    O6 1899   3.316   1.867   7.988 -0.1589 -0.3161  0.1650
  124TCq2    H2 1900   3.374   2.074   8.116 -1.1905  0.3643 -0.9428
  124TCq2    H3 1901   3.388   1.706   8.308 -0.9493  0.3186  0.7532
  124TCq2    H4 1902   3.384   2.062   8.549 -1.2907 -1.3430  0.5774
  125TMC2    C1 1903   0.188   4.213   8.585 -0.2603 -0.0449  0.0437
  125TMC2    C2 1904   0.179   4.075   8.564  0.1747  0.3451  0.6211
  125TMC2    C3 1905   0.287   3.989   8.594  0.9640  0.7238  0.3362
  125TMC2    C4 1906   0.289   4.264   8.660  0.6151 -0.1160 -0.1350
  125TMC2    C5 1907   0.382   4.170   8.698  0.5069  0.0870  0.3608
  125TMC2    C6 1908   0.385   4.035   8.668  0.4346  0.4235 -0.4724
  125TMC2     C 1909   0.079   4.301   8.557 -0.0396  0.2878 -0.1377
  125TMC2     O 1910   0.100   4.416   8.579 -0.3715  0.3123 -0.3382
  125TMC2     H 1911   0.107   4.045   8.488  0.7629  1.5935 -0.4444
  125TMC2    H1 1912   0.309   4.368   8.684 -2.6565  0.9119 -1.8073
  125TMC2    H2 1913   0.463   3.966   8.694 -0.1771  0.0330  0.3353
  125TMC2    C7 1914   0.477   4.225   8.790 -0.3302 -0.3998 -0.3856
  125TMC2    C8 1915   0.290   3.852   8.544  0.2143 -0.4131 -0.3371
  125TMC2    O1 1916   0.466   4.337   8.838  0.2824 -0.3877 -0.7791
  125TMC2    O2 1917   0.393   3.786   8.539 -0.1049 -0.3043  0.5562
  125TMC2    O5 1918   0.165   3.798   8.527  0.1961  0.2689 -0.0819
  125TMC2    H5 1919   0.097   3.866   8.545 -2.1204 -1.5619 -1.8824
  126MPD1     C 1920   4.367   4.421   8.310 -0.2812 -0.3957 -0.0229
  126MPD1    C1 1921   4.360   4.289   8.349 -0.1624 -0.9564 -0.3324
  126MPD1    C2 1922   4.459   4.242   8.422 -0.2254 -0.4079 -0.0541
  126MPD1    C3 1923   4.572   4.314   8.448  0.0236 -0.1605 -0.4141
  126MPD1    C4 1924   4.583   4.446   8.404 -0.2640 -0.2765 -0.9514
  126MPD1    C5 1925   4.476   4.501   8.336  0.0575  0.0432 -0.5411
  126MPD1     H 1926   4.452   4.138   8.452 -1.4817  0.4730  2.7076
  126MPD1    H1 1927   4.676   4.501   8.415  0.7629 -2.2957  0.4032
  126MPD1    H2 1928   4.284   4.463   8.255  0.5703 -0.5518 -1.4090
  126MPD1    H3 1929   4.485   4.606   8.311  1.7920 -0.3764 -1.6623
  126MPD1     N 1930   4.683   4.246   8.509  0.1335 -0.2203  0.0102
  126MPD1    H5 1931   4.670   4.145   8.514 -0.4579 -0.0827  1.2233
  126MPD1    N1 1932   4.250   4.206   8.306  0.3471 -0.8882 -0.3824
  126MPD1    H6 1933   4.239   4.132   8.375  2.4342 -0.1987  0.6987
  126MPD1    H7 1934   4.161   4.257   8.305  1.4619  1.0588 -1.8361
  127MPD2     C 1935   2.221   2.495   8.609  0.3150  0.3791 -0.2746
  127MPD2    C1 1936   2.268   2.509   8.739  0.1441  0.5611 -0.3448
  127MPD2    C2 1937   2.266   2.633   8.810 -0.1426 -0.4290 -0.1067
  127MPD2    C3 1938   2.200   2.738   8.752  0.1433  0.0249  0.6940
  127MPD2    C4 1939   2.163   2.728   8.621  0.2732 -0.9324 -0.4002
  127MPD2    C5 1940   2.176   2.613   8.557 -0.2979  0.0834  0.8994
  127MPD2     H 1941   2.311   2.639   8.908  1.1633  0.8050 -0.7771
  127MPD2    H1 1942   2.113   2.810   8.571 -0.7712 -1.5128 -0.3103
  127MPD2    H2 1943   2.207   2.393   8.574  1.2024  0.0703  0.2829
  127MPD2    H3 1944   2.130   2.616   8.459 -2.9546  2.0828  2.1933
  127MPD2     N 1945   2.175   2.843   8.839 -0.2474  0.1498  0.1955
  127MPD2    H5 1946   2.210   2.834   8.934  0.4846 -0.1736 -0.1117
  127MPD2    N1 1947   2.309   2.391   8.801  0.6781  0.3836 -0.0626
  127MPD2    H7 1948   2.302   2.306   8.746 -0.1391 -0.5142  1.4353
  128TCq2    C1 1949   2.364   2.378   8.924 -0.4095  0.4854  0.0396
  128TCq2    O2 1950   2.406   2.465   9.004 -0.7679  0.3883  0.3522
  128TCq2    C2 1951   2.414   2.240   8.947  0.6319  0.4678 -0.2479
  128TCq2    C3 1952   2.514   2.230   9.041  0.2406  0.1215 -0.4803
  128TCq2    C4 1953   2.571   2.104   9.055 -0.1134 -0.4724  0.3076
  128TCq2    C5 1954   2.530   2.002   8.974  0.0540  0.1609  0.5599
  128TCq2    C6 1955   2.431   2.014   8.883 -0.9011 -0.0631  0.1436
  128TCq2    C7 1956   2.371   2.134   8.871 -0.7141 -0.1778  1.5557
  128TCq2    C8 1957   2.373   1.899   8.822 -0.0926  1.0014 -0.4270
  128TCq2    O4 1958   2.309   1.928   8.722 -0.6570 -0.0904 -0.4001
  128TCq2    C9 1959   2.643   2.078   9.176 -0.0550  0.4727  0.0491
  128TCq2    O5 1960   2.671   2.178   9.249 -0.2132 -0.4152 -0.0350
  128TCq2    O6 1961   2.642   1.959   9.220  0.5149 -0.5266 -0.7307
  128TCq2    H2 1962   2.525   2.312   9.111  1.8061  1.4864 -2.3127
  128TCq2    H3 1963   2.574   1.903   8.979 -0.4805 -0.0632  0.7846
  128TCq2    H4 1964   2.277   2.140   8.817 -0.7622 -0.8713  1.5596
  129MPD2     C 1965   0.487   3.273   1.572  0.3478 -0.2591  0.1448
  129MPD2    C1 1966   0.603   3.310   1.634 -0.0789 -0.0855  0.4931
  129MPD2    C2 1967   0.672   3.426   1.592  0.1210  0.1883 -0.0642
  129MPD2    C3 1968   0.642   3.486   1.473 -0.5731 -0.2867  0.0498
  129MPD2    C4 1969   0.536   3.432   1.403 -0.1035  0.2987  0.6100
  129MPD2    C5 1970   0.450   3.335   1.457 -0.5472  0.3650  0.8196
  129MPD2     H 1971   0.759   3.459   1.647  0.9606 -1.6327 -0.2946
  129MPD2    H1 1972   0.502   3.475   1.309 -1.0512  0.9413  1.2501
  129MPD2    H2 1973   0.418   3.199   1.611  0.9722 -1.0406 -0.2390
  129MPD2    H3 1974   0.360   3.300   1.407  0.0309 -1.4953  1.0664
  129MPD2     N 1975   0.714   3.607   1.437  0.2435  0.7820  0.1553
  129MPD2    H5 1976   0.782   3.643   1.502  0.4226 -0.3502  0.5917
  129MPD2    N1 1977   0.644   3.256   1.759  0.0666  0.0200 -0.2118
  129MPD2    H7 1978   0.717   3.310   1.803  0.0954 -0.7985  0.7439
  130TCq2    C1 1979   0.568   3.164   1.834 -0.5785 -0.6234  0.0232
  130TCq2    O2 1980   0.487   3.078   1.798  0.0756 -0.6989 -1.0779
  130TCq2    C2 1981   0.607   3.153   1.972  0.1315 -0.1995  0.3571
  130TCq2    C3 1982   0.691   3.256   2.018  0.0835 -0.4115  0.7624
  130TCq2    C4 1983   0.719   3.252   2.146  0.6184  0.0282 -0.2333
  130TCq2    C5 1984   0.637   3.186   2.237 -0.0546 -0.0071 -0.1529
  130TCq2    C6 1985   0.546   3.090   2.185  0.4855 -0.1811 -0.0765
  130TCq2    C7 1986   0.538   3.060   2.050  0.4590 -1.2806 -0.7164
  130TCq2    C8 1987   0.462   3.015   2.278  0.1342 -0.0617 -0.4364
  130TCq2    O4 1988   0.426   2.903   2.244  0.0477  0.4425 -0.1188
  130TCq2    C9 1989   0.827   3.337   2.197  0.2905 -0.5409  0.2014
  130TCq2    O5 1990   0.853   3.326   2.318 -0.7872 -0.4119 -0.4081
  130TCq2    O6 1991   0.902   3.394   2.112 -0.1780 -0.1610 -0.1852
  130TCq2    H2 1992   0.758   3.311   1.953 -1.8524  0.0688 -0.8092
  130TCq2    H3 1993   0.652   3.195   2.344  0.1974  2.0607 -0.3573
  130TCq2    H4 1994   0.474   2.983   2.008  0.1277 -1.4014  0.0168
  131MPD2     C 1995   4.099   3.506   8.668 -0.5074  0.3458  0.4855
  131MPD2    C1 1996   4.194   3.417   8.713 -0.6321 -0.4109  0.6108
  131MPD2    C2 1997   4.153   3.283   8.747 -0.0074 -0.1900  0.7152
  131MPD2    C3 1998   4.021   3.245   8.746  0.3513  0.4036 -0.3709
  131MPD2    C4 1999   3.921   3.338   8.717 -0.3598 -0.3306 -0.3091
  131MPD2    C5 2000   3.966   3.465   8.681 -0.1647  0.7598  0.2524
  131MPD2     H 2001   4.226   3.207   8.774 -0.0580 -0.4941 -0.0076
  131MPD2    H1 2002   3.817   3.327   8.744 -0.3198 -0.7570 -0.3293
  131MPD2    H2 2003   4.117   3.610   8.642 -0.7623  0.2962  0.1013
  131MPD2    H3 2004   3.889   3.539   8.662 -1.8713 -1.4575 -1.3449
  131MPD2     N 2005   3.984   3.114   8.791  0.0828  0.2206 -1.0547
  131MPD2    H5 2006   4.058   3.048   8.813 -1.6296 -1.4150 -0.3094
  131MPD2    N1 2007   4.331   3.457   8.705  0.6633  0.2778 -0.3064
  131MPD2    H7 2008   4.352   3.556   8.696  1.0874  0.5076  3.5818
  132TCq2    C1 2009   4.680   3.784   8.785 -0.1485 -0.4933  0.5149
  132TCq2    O2 2010   4.580   3.849   8.760  0.0416 -0.5986 -0.0778
  132TCq2    C2 2011   4.685   3.642   8.739  0.4205 -0.3421 -0.1090
  132TCq2    C3 2012   0.082   3.575   8.720  0.3602 -0.4505  0.4312
  132TCq2    C4 2013   0.077   3.442   8.706 -0.7001 -0.3089 -0.2629
  132TCq2    C5 2014   4.678   3.379   8.701 -0.1030 -0.5429  1.0795
  132TCq2    C6 2015   4.563   3.447   8.721 -0.3911 -0.1247 -0.4515
  132TCq2    C7 2016   4.568   3.580   8.743  0.4784  0.3766  0.7302
  132TCq2    C8 2017   4.439   3.373   8.710 -0.2665  0.3242  0.0765
  132TCq2    O4 2018   4.436   3.250   8.702  0.2339 -0.1053  0.4835
  132TCq2    C9 2019   0.207   3.379   8.677 -0.6538  0.1407  0.1063
  132TCq2    O5 2020   0.205   3.277   8.604 -0.0937 -0.1843 -0.6485
  132TCq2    O6 2021   0.309   3.433   8.725  0.8246  0.5106 -0.7243
  132TCq2    H2 2022   0.176   3.629   8.714  0.2709 -0.3329  0.0947
  132TCq2    H3 2023   4.686   3.272   8.685  1.3130 -0.4306  1.0146
  132TCq2    H4 2024   4.475   3.633   8.763  0.8544  1.4284 -0.2817
  133MPD2     C 2025   3.365   3.751   8.891 -0.1738 -0.1240 -0.5126
  133MPD2    C1 2026   3.492   3.776   8.836 -0.0400  0.1652 -0.8165
  133MPD2    C2 2027   3.599   3.701   8.888  0.4330  0.1822  0.2569
  133MPD2    C3 2028   3.571   3.596   8.979  0.9338 -1.1418  1.0803
  133MPD2    C4 2029   3.447   3.576   9.036 -0.2198 -1.5433 -0.0816
  133MPD2    C5 2030   3.351   3.662   8.988 -0.5988 -0.2217 -0.3454
  133MPD2     H 2031   3.701   3.726   8.861  0.4012  0.0158 -0.0171
  133MPD2    H1 2032   3.418   3.500   9.108 -0.8104 -1.0808  0.1745
  133MPD2    H2 2033   3.277   3.803   8.856 -1.6519  0.0691  3.4255
  133MPD2    H3 2034   3.249   3.638   9.017  0.2279 -0.2389  2.4649
  133MPD2     N 2035   3.665   3.508   9.040 -0.0911  0.9044  0.1701
  133MPD2    H5 2036   3.630   3.423   9.083 -1.4609  0.2251 -2.2524
  133MPD2    N1 2037   3.516   3.875   8.738 -0.1270  0.2576 -0.2085
  133MPD2    H7 2038   3.442   3.939   8.711  2.1545  2.7941 -0.4877
  134TCq2    C1 2039   3.625   3.879   8.661  0.0390  0.7351  1.2198
  134TCq2    O2 2040   3.703   3.787   8.648 -0.0595  1.0490  0.4855
  134TCq2    C2 2041   3.630   3.988   8.559 -0.3786 -0.2023 -0.1523
  134TCq2    C3 2042   3.739   3.982   8.477 -0.5778  0.0437  0.9120
  134TCq2    C4 2043   3.780   4.089   8.395  0.1259  0.4039  0.0039
  134TCq2    C5 2044   3.714   4.206   8.401  0.1159 -0.3981 -0.1958
  134TCq2    C6 2045   3.607   4.211   8.491 -0.1334  0.1602 -0.1987
  134TCq2    C7 2046   3.573   4.110   8.581  0.0650  1.0853  0.3306
  134TCq2    C8 2047   3.504   4.312   8.461 -0.4980 -0.2331 -0.0074
  134TCq2    O4 2048   3.537   4.415   8.404  0.0570 -0.1576 -0.0100
  134TCq2    C9 2049   3.893   4.067   8.307  0.0371 -0.3827 -0.5305
  134TCq2    O5 2050   3.928   4.170   8.240  0.1205 -0.3827 -0.2349
  134TCq2    O6 2051   3.950   3.958   8.316  0.1890  0.4277  0.0303
  134TCq2    H2 2052   3.785   3.886   8.454  1.3401  1.4378 -1.0122
  134TCq2    H3 2053   3.739   4.278   8.325  0.5012  0.5191  0.8036
  134TCq2    H4 2054   3.513   4.133   8.668  0.9854 -0.5384  1.3875
  135MPD2     C 2055   2.465   4.099   9.122  0.1418  0.1236  0.6909
  135MPD2    C1 2056   2.517   4.176   9.017 -0.4718 -0.3059  0.0119
  135MPD2    C2 2057   2.654   4.191   9.009  0.4981  0.0447  0.2316
  135MPD2    C3 2058   2.737   4.123   9.098 -0.1798 -0.3375 -0.2065
  135MPD2    C4 2059   2.684   4.049   9.202 -0.4592  0.0760 -0.2755
  135MPD2    C5 2060   2.551   4.045   9.212  0.2612  0.0831  0.4725
  135MPD2     H 2061   2.686   4.254   8.927  0.9458 -1.4574 -0.7456
  135MPD2    H1 2062   2.735   3.992   9.279  0.0605 -1.3149 -1.6378
  135MPD2    H2 2063   2.359   4.080   9.137  0.5823 -3.7995 -1.2777
  135MPD2    H3 2064   2.504   4.004   9.301  0.9908  1.9053  1.6957
  135MPD2     N 2065   2.876   4.129   9.077  0.3877  0.0925 -0.1193
  135MPD2    H5 2066   2.925   4.089   9.156 -1.6857 -3.3863 -0.5499
  135MPD2    N1 2067   2.439   4.249   8.923 -0.2122  0.4473 -0.3389
  135MPD2    H7 2068   2.483   4.307   8.852  1.0456  1.0470  0.9397
  136TCq2    C1 2069   2.300   4.255   8.933  0.3450  0.1507  0.4643
  136TCq2    O2 2070   2.228   4.241   9.034 -0.4022 -0.3162  0.0168
  136TCq2    C2 2071   2.246   4.311   8.812  0.2148 -0.0462 -0.0999
  136TCq2    C3 2072   2.302   4.293   8.691 -0.1016  0.3846 -0.3835
  136TCq2    C4 2073   2.251   4.358   8.585 -0.0453  0.1079  0.9240
  136TCq2    C5 2074   2.142   4.444   8.598 -0.4439  0.0118  0.0201
  136TCq2    C6 2075   2.096   4.469   8.722 -0.6325  0.1540  0.1269
  136TCq2    C7 2076   2.130   4.393   8.831 -0.0086  0.5175 -0.2400
  136TCq2    C8 2077   1.995   4.575   8.739  0.2202 -0.1934  0.0922
  136TCq2    O4 2078   2.010   4.666   8.661  0.3703  0.3132 -0.1766
  136TCq2    C9 2079   2.311   4.331   8.455  0.5114 -0.2558  0.3438
  136TCq2    O5 2080   2.260   4.394   8.354 -0.4722 -0.5315 -0.7467
  136TCq2    O6 2081   2.398   4.244   8.453 -0.5315 -0.6611 -0.2451
  136TCq2    H2 2082   2.390   4.230   8.680  0.5867  1.0413  1.5411
  136TCq2    H3 2083   2.104   4.500   8.513  0.0326  1.7838  0.9659
  136TCq2    H4 2084   2.096   4.410   8.933  2.2750  0.7685  0.4692
  137MPD2     C 2085   2.025   3.330   9.415 -0.1677 -0.9995  0.3714
  137MPD2    C1 2086   1.921   3.406   9.471 -0.4731 -0.2602  0.1795
  137MPD2    C2 2087   1.948   3.533   9.526  0.0500  0.0640 -0.6212
  137MPD2    C3 2088   2.071   3.584   9.529 -0.3282  0.0645  1.0237
  137MPD2    C4 2089   2.173   3.512   9.471  0.3716  0.4318  0.2351
  137MPD2    C5 2090   2.150   3.390   9.416 -0.6799 -0.3882 -0.0680
  137MPD2     H 2091   1.864   3.591   9.563  1.3708  1.5924 -0.0183
  137MPD2    H1 2092   2.273   3.555   9.471  1.2637 -1.6268  0.3361
  137MPD2    H2 2093   2.016   3.232   9.370 -1.1133 -0.2231 -1.1044
  137MPD2    H3 2094   2.229   3.325   9.380 -1.0289 -0.9758  0.2250
  137MPD2     N 2095   2.083   3.717   9.583 -0.5035  0.0917  0.6344
  137MPD2    H5 2096   1.997   3.767   9.605 -0.0856  0.8561  0.5549
  137MPD2    N1 2097   1.796   3.345   9.461  0.4201  0.0452  0.7161
  137MPD2    H7 2098   1.787   3.273   9.391 -2.2198  2.2823 -1.2523
  138TCq2    C1 2099   1.689   3.380   9.538  0.2868 -0.5541 -0.3129
  138TCq2    O2 2100   1.680   3.464   9.624 -0.1092 -0.3094 -0.2204
  138TCq2    C2 2101   1.566   3.317   9.492 -0.0378 -0.3009 -0.2113
  138TCq2    C3 2102   1.534   3.322   9.353  0.3623  0.2689  0.1034
  138TCq2    C4 2103   1.404   3.312   9.314 -0.2158 -0.1028 -0.2959
  138TCq2    C5 2104   1.309   3.325   9.409 -0.8231 -0.0852  0.3215
  138TCq2    C6 2105   1.343   3.326   9.542  0.7567 -0.4154  0.1495
  138TCq2    C7 2106   1.470   3.317   9.586  0.5090 -0.5594 -0.3785
  138TCq2    C8 2107   1.255   3.390   9.635  0.0492 -0.5391 -0.0607
  138TCq2    O4 2108   1.273   3.362   9.756  0.0853  0.5704 -0.2368
  138TCq2    C9 2109   1.367   3.322   9.174  0.5940 -0.3781 -0.1910
  138TCq2    O5 2110   1.246   3.334   9.147  0.3056 -0.2898  0.3309
  138TCq2    O6 2111   1.458   3.335   9.086  0.0273  0.2036 -0.3318
  138TCq2    H2 2112   1.617   3.331   9.285  0.0151 -1.5821 -0.5482
  138TCq2    H3 2113   1.204   3.312   9.383 -1.4693 -0.6591  3.1760
  138TCq2    H4 2114   1.496   3.335   9.690 -2.0244  1.3773 -0.0839
  139TMC2    C1 2115   2.274   2.157  13.213  0.2420  0.2399  0.7604
  139TMC2    C2 2116   2.278   2.242  13.106  0.5218 -0.5335 -0.1981
  139TMC2    C3 2117   2.171   2.283  13.036  0.0773  0.3409  0.6384
  139TMC2    C4 2118   2.152   2.107  13.249 -0.1033 -0.3175 -0.2069
  139TMC2    C5 2119   2.037   2.149  13.180 -0.2411 -0.1868  0.1644
  139TMC2    C6 2120   2.046   2.233  13.070 -0.4380  0.7293 -0.3807
  139TMC2     C 2121   2.391   2.077  13.255 -0.1346 -0.2375 -0.5043
  139TMC2     O 2122   2.375   1.987  13.335  0.7673  0.2011 -1.0314
  139TMC2     H 2123   2.365   2.291  13.065 -0.1778  3.0221  2.5695
  139TMC2    H1 2124   2.149   2.022  13.316 -0.1437  0.2482  0.5051
  139TMC2    H2 2125   1.950   2.269  13.034  0.2836  1.7824 -1.2411
  139TMC2    C7 2126   1.906   2.124  13.238  0.4011 -0.1773 -0.4669
  139TMC2    C8 2127   2.190   2.336  12.903 -0.4811  0.6532 -0.3724
  139TMC2    O1 2128   1.812   2.178  13.189  0.0716  0.2167  0.4127
  139TMC2    O2 2129   2.278   2.410  12.865 -0.0125  0.3092 -0.2244
  139TMC2    O5 2130   2.107   2.262  12.825  0.4906 -0.2785 -0.3796
  139TMC2    H5 2131   2.066   2.184  12.867 -0.2746 -0.5683 -1.6379
  140MPD2     C 2132   2.745   2.155  13.249  0.0559 -0.2421 -0.0316
  140MPD2    C1 2133   2.640   2.069  13.262  0.7845 -0.6448 -0.2038
  140MPD2    C2 2134   2.659   1.935  13.300  0.5232  0.1605  0.7659
  140MPD2    C3 2135   2.785   1.888  13.315  0.4263  0.0311 -0.5903
  140MPD2    C4 2136   2.894   1.974  13.309 -0.2879  0.2266 -0.0700
  140MPD2    C5 2137   2.874   2.104  13.273  0.4382 -1.0005  0.2364
  140MPD2     H 2138   2.571   1.871  13.302 -1.0743  2.3406  0.8898
  140MPD2    H1 2139   2.996   1.939  13.314 -0.5584 -0.9473 -2.6505
  140MPD2    H2 2140   2.746   2.258  13.216  1.4169 -0.0572  0.5833
  140MPD2    H3 2141   2.960   2.168  13.257  0.8270 -1.3916  0.7247
  140MPD2     N 2142   2.796   1.750  13.354 -0.5324  0.2955 -0.2382
  140MPD2    H5 2143   2.711   1.698  13.371 -0.7345  0.5440 -0.4748
  140MPD2    N1 2144   2.511   2.134  13.232 -1.1180 -0.5687  0.7187
  140MPD2    H7 2145   2.505   2.227  13.192  0.0527 -1.0027 -0.4439
  141TCq2    C1 2146   2.705   2.889  14.432 -0.2505 -0.1436 -0.0242
  141TCq2    O2 2147   2.610   2.957  14.392 -0.1725  0.0712  0.5497
  141TCq2    C2 2148   2.739   2.901  14.574  0.1948 -0.6440  0.1153
  141TCq2    C3 2149   2.824   2.808  14.629 -0.2214 -0.8772 -0.7124
  141TCq2    C4 2150   2.879   2.842  14.754 -0.0916  0.7155 -0.2091
  141TCq2    C5 2151   2.836   2.956  14.818  0.1263  0.0021  0.3420
  141TCq2    C6 2152   2.745   3.038  14.760 -0.2629  0.4630 -0.2618
  141TCq2    C7 2153   2.698   3.020  14.634  0.0735 -0.0824 -0.2108
  141TCq2    C8 2154   2.757   3.173  14.796 -0.4690  0.3337 -0.3119
  141TCq2    O4 2155   2.688   3.209  14.893  0.3550  0.0201  0.2397
  141TCq2    C9 2156   2.954   2.745  14.827  0.7713 -0.1455  0.0683
  141TCq2    O5 2157   2.989   2.782  14.942 -0.5973 -0.0920 -0.2994
  141TCq2    O6 2158   2.958   2.626  14.790  0.3003 -0.2254 -0.2939
  141TCq2    H2 2159   2.852   2.720  14.573  2.2496 -0.3152 -0.3486
  141TCq2    H3 2160   2.861   2.975  14.922 -1.1398 -0.7767  0.7838
  141TCq2    H4 2161   2.649   3.092  14.570  2.5661  1.1288 -0.7409
  142MPD2     C 2162   4.143   0.854   9.153  0.9688  0.4025  0.0212
  142MPD2    C1 2163   4.059   0.876   9.253 -0.1575 -0.0056 -0.2482
  142MPD2    C2 2164   3.998   1.004   9.261 -0.7512  0.7355  1.2705
  142MPD2    C3 2165   4.022   1.107   9.168  0.2610 -0.4889 -0.2380
  142MPD2    C4 2166   4.108   1.078   9.064 -0.1799  0.0771  0.0320
  142MPD2    C5 2167   4.165   0.951   9.059  0.3174 -0.9864 -0.7202
  142MPD2     H 2168   3.939   1.025   9.349 -0.9484  1.7060  0.9078
  142MPD2    H1 2169   4.133   1.144   8.981  0.9159  1.7730  1.7049
  142MPD2    H2 2170   4.203   0.765   9.141 -1.2122 -0.8678 -1.2800
  142MPD2    H3 2171   4.235   0.928   8.980 -0.2976  0.3843 -1.6538
  142MPD2     N 2172   3.941   1.217   9.153  0.1648 -0.0846 -0.5617
  142MPD2    H5 2173   3.952   1.274   9.070  0.7401  0.8823  0.1749
  142MPD2    N1 2174   4.057   0.780   9.361  0.1616  0.1625  0.8163
  142MPD2    H7 2175   4.119   0.700   9.356  0.8071  0.7633 -0.5567
  143TCq2    C1 2176   3.890   1.282   9.265  0.3454  0.2917 -0.4962
  143TCq2    O2 2177   3.915   1.267   9.384 -0.0308 -0.4035 -0.0302
  143TCq2    C2 2178   3.817   1.404   9.230 -0.2061 -0.0669 -0.0170
  143TCq2    C3 2179   3.818   1.504   9.329 -0.3018 -0.2441  0.1222
  143TCq2    C4 2180   3.775   1.628   9.290  0.4648 -0.7426 -0.0483
  143TCq2    C5 2181   3.722   1.651   9.164  0.6794 -0.1134 -0.4967
  143TCq2    C6 2182   3.707   1.542   9.081  0.1414 -0.0933  0.2309
  143TCq2    C7 2183   3.761   1.419   9.105  0.0237 -0.2872 -0.0770
  143TCq2    C8 2184   3.637   1.573   8.961 -0.0587 -0.0097 -0.6276
  143TCq2    O4 2185   3.652   1.691   8.927  0.6271 -0.2651 -0.0268
  143TCq2    C9 2186   3.793   1.741   9.385  0.5816  0.2526 -0.6774
  143TCq2    O5 2187   3.737   1.851   9.360 -0.6029  0.2343  0.3749
  143TCq2    O6 2188   3.851   1.715   9.492 -0.6778  0.0684 -0.5025
  143TCq2    H2 2189   3.874   1.504   9.422 -0.1360  1.1377  0.0203
  143TCq2    H3 2190   3.689   1.752   9.140 -0.1987 -0.0403  0.9961
  143TCq2    H4 2191   3.769   1.342   9.030 -1.7344 -0.0241 -0.5371
  144MPD2     C 2192   2.902   0.810   0.848 -0.1175  0.0932  0.5843
  144MPD2    C1 2193   2.879   0.721   0.951  0.5709 -0.5438  0.3898
  144MPD2    C2 2194   2.917   0.760   1.084 -0.4407 -0.1253  1.3632
  144MPD2    C3 2195   2.990   0.873   1.102 -0.1072 -0.2391 -0.6927
  144MPD2    C4 2196   2.993   0.963   0.998 -0.2366 -0.0263 -0.2904
  144MPD2    C5 2197   2.960   0.926   0.868  0.2083  0.2229  0.1315
  144MPD2     H 2198   2.893   0.694   1.167 -1.7676 -0.8013  0.4402
  144MPD2    H1 2199   3.037   1.061   1.011 -1.0756  0.0964  1.6869
  144MPD2    H2 2200   2.872   0.783   0.747  1.8449 -1.6294  0.4483
  144MPD2    H3 2201   2.967   1.005   0.793  0.7744  0.2338  0.1953
  144MPD2     N 2202   3.040   0.911   1.230 -0.4383 -0.3545 -0.0392
  144MPD2    H5 2203   3.100   0.992   1.238 -1.2890  0.1763  0.9501
  144MPD2    N1 2204   2.829   0.592   0.933  1.0985 -0.4642  0.1209
  144MPD2    H7 2205   2.803   0.545   1.019 -3.7945  0.2082 -0.9929
  145TCq2    C1 2206   3.027   0.844   1.351 -0.5207  0.1660 -0.2741
  145TCq2    O2 2207   2.933   0.776   1.385 -0.0566 -0.2728  0.3182
  145TCq2    C2 2208   3.125   0.893   1.446 -0.8405  0.3489 -0.0342
  145TCq2    C3 2209   3.251   0.916   1.401  0.0919  0.1362  0.4188
  145TCq2    C4 2210   3.347   0.949   1.488 -0.0218  0.1697  0.2169
  145TCq2    C5 2211   3.325   0.943   1.626  0.5864 -0.0302  0.2430
  145TCq2    C6 2212   3.200   0.905   1.668 -0.4114  0.7303  0.7550
  145TCq2    C7 2213   3.098   0.877   1.577 -0.2190 -0.2225  0.8192
  145TCq2    C8 2214   3.178   0.870   1.804 -0.0079  0.3738  0.3190
  145TCq2    O4 2215   3.263   0.792   1.852 -0.3750 -0.0232 -0.0533
  145TCq2    C9 2216   3.478   0.974   1.446  1.3205 -0.3702 -0.1726
  145TCq2    O5 2217   3.502   0.958   1.323 -0.2509 -0.5763 -0.4364
  145TCq2    O6 2218   3.549   1.034   1.532 -0.3135  0.2076  0.1426
  145TCq2    H2 2219   3.273   0.919   1.295 -1.6220 -0.3689  0.0506
  145TCq2    H3 2220   3.405   0.958   1.697  0.1890 -0.1499  0.7188
  145TCq2    H4 2221   2.997   0.844   1.599 -0.4156 -0.2999 -0.2019
  146TMC2    C1 2222   0.252   4.285  12.314 -0.0216  0.6375 -0.0561
  146TMC2    C2 2223   0.229   4.340  12.191  0.3319  0.1003  0.4623
  146TMC2    C3 2224   0.279   4.282  12.074  0.3093  0.3075 -0.0749
  146TMC2    C4 2225   0.334   4.172  12.321  0.0105 -0.4407 -0.1313
  146TMC2    C5 2226   0.381   4.121  12.205 -0.1984  0.8225  0.7801
  146TMC2    C6 2227   0.367   4.179  12.083 -0.1014 -0.9731 -0.2601
  146TMC2     C 2228   0.227   4.372  12.427  0.8313 -0.2147  0.2982
  146TMC2     O 2229   0.184   4.480  12.390 -0.1997 -0.3205 -0.2258
  146TMC2     H 2230   0.150   4.412  12.172  0.8925  0.0328 -2.0658
  146TMC2    H1 2231   0.373   4.138  12.416 -1.1563  1.0389  0.8825
  146TMC2    H2 2232   0.446   4.158  12.012  2.8730 -0.3141  2.8347
  146TMC2    C7 2233   0.473   4.017  12.226 -0.5489  0.1918  0.1068
  146TMC2    C8 2234   0.277   4.367  11.952 -0.7415 -0.1973 -0.4054
  146TMC2    O1 2235   0.565   4.004  12.152 -0.4193  0.3127  0.0584
  146TMC2    O2 2236   0.283   4.490  11.968  0.1777  0.2973  0.4019
  146TMC2    O5 2237   0.350   4.301  11.853 -0.1763  0.1562 -0.4674
  146TMC2    H5 2238   0.316   4.212  11.831  1.6452 -0.8161  0.6381
  147MPD2     C 2239   0.585   3.592  12.470  0.5482  0.3320 -0.9135
  147MPD2    C1 2240   0.452   3.605  12.490  0.5388  0.7068 -0.6020
  147MPD2    C2 2241   0.395   3.723  12.430 -0.0276  0.0901 -0.3654
  147MPD2    C3 2242   0.477   3.814  12.362 -0.1837  0.2416  0.6940
  147MPD2    C4 2243   0.607   3.787  12.336 -0.7240  0.3064 -0.6318
  147MPD2    C5 2244   0.665   3.674  12.397 -0.0813  0.7110 -0.2272
  147MPD2     H 2245   0.288   3.739  12.434  0.0647  0.5271  0.5055
  147MPD2    H1 2246   0.668   3.857  12.282  0.5459  0.0278  0.4440
  147MPD2    H2 2247   0.629   3.515  12.533  1.5537  1.7982  0.1967
  147MPD2    H3 2248   0.771   3.652  12.387 -0.1721 -0.2041  0.8144
  147MPD2     N 2249   0.416   3.925  12.308  0.0195  0.3360  0.0472
  147MPD2    H5 2250   0.321   3.937  12.341  0.5802  2.3975  0.8979
  147MPD2    N1 2251   0.392   3.519  12.577  0.0849 -0.2052  0.2407
  147MPD2    H7 2252   0.454   3.446  12.611  0.3143 -1.1849 -2.2146
  148MPD2     C 2253   4.570   3.596   9.905 -0.7820 -0.1443  0.6125
  148MPD2    C1 2254   4.641   3.553  10.017  0.2569  0.1603  0.7024
  148MPD2    C2 2255   4.647   3.417  10.037  0.1250  0.2202  0.2021
  148MPD2    C3 2256   4.575   3.333   9.954  0.5299 -0.6023 -0.7986
  148MPD2    C4 2257   4.495   3.387   9.855 -0.1571 -0.4962  0.2465
  148MPD2    C5 2258   4.509   3.516   9.815 -0.0166 -0.5911 -0.2585
  148MPD2     H 2259   4.704   3.380  10.121  1.0891  2.0840  0.3798
  148MPD2    H1 2260   4.439   3.324   9.787  0.0208 -0.3044 -0.0795
  148MPD2    H2 2261   4.586   3.697   9.870 -1.7139  0.3053  1.4613
  148MPD2    H3 2262   4.473   3.557   9.721  1.0073  1.7819  0.3623
  148MPD2     N 2263   4.581   3.193   9.959 -0.4235 -0.2187  0.8700
  148MPD2    H5 2264   4.510   3.147   9.903 -0.0515  1.2986 -0.8279
  148MPD2    N1 2265   4.702   3.642  10.114 -0.2294 -0.1487 -0.2086
  148MPD2    H7 2266   0.041   3.595  10.182 -0.0810  0.5115  0.1227
  149TCq2    C1 2267   4.689   3.773  10.129 -0.0645 -0.1515 -0.3110
  149TCq2    O2 2268   4.632   3.856  10.062 -0.2880 -0.3305  0.3380
  149TCq2    C2 2269   0.014   3.816  10.259  0.0263 -0.1996 -1.0257
  149TCq2    C3 2270   4.676   3.936  10.309 -0.4033 -0.6965 -0.5171
  149TCq2    C4 2271   4.702   3.960  10.440  0.2698  0.3445  0.2722
  149TCq2    C5 2272   0.032   3.864  10.527 -0.1344 -0.3630 -0.6036
  149TCq2    C6 2273   0.082   3.749  10.474  0.1881  0.0163  0.5818
  149TCq2    C7 2274   0.091   3.728  10.337 -0.5472 -0.6201 -0.8513
  149TCq2    C8 2275   0.154   3.648  10.553  0.4985 -0.4695 -0.0364
  149TCq2    O4 2276   0.207   3.552  10.494  0.0921  0.4006 -0.1247
  149TCq2    C9 2277   4.621   4.050  10.505 -0.3976  0.8315 -0.1062
  149TCq2    O5 2278   4.506   4.056  10.455  0.4969  0.2118 -0.2060
  149TCq2    O6 2279   4.677   4.136  10.573  0.1329 -0.2640  0.1512
  149TCq2    H2 2280   4.625   4.013  10.253  1.8231  0.3716 -1.0920
  149TCq2    H3 2281   0.020   3.874  10.635 -2.4762 -1.4533 -0.7701
  149TCq2    H4 2282   0.142   3.640  10.298  0.6181  0.7813 -2.4851
  150MPD2     C 2283   1.449   2.135  11.968 -0.2221 -0.2116 -0.0716
  150MPD2    C1 2284   1.455   2.202  11.849  0.8031 -0.0977 -0.4511
  150MPD2    C2 2285   1.538   2.308  11.826 -0.9340  0.2095 -0.0370
  150MPD2    C3 2286   1.617   2.355  11.933  0.0686 -0.6575  0.0911
  150MPD2    C4 2287   1.611   2.290  12.054  0.3093 -0.3812 -0.4100
  150MPD2    C5 2288   1.526   2.184  12.076  0.6325  0.0325 -0.5383
  150MPD2     H 2289   1.560   2.357  11.732 -0.7192  0.3265  0.0733
  150MPD2    H1 2290   1.671   2.320  12.139 -2.1956  0.6106  1.0135
  150MPD2    H2 2291   1.386   2.048  11.982 -1.8271  0.8446 -0.6870
  150MPD2    H3 2292   1.524   2.142  12.175 -1.8762  0.0415 -0.5935
  150MPD2     N 2293   1.703   2.464  11.907  0.1920  0.2493  0.1721
  150MPD2    H5 2294   1.719   2.490  11.810  1.3790 -1.3948 -0.0805
  150MPD2    N1 2295   1.367   2.156  11.754  0.3708 -0.0948 -0.1008
  150MPD2    H7 2296   1.311   2.080  11.791  1.2484 -0.1054  1.2140
  151TCq2    C1 2297   1.768   2.542  12.004  0.7464  0.0019 -0.4208
  151TCq2    O2 2298   1.767   2.525  12.126 -0.6860  0.0122  0.5152
  151TCq2    C2 2299   1.885   2.615  11.963  0.1948 -0.0453 -0.3026
  151TCq2    C3 2300   1.935   2.604  11.838  0.3139  0.2906  0.1766
  151TCq2    C4 2301   2.065   2.620  11.810 -0.2056 -0.3108  0.3576
  151TCq2    C5 2302   2.157   2.655  11.903 -0.5664 -0.0228  0.4403
  151TCq2    C6 2303   2.106   2.673  12.029  0.5713 -0.0515 -0.6166
  151TCq2    C7 2304   1.978   2.642  12.060  0.5278 -0.2610  0.7096
  151TCq2    C8 2305   2.202   2.679  12.134  0.1578  0.4253 -0.4652
  151TCq2    O4 2306   2.292   2.763  12.132  0.2192  0.1929 -0.1895
  151TCq2    C9 2307   2.111   2.573  11.677 -0.1418  0.2899 -0.7429
  151TCq2    O5 2308   2.025   2.581  11.590 -0.0311 -0.2143  0.3083
  151TCq2    O6 2309   2.229   2.551  11.654 -0.2014 -0.0152  0.0613
  151TCq2    H2 2310   1.872   2.565  11.759 -1.7537  0.1176  1.9395
  151TCq2    H3 2311   2.261   2.669  11.878 -0.0420 -0.8695  2.0969
  151TCq2    H4 2312   1.951   2.656  12.164 -1.4299  0.0816  0.1588
  152MPD2     C 2313   1.346   1.689  12.598  0.0644  0.2614 -0.3216
  152MPD2    C1 2314   1.371   1.796  12.517 -0.4102  0.4012  0.2921
  152MPD2    C2 2315   1.278   1.837  12.425  0.8504  0.4628  0.4254
  152MPD2    C3 2316   1.153   1.773  12.415 -0.7237  0.0737 -0.1764
  152MPD2    C4 2317   1.129   1.657  12.490  0.7394  0.0437  0.1857
  152MPD2    C5 2318   1.229   1.614  12.574  0.3456  0.6196  0.0652
  152MPD2     H 2319   1.295   1.927  12.366  0.9417 -0.1979 -0.5576
  152MPD2    H1 2320   1.035   1.602  12.491  0.5237  0.4302  1.8485
  152MPD2    H2 2321   1.420   1.661  12.673  1.0693  3.5099 -0.1018
  152MPD2    H3 2322   1.211   1.529  12.639 -0.9490 -0.9505 -2.2898
  152MPD2     N 2323   1.061   1.850  12.340 -0.0908 -0.2148  0.6295
  152MPD2    H5 2324   1.085   1.938  12.295  0.9966  0.9255  3.4657
  152MPD2    N1 2325   1.486   1.871  12.546 -0.5823  0.4910  0.3405
  152MPD2    H7 2326   1.535   1.831  12.625 -0.6647 -1.4493 -0.5894
  153TCq2    C1 2327   1.546   1.975  12.476 -0.4077 -0.4560  0.4605
  153TCq2    O2 2328   1.521   2.018  12.364 -0.0431  0.4555  0.0626
  153TCq2    C2 2329   1.670   2.030  12.543 -0.6475 -0.3904 -0.4405
  153TCq2    C3 2330   1.726   1.975  12.652  0.8930  0.4997  0.0108
  153TCq2    C4 2331   1.850   2.023  12.695  0.1362  0.1018  0.2126
  153TCq2    C5 2332   1.904   2.126  12.625 -0.3700 -0.3699  0.4673
  153TCq2    C6 2333   1.842   2.172  12.503  0.2944  0.0019 -0.6359
  153TCq2    C7 2334   1.725   2.128  12.472  0.4188  0.6919 -0.5453
  153TCq2    C8 2335   1.868   2.303  12.457 -1.0302  0.7326 -0.1642
  153TCq2    O4 2336   1.820   2.344  12.354 -0.2192  0.0540 -0.2886
  153TCq2    C9 2337   1.905   1.963  12.816  0.4681  0.3958 -0.0480
  153TCq2    O5 2338   1.863   1.846  12.854 -0.2811  0.2387 -0.4647
  153TCq2    O6 2339   2.004   2.021  12.870 -0.7173 -0.2943 -0.3809
  153TCq2    H2 2340   1.676   1.905  12.716 -1.5271  1.0233 -1.3198
  153TCq2    H3 2341   2.002   2.157  12.658 -0.4669 -0.2415  0.6348
  153TCq2    H4 2342   1.675   2.170  12.386  1.6637  2.9934 -0.1536
  154MPD2     C 2343   3.666   1.498   0.541  1.1253  0.0858 -0.0496
  154MPD2    C1 2344   3.661   1.633   0.532 -0.0048 -0.0719  0.1477
  154MPD2    C2 2345   3.544   1.690   0.585 -0.3269  0.4011 -0.4916
  154MPD2    C3 2346   3.443   1.622   0.653  0.1271 -0.0038  0.2146
  154MPD2    C4 2347   3.455   1.488   0.667  0.0730  0.4120 -0.0850
  154MPD2    C5 2348   3.567   1.426   0.605 -0.2017  0.2181  0.3149
  154MPD2     H 2349   3.531   1.798   0.584  0.1624  0.4640  0.2247
  154MPD2    H1 2350   3.375   1.430   0.711 -0.2643  0.5164 -0.5718
  154MPD2    H2 2351   3.746   1.435   0.505  2.4613  1.8234 -0.1461
  154MPD2    H3 2352   3.588   1.319   0.609 -1.1168 -0.0655 -2.4884
  154MPD2     N 2353   3.316   1.686   0.680 -0.3305 -0.0908  0.2326
  154MPD2    H5 2354   3.311   1.775   0.632 -0.2414  0.4041  1.1242
  154MPD2    N1 2355   3.768   1.708   0.468 -0.1083  0.0847 -0.1221
  154MPD2    H7 2356   3.850   1.660   0.432 -0.0980 -0.8301  1.1380
  155TCq2    C1 2357   3.765   1.848   0.452 -0.5402  0.2776 -0.4015
  155TCq2    O2 2358   3.686   1.934   0.490 -0.4083 -0.0144  0.2299
  155TCq2    C2 2359   3.886   1.899   0.403  0.0273  0.6763  0.3237
  155TCq2    C3 2360   3.947   1.847   0.291 -0.2544  0.6812 -0.6814
  155TCq2    C4 2361   4.053   1.919   0.237  0.2276 -0.2341  0.1119
  155TCq2    C5 2362   4.091   2.038   0.292  0.0792  0.4731  0.0806
  155TCq2    C6 2363   4.039   2.070   0.415  0.9161 -0.2716  0.2301
  155TCq2    C7 2364   3.932   2.003   0.469 -0.1137 -0.1323 -0.9850
  155TCq2    C8 2365   4.073   2.200   0.469  0.1210 -0.7113 -0.5178
  155TCq2    O4 2366   3.989   2.248   0.545  0.2005 -0.0716  0.1367
  155TCq2    C9 2367   4.128   1.874   0.123 -0.2073  0.0484 -0.3677
  155TCq2    O5 2368   4.197   1.964   0.067  0.9824 -0.0199 -0.3003
  155TCq2    O6 2369   4.136   1.750   0.115  0.6006  0.7002 -0.3045
  155TCq2    H2 2370   3.906   1.757   0.248 -0.2162  0.5361 -0.4155
  155TCq2    H3 2371   4.172   2.096   0.249 -1.3786  1.7366 -0.9772
  155TCq2    H4 2372   3.891   2.035   0.564 -1.4492  0.1447 -1.6695
  156MPD2     C 2373   2.294   4.086  11.375 -0.5893  0.9683  0.4298
  156MPD2    C1 2374   2.230   4.202  11.348 -0.4895 -0.7625  0.5703
  156MPD2    C2 2375   2.204   4.291  11.449 -0.0034 -0.1210  0.0582
  156MPD2    C3 2376   2.233   4.257  11.578 -0.1197  0.3445 -0.0741
  156MPD2    C4 2377   2.303   4.143  11.607  0.7728 -0.2115  0.0509
  156MPD2    C5 2378   2.338   4.055  11.505 -0.6866  0.1837 -0.1675
  156MPD2     H 2379   2.159   4.389  11.434  0.3861 -0.1996 -1.7157
  156MPD2    H1 2380   2.341   4.130  11.707 -0.8006 -2.3789  0.3694
  156MPD2    H2 2381   2.327   4.017  11.299 -1.8419  0.4697  0.3314
  156MPD2    H3 2382   2.394   3.966  11.532 -1.4041 -0.3918 -0.5952
  156MPD2     N 2383   2.207   4.363  11.667 -0.2970 -0.5633 -0.0753
  156MPD2    H5 2384   2.164   4.445  11.625  1.4657  0.6243  0.4763
  156MPD2    N1 2385   2.193   4.230  11.216 -0.0231 -0.1591 -0.2689
  156MPD2    H7 2386   2.226   4.179  11.135  0.6216 -0.3822  0.1317
  157TCq2    C1 2387   2.109   4.333  11.177  0.4928  0.3739  0.1044
  157TCq2    O2 2388   2.044   4.414  11.247  0.0923  0.1974 -0.1914
  157TCq2    C2 2389   2.088   4.343  11.041 -0.3531 -0.1646 -0.1260
  157TCq2    C3 2390   2.088   4.227  10.964  0.4866  0.2199 -0.4243
  157TCq2    C4 2391   2.019   4.226  10.847 -0.9413  0.5212 -0.4179
  157TCq2    C5 2392   1.939   4.331  10.812 -0.3979  0.1499 -0.0569
  157TCq2    C6 2393   1.942   4.445  10.893  0.1229 -0.9302 -0.1815
  157TCq2    C7 2394   2.027   4.454  10.998  0.7167 -0.4863 -0.0580
  157TCq2    C8 2395   1.911   4.572  10.837  0.6477 -0.0572 -0.2212
  157TCq2    O4 2396   1.994   4.658  10.850  0.1562  0.1997 -0.5382
  157TCq2    C9 2397   2.038   4.113  10.757 -0.5363  0.6753  0.2101
  157TCq2    O5 2398   2.137   4.041  10.771  0.8600 -0.4081 -0.4831
  157TCq2    O6 2399   1.942   4.096  10.675 -0.1310 -0.1111 -0.3439
  157TCq2    H2 2400   2.145   4.141  10.995 -0.3275  0.5018  1.9197
  157TCq2    H3 2401   1.894   4.324  10.713  0.1170 -3.0077 -0.0535
  157TCq2    H4 2402   2.036   4.540  11.063  0.0270 -0.0815 -0.5109
  158TMC2    C1 2403   1.810   3.363  13.408  0.8035 -1.1157 -0.2252
  158TMC2    C2 2404   1.840   3.481  13.347  0.0847 -0.1505 -0.5408
  158TMC2    C3 2405   1.732   3.547  13.292  0.5321  0.3005  0.4448
  158TMC2    C4 2406   1.685   3.309  13.418 -0.2577 -0.1641 -0.0575
  158TMC2    C5 2407   1.581   3.385  13.363  0.7243  0.7279 -0.2152
  158TMC2    C6 2408   1.607   3.503  13.293 -0.1176 -0.5647 -0.1563
  158TMC2     C 2409   1.922   3.300  13.475 -0.4276 -0.9865 -0.0474
  158TMC2     O 2410   2.033   3.310  13.425 -1.2879 -0.2770 -0.3599
  158TMC2     H 2411   1.939   3.524  13.355  1.3962 -3.1631 -0.6692
  158TMC2    H1 2412   1.666   3.216  13.469 -3.2643  1.5252  1.8883
  158TMC2    H2 2413   1.519   3.561  13.268  0.7555  0.9989  0.3715
  158TMC2    C7 2414   1.438   3.357  13.381  0.0181 -0.0836  0.6145
  158TMC2    C8 2415   1.762   3.664  13.225  1.0843  0.5603  0.1278
  158TMC2    O1 2416   1.359   3.441  13.340 -0.5769  0.2688 -0.0007
  158TMC2    O2 2417   1.863   3.728  13.245 -0.5272 -0.3774 -0.5756
  158TMC2    O5 2418   1.659   3.700  13.144 -0.2830 -0.6506  0.3879
  158TMC2    H5 2419   1.593   3.630  13.125 -0.0882 -0.8494  0.4396
  159MPD2     C 2420   2.126   3.078  13.894 -0.6996 -0.0219  0.3326
  159MPD2    C1 2421   1.987   3.090  13.911 -0.1734  0.0572  0.0845
  159MPD2    C2 2422   1.911   3.146  13.812  0.2066  0.3518  0.1193
  159MPD2    C3 2423   1.973   3.196  13.694  0.4819  0.3480  0.6547
  159MPD2    C4 2424   2.113   3.194  13.694  0.2780  0.2630  0.0268
  159MPD2    C5 2425   2.189   3.136  13.788 -0.1332 -0.6395 -0.3655
  159MPD2     H 2426   1.803   3.140  13.814  0.3725 -2.2418  0.8108
  159MPD2    H1 2427   2.172   3.219  13.607  2.2084  1.4678  1.6870
  159MPD2    H2 2428   2.180   3.022  13.969 -0.0842 -0.6786 -0.6059
  159MPD2    H3 2429   2.296   3.124  13.793 -0.1704 -0.0844  1.5898
  159MPD2     N 2430   1.884   3.252  13.599 -0.6133 -0.4518 -0.6506
  159MPD2    H5 2431   1.787   3.262  13.627 -0.9700 -0.5553 -1.8628
  159MPD2    N1 2432   1.935   3.031  14.023 -0.0199  0.1740  0.4767
  159MPD2    H7 2433   1.996   2.978  14.085  0.0904 -0.0175  0.2037
  160TMC2    C1 2434   2.362   0.982   1.848  0.6059  0.0671 -0.8293
  160TMC2    C2 2435   2.302   0.872   1.903  0.4315  0.7615 -0.1794
  160TMC2    C3 2436   2.272   0.773   1.812  0.4912  0.3415 -1.0236
  160TMC2    C4 2437   2.389   0.997   1.712  0.4518 -0.6255 -0.2010
  160TMC2    C5 2438   2.359   0.895   1.630  0.9774 -0.7122 -0.2030
  160TMC2    C6 2439   2.305   0.781   1.681 -0.6836  0.0026  0.5109
  160TMC2     C 2440   2.324   1.102   1.925  0.4267 -0.0331  0.3675
  160TMC2     O 2441   2.294   1.077   2.038  0.0469  0.1979 -0.5032
  160TMC2     H 2442   2.298   0.854   2.010 -4.5695 -1.3984 -0.7470
  160TMC2    H1 2443   2.440   1.079   1.663 -0.2042 -1.0930 -1.6679
  160TMC2    H2 2444   2.279   0.702   1.612  2.5394  0.4386 -1.2582
  160TMC2    C7 2445   2.339   0.922   1.491  0.4978 -0.2326 -0.3493
  160TMC2    C8 2446   2.212   0.648   1.843 -0.6034 -0.7654 -0.2081
  160TMC2    O1 2447   2.293   0.828   1.427  0.1881 -0.6349  0.2831
  160TMC2    O2 2448   2.147   0.582   1.761 -0.5173  0.2675 -0.4651
  160TMC2    O5 2449   2.206   0.630   1.982 -0.6770 -0.0135  0.4019
  160TMC2    H5 2450   2.278   0.682   2.023 -1.7352  1.5439  0.3074
  161MPD2     C 2451   2.244   1.364   2.041 -0.4886 -0.3152 -0.7868
  161MPD2    C1 2452   2.237   1.328   1.909  0.0408 -0.3737 -0.1893
  161MPD2    C2 2453   2.180   1.415   1.814  0.0403 -0.3547 -0.0285
  161MPD2    C3 2454   2.118   1.534   1.853 -0.0128  0.7086  0.7040
  161MPD2    C4 2455   2.125   1.562   1.989  0.3287 -0.2749  0.0425
  161MPD2    C5 2456   2.187   1.483   2.082  0.4788  0.1494 -0.5303
  161MPD2     H 2457   2.178   1.390   1.709  0.2856  0.8479 -0.3152
  161MPD2    H1 2458   2.070   1.645   2.031  1.2879 -0.3343  1.3921
  161MPD2    H2 2459   2.279   1.296   2.118 -0.0329 -0.7348 -1.3706
  161MPD2    H3 2460   2.200   1.509   2.186  2.4555  0.4578 -0.8571
  161MPD2     N 2461   2.051   1.631   1.772  0.5367  0.2093 -0.1872
  161MPD2    H5 2462   2.024   1.717   1.818 -0.2259 -0.6171  0.8994
  161MPD2    N1 2463   2.289   1.212   1.850  0.2733  0.0299  0.1423
  161MPD2    H7 2464   2.278   1.208   1.749 -0.3009  3.7296  0.0778
  162TMC2    C1 2465   0.597   2.635   1.490 -0.1170  0.8363 -0.0708
  162TMC2    C2 2466   0.662   2.720   1.580  0.2821 -0.1278  0.5102
  162TMC2    C3 2467   0.608   2.718   1.701  0.1614 -0.0637 -0.2319
  162TMC2    C4 2468   0.490   2.551   1.520  0.4787 -0.5048 -0.9214
  162TMC2    C5 2469   0.449   2.550   1.648 -0.6321 -0.1840  1.1391
  162TMC2    C6 2470   0.502   2.638   1.742  0.0522 -0.2985 -0.1762
  162TMC2     C 2471   0.641   2.629   1.352 -0.2183  0.0762 -0.7608
  162TMC2     O 2472   0.565   2.570   1.273 -0.0962 -0.2765 -0.0197
  162TMC2     H 2473   0.745   2.787   1.561  0.2196 -0.3570 -0.5380
  162TMC2    H1 2474   0.434   2.488   1.450  0.6709 -0.6684 -0.9284
  162TMC2    H2 2475   0.463   2.626   1.843 -1.0822 -0.9127 -0.6875
  162TMC2    C7 2476   0.363   2.437   1.687  0.7595 -0.5007 -0.6926
  162TMC2    C8 2477   0.681   2.805   1.802  0.4098  0.2081 -0.6796
  162TMC2    O1 2478   0.337   2.350   1.601 -0.0801  0.0383  0.2400
  162TMC2    O2 2479   0.711   2.914   1.764 -0.3573  0.3663 -0.4420
  162TMC2    O5 2480   0.692   2.761   1.931  0.0318 -0.0846 -0.3053
  162TMC2    H5 2481   0.664   2.668   1.945  0.5705 -0.4128 -1.4016
  163MPD2     C 2482   0.837   2.887   0.936 -0.4792 -0.0223  0.5129
  163MPD2    C1 2483   0.733   2.795   0.947  0.3228  0.2808  0.0796
  163MPD2    C2 2484   0.695   2.734   1.067 -0.4327  0.3234  0.7125
  163MPD2    C3 2485   0.762   2.769   1.187 -0.0699 -0.4166  0.2636
  163MPD2    C4 2486   0.859   2.865   1.172 -0.0630 -0.5845  0.7158
  163MPD2    C5 2487   0.891   2.930   1.055  0.0959  0.1695 -0.6507
  163MPD2     H 2488   0.618   2.659   1.075 -2.9461  2.8908  0.5744
  163MPD2    H1 2489   0.917   2.890   1.261 -1.4997 -0.7637  1.7128
  163MPD2    H2 2490   0.868   2.923   0.839  0.3032 -2.0188  0.0307
  163MPD2    H3 2491   0.967   3.008   1.047 -2.3919  2.9793  2.6074
  163MPD2     N 2492   0.740   2.717   1.316 -0.0934 -0.4476  0.0829
  163MPD2    H5 2493   0.790   2.758   1.394  2.3383 -1.1140 -1.1473
  163MPD2    N1 2494   0.668   2.753   0.834  0.8987  0.9574 -0.1907
  163MPD2    H7 2495   0.598   2.680   0.839 -2.8264  4.5848  0.4094
  164TCq2    C1 2496   0.512   2.995  11.215  0.4249  0.1075  0.4631
  164TCq2    O2 2497   0.420   2.936  11.271 -0.5012 -0.3317 -0.2018
  164TCq2    C2 2498   0.526   3.137  11.251  0.1943  0.0633 -0.1770
  164TCq2    C3 2499   0.640   3.198  11.212 -0.8850 -0.4764 -0.2503
  164TCq2    C4 2500   0.651   3.331  11.252 -0.0963  0.2096 -0.3033
  164TCq2    C5 2501   0.555   3.400  11.322 -0.4622 -0.3594  0.3190
  164TCq2    C6 2502   0.451   3.329  11.368 -0.1495  0.1376  0.0300
  164TCq2    C7 2503   0.441   3.197  11.341  0.4859  0.4863 -0.2556
  164TCq2    C8 2504   0.325   3.401  11.390  0.2379 -0.0305 -0.2278
  164TCq2    O4 2505   0.314   3.516  11.350 -0.1733 -0.1952 -0.2772
  164TCq2    C9 2506   0.762   3.398  11.188  0.2047  0.4883  0.1853
  164TCq2    O5 2507   0.771   3.515  11.224  0.1164 -0.0293 -0.3229
  164TCq2    O6 2508   0.834   3.336  11.104  0.1789  0.2148  0.0493
  164TCq2    H2 2509   0.713   3.146  11.151  0.9436 -0.8317  2.2385
  164TCq2    H3 2510   0.556   3.508  11.322  1.3790 -0.3880 -1.7730
  164TCq2    H4 2511   0.351   3.140  11.358  0.7230  0.1723 -0.0457
  165MPD2     C 2512   1.282   4.125   2.859  0.0530  0.9410 -0.2111
  165MPD2    C1 2513   1.314   4.149   2.729  0.5638 -0.1428  0.2905
  165MPD2    C2 2514   1.415   4.245   2.708 -0.1281  0.3789  0.1552
  165MPD2    C3 2515   1.481   4.319   2.812 -0.6024 -0.2864  0.2280
  165MPD2    C4 2516   1.451   4.287   2.943  0.2951  0.4476 -0.0487
  165MPD2    C5 2517   1.350   4.191   2.961  0.1772  0.6602  0.3007
  165MPD2     H 2518   1.448   4.271   2.608 -3.2596 -1.2880 -1.3414
  165MPD2    H1 2519   1.482   4.347   3.027 -0.0409  0.6002 -0.0351
  165MPD2    H2 2520   1.211   4.050   2.892  2.7496 -1.1247  0.8657
  165MPD2    H3 2521   1.329   4.157   3.061  1.1658  0.6471  0.5029
  165MPD2     N 2522   1.583   4.413   2.790 -0.1473  0.1355 -0.0821
  165MPD2    H5 2523   1.628   4.454   2.871 -1.1767  0.2398  0.4384
  165MPD2    N1 2524   1.250   4.079   2.624 -0.4679 -0.1863 -0.8961
  165MPD2    H7 2525   1.200   3.995   2.651  1.2450 -0.6909  0.6560
  166TCq2    C1 2526   1.633   4.444   2.669 -0.1279 -0.6036 -0.5112
  166TCq2    O2 2527   1.617   4.389   2.559  0.0234 -0.3328  0.1023
  166TCq2    C2 2528   1.743   4.542   2.673  0.6183  0.4395  0.1125
  166TCq2    C3 2529   1.775   4.604   2.793 -0.2459  0.0988  0.2205
  166TCq2    C4 2530   1.873   4.700   2.789  0.3482  0.1214 -0.0379
  166TCq2    C5 2531   1.937   0.014   2.673  0.4722 -0.9488 -0.2782
  166TCq2    C6 2532   1.908   4.670   2.557 -0.0681 -0.3943 -0.2859
  166TCq2    C7 2533   1.803   4.574   2.558 -0.1833 -0.4269 -0.5608
  166TCq2    C8 2534   1.939   0.020   2.428  1.1182  0.2966  0.0586
  166TCq2    O4 2535   2.025   0.109   2.436  0.0315 -0.4229  0.3093
  166TCq2    C9 2536   1.876   0.067   2.900 -0.1099 -0.1040 -0.9711
  166TCq2    O5 2537   1.961   0.160   2.891  0.5263  0.3662  0.1130
  166TCq2    O6 2538   1.839   0.033   3.017 -0.2967 -0.2005 -1.0289
  166TCq2    H2 2539   1.718   4.585   2.884  2.4356 -0.2088  1.8452
  166TCq2    H3 2540   1.999   0.102   2.680  1.0032 -1.3656  0.2575
  166TCq2    H4 2541   1.766   4.539   2.462 -0.6189  1.2081 -0.9849
  167TMC2    C1 2542   4.053   2.713  12.430 -0.3053 -0.7717  0.0734
  167TMC2    C2 2543   4.010   2.788  12.533  0.3037  0.3908 -0.0396
  167TMC2    C3 2544   3.983   2.718  12.648 -0.5466 -0.2131 -0.6705
  167TMC2    C4 2545   4.083   2.582  12.437 -0.0845 -0.2785 -0.2382
  167TMC2    C5 2546   4.059   2.517  12.555 -0.2334  0.6275  0.2068
  167TMC2    C6 2547   4.012   2.584  12.661  0.1998 -0.0173 -0.2744
  167TMC2     C 2548   4.135   2.779  12.329 -0.0813  0.6329  0.1163
  167TMC2     O 2549   4.241   2.723  12.295  0.4331 -0.1549 -0.5051
  167TMC2     H 2550   3.981   2.892  12.520 -0.4999  0.2017  0.2508
  167TMC2    H1 2551   4.124   2.535  12.348  0.4112 -1.2203  0.4746
  167TMC2    H2 2552   4.005   2.523  12.749 -2.2307  0.7800  0.0857
  167TMC2    C7 2553   4.171   2.429  12.606 -0.6240  0.8623  0.9888
  167TMC2    C8 2554   3.914   2.769  12.767 -0.2887  0.2067  0.1048
  167TMC2    O1 2555   4.155   2.369  12.710 -0.1429 -1.2964 -0.6044
  167TMC2    O2 2556   3.876   2.689  12.853  0.0981  0.1007  0.0255
  167TMC2    O5 2557   3.964   2.886  12.801  0.7057 -0.2084  0.2022
  167TMC2    H5 2558   4.016   2.936  12.734  1.1485 -1.1114 -0.1309
  168MPD2     C 2559   4.251   2.937  12.108  0.0024 -0.5166  0.1532
  168MPD2    C1 2560   4.151   2.983  12.191  0.5581 -0.2291 -0.4306
  168MPD2    C2 2561   4.121   3.118  12.184  0.0847 -0.4725 -0.0465
  168MPD2    C3 2562   4.193   3.210  12.110  0.0737 -0.2072  0.4486
  168MPD2    C4 2563   4.288   3.160  12.021 -0.0615 -0.2142  0.0443
  168MPD2    C5 2564   4.317   3.027  12.022  0.2859  0.7708 -0.4436
  168MPD2     H 2565   4.043   3.161  12.246  0.9994 -1.0890  1.5317
  168MPD2    H1 2566   4.345   3.223  11.955 -1.5230 -0.6645 -1.6519
  168MPD2    H2 2567   4.285   2.834  12.115 -1.2363 -1.0086 -0.9952
  168MPD2    H3 2568   4.401   2.990  11.965  1.1519 -1.1689  2.0638
  168MPD2     N 2569   4.182   3.353  12.128  0.3673  0.2947 -0.0072
  168MPD2    H5 2570   4.238   3.406  12.063  2.5789 -2.0008  0.0460
  168MPD2    N1 2571   4.082   2.902  12.284 -0.0895  0.0425  0.3653
  168MPD2    H7 2572   3.998   2.937  12.328  0.4524  0.1561  1.3130
  169MPD1     C 2573   2.498   3.033   8.652 -0.1555  0.2822 -0.0357
  169MPD1    C1 2574   2.564   3.008   8.770 -0.2701 -0.1062  0.0527
  169MPD1    C2 2575   2.606   2.876   8.784 -0.1099 -0.4947 -0.0660
  169MPD1    C3 2576   2.581   2.775   8.688  0.8623 -1.1774  0.5689
  169MPD1    C4 2577   2.513   2.809   8.573  0.5474 -0.5175 -0.5595
  169MPD1    C5 2578   2.486   2.939   8.553 -0.2664  0.4070  0.4546
  169MPD1     H 2579   2.658   2.850   8.875  1.7355  2.0448 -0.4001
  169MPD1    H1 2580   2.492   2.742   8.490 -2.7479  0.2186 -0.3023
  169MPD1    H2 2581   2.471   3.136   8.631  0.9312  1.1203  2.7593
  169MPD1    H3 2582   2.431   2.972   8.465  0.2810 -1.8316 -0.7279
  169MPD1     N 2583   2.614   2.635   8.709 -0.5676  0.1302 -0.2134
  169MPD1    H5 2584   2.639   2.613   8.805 -1.3754 -0.7551 -0.2073
  169MPD1    N1 2585   2.618   3.110   8.846 -0.1248  0.3334 -0.8759
  169MPD1    H6 2586   2.551   3.186   8.843 -1.1150 -0.4978 -0.0453
  169MPD1    H7 2587   2.620   3.073   8.941 -0.4355 -1.1024 -1.4271
  170MPD1     C 2588   1.480   0.554  12.966 -0.4507  0.0330 -0.6469
  170MPD1    C1 2589   1.382   0.608  12.887  0.6767  0.2390 -0.1658
  170MPD1    C2 2590   1.250   0.591  12.923 -0.0116  0.1547  0.6998
  170MPD1    C3 2591   1.213   0.521  13.041  0.7132  1.3050 -0.7719
  170MPD1    C4 2592   1.321   0.462  13.113  0.0465  0.8333 -0.5575
  170MPD1    C5 2593   1.449   0.485  13.076  0.3921 -0.1875 -0.0350
  170MPD1     H 2594   1.173   0.645  12.869  1.3402  0.6694 -0.6937
  170MPD1    H1 2595   1.297   0.402  13.201 -0.6629  1.1877 -0.5066
  170MPD1    H2 2596   1.586   0.565  12.948  0.1146 -0.2269  2.4721
  170MPD1    H3 2597   1.536   0.451  13.131  0.5404  0.2245 -0.0133
  170MPD1     N 2598   1.082   0.513  13.097  0.1709 -0.1250 -0.0502
  170MPD1    H5 2599   1.082   0.457  13.182  0.8345 -3.0143 -1.9291
  170MPD1    N1 2600   1.427   0.695  12.783  0.2648  0.2699  0.5518
  170MPD1    H6 2601   1.346   0.720  12.726  0.5184  4.1937  1.9453
  170MPD1    H7 2602   1.497   0.650  12.725 -0.1521  2.8462 -1.9141
  171MPD1     C 2603   3.984   1.290  15.215  0.5257  0.1664  0.5371
  171MPD1    C1 2604   3.944   1.352  15.333  0.3020  0.0961 -0.2390
  171MPD1    C2 2605   3.931   1.271  15.445  0.8499  0.5328 -0.1194
  171MPD1    C3 2606   3.986   1.142  15.448  0.2887 -0.4509 -0.0787
  171MPD1    C4 2607   4.047   1.097  15.336  0.3457 -0.1129 -0.3913
  171MPD1    C5 2608   4.047   1.178  15.221 -0.1178 -0.0151  0.3854
  171MPD1     H 2609   3.887   1.320  15.531  0.0928  2.2504 -1.4884
  171MPD1    H1 2610   4.080   0.995  15.320  1.9586  0.3469 -0.0644
  171MPD1    H2 2611   3.978   1.346  15.122  1.2171  0.5632  0.7332
  171MPD1    H3 2612   4.087   1.130  15.132 -1.4622  0.0769 -0.2600
  171MPD1     N 2613   3.984   1.058  15.564 -0.3299 -0.1007  0.0208
  171MPD1    H5 2614   4.018   0.964  15.549  1.3075  0.1268  2.3625
  171MPD1    N1 2615   3.894   1.483  15.326 -0.0052  0.1510  0.5659
  171MPD1    H6 2616   3.884   1.529  15.416 -0.5905 -1.3706  1.2698
  171MPD1    H7 2617   3.932   1.538  15.249  2.7124 -2.4633  0.0827
  172MPD1     C 2618   2.831   0.119   1.225  0.1244  0.5284  0.5382
  172MPD1    C1 2619   2.819   0.102   1.092 -0.3672 -0.1442  0.6800
  172MPD1    C2 2620   2.903   0.170   1.008  0.4129 -0.6916  0.3399
  172MPD1    C3 2621   3.013   0.232   1.064 -0.8836 -0.0530 -0.0201
  172MPD1    C4 2622   3.022   0.247   1.199 -0.5470 -0.0476  0.0607
  172MPD1    C5 2623   2.936   0.181   1.278  0.1936  0.3887 -0.5044
  172MPD1     H 2624   2.885   0.168   0.901 -0.1139  0.8675  0.3979
  172MPD1    H1 2625   3.101   0.307   1.244  0.4600 -0.3963 -1.2144
  172MPD1    H2 2626   2.754   0.082   1.293 -0.6912  0.2897 -0.5111
  172MPD1    H3 2627   2.936   0.192   1.386  2.0175  2.0093 -0.6686
  172MPD1     N 2628   3.111   0.299   0.991  0.0891  0.4967 -0.0399
  172MPD1    H5 2629   3.179   0.356   1.040  2.4893 -1.7855 -0.7400
  172MPD1    N1 2630   2.698   0.044   1.050  0.1708  0.3804 -0.0786
  172MPD1    H6 2631   2.715   4.717   0.961  0.3521  1.5224 -0.6474
  172MPD1    H7 2632   2.664   4.684   1.104  2.5804 -0.9069 -0.5064
  173MPD1     C 2633   4.701   0.909  13.608 -0.1690 -0.9988  0.5329
  173MPD1    C1 2634   4.573   0.881  13.653 -0.4095 -0.2833 -0.0984
  173MPD1    C2 2635   4.558   0.804  13.767 -0.0059  0.0248  0.1781
  173MPD1    C3 2636   4.665   0.758  13.835  0.2095 -0.9439 -0.4790
  173MPD1    C4 2637   0.072   0.792  13.793 -0.8600 -0.3868  0.3262
  173MPD1    C5 2638   0.087   0.868  13.681 -0.3917 -0.1130 -0.1139
  173MPD1     H 2639   4.461   0.775  13.805  0.5851  0.3234  1.8959
  173MPD1    H1 2640   0.161   0.761  13.846  0.6280  1.3910 -1.1467
  173MPD1    H2 2641   4.714   0.968  13.518 -0.2700 -0.0692  1.1305
  173MPD1    H3 2642   0.186   0.895  13.646 -0.0149 -0.4364  0.6938
  173MPD1     N 2643   4.638   0.689  13.956  0.0070  0.0373 -0.5032
  173MPD1    H5 2644   4.540   0.672  13.978  0.6231 -0.2063  2.0124
  173MPD1    N1 2645   4.457   0.946  13.591 -0.6947  0.6405  0.2377
  173MPD1    H6 2646   4.418   1.011  13.658 -0.1535  0.1573  1.0237
  173MPD1    H7 2647   4.486   0.997  13.508 -4.5290  2.1493 -0.1602
  174MPD1     C 2648   0.227   0.118  14.827  0.2575  0.3140 -0.2033
  174MPD1    C1 2649   0.301   0.180  14.731  0.1408  0.5126 -0.1096
  174MPD1    C2 2650   0.237   0.212  14.612 -0.3532  0.0360 -1.1012
  174MPD1    C3 2651   0.095   0.195  14.590 -0.2844 -0.1094  0.4609
  174MPD1    C4 2652   0.028   0.131  14.692  0.2946 -0.1946 -0.3561
  174MPD1    C5 2653   0.087   0.094  14.809  0.1210  0.6571  0.3202
  174MPD1     H 2654   0.292   0.236  14.522 -0.4545 -1.8480 -1.6795
  174MPD1    H1 2655   4.643   0.104  14.684 -0.2430  1.8701 -0.3619
  174MPD1    H2 2656   0.268   0.077  14.919 -0.9308 -0.5729 -0.0626
  174MPD1    H3 2657   0.035   0.028  14.876 -2.2401  1.1282 -1.0381
  174MPD1     N 2658   0.030   0.242  14.472 -0.3837 -0.7206  0.2009
  174MPD1    H5 2659   4.651   0.225  14.456  0.0399 -2.5619 -0.3701
  174MPD1    N1 2660   0.443   0.185  14.746  0.2221 -0.2899  0.6653
  174MPD1    H6 2661   0.480   0.172  14.840 -1.2548 -2.0613  0.9940
  174MPD1    H7 2662   0.482   0.274  14.713 -1.0078  1.0903  2.9039
  175MPD1     C 2663   3.088   1.279  15.480 -0.2930  0.1780  0.0166
  175MPD1    C1 2664   3.120   1.150  15.521 -0.3935 -1.0667  0.3517
  175MPD1    C2 2665   3.081   1.106  15.650  0.5445  0.0416  1.1869
  175MPD1    C3 2666   3.020   1.184  15.742  0.2549  0.1556  0.1486
  175MPD1    C4 2667   3.007   1.323  15.706 -0.3215  0.1218  0.1233
  175MPD1    C5 2668   3.038   1.364  15.579 -0.6511 -0.2279 -0.2809
  175MPD1     H 2669   3.091   1.002  15.679 -0.0549 -0.7059 -1.2453
  175MPD1    H1 2670   2.970   1.402  15.771  2.8895  0.5254  1.4491
  175MPD1    H2 2671   3.127   1.321  15.388  0.6151 -2.3450 -0.7584
  175MPD1    H3 2672   3.019   1.467  15.551  0.8102  0.3114  0.7037
  175MPD1     N 2673   2.965   1.113  15.853 -0.0223 -0.0878 -0.1337
  175MPD1    H5 2674   2.964   1.012  15.856  0.8796 -0.0904  0.1029
  175MPD1    N1 2675   3.198   1.075  15.430  0.3353 -0.2468  0.6770
  175MPD1    H6 2676   3.182   1.095  15.332  0.5115 -1.0774  0.4780
  175MPD1    H7 2677   3.176   0.976  15.443  1.7147 -0.8295 -1.4686
  176MPD1     C 2678   3.957   3.030  16.367 -0.0470  0.4249 -0.4451
  176MPD1    C1 2679   4.072   3.082  16.314 -0.0890 -0.2188 -0.3209
  176MPD1    C2 2680   4.183   3.098  16.390  0.6157  0.4356  0.0853
  176MPD1    C3 2681   4.190   3.042  16.517 -0.3737 -0.3772 -0.6613
  176MPD1    C4 2682   4.083   2.977  16.571  0.2137  0.1393  0.8545
  176MPD1    C5 2683   3.970   2.980  16.493  0.3337 -0.2218 -0.8042
  176MPD1     H 2684   4.265   3.160  16.355  0.9251 -0.5688 -0.9562
  176MPD1    H1 2685   4.076   2.940  16.672 -2.0185 -0.9670  0.2929
  176MPD1    H2 2686   3.862   3.029  16.316 -0.0043  0.1456 -0.5208
  176MPD1    H3 2687   3.888   2.926  16.539 -1.0824  2.2490 -0.4161
  176MPD1     N 2688   4.312   3.064  16.586 -0.1885 -0.1410 -0.0698
  176MPD1    H5 2689   4.385   3.106  16.530 -0.1996  0.1433  0.1269
  176MPD1    N1 2690   4.070   3.161  16.195  0.2542  0.0520  0.5881
  176MPD1    H6 2691   4.159   3.158  16.146 -0.4329  0.2944 -0.6785
  176MPD1    H7 2692   4.003   3.124  16.127 -0.3062  0.3750  0.9668
  177MPD1     C 2693   2.776   3.451   9.279 -0.5777  0.4310  0.2123
  177MPD1    C1 2694   2.654   3.514   9.312 -0.8414 -0.2646 -0.1086
  177MPD1    C2 2695   2.539   3.453   9.282  0.5092  0.2709  0.0486
  177MPD1    C3 2696   2.534   3.332   9.219  0.4398  0.6505 -0.0683
  177MPD1    C4 2697   2.652   3.261   9.198 -0.1846 -0.1110 -0.2630
  177MPD1    C5 2698   2.772   3.329   9.223  0.6383  1.1941 -0.5029
  177MPD1     H 2699   2.449   3.508   9.306  0.3805  0.1193 -0.0875
  177MPD1    H1 2700   2.657   3.162   9.154  2.4054 -0.7487  1.5053
  177MPD1    H2 2701   2.866   3.511   9.282  1.6103 -2.7082 -3.3492
  177MPD1    H3 2702   2.863   3.274   9.203  0.9265  1.3932  0.2772
  177MPD1     N 2703   2.400   3.292   9.186 -0.1548 -0.4240 -0.0007
  177MPD1    H5 2704   2.336   3.369   9.170  0.8197  0.7655  1.7586
  177MPD1    N1 2705   2.648   3.654   9.344 -0.7133  0.7595 -0.2842
  177MPD1    H6 2706   2.560   3.674   9.390  0.3178  2.3359  1.0300
  177MPD1    H7 2707   2.720   3.678   9.413 -0.0801  1.0730 -1.0552
  178MPD1     C 2708   0.242   4.446  17.552 -0.4883  0.2720  0.1117
  178MPD1    C1 2709   0.178   4.327  17.534  0.0426  0.1446  0.6453
  178MPD1    C2 2710   0.251   4.221  17.480 -0.1639 -0.6168 -0.5081
  178MPD1    C3 2711   0.383   4.232  17.436 -0.2793 -0.3939  0.0504
  178MPD1    C4 2712   0.443   4.356  17.461 -0.1723  0.3982  0.3844
  178MPD1    C5 2713   0.373   4.458  17.518  0.0143  0.7757  0.1365
  178MPD1     H 2714   0.200   4.126  17.490 -2.0163  0.5458  0.9273
  178MPD1    H1 2715   0.545   4.378  17.433 -0.2534 -1.2467 -1.2704
  178MPD1    H2 2716   0.197   4.531  17.603 -1.0944 -1.2918  2.1620
  178MPD1    H3 2717   0.423   4.554  17.534  0.6643  0.4556  0.0400
  178MPD1     N 2718   0.455   4.134  17.377 -0.3404 -0.3484 -0.5149
  178MPD1    H5 2719   0.550   4.161  17.354  0.3677 -2.6971 -0.3556
  178MPD1    N1 2720   0.049   4.310  17.589 -0.1625 -0.8552  0.0844
  178MPD1    H6 2721   4.712   4.238  17.545  2.4164 -2.8505  0.0621
  178MPD1    H7 2722   4.714   4.396  17.588 -0.6705 -1.1742  0.5861
  179MPD1     C 2723   0.152   2.421  15.557  0.8221  0.1721  0.2672
  179MPD1    C1 2724   0.101   2.349  15.456  0.5874  0.0277 -0.0363
  179MPD1    C2 2725   0.047   2.227  15.487  0.3338  0.2617 -0.3474
  179MPD1    C3 2726   0.064   2.171  15.608 -0.5173 -0.7923  0.3122
  179MPD1    C4 2727   0.114   2.245  15.712  0.2719  0.1351 -0.2913
  179MPD1    C5 2728   0.156   2.373  15.683 -0.2855 -0.5897 -0.1463
  179MPD1     H 2729   4.705   2.174  15.415 -0.4363  0.7866 -0.0692
  179MPD1    H1 2730   0.109   2.207  15.813 -0.0102  2.0567  0.4141
  179MPD1    H2 2731   0.173   2.527  15.543  1.8536  0.1332  1.5089
  179MPD1    H3 2732   0.208   2.435  15.755  1.0727  1.5687 -2.9577
  179MPD1     N 2733   0.034   2.034  15.645 -0.3293  0.0002  0.1536
  179MPD1    H5 2734   0.056   2.008  15.740  1.7502  2.8519  0.4532
  179MPD1    N1 2735   0.075   2.413  15.330  0.0101 -0.1431 -0.4778
  179MPD1    H6 2736   0.151   2.475  15.302 -0.4076 -0.3174 -2.0064
  179MPD1    H7 2737   0.065   2.347  15.253  2.6718  0.0793 -1.0113
  180MPD1     C 2738   0.146   3.694  15.172 -0.2908  0.3155 -0.1112
  180MPD1    C1 2739   0.218   3.792  15.105 -0.4586  0.0742 -0.1141
  180MPD1    C2 2740   0.187   3.816  14.972  0.0671 -0.4840 -0.3369
  180MPD1    C3 2741   0.071   3.758  14.924  0.2613  0.5293 -0.3082
  180MPD1    C4 2742   4.715   3.671  14.999  0.6317 -0.1358  0.2626
  180MPD1    C5 2743   0.030   3.638  15.124 -0.1357  0.2135 -0.7387
  180MPD1     H 2744   0.236   3.889  14.908 -2.0910  1.0746 -0.1972
  180MPD1    H1 2745   4.626   3.627  14.957  0.5948  0.2023 -0.0067
  180MPD1    H2 2746   0.173   3.671  15.274 -0.7110  0.4237  0.0271
  180MPD1    H3 2747   4.687   3.572  15.183  1.0567 -0.7675 -0.5464
  180MPD1     N 2748   0.029   3.780  14.791  0.1527  0.5437  0.2744
  180MPD1    H5 2749   0.099   3.810  14.725  1.9996 -2.0621  1.0253
  180MPD1    N1 2750   0.334   3.840  15.166 -0.2209  0.2285  0.1256
  180MPD1    H6 2751   0.347   3.832  15.266  4.0700 -2.5804 -0.6529
  180MPD1    H7 2752   0.363   3.929  15.124 -1.2450  0.5780  0.1725
  181MPD1     C 2753   3.674   1.052   8.191 -0.0182 -0.1249  0.1839
  181MPD1    C1 2754   3.549   1.100   8.219 -0.3225 -0.4647  0.3884
  181MPD1    C2 2755   3.492   1.054   8.335 -0.1113 -0.2673  0.3838
  181MPD1    C3 2756   3.558   0.988   8.431 -0.2116 -0.1424 -0.6357
  181MPD1    C4 2757   3.682   0.941   8.396  0.1645 -0.2881 -0.2603
  181MPD1    C5 2758   3.736   0.969   8.275 -0.3589  0.2983  0.1802
  181MPD1     H 2759   3.392   1.088   8.358  0.5129  0.1103  2.4963
  181MPD1    H1 2760   3.746   0.887   8.465  0.0867  1.9773  1.6061
  181MPD1    H2 2761   3.718   1.070   8.093 -0.9398 -0.0306 -0.2147
  181MPD1    H3 2762   3.833   0.927   8.248 -0.9090 -0.4138 -0.6874
  181MPD1     N 2763   3.503   0.953   8.558 -0.3160  0.6193 -0.5364
  181MPD1    H5 2764   3.408   0.986   8.577 -0.6699 -1.3905  1.1675
  181MPD1    N1 2765   3.467   1.153   8.118  0.4240  0.1678  0.2871
  181MPD1    H6 2766   3.419   1.079   8.067  1.3630 -0.3193  0.0889
  181MPD1    H7 2767   3.514   1.212   8.050  1.0321 -0.4746  0.1469
  182MPD1     C 2768   3.703   0.153   1.452 -0.3443 -0.1275 -0.3379
  182MPD1    C1 2769   3.669   0.169   1.314 -0.2948 -0.4028  0.0628
  182MPD1    C2 2770   3.558   0.093   1.267  0.3251  0.6356 -0.6087
  182MPD1    C3 2771   3.471   0.042   1.356  0.8966 -0.3453  0.7676
  182MPD1    C4 2772   3.501   0.032   1.494  0.0345  0.2828 -0.7211
  182MPD1    C5 2773   3.619   0.081   1.533 -0.1726  0.1333 -0.0566
  182MPD1     H 2774   3.536   0.095   1.161 -1.9418  0.3207 -0.1431
  182MPD1    H1 2775   3.430   4.710   1.565  1.6547  0.7137  1.1690
  182MPD1    H2 2776   3.795   0.198   1.487 -0.0673  1.6493 -3.4170
  182MPD1    H3 2777   3.650   0.075   1.637  0.0314  2.2338 -0.0072
  182MPD1     N 2778   3.344   4.704   1.319  0.2473 -0.2186  0.1746
  182MPD1    H5 2779   3.293   4.658   1.394 -1.0706  0.2335 -0.4466
  182MPD1    N1 2780   3.768   0.212   1.224 -0.4607  0.2378 -0.1621
  182MPD1    H6 2781   3.725   0.237   1.135 -0.2788 -0.2451 -0.3863
  182MPD1    H7 2782   3.820   0.291   1.259  2.1663 -0.1735 -3.0884
  183MPD1     C 2783   4.155   0.864   8.423  0.6613 -0.2635  0.0529
  183MPD1    C1 2784   4.082   0.977   8.447  0.2255  0.9533  0.9372
  183MPD1    C2 2785   4.007   0.977   8.559  0.5102 -0.2356 -0.1040
  183MPD1    C3 2786   3.997   0.869   8.642  0.1589 -0.2324 -0.3501
  183MPD1    C4 2787   4.060   0.750   8.607  0.2274  0.0859  0.0521
  183MPD1    C5 2788   4.147   0.750   8.499  0.2983 -0.4707 -0.1094
  183MPD1     H 2789   3.959   1.071   8.582  2.0716  0.3629  0.7197
  183MPD1    H1 2790   4.057   0.661   8.668 -0.3708 -0.2568 -0.4755
  183MPD1    H2 2791   4.217   0.872   8.335  0.0583  2.0623 -0.1505
  183MPD1    H3 2792   4.202   0.665   8.460 -0.6941 -1.4060  0.5445
  183MPD1     N 2793   3.923   0.871   8.759 -0.1398 -0.1855 -0.5364
  183MPD1    H5 2794   3.875   0.958   8.779 -0.4700 -0.5257  0.1228
  183MPD1    N1 2795   4.110   1.091   8.371  0.2798  0.3379 -0.0524
  183MPD1    H6 2796   4.106   1.055   8.276  2.2996 -1.8045  0.6868
  183MPD1    H7 2797   4.031   1.156   8.367  0.8932  1.0936  0.1912
  184MPD1     C 2798   3.077   2.675   8.736 -0.0152 -0.6849 -0.4313
  184MPD1    C1 2799   2.965   2.752   8.747  0.2857  0.1863 -0.7148
  184MPD1    C2 2800   2.936   2.807   8.866  0.0041  0.3268 -0.2282
  184MPD1    C3 2801   3.019   2.801   8.980  0.1101  0.3611  0.6003
  184MPD1    C4 2802   3.138   2.726   8.962  1.0725 -0.5165 -0.3319
  184MPD1    C5 2803   3.158   2.662   8.842  0.4440  0.1190 -0.0930
  184MPD1     H 2804   2.860   2.885   8.865 -0.7623 -0.4164  0.2439
  184MPD1    H1 2805   3.208   2.727   9.044  0.7323  1.5037 -0.0595
  184MPD1    H2 2806   3.093   2.624   8.642  0.5915  0.5337 -0.9847
  184MPD1    H3 2807   3.242   2.594   8.830 -2.0671 -3.0851  0.3865
  184MPD1     N 2808   3.008   2.868   9.104  0.1766 -0.8884 -0.4559
  184MPD1    H5 2809   3.070   2.830   9.174  0.9219  0.6942 -0.2715
  184MPD1    N1 2810   2.894   2.798   8.638  0.5202  0.0884  0.1940
  184MPD1    H6 2811   2.796   2.804   8.664  0.5052  0.4371  0.0539
  184MPD1    H7 2812   2.904   2.739   8.555  0.7419 -0.8655  0.8928
  185MPD1     C 2813   2.143   3.037   9.638  0.0141  0.7791 -0.2545
  185MPD1    C1 2814   2.255   3.050   9.715  0.8486  0.6756 -0.0528
  185MPD1    C2 2815   2.384   3.056   9.658  0.3409  0.9903  0.5004
  185MPD1    C3 2816   2.397   3.039   9.526  0.2570  0.4474  1.0843
  185MPD1    C4 2817   2.284   3.013   9.451  0.6774  0.1530  0.4284
  185MPD1    C5 2818   2.158   3.017   9.502 -0.1264 -0.4945 -0.1267
  185MPD1     H 2819   2.473   3.083   9.713  1.2165  0.9322 -0.9058
  185MPD1    H1 2820   2.296   2.999   9.344  0.0363 -1.6677  0.5995
  185MPD1    H2 2821   2.042   3.043   9.677  0.9283  0.7678  2.0666
  185MPD1    H3 2822   2.073   2.984   9.443  0.3503  1.4312 -1.9299
  185MPD1     N 2823   2.523   3.048   9.459  0.2273 -0.0537  0.4674
  185MPD1    H5 2824   2.516   3.057   9.359 -1.4529 -0.5529  0.5442
  185MPD1    N1 2825   2.237   3.092   9.851  0.3386  0.5289  0.0108
  185MPD1    H6 2826   2.154   3.059   9.901  0.6168  2.1527  1.5288
  185MPD1    H7 2827   2.315   3.075   9.913  1.2186  1.6511 -0.8034
  186MPD1     C 2828   0.536   1.798  16.014  0.8350 -0.2280  0.0047
  186MPD1    C1 2829   0.648   1.856  15.963  0.6207  0.2547 -0.0767
  186MPD1    C2 2830   0.671   1.989  16.006 -0.7862  0.0628 -0.3576
  186MPD1    C3 2831   0.603   2.048  16.110  0.1982 -0.1333 -0.2180
  186MPD1    C4 2832   0.500   1.976  16.172  0.0479  0.4143 -0.5313
  186MPD1    C5 2833   0.461   1.861  16.114  0.2784 -0.3979 -0.3752
  186MPD1     H 2834   0.754   2.040  15.959 -1.7143  2.1515  0.2891
  186MPD1    H1 2835   0.430   2.009  16.248  0.1887  4.3527 -2.1194
  186MPD1    H2 2836   0.506   1.700  15.980 -0.8618  0.0968  0.5927
  186MPD1    H3 2837   0.377   1.817  16.167 -0.7382  0.5848 -1.1827
  186MPD1     N 2838   0.633   2.175  16.158 -0.1551  0.4546 -0.2338
  186MPD1    H5 2839   0.568   2.212  16.226 -0.1466 -0.1189  0.0847
  186MPD1    N1 2840   0.715   1.807  15.851  0.5033 -0.0884 -0.3706
  186MPD1    H6 2841   0.719   1.706  15.857  0.9198  0.0021  0.8289
  186MPD1    H7 2842   0.813   1.836  15.849  0.1506  1.2412  2.6889
  187MPD1     C 2843   0.567   4.109  16.942  0.7145 -0.1055 -0.1913
  187MPD1    C1 2844   0.581   4.235  17.000  0.8167  0.1417  0.5949
  187MPD1    C2 2845   0.471   4.303  17.046  0.2867 -0.1363  0.3519
  187MPD1    C3 2846   0.348   4.231  17.042 -0.2124  0.4117  0.6219
  187MPD1    C4 2847   0.337   4.097  17.000  0.1585 -0.0998  0.0770
  187MPD1    C5 2848   0.451   4.043  16.947  0.0538  0.4321  0.1249
  187MPD1     H 2849   0.483   4.403  17.086  1.3799 -0.3508  0.5693
  187MPD1    H1 2850   0.243   4.047  16.976 -0.2793  0.5159  0.5248
  187MPD1    H2 2851   0.653   4.065  16.891  0.4107 -3.5592  2.2987
  187MPD1    H3 2852   0.451   3.950  16.891  1.6095 -1.0320  2.5216
  187MPD1     N 2853   0.225   4.275  17.083 -0.1100 -0.0782  0.1914
  187MPD1    H5 2854   0.149   4.208  17.079  0.0425 -0.0494 -3.0862
  187MPD1    N1 2855   0.700   4.308  16.997  0.1614  0.5400 -0.6912
  187MPD1    H6 2856   0.782   4.268  17.043 -0.2859  0.1605 -0.2152
  187MPD1    H7 2857   0.684   4.399  17.039 -2.4335 -0.3417  0.2631
  188MPD1     C 2858   4.480   0.123   9.495 -0.0017 -0.2874 -0.3146
  188MPD1    C1 2859   4.550   0.111   9.613 -0.3361 -0.6523  0.4043
  188MPD1    C2 2860   4.591   4.704   9.646  0.1033  0.0645 -0.5866
  188MPD1    C3 2861   4.560   4.587   9.576  0.0424  0.3622 -0.4077
  188MPD1    C4 2862   4.500   4.603   9.455 -0.5663  0.1571  0.4803
  188MPD1    C5 2863   4.473   0.010   9.417 -0.5610  0.2202  0.0192
  188MPD1     H 2864   4.636   4.700   9.745 -0.2783  0.7629 -0.3871
  188MPD1    H1 2865   4.491   4.522   9.384 -0.3624  1.6265 -1.2022
  188MPD1    H2 2866   4.466   0.221   9.453 -3.3223 -0.5438  0.1963
  188MPD1    H3 2867   4.433   0.018   9.316 -2.1407  1.0618  0.7173
  188MPD1     N 2868   4.601   4.451   9.607 -0.0355  0.4045  0.6341
  188MPD1    H5 2869   4.575   4.374   9.547  0.4779 -0.3349  1.3715
  188MPD1    N1 2870   4.576   0.222   9.692 -0.1651  0.5299  0.5580
  188MPD1    H6 2871   4.603   0.301   9.633 -1.2531  0.2564 -0.3280
  188MPD1    H7 2872   4.650   0.197   9.756 -0.6283  0.7417  1.1791
  189MPD1     C 2873   1.701   4.688   0.745 -0.2124  0.0827  0.4509
  189MPD1    C1 2874   1.591   4.612   0.779 -0.0843 -0.7295  0.3519
  189MPD1    C2 2875   1.468   4.643   0.722 -0.9158  1.1377 -0.0031
  189MPD1    C3 2876   1.450   0.039   0.663 -0.7678  0.0349  0.4945
  189MPD1    C4 2877   1.558   0.127   0.645  0.1626  0.2648 -0.4014
  189MPD1    C5 2878   1.688   0.089   0.680 -0.1346  0.6454  0.0081
  189MPD1     H 2879   1.377   4.585   0.731 -0.1171 -0.5698 -2.9451
  189MPD1    H1 2880   1.556   0.223   0.595 -1.3971  0.9317  0.9566
  189MPD1    H2 2881   1.800   4.671   0.787 -0.2322 -1.6549 -0.2217
  189MPD1    H3 2882   1.765   0.163   0.665 -0.1379  0.6112 -0.1788
  189MPD1     N 2883   1.320   0.062   0.607 -0.4141 -0.1917  0.0149
  189MPD1    H5 2884   1.256   4.704   0.609 -2.2924  1.3688  0.3367
  189MPD1    N1 2885   1.617   4.485   0.834  0.3455  0.1242  0.1629
  189MPD1    H6 2886   1.528   4.463   0.877 -0.6489  1.9987 -0.9362
  189MPD1    H7 2887   1.691   4.481   0.903  0.4235  3.7360  0.2458
  190MPD1     C 2888   4.577   3.381  14.782  0.4179  0.1831  0.3452
  190MPD1    C1 2889   4.709   3.382  14.748  0.3975 -0.6828 -0.6640
  190MPD1    C2 2890   0.085   3.354  14.846 -0.0935 -0.7924  0.1701
  190MPD1    C3 2891   0.050   3.337  14.984 -0.5244 -0.4025 -0.4578
  190MPD1    C4 2892   4.636   3.340  15.010  0.8711  0.4172  0.2230
  190MPD1    C5 2893   4.546   3.357  14.912  0.3810 -0.0416  0.5629
  190MPD1     H 2894   0.192   3.361  14.825 -0.4868 -0.9790 -1.9284
  190MPD1    H1 2895   4.607   3.321  15.112  1.1739 -0.4652  0.1493
  190MPD1    H2 2896   4.493   3.412  14.721 -0.0040 -0.4617  0.6072
  190MPD1    H3 2897   4.441   3.375  14.933 -0.6285 -1.8937 -2.9302
  190MPD1     N 2898   0.151   3.324  15.083 -0.1429 -0.3082  0.2587
  190MPD1    H5 2899   0.246   3.334  15.050  0.1532  0.4636  1.3766
  190MPD1    N1 2900   0.027   3.388  14.615  0.5269 -0.1317 -1.0953
  190MPD1    H6 2901   0.116   3.429  14.588  1.3786 -0.6385  0.9275
  190MPD1    H7 2902   4.682   3.443  14.559  0.5675 -0.8225 -1.8161
  191MPD1     C 2903   3.557   1.109  12.676  0.3784  0.1635 -0.5031
  191MPD1    C1 2904   3.503   1.234  12.647 -0.4147 -0.5788  0.8309
  191MPD1    C2 2905   3.587   1.342  12.629 -0.2040  0.3662 -0.0475
  191MPD1    C3 2906   3.721   1.329  12.612  0.1592  0.8367  0.6739
  191MPD1    C4 2907   3.774   1.209  12.634 -0.0570 -0.5239  0.7260
  191MPD1    C5 2908   3.693   1.100  12.664 -0.4452  0.6607  0.3133
  191MPD1     H 2909   3.547   1.441  12.618  2.3343  1.2028 -1.6547
  191MPD1    H1 2910   3.877   1.180  12.622  0.8078  2.5928  0.7416
  191MPD1    H2 2911   3.504   1.017  12.701  2.1329 -0.9606 -0.9045
  191MPD1    H3 2912   3.744   1.005  12.674 -1.3975  0.2215  0.9063
  191MPD1     N 2913   3.791   1.441  12.587  0.0339 -0.0230  0.3993
  191MPD1    H5 2914   3.736   1.527  12.581 -0.1206 -0.2570 -1.4089
  191MPD1    N1 2915   3.372   1.256  12.678  0.2484 -0.5370 -0.7044
  191MPD1    H6 2916   3.328   1.335  12.632  0.5704 -0.5049 -0.9556
  191MPD1    H7 2917   3.323   1.169  12.656  0.4559 -0.1391 -2.7368
  192MPD1     C 2918   3.795   2.175  13.029 -0.1846  0.5435 -0.7284
  192MPD1    C1 2919   3.905   2.194  12.952 -0.3413 -0.3189 -0.4916
  192MPD1    C2 2920   3.923   2.114  12.842 -0.7336  0.1595  0.4600
  192MPD1    C3 2921   3.837   2.006  12.812  0.4525  0.6387 -0.0911
  192MPD1    C4 2922   3.736   1.984  12.901  0.1468  0.0515 -0.6433
  192MPD1    C5 2923   3.708   2.071  13.005  0.2527  0.1636  0.2749
  192MPD1     H 2924   3.999   2.150  12.774 -3.3858  1.7024 -1.7321
  192MPD1    H1 2925   3.659   1.913  12.878 -1.0340  1.3268 -0.6169
  192MPD1    H2 2926   3.789   2.245  13.111 -2.4613 -0.1228 -0.3206
  192MPD1    H3 2927   3.627   2.049  13.074  0.2963 -1.7505 -0.2785
  192MPD1     N 2928   3.850   1.910  12.713  0.7358  0.3879 -0.0738
  192MPD1    H5 2929   3.787   1.830  12.719 -0.9666  1.6439 -1.0262
  192MPD1    N1 2930   3.967   2.320  12.959  0.2470 -0.5015  0.6388
  192MPD1    H6 2931   3.981   2.351  13.055  0.2569  1.2461  0.0684
  192MPD1    H7 2932   4.066   2.314  12.935 -0.2970  1.4457 -2.1202
  193MPD1     C 2933   4.119   0.524  16.076 -0.3549 -0.3453  0.1622
  193MPD1    C1 2934   4.044   0.524  16.191  0.2023  0.7697  0.1653
  193MPD1    C2 2935   4.084   0.620  16.290  0.6703  0.3436  0.1301
  193MPD1    C3 2936   4.178   0.708  16.261  0.1052  0.8022 -0.1023
  193MPD1    C4 2937   4.231   0.715  16.133  0.4184  0.5811 -0.2263
  193MPD1    C5 2938   4.201   0.622  16.047 -0.2596 -0.0733 -0.2779
  193MPD1     H 2939   4.032   0.627  16.385 -0.1631 -0.6596 -0.2469
  193MPD1    H1 2940   4.312   0.783  16.107  0.1686  1.3413  1.0008
  193MPD1    H2 2941   4.104   0.455  15.993 -0.0926 -0.4203  0.1781
  193MPD1    H3 2942   4.253   0.644  15.954 -0.7744 -0.1540 -0.5797
  193MPD1     N 2943   4.231   0.803  16.349  0.4967  0.5484  0.0780
  193MPD1    H5 2944   4.278   0.879  16.301 -2.7302  3.2374  1.1932
  193MPD1    N1 2945   3.965   0.409  16.227 -0.4231  0.0508 -0.2943
  193MPD1    H6 2946   3.935   0.350  16.151 -0.9368  0.3532 -0.3228
  193MPD1    H7 2947   3.885   0.424  16.288  0.7881 -0.0878  1.3305
  194MPD1     C 2948   2.214   3.105  16.663  0.6918  0.0553  0.1880
  194MPD1    C1 2949   2.330   3.131  16.726 -0.0257 -0.3220 -0.9002
  194MPD1    C2 2950   2.422   3.036  16.750  0.2469  0.6328 -0.0224
  194MPD1    C3 2951   2.394   2.905  16.721  0.2408  0.3694 -0.1175
  194MPD1    C4 2952   2.268   2.873  16.677 -0.6523  0.6292 -0.5141
  194MPD1    C5 2953   2.180   2.974  16.651 -0.0673 -0.1691 -0.3251
  194MPD1     H 2954   2.517   3.064  16.796  0.2850  0.5931 -0.0763
  194MPD1    H1 2955   2.235   2.772  16.658  1.2009 -0.1793  0.5998
  194MPD1    H2 2956   2.147   3.186  16.634  1.0562  0.0250 -0.7513
  194MPD1    H3 2957   2.082   2.941  16.622  0.1835 -1.4935  0.3666
  194MPD1     N 2958   2.484   2.803  16.755  0.1040  0.5703 -0.1773
  194MPD1    H5 2959   2.455   2.707  16.737 -1.9982  1.2586 -0.4214
  194MPD1    N1 2960   2.371   3.268  16.729 -0.0124  0.3508 -0.1037
  194MPD1    H6 2961   2.292   3.328  16.755 -1.0946 -1.2415  0.2493
  194MPD1    H7 2962   2.442   3.291  16.798  0.2783  1.2065 -0.6852
  195MPD1     C 2963   0.366   2.459   0.740  0.0657 -0.1649 -0.0440
  195MPD1    C1 2964   0.329   2.583   0.786  0.0715  0.0243 -0.2411
  195MPD1    C2 2965   0.256   2.666   0.705 -0.2374 -0.2331  0.5103
  195MPD1    C3 2966   0.223   2.620   0.579  1.4508 -0.0253  0.5491
  195MPD1    C4 2967   0.239   2.487   0.544  0.1315  0.2036 -0.0564
  195MPD1    C5 2968   0.323   2.414   0.618 -0.4055 -0.0677  0.8008
  195MPD1     H 2969   0.244   2.770   0.734  0.2190 -0.7436  2.5378
  195MPD1    H1 2970   0.206   2.440   0.452  0.5123 -0.9396  0.3857
  195MPD1    H2 2971   0.438   2.405   0.801  0.1983  1.1132  0.9230
  195MPD1    H3 2972   0.333   2.313   0.579 -1.6590  0.2099 -0.2485
  195MPD1     N 2973   0.147   2.698   0.491  0.2059  0.1562  0.1897
  195MPD1    H5 2974   0.118   2.654   0.404 -2.2215  1.8168  0.1536
  195MPD1    N1 2975   0.377   2.628   0.912  0.4203  0.3658  0.2985
  195MPD1    H6 2976   0.336   2.714   0.947 -0.5615 -0.5851  1.4919
  195MPD1    H7 2977   0.390   2.550   0.976 -1.1779  0.0211  0.2092
  196MPD1     C 2978   4.686   0.922   0.590 -0.2303 -0.8551  0.1000
  196MPD1    C1 2979   4.685   1.032   0.669  0.5525 -0.0037  0.0675
  196MPD1    C2 2980   4.670   1.013   0.808 -0.0322  0.0876 -0.2149
  196MPD1    C3 2981   4.671   0.883   0.859  0.5437 -0.6976 -0.1455
  196MPD1    C4 2982   4.690   0.773   0.776  0.1425 -0.3414  0.0689
  196MPD1    C5 2983   4.690   0.794   0.643 -0.1235 -0.0744  0.1526
  196MPD1     H 2984   4.656   1.100   0.872  0.2064  0.1988 -0.3133
  196MPD1    H1 2985   4.683   0.673   0.818  0.4170  0.5141  2.1790
  196MPD1    H2 2986   4.682   0.914   0.482 -1.7573  0.1915  0.0747
  196MPD1    H3 2987   4.702   0.718   0.566 -0.4931 -0.8015  0.8207
  196MPD1     N 2988   4.645   0.852   1.000  0.5237 -0.4878  0.3526
  196MPD1    H5 2989   4.640   0.752   1.019 -0.3771 -0.5297 -0.1061
  196MPD1    N1 2990   4.667   1.162   0.612 -0.3087 -0.4134 -0.4258
  196MPD1    H6 2991   4.694   1.222   0.689 -0.6203 -1.6435  0.6328
  196MPD1    H7 2992   0.022   1.182   0.546 -0.0616  3.2247  0.9515
  197MPD1     C 2993   2.747   0.801   0.076  0.1236 -0.0734 -0.0275
  197MPD1    C1 2994   2.884   0.808   0.071 -0.3566 -0.4132  0.0227
  197MPD1    C2 2995   2.949   0.894  17.664 -0.4430 -0.7537  0.5562
  197MPD1    C3 2996   2.878   0.965  17.569  0.1039  0.1441 -0.6715
  197MPD1    C4 2997   2.741   0.949  17.570 -0.6599  0.0812 -0.5545
  197MPD1    C5 2998   2.680   0.873  17.668 -0.1582  0.5880  0.5819
  197MPD1     H 2999   3.057   0.887  17.664 -0.4203 -0.3537  0.3456
  197MPD1    H1 3000   2.674   0.989  17.495 -1.3068 -1.8095 -0.9893
  197MPD1    H2 3001   2.693   0.739   0.146  0.8828  1.2047  1.6879
  197MPD1    H3 3002   2.572   0.866  17.669 -0.2110  1.4413  3.2457
  197MPD1     N 3003   2.940   1.045  17.475 -0.2749  0.4454 -0.2419
  197MPD1    H5 3004   2.900   1.070  17.386 -0.1810 -0.5309 -0.5454
  197MPD1    N1 3005   2.964   0.753   0.172 -0.2754 -0.2856  0.2944
  197MPD1    H6 3006   2.923   0.671   0.215 -0.2797 -0.5654 -0.2437
  197MPD1    H7 3007   3.063   0.734   0.153  0.6513  2.1347  2.6246
  198MPD1     C 3008   0.269   0.884  15.578 -0.0790  0.3373 -0.5744
  198MPD1    C1 3009   0.361   0.820  15.502 -0.3625  0.5818  0.0831
  198MPD1    C2 3010   0.360   0.682  15.498  0.5349  0.6308  0.4496
  198MPD1    C3 3011   0.262   0.610  15.565 -0.0696 -0.1922  0.4226
  198MPD1    C4 3012   0.155   0.674  15.620 -0.1358 -0.0961 -0.1230
  198MPD1    C5 3013   0.165   0.809  15.628  0.5270 -0.8021 -0.4351
  198MPD1     H 3014   0.438   0.626  15.447  0.5305  0.1298  0.9945
  198MPD1    H1 3015   0.081   0.614  15.673 -2.0132  1.3176 -1.1308
  198MPD1    H2 3016   0.272   0.991  15.596  1.5246 -0.0705  1.5686
  198MPD1    H3 3017   0.084   0.860  15.679  1.3335 -0.6372  0.6665
  198MPD1     N 3018   0.284   0.467  15.563 -0.1527  0.0201  0.0667
  198MPD1    H5 3019   0.378   0.443  15.534 -0.8910 -2.3363 -0.3378
  198MPD1    N1 3020   0.470   0.891  15.452 -0.9104 -0.2429  0.1416
  198MPD1    H6 3021   0.505   0.844  15.369 -1.3943  0.0913 -0.2435
  198MPD1    H7 3022   0.455   0.990  15.434 -1.2420  0.2288  2.9977
  199MPD1     C 3023   2.990   0.633   9.162  0.3632  0.5485 -0.0373
  199MPD1    C1 3024   2.937   0.694   9.052 -1.0726 -0.1626  0.1761
  199MPD1    C2 3025   2.862   0.805   9.071  0.1102 -0.8338  0.0346
  199MPD1    C3 3026   2.822   0.849   9.196  0.2706 -1.5008 -0.8716
  199MPD1    C4 3027   2.863   0.779   9.305  0.1453  0.5363 -0.8993
  199MPD1    C5 3028   2.960   0.678   9.290 -0.1198  0.3105 -0.3914
  199MPD1     H 3029   2.837   0.869   8.987 -1.2857 -1.0002  0.3248
  199MPD1    H1 3030   2.840   0.818   9.403  0.1818  0.4568 -0.8591
  199MPD1    H2 3031   3.059   0.550   9.151  1.1012  0.8171  2.5057
  199MPD1    H3 3032   3.005   0.623   9.372  0.6818  1.1322 -0.2788
  199MPD1     N 3033   2.745   0.965   9.218 -0.1208  0.6241  0.2390
  199MPD1    H5 3034   2.761   0.999   9.312 -1.9227  0.1561  0.7051
  199MPD1    N1 3035   2.983   0.654   8.923 -0.0864  0.5058 -0.0100
  199MPD1    H6 3036   3.025   0.561   8.921 -1.6296 -0.1612 -1.2434
  199MPD1    H7 3037   2.920   0.665   8.844 -1.1531  0.5439  0.8441
  200MPD1     C 3038   0.793   1.035  15.169  0.2424 -1.0255 -0.8734
  200MPD1    C1 3039   0.779   1.025  15.036 -0.6337 -0.3310 -0.1753
  200MPD1    C2 3040   0.881   1.045  14.950  0.2487 -0.5094 -0.2111
  200MPD1    C3 3041   1.007   1.071  15.001 -0.4165  0.0972  0.1003
  200MPD1    C4 3042   1.022   1.084  15.137  0.1591 -0.0912 -0.7551
  200MPD1    C5 3043   0.916   1.049  15.221  0.3466  0.5915  0.2574
  200MPD1     H 3044   0.862   1.037  14.843 -1.9300  2.2977 -0.0003
  200MPD1    H1 3045   1.121   1.104  15.176 -0.9081  0.2212  1.7766
  200MPD1    H2 3046   0.714   1.021  15.242  2.7263  1.3054  2.2734
  200MPD1    H3 3047   0.928   1.051  15.329  0.0867  2.1821  0.2548
  200MPD1     N 3048   1.117   1.083  14.911 -0.5044  0.2196  0.3530
  200MPD1    H5 3049   1.091   1.071  14.813  0.7315 -2.0774  0.3310
  200MPD1    N1 3050   0.643   1.007  14.992 -0.1517  0.1920 -0.3245
  200MPD1    H6 3051   0.592   0.938  15.046 -0.0435 -1.1525 -1.9278
  200MPD1    H7 3052   0.633   0.979  14.895  0.9742 -0.5512 -0.2358
  201MPD1     C 3053   3.562   0.720  12.581 -0.0915 -0.1691  0.1621
  201MPD1    C1 3054   3.489   0.613  12.524  0.2662  0.0740  0.0946
  201MPD1    C2 3055   3.499   0.495  12.595  0.0244  0.2378  1.0783
  201MPD1    C3 3056   3.589   0.477  12.707 -0.5867  0.9225 -0.3511
  201MPD1    C4 3057   3.666   0.583  12.751  0.8442 -0.2834  0.6478
  201MPD1    C5 3058   3.646   0.704  12.691 -1.0920  0.3268  0.3509
  201MPD1     H 3059   3.431   0.418  12.560  0.7250  0.1567 -0.1111
  201MPD1    H1 3060   3.742   0.581  12.828 -0.0073 -0.0469  1.4832
  201MPD1    H2 3061   3.560   0.820  12.539 -1.8847 -0.7616 -1.1494
  201MPD1    H3 3062   3.706   0.789  12.721  0.6553  0.1941 -2.7840
  201MPD1     N 3063   3.614   0.344  12.754  0.9381  0.0568 -0.1109
  201MPD1    H5 3064   3.549   0.274  12.718 -0.1635  1.0937 -0.1509
  201MPD1    N1 3065   3.390   0.639  12.431 -0.0855  0.5452 -0.2911
  201MPD1    H6 3066   3.362   0.555  12.381  1.1656  1.0253 -1.8016
  201MPD1    H7 3067   3.398   0.716  12.365 -0.5778  2.2005  1.5591
  202MPD1     C 3068   4.463   4.251   8.785  0.0150 -0.0034  0.7294
  202MPD1    C1 3069   4.513   4.365   8.850  0.0319 -0.1958  0.5841
  202MPD1    C2 3070   4.432   4.412   8.958 -0.3817  0.4174 -0.9392
  202MPD1    C3 3071   4.328   4.327   9.009  0.3878 -0.6375 -0.1066
  202MPD1    C4 3072   4.309   4.204   8.959 -0.1953 -0.4012  0.6519
  202MPD1    C5 3073   4.372   4.164   8.838 -0.2484  0.5945  0.8819
  202MPD1     H 3074   4.433   4.519   8.976 -0.8325  0.0740  1.1003
  202MPD1    H1 3075   4.221   4.145   8.980  0.6276 -1.2377  1.7400
  202MPD1    H2 3076   4.503   4.222   8.688  2.1659  1.1197  1.2799
  202MPD1    H3 3077   4.355   4.074   8.780 -0.3388  0.1262  1.6398
  202MPD1     N 3078   4.241   4.372   9.107 -0.3036  0.3989 -0.3058
  202MPD1    H5 3079   4.179   4.304   9.149  0.2087 -0.7347 -1.3854
  202MPD1    N1 3080   4.583   4.460   8.772 -0.2818  0.2807  0.2991
  202MPD1    H6 3081   4.635   4.416   8.697 -1.1130  0.8742 -0.6272
  202MPD1    H7 3082   4.643   4.510   8.837 -1.6395  2.4941 -0.1539
  203MPD1     C 3083   2.259   1.026  12.016  0.4395  0.7070  0.0846
  203MPD1    C1 3084   2.385   1.010  11.962 -0.5370  0.1492  0.0424
  203MPD1    C2 3085   2.447   0.888  11.977 -0.3955 -0.8380  0.4801
  203MPD1    C3 3086   2.390   0.790  12.053  0.6547  0.3197  0.0846
  203MPD1    C4 3087   2.262   0.809  12.108 -1.0219 -0.1822  1.1469
  203MPD1    C5 3088   2.198   0.929  12.084 -0.2353  0.3945 -0.2845
  203MPD1     H 3089   2.538   0.867  11.922 -0.4570 -0.7923  0.3611
  203MPD1    H1 3090   2.213   0.739  12.174 -1.0390  0.0663  1.4007
  203MPD1    H2 3091   2.217   1.126  12.006 -0.0037  0.5875  0.7054
  203MPD1    H3 3092   2.092   0.931  12.106 -1.0037 -1.5311 -3.7674
  203MPD1     N 3093   2.460   0.671  12.079  0.2774 -0.2662  0.3766
  203MPD1    H5 3094   2.553   0.658  12.041  0.2849  1.4506 -0.1704
  203MPD1    N1 3095   2.428   1.107  11.862  0.5053  0.4219 -0.7292
  203MPD1    H6 3096   2.526   1.089  11.841  0.6811  0.3917  0.1392
  203MPD1    H7 3097   2.419   1.204  11.891  0.3498  0.5377 -1.1602
  204MPD1     C 3098   0.688   1.365   0.130 -0.3338 -0.1365  0.4385
  204MPD1    C1 3099   0.778   1.276   0.186  0.7545 -0.0675  0.1622
  204MPD1    C2 3100   0.898   1.263   0.127 -0.9114 -0.6446 -0.3448
  204MPD1    C3 3101   0.924   1.310   0.003  0.7593 -0.1032  0.3114
  204MPD1    C4 3102   0.817   1.362  17.615 -0.6337  0.1964  0.1164
  204MPD1    C5 3103   0.704   1.388  17.681  0.3174 -0.3123  0.6381
  204MPD1     H 3104   0.979   1.212   0.178 -0.4636  1.9852  1.6072
  204MPD1    H1 3105   0.816   1.389  17.510 -1.4223  1.4705  0.4483
  204MPD1    H2 3106   0.594   1.387   0.177 -0.5718 -1.1762  0.4544
  204MPD1    H3 3107   0.625   1.441  17.629 -0.2155 -0.4656  1.2938
  204MPD1     N 3108   1.057   1.293  17.632 -0.1222  0.1237 -0.7184
  204MPD1    H5 3109   1.118   1.237   0.009 -1.9814  1.9451  2.9238
  204MPD1    N1 3110   0.757   1.237   0.322  0.0938 -0.5761  0.2128
  204MPD1    H6 3111   0.659   1.222   0.344  0.3069 -1.7595  0.3763
  204MPD1    H7 3112   0.802   1.145   0.328 -0.7839 -1.0704 -0.7837
  205MPD1     C 3113   2.647   0.374  17.172  0.1514  0.3542  0.0195
  205MPD1    C1 3114   2.537   0.442  17.125 -0.3563 -0.2768 -0.1223
  205MPD1    C2 3115   2.419   0.443  17.191 -0.1098 -0.2065  0.4557
  205MPD1    C3 3116   2.404   0.367  17.315 -0.1228  0.2169  0.0460
  205MPD1    C4 3117   2.514   0.299  17.359 -0.6188 -0.2401 -0.2376
  205MPD1    C5 3118   2.634   0.305  17.292  0.2469 -0.6669  0.4972
  205MPD1     H 3119   2.333   0.503  17.163  1.6589  1.6940 -0.9280
  205MPD1    H1 3120   2.515   0.242  17.451  1.7417 -0.9360 -0.6726
  205MPD1    H2 3121   2.746   0.379  17.129 -0.4011  0.3812 -1.2417
  205MPD1    H3 3122   2.718   0.257  17.339 -0.1863 -1.5038  0.4112
  205MPD1     N 3123   2.282   0.359  17.390 -0.1650 -0.4812 -0.7133
  205MPD1    H5 3124   2.282   0.300  17.473 -0.5056  0.0011 -0.3707
  205MPD1    N1 3125   2.545   0.518  17.008  0.3086  0.0926 -0.0373
  205MPD1    H6 3126   2.638   0.558  16.999  0.4519 -0.4515 -0.8980
  205MPD1    H7 3127   2.481   0.597  17.015 -0.8868 -1.0193  1.4965
  206MPD1     C 3128   1.702   2.839  16.512 -0.3411  0.2828 -0.1264
  206MPD1    C1 3129   1.695   2.776  16.390  0.4042 -0.8540 -0.1333
  206MPD1    C2 3130   1.688   2.851  16.272 -0.7341  0.2000 -0.3987
  206MPD1    C3 3131   1.652   2.985  16.281  0.1168 -0.4660  0.0613
  206MPD1    C4 3132   1.630   3.044  16.402 -0.4082 -0.3568 -0.3219
  206MPD1    C5 3133   1.664   2.967  16.516  0.0301 -0.6219 -0.6337
  206MPD1     H 3134   1.699   2.798  16.178  1.0569  2.2443 -1.3542
  206MPD1    H1 3135   1.606   3.150  16.409  2.7072  0.4190 -1.3444
  206MPD1    H2 3136   1.724   2.788  16.606 -2.4909 -2.1430 -0.9506
  206MPD1    H3 3137   1.657   3.008  16.616  1.6875  1.0783 -1.2054
  206MPD1     N 3138   1.636   3.073  16.172  0.5706  0.5472  0.3469
  206MPD1    H5 3139   1.604   3.168  16.190  0.1024  0.6796 -1.2122
  206MPD1    N1 3140   1.725   2.642  16.376 -0.0016  0.1245  0.1899
  206MPD1    H6 3141   1.698   2.605  16.285  0.0988  0.4104  0.0437
  206MPD1    H7 3142   1.697   2.590  16.458  1.3985 -0.2397  0.4330
  207MPD1     C 3143   3.387   0.264   9.829 -0.2641  0.0019  0.5273
  207MPD1    C1 3144   3.501   0.206   9.870 -0.2468 -0.2596  0.4286
  207MPD1    C2 3145   3.616   0.292   9.858 -0.1430 -0.1750 -0.2610
  207MPD1    C3 3146   3.617   0.425   9.816 -0.6096  0.9850 -0.1385
  207MPD1    C4 3147   3.489   0.486   9.790 -0.1869 -0.2492 -0.4985
  207MPD1    C5 3148   3.383   0.396   9.799  0.5810  0.5101  0.3010
  207MPD1     H 3149   3.712   0.244   9.868  0.9437  1.6763 -1.8980
  207MPD1    H1 3150   3.463   0.580   9.743  2.4085  0.3724 -0.6943
  207MPD1    H2 3151   3.291   0.215   9.816 -0.2272  0.5767 -1.9802
  207MPD1    H3 3152   3.288   0.437   9.769  2.5246  2.1637 -3.6201
  207MPD1     N 3153   3.729   0.500   9.784 -0.5505  0.1102 -0.1291
  207MPD1    H5 3154   3.725   0.589   9.735 -0.6003 -0.2592 -0.7899
  207MPD1    N1 3155   3.518   0.072   9.895 -0.0650  0.0776  0.5144
  207MPD1    H6 3156   3.566   0.052   9.982  0.8530  0.1631  0.0274
  207MPD1    H7 3157   3.424   0.034   9.889  0.2766 -0.5448 -0.8321
  208MPD1     C 3158   2.769   4.523  17.111 -0.1453  0.2804 -0.4201
  208MPD1    C1 3159   2.687   4.602  17.183  0.1453  0.5580  0.1724
  208MPD1    C2 3160   2.676   4.586  17.317 -0.0552  0.2389 -0.3345
  208MPD1    C3 3161   2.755   4.491  17.386  0.4790 -0.7575 -0.5138
  208MPD1    C4 3162   2.841   4.414  17.312  0.6861 -0.0556  0.8017
  208MPD1    C5 3163   2.846   4.433  17.175 -0.8058 -0.2667 -0.3645
  208MPD1     H 3164   2.614   4.656  17.373  0.9077  1.0973 -0.3512
  208MPD1    H1 3165   2.898   4.333  17.357 -0.1390 -0.8445  0.4309
  208MPD1    H2 3166   2.778   4.541  17.005  1.9230  1.8637  0.0387
  208MPD1    H3 3167   2.913   4.373  17.115  1.1344 -0.2044  1.7392
  208MPD1     N 3168   2.734   4.461  17.522 -0.0090 -0.1169 -0.4608
  208MPD1    H5 3169   2.655   4.510  17.563  0.9741  1.1433 -0.0600
  208MPD1    N1 3170   2.591   4.686  17.112  0.4539  0.8444 -0.1399
  208MPD1    H6 3171   2.632   4.713  17.023  0.1392 -0.9829 -0.8385
  208MPD1    H7 3172   2.567   0.049  17.166  0.2460 -0.1824  1.3630
  209MPD1     C 3173   0.534   0.735  10.676  0.0013 -0.0554  0.3980
  209MPD1    C1 3174   0.519   0.657  10.565 -1.0152 -0.1486  0.8030
  209MPD1    C2 3175   0.457   0.719  10.458 -0.7919 -0.2933 -1.0351
  209MPD1    C3 3176   0.426   0.850  10.452 -1.2110  0.0479 -0.5638
  209MPD1    C4 3177   0.453   0.934  10.560 -0.1039 -0.8844  0.8632
  209MPD1    C5 3178   0.497   0.869  10.672 -0.5338  0.7584 -0.4657
  209MPD1     H 3179   0.441   0.660  10.368 -0.6653 -0.8783 -0.6738
  209MPD1    H1 3180   0.416   1.036  10.558 -2.3057 -1.7640 -1.4871
  209MPD1    H2 3181   0.575   0.699  10.770  1.2103  0.9436  0.2530
  209MPD1    H3 3182   0.479   0.926  10.763  1.4473 -2.5132  1.9647
  209MPD1     N 3183   0.368   0.904  10.333  0.0176 -0.8130 -0.2413
  209MPD1    H5 3184   0.341   0.832  10.267  0.6980  0.2438 -1.6797
  209MPD1    N1 3185   0.576   0.534  10.550  0.0695  0.1425  0.5106
  209MPD1    H6 3186   0.589   0.486  10.639 -0.0050  1.3786  1.1843
  209MPD1    H7 3187   0.531   0.486  10.472  0.1692  0.7917  0.0546
  210MPD1     C 3188   0.010   1.621   9.589  0.5124 -0.0094  0.1834
  210MPD1    C1 3189   0.054   1.658   9.715  0.0139  0.1504 -0.4941
  210MPD1    C2 3190   0.102   1.554   9.795 -0.5796 -0.3117  0.2167
  210MPD1    C3 3191   0.118   1.423   9.744  0.4926  0.1799  0.3713
  210MPD1    C4 3192   0.071   1.386   9.622 -0.3798 -0.5863  0.3531
  210MPD1    C5 3193   0.017   1.490   9.547  0.4070 -0.0506  0.2685
  210MPD1     H 3194   0.145   1.572   9.893  0.9407  1.1904 -0.7275
  210MPD1    H1 3195   0.073   1.283   9.588 -0.1742 -0.8591  1.1862
  210MPD1    H2 3196   4.699   1.702   9.523 -0.3767 -0.1188  0.4642
  210MPD1    H3 3197   4.688   1.476   9.451  1.4665 -2.4684  0.0785
  210MPD1     N 3198   0.185   1.318   9.817  0.6574  0.0698 -0.2045
  210MPD1    H5 3199   0.201   1.233   9.766 -3.0475  0.0127 -1.2224
  210MPD1    N1 3200   0.060   1.799   9.740  0.3783 -0.4410  0.0125
  210MPD1    H6 3201   4.694   1.842   9.707  0.1966  0.0299  1.0959
  210MPD1    H7 3202   0.060   1.815   9.840 -2.3882  0.7164 -0.1627
  211MPD1     C 3203   2.433   4.606  16.311  0.6311 -0.2659 -0.5133
  211MPD1    C1 3204   2.327   4.639  16.393 -0.2123  0.3046  0.2250
  211MPD1    C2 3205   2.270   0.048  16.395  0.0283 -0.2719  0.1808
  211MPD1    C3 3206   2.321   0.137  16.307 -0.3208  0.2956  0.2042
  211MPD1    C4 3207   2.421   0.107  16.221  0.4313  0.5433 -0.6206
  211MPD1    C5 3208   2.475   4.703  16.220 -0.1741  0.0843 -0.7003
  211MPD1     H 3209   2.187   0.061  16.463 -0.1121  0.5752 -0.1535
  211MPD1    H1 3210   2.464   0.177  16.150  1.7045  1.3625  0.9563
  211MPD1    H2 3211   2.474   4.506  16.308 -2.3951 -1.5877  2.5928
  211MPD1    H3 3212   2.556   4.681  16.151 -1.2119  0.8389 -2.1659
  211MPD1     N 3213   2.261   0.267  16.309 -0.1971 -0.5707  0.4341
  211MPD1    H5 3214   2.206   0.294  16.390 -0.3471 -0.5893  0.3395
  211MPD1    N1 3215   2.300   4.550  16.496  0.1697 -0.1915 -0.7865
  211MPD1    H6 3216   2.296   4.460  16.448  0.9364 -1.3902  1.4323
  211MPD1    H7 3217   2.204   4.561  16.529  0.7207  2.3435 -0.0412
  212MPD1     C 3218   1.100   3.567  16.255 -0.2224  0.0485 -0.4656
  212MPD1    C1 3219   1.220   3.499  16.254 -0.4273  0.0036 -0.7028
  212MPD1    C2 3220   1.239   3.402  16.349  0.3488  0.4784 -0.1447
  212MPD1    C3 3221   1.139   3.351  16.431 -0.7286  0.1821  0.1171
  212MPD1    C4 3222   1.020   3.408  16.422 -0.2371 -0.9449  0.0866
  212MPD1    C5 3223   1.003   3.516  16.341  0.5611  0.5197  0.7809
  212MPD1     H 3224   1.338   3.358  16.358  0.7612  0.8781 -2.8564
  212MPD1    H1 3225   0.929   3.379  16.473 -1.9083  0.0942 -2.3207
  212MPD1    H2 3226   1.078   3.656  16.196 -0.7523  0.3535  0.1978
  212MPD1    H3 3227   0.914   3.579  16.344  0.2806  0.0067  3.0568
  212MPD1     N 3228   1.147   3.247  16.524  0.2334 -0.7357  0.1532
  212MPD1    H5 3229   1.074   3.231  16.593  1.0509  0.2137  1.2344
  212MPD1    N1 3230   1.324   3.559  16.180 -0.3954 -0.3900 -0.0954
  212MPD1    H6 3231   1.287   3.601  16.095 -1.0560 -0.6488  0.0663
  212MPD1    H7 3232   1.398   3.492  16.159 -0.3116  0.0300 -1.1133
  213MPD1     C 3233   4.217   4.483  15.992 -0.0267 -0.2778 -0.0761
  213MPD1    C1 3234   4.094   4.443  15.952 -0.2356 -0.8518  0.5207
  213MPD1    C2 3235   4.095   4.367  15.842 -0.2272  0.3893  0.2116
  213MPD1    C3 3236   4.212   4.305  15.794  0.6919  0.1225 -0.6726
  213MPD1    C4 3237   4.334   4.326  15.857  0.2024  0.0387  0.3564
  213MPD1    C5 3238   4.330   4.416  15.959 -0.2316 -0.9962 -0.0846
  213MPD1     H 3239   4.007   4.355  15.781 -0.4018  1.8284  0.1833
  213MPD1    H1 3240   4.427   4.280  15.827 -0.1737 -0.1730 -0.4981
  213MPD1    H2 3241   4.218   4.556  16.072 -1.3060 -0.2884 -0.0446
  213MPD1    H3 3242   4.422   4.428  16.016 -1.4940 -1.1141  1.9885
  213MPD1     N 3243   4.195   4.219  15.688 -0.0066 -0.0188 -0.2279
  213MPD1    H5 3244   4.101   4.194  15.660 -0.7490  1.8323  0.5967
  213MPD1    N1 3245   3.985   4.535  15.961  0.1016  0.4284 -0.1502
  213MPD1    H6 3246   3.893   4.494  15.946 -0.1211  0.1472  1.9253
  213MPD1    H7 3247   3.978   4.582  16.051  0.1794 -0.1538  0.1559
  214MPD1     C 3248   3.540   3.609  15.374  0.5970 -0.0391  0.1554
  214MPD1    C1 3249   3.668   3.587  15.425 -0.1006  0.5809 -0.6834
  214MPD1    C2 3250   3.760   3.688  15.420  0.0775  0.5220  0.5701
  214MPD1    C3 3251   3.742   3.809  15.354  0.6626  0.0508 -0.2130
  214MPD1    C4 3252   3.617   3.826  15.294 -0.2463 -0.2011 -0.4723
  214MPD1    C5 3253   3.516   3.727  15.306 -0.3021 -0.6675  0.6837
  214MPD1     H 3254   3.855   3.663  15.465  1.2778  0.1711 -2.1794
  214MPD1    H1 3255   3.604   3.914  15.232  1.4748 -0.1232 -0.7295
  214MPD1    H2 3256   3.468   3.528  15.371  0.3655  0.1586  0.4618
  214MPD1    H3 3257   3.419   3.730  15.257 -0.9233  0.5197  2.0288
  214MPD1     N 3258   3.833   3.910  15.365 -0.6353 -0.7781  0.4867
  214MPD1    H5 3259   3.815   3.995  15.314 -1.9533 -1.6516 -0.5102
  214MPD1    N1 3260   3.697   3.467  15.487 -0.3740  0.4965  0.0063
  214MPD1    H6 3261   3.667   3.393  15.425  2.0314 -0.9007  0.5087
  214MPD1    H7 3262   3.797   3.450  15.489 -0.4287  0.0602 -0.9989
  215MPD1     C 3263   0.193   0.278  10.406  0.2423  0.4706 -0.1250
  215MPD1    C1 3264   0.093   0.360  10.444 -0.6806 -0.0381  0.2696
  215MPD1    C2 3265   0.117   0.426  10.560  0.1017 -0.5879  0.5407
  215MPD1    C3 3266   0.232   0.413  10.641  0.5975 -0.7634  0.3961
  215MPD1    C4 3267   0.326   0.322  10.601  0.5503 -0.6123 -0.2671
  215MPD1    C5 3268   0.305   0.256  10.486 -1.2155  0.2033  0.1619
  215MPD1     H 3269   0.041   0.499  10.586  0.8539 -0.0723  1.3079
  215MPD1    H1 3270   0.419   0.304  10.653 -0.9711 -2.6027  1.7189
  215MPD1    H2 3271   0.189   0.230  10.309 -1.8837  0.2684  0.0593
  215MPD1    H3 3272   0.381   0.189  10.447 -3.2451 -1.1620 -1.4734
  215MPD1     N 3273   0.245   0.490  10.757 -0.3677  0.5283 -0.5707
  215MPD1    H5 3274   0.176   0.561  10.779  0.2652  1.1520 -0.6070
  215MPD1    N1 3275   4.707   0.401  10.361  0.0313  0.2018  0.1031
  215MPD1    H6 3276   4.678   0.327  10.296 -1.3952 -1.9670  3.1886
  215MPD1    H7 3277   4.632   0.444  10.415  3.8800  2.9581  3.1751
  216MPD1     C 3278   2.538   2.809  17.196 -0.2318  0.0170  0.3284
  216MPD1    C1 3279   2.553   2.686  17.253  0.7803  0.1778  0.6461
  216MPD1    C2 3280   2.475   2.580  17.215  1.0900  0.4764 -0.4159
  216MPD1    C3 3281   2.381   2.591  17.114 -0.3723 -0.2156 -0.7636
  216MPD1    C4 3282   2.369   2.716  17.061 -0.9853  0.7020 -0.2095
  216MPD1    C5 3283   2.439   2.827  17.105 -0.6289 -0.4058  0.1250
  216MPD1     H 3284   2.495   2.484  17.261 -2.6230 -0.1426 -0.1090
  216MPD1    H1 3285   2.310   2.733  16.971  0.4536  1.1800 -1.0719
  216MPD1    H2 3286   2.599   2.896  17.217 -1.1401  0.7847 -0.1545
  216MPD1    H3 3287   2.426   2.920  17.052 -1.5060 -0.7081 -0.1933
  216MPD1     N 3288   2.304   2.482  17.078  0.3847 -0.7439  0.1745
  216MPD1    H5 3289   2.315   2.395  17.130  0.4228  0.0925  1.5564
  216MPD1    N1 3290   2.655   2.678  17.348  0.4132 -0.6047  0.2487
  216MPD1    H6 3291   2.723   2.754  17.350  2.3615 -2.2839 -1.5649
  216MPD1    H7 3292   2.702   2.588  17.350  1.9456  0.1723 -0.6537
  217MPD1     C 3293   3.569   4.695   8.631 -0.4459  0.2987 -0.6482
  217MPD1    C1 3294   3.644   4.605   8.703 -0.5826 -0.7680 -1.4686
  217MPD1    C2 3295   3.588   4.493   8.757 -0.6361  0.6543  0.0103
  217MPD1    C3 3296   3.452   4.481   8.758  0.4751  0.2410  0.3389
  217MPD1    C4 3297   3.373   4.577   8.703 -0.5611  0.3994 -0.4907
  217MPD1    C5 3298   3.435   4.689   8.643  0.2805  0.3169  0.0462
  217MPD1     H 3299   3.650   4.409   8.787  2.0367  2.2745 -0.9579
  217MPD1    H1 3300   3.266   4.562   8.703 -0.0764 -3.0166 -0.2060
  217MPD1    H2 3301   3.612   0.049   8.564  1.9411 -0.0829  0.4624
  217MPD1    H3 3302   3.360   0.038   8.607  1.1192  1.3389  0.2700
  217MPD1     N 3303   3.374   4.378   8.816  0.0168 -0.1365  0.3297
  217MPD1    H5 3304   3.274   4.383   8.799 -0.0802 -1.1514  0.6036
  217MPD1    N1 3305   3.782   4.610   8.691 -0.3678 -0.6253  0.4339
  217MPD1    H6 3306   3.808   4.709   8.692 -1.0521 -0.4520  1.5098
  217MPD1    H7 3307   3.829   4.565   8.770 -0.8213 -2.8032 -0.5437
  218MPD1     C 3308   4.160   0.181  12.805  0.4108  0.1895 -0.2350
  218MPD1    C1 3309   4.236   0.252  12.898 -0.3973  0.1041 -0.4457
  218MPD1    C2 3310   4.316   0.356  12.849  0.0592  0.6244 -0.2453
  218MPD1    C3 3311   4.315   0.393  12.722  0.3459  0.3751  0.8584
  218MPD1    C4 3312   4.213   0.338  12.637 -0.3701  0.5597  0.2420
  218MPD1    C5 3313   4.136   0.238  12.686  0.4442 -0.3787 -0.0944
  218MPD1     H 3314   4.384   0.407  12.916  2.5528  0.7198 -2.8987
  218MPD1    H1 3315   4.200   0.374  12.535 -0.2926 -0.3548 -0.0921
  218MPD1    H2 3316   4.103   0.094  12.835  0.1644 -0.1035 -1.5548
  218MPD1    H3 3317   4.056   0.192  12.629  1.3327 -4.1597  1.7184
  218MPD1     N 3318   4.409   0.491  12.678  0.2041 -0.4176 -0.4635
  218MPD1    H5 3319   4.476   0.526  12.747  2.4583 -1.1361 -2.3139
  218MPD1    N1 3320   4.260   0.207  13.029  0.5424  0.1079 -0.0186
  218MPD1    H6 3321   4.175   0.173  13.075  0.1603 -1.5009 -1.8886
  218MPD1    H7 3322   4.310   0.276  13.084  0.5203 -0.7270  1.0599
  219MPD1     C 3323   4.656   1.179  11.952  0.3968  0.0290  0.0013
  219MPD1    C1 3324   0.044   1.104  11.983 -0.4193  0.5648 -0.1043
  219MPD1    C2 3325   0.040   1.008  12.081 -0.1208  0.0190 -0.7892
  219MPD1    C3 3326   4.648   0.987  12.152  0.4322 -0.0347 -1.2785
  219MPD1    C4 3327   4.534   1.058  12.122  0.4530 -0.2122  0.3622
  219MPD1    C5 3328   4.539   1.154  12.024 -0.3759  0.3912  0.5115
  219MPD1     H 3329   0.133   0.954  12.093 -0.4223 -0.5489 -1.0243
  219MPD1    H1 3330   4.436   1.045  12.168  0.6993  1.1834  1.2697
  219MPD1    H2 3331   4.661   1.266  11.887 -0.9138 -0.3838 -0.6522
  219MPD1    H3 3332   4.452   1.217  12.015 -0.4824  0.1741  0.0128
  219MPD1     N 3333   4.633   0.889  12.260  0.2279 -0.2685 -0.7018
  219MPD1    H5 3334   4.538   0.873  12.291 -0.4578  0.8993 -2.1902
  219MPD1    N1 3335   0.170   1.138  11.926 -0.3257  0.3188 -0.5890
  219MPD1    H6 3336   0.166   1.186  11.836 -1.7761  0.6208 -0.3596
  219MPD1    H7 3337   0.252   1.080  11.940 -1.3069 -0.9993 -0.2803
  220MPD1     C 3338   4.394   1.883   9.773 -0.3632 -0.0309 -0.7684
  220MPD1    C1 3339   4.475   1.886   9.883 -0.6897 -0.2252  0.0102
  220MPD1    C2 3340   4.508   1.767   9.938  0.2563  0.7392  0.3712
  220MPD1    C3 3341   4.478   1.642   9.883  0.3114  0.2504 -0.9471
  220MPD1    C4 3342   4.396   1.637   9.775 -0.1831  1.0279 -0.0900
  220MPD1    C5 3343   4.361   1.761   9.722  0.2890  0.0058 -0.3991
  220MPD1     H 3344   4.585   1.768  10.014  0.2734  0.8111  0.3531
  220MPD1    H1 3345   4.355   1.546   9.732  2.5473  0.2640 -1.0856
  220MPD1    H2 3346   4.355   1.975   9.733  2.3401  0.8690 -1.3705
  220MPD1    H3 3347   4.304   1.748   9.631 -2.4351 -0.8234  1.4170
  220MPD1     N 3348   4.525   1.522   9.955 -0.0329 -0.3700 -0.1534
  220MPD1    H5 3349   4.584   1.543  10.035 -0.3591  2.0389 -0.5560
  220MPD1    N1 3350   4.500   2.009   9.951  0.2406 -0.4436 -1.0028
  220MPD1    H6 3351   4.515   2.091   9.892  1.8994 -1.1149 -1.5033
  220MPD1    H7 3352   4.581   2.001  10.014 -0.1272 -1.8341 -0.7110
  221MPD1     C 3353   1.000   4.445  15.963  1.3313 -0.1288 -0.2138
  221MPD1    C1 3354   1.118   4.510  15.996 -0.6239  0.1592  0.2561
  221MPD1    C2 3355   1.209   4.446  16.078  0.4596  0.2936 -0.1589
  221MPD1    C3 3356   1.192   4.312  16.103 -0.0332  0.0713  0.4590
  221MPD1    C4 3357   1.090   4.245  16.054  0.0797 -0.0524  0.1055
  221MPD1    C5 3358   0.992   4.311  15.984 -0.3373  0.2727  0.1633
  221MPD1     H 3359   1.301   4.494  16.108  0.2242 -0.0747  1.1490
  221MPD1    H1 3360   1.071   4.140  16.075 -2.6079  0.1309 -1.4559
  221MPD1    H2 3361   0.910   4.491  15.925  0.5782  0.0445  1.8014
  221MPD1    H3 3362   0.902   4.257  15.956  1.4384 -2.1934 -0.7478
  221MPD1     N 3363   1.280   4.239  16.183  0.5097 -0.3558 -0.6132
  221MPD1    H5 3364   1.266   4.138  16.181  2.2579 -0.6438  1.8862
  221MPD1    N1 3365   1.119   4.652  16.001 -0.3726  0.6653  0.2314
  221MPD1    H6 3366   1.212   4.693  15.992 -0.4337  0.4477 -1.4719
  221MPD1    H7 3367   1.067   4.680  15.918  0.3996  0.2940 -0.3865
  222MPD1     C 3368   1.296   3.597  16.616 -0.7300  0.4788 -0.1622
  222MPD1    C1 3369   1.354   3.498  16.687  0.3864 -0.0168  0.5672
  222MPD1    C2 3370   1.293   3.452  16.808  0.3126  0.5792 -0.2000
  222MPD1    C3 3371   1.174   3.508  16.850  0.2806  0.7540  0.4689
  222MPD1    C4 3372   1.131   3.620  16.787 -0.7702  0.4324 -1.0193
  222MPD1    C5 3373   1.192   3.663  16.673 -0.4075  0.4160 -0.6205
  222MPD1     H 3374   1.349   3.381  16.866  3.0550  0.7023 -2.6692
  222MPD1    H1 3375   1.049   3.678  16.827 -0.2340  1.1119 -0.9047
  222MPD1    H2 3376   1.319   3.640  16.520 -0.1646  2.9403  1.0692
  222MPD1    H3 3377   1.155   3.745  16.613 -0.9656 -0.9018 -2.0864
  222MPD1     N 3378   1.100   3.463  16.959 -0.4283  0.0245  0.1010
  222MPD1    H5 3379   1.022   3.520  16.990 -1.6461 -0.8238 -1.4386
  222MPD1    N1 3380   1.485   3.458  16.652 -0.1679 -0.0315 -0.4698
  222MPD1    H6 3381   1.517   3.376  16.703 -0.9639 -0.2980 -0.3926
  222MPD1    H7 3382   1.485   3.430  16.554 -0.1444  1.3736 -0.8792
  223MPD1     C 3383   1.147   2.639  17.573 -0.1768 -0.1979  0.3680
  223MPD1    C1 3384   1.179   2.649  17.443  0.6141  0.1233  0.6527
  223MPD1    C2 3385   1.190   2.775  17.390 -0.4058  0.1688 -0.4956
  223MPD1    C3 3386   1.153   2.885  17.464  0.1761  0.5801  0.0437
  223MPD1    C4 3387   1.134   2.867  17.597  0.4036 -0.6810  0.1402
  223MPD1    C5 3388   1.129   2.742  17.652  0.0578  0.4338 -0.0706
  223MPD1     H 3389   1.233   2.781  17.291 -0.9362 -2.4625 -0.8847
  223MPD1    H1 3390   1.109   2.947  17.665  2.0149 -0.2972  0.2853
  223MPD1    H2 3391   1.142   2.544  17.625 -0.2616 -1.3664 -1.7744
  223MPD1    H3 3392   1.110   2.718   0.074 -1.1112 -0.1352 -0.4134
  223MPD1     N 3393   1.132   3.012  17.396 -0.4557 -0.1762 -0.1419
  223MPD1    H5 3394   1.153   3.023  17.297  2.4837 -1.1935  0.3772
  223MPD1    N1 3395   1.231   2.537  17.375 -0.1668 -0.1536 -0.1892
  223MPD1    H6 3396   1.182   2.451  17.400  0.2013 -0.6584 -1.2094
  223MPD1    H7 3397   1.223   2.554  17.275  2.3312 -0.2554 -0.4240
  224MPD1     C 3398   4.050   4.299   8.629 -0.0406 -0.4664 -1.3555
  224MPD1    C1 3399   4.130   4.381   8.704  0.3084 -0.6278  0.3920
  224MPD1    C2 3400   4.083   4.432   8.823  0.0427  0.1370  0.5283
  224MPD1    C3 3401   3.965   4.390   8.876  0.0882  0.0802 -0.4308
  224MPD1    C4 3402   3.898   4.296   8.806  0.3607 -0.4278  0.2539
  224MPD1    C5 3403   3.932   4.258   8.677 -0.0254 -0.1292  0.0732
  224MPD1     H 3404   4.139   4.504   8.882  2.2617 -0.8603 -0.3232
  224MPD1    H1 3405   3.808   4.250   8.844  1.5067 -0.3328  3.0885
  224MPD1    H2 3406   4.070   4.267   8.527  0.9577  0.0570 -1.3161
  224MPD1    H3 3407   3.861   4.194   8.627 -1.8325 -0.3124  2.8355
  224MPD1     N 3408   3.901   4.436   8.994 -0.2226  0.0494 -0.1702
  224MPD1    H5 3409   3.836   4.377   9.044 -1.1588  0.4793 -0.8689
  224MPD1    N1 3410   4.246   4.433   8.649  0.3426  0.2029  0.5908
  224MPD1    H6 3411   4.283   4.357   8.592 -2.7507  0.5771 -1.9468
  224MPD1    H7 3412   4.312   4.454   8.724 -0.0180 -1.5065  1.3890
  225MPD1     C 3413   3.548   2.310  11.654 -0.0052  0.0881 -0.4532
  225MPD1    C1 3414   3.578   2.190  11.596 -0.0223 -0.2319 -0.1459
  225MPD1    C2 3415   3.523   2.074  11.651 -0.1248  0.0316  0.9602
  225MPD1    C3 3416   3.438   2.076  11.764  0.6378  0.5036 -0.1110
  225MPD1    C4 3417   3.422   2.198  11.823  0.1216  0.1299 -0.3055
  225MPD1    C5 3418   3.476   2.310  11.777  0.4636  0.2006 -0.6063
  225MPD1     H 3419   3.544   1.980  11.602 -0.6921 -0.7859  2.2971
  225MPD1    H1 3420   3.358   2.210  11.910  0.2423  1.5113 -0.4202
  225MPD1    H2 3421   3.570   2.407  11.610 -0.0960  0.5043  0.4070
  225MPD1    H3 3422   3.454   2.403  11.828 -0.5112 -0.8424  0.8618
  225MPD1     N 3423   3.382   1.964  11.834 -0.3075 -0.2406  0.2713
  225MPD1    H5 3424   3.315   1.985  11.907  0.9881 -0.3697  1.4922
  225MPD1    N1 3425   3.645   2.190  11.470  0.8448 -0.1154 -0.3423
  225MPD1    H6 3426   3.706   2.109  11.462  0.9520 -0.1447  0.8337
  225MPD1    H7 3427   3.700   2.275  11.461  2.5170 -0.6824  4.4484
  226MPD1     C 3428   2.728   1.230   8.289  0.0252  0.1414 -0.5008
  226MPD1    C1 3429   2.823   1.327   8.238  0.2393 -0.4633  0.0895
  226MPD1    C2 3430   2.890   1.397   8.335 -0.1039  0.2802 -0.4223
  226MPD1    C3 3431   2.882   1.368   8.471 -0.6948 -0.4259  0.1370
  226MPD1    C4 3432   2.812   1.256   8.513  0.4488  0.2965  0.2536
  226MPD1    C5 3433   2.732   1.194   8.423  0.0404 -0.2531 -0.0650
  226MPD1     H 3434   2.962   1.473   8.305 -2.1309  2.1478 -0.5963
  226MPD1    H1 3435   2.809   1.226   8.617  1.6094  0.1918  0.2581
  226MPD1    H2 3436   2.654   1.179   8.228 -0.3522 -0.6338  0.6030
  226MPD1    H3 3437   2.654   1.127   8.455 -0.7447  0.6669 -0.0363
  226MPD1     N 3438   2.954   1.453   8.557  0.9268  0.6339  0.3099
  226MPD1    H5 3439   3.004   1.534   8.523 -2.0862  1.4341 -2.1857
  226MPD1    N1 3440   2.820   1.369   8.105  0.2326 -0.2571  0.0522
  226MPD1    H6 3441   2.795   1.292   8.043  0.3504 -0.4505  0.2456
  226MPD1    H7 3442   2.906   1.415   8.073  0.2249 -0.9657 -1.0031
  227MPD1     C 3443   2.977   2.315   8.412  0.1809 -0.0706  0.4046
  227MPD1    C1 3444   2.936   2.201   8.347 -0.4014  0.0839  0.1412
  227MPD1    C2 3445   2.953   2.081   8.409  0.0342  0.5442 -0.4260
  227MPD1    C3 3446   3.021   2.067   8.529 -0.2428  0.2474  0.0167
  227MPD1    C4 3447   3.067   2.183   8.599  0.1343 -0.2356 -0.7373
  227MPD1    C5 3448   3.045   2.304   8.535  0.4387  0.0128 -0.5812
  227MPD1     H 3449   2.923   1.996   8.349 -1.1692  0.1225  0.7587
  227MPD1    H1 3450   3.127   2.184   8.689 -0.3834 -0.8862 -0.3876
  227MPD1    H2 3451   2.974   2.413   8.368 -0.4939 -0.8688 -1.3337
  227MPD1    H3 3452   3.074   2.397   8.583 -0.7082  0.5238 -0.8676
  227MPD1     N 3453   3.037   1.934   8.586 -0.2472  0.0743 -0.2869
  227MPD1    H5 3454   3.020   1.852   8.529 -3.4331 -0.2397  1.0843
  227MPD1    N1 3455   2.896   2.203   8.211 -0.2031 -0.2159  0.5743
  227MPD1    H6 3456   2.842   2.121   8.185  1.1527 -0.8440 -0.2380
  227MPD1    H7 3457   2.857   2.289   8.172 -0.6417 -0.5575  0.2637
  228MPD1     C 3458   0.527   3.002  13.411  0.1390  0.1143  0.0372
  228MPD1    C1 3459   0.607   3.081  13.330 -0.5750  0.1824 -0.1998
  228MPD1    C2 3460   0.542   3.128  13.216  0.0969 -0.1579 -0.1653
  228MPD1    C3 3461   0.405   3.117  13.197  0.2180 -0.2665 -0.2251
  228MPD1    C4 3462   0.330   3.049  13.288 -0.4266  0.2223  0.1577
  228MPD1    C5 3463   0.394   2.980  13.385  0.4025 -0.7316  0.1455
  228MPD1     H 3464   0.604   3.181  13.145  1.0401  0.9923  1.5141
  228MPD1    H1 3465   0.224   3.031  13.276  0.0785 -3.3681  0.9686
  228MPD1    H2 3466   0.576   2.959  13.498  0.6831 -0.3733 -0.5063
  228MPD1    H3 3467   0.336   2.926  13.459 -0.7388 -1.0922 -1.0193
  228MPD1     N 3468   0.328   3.172  13.091  0.4181 -0.8240  0.2478
  228MPD1    H5 3469   0.227   3.178  13.095  0.2578 -1.6769 -2.5482
  228MPD1    N1 3470   0.747   3.082  13.353  0.0203 -0.7401  0.8042
  228MPD1    H6 3471   0.764   3.085  13.453  1.6575  1.5085  0.4697
  228MPD1    H7 3472   0.801   3.153  13.304 -1.3474  1.0672  1.9291
  229MPD1     C 3473   0.490   2.754  14.409  0.0078 -0.1327  0.5452
  229MPD1    C1 3474   0.612   2.689  14.380  0.0482 -0.2822  0.0035
  229MPD1    C2 3475   0.657   2.589  14.469  0.0458  0.1784  0.8961
  229MPD1    C3 3476   0.576   2.544  14.568  0.3885  0.6577 -0.4971
  229MPD1    C4 3477   0.450   2.596  14.588 -0.0914 -0.9450  0.0098
  229MPD1    C5 3478   0.410   2.697  14.508  0.3307  0.2790  0.6754
  229MPD1     H 3479   0.753   2.544  14.452  1.1544  2.4365  1.1439
  229MPD1    H1 3480   0.384   2.558  14.665  0.4251  0.7356  1.2801
  229MPD1    H2 3481   0.452   2.838  14.352 -1.2574 -0.5413  0.7868
  229MPD1    H3 3482   0.324   2.753  14.543 -0.4381 -0.2967 -0.3038
  229MPD1     N 3483   0.623   2.439  14.649 -0.4389 -0.2731 -0.3401
  229MPD1    H5 3484   0.560   2.413  14.724  0.8023 -1.9530  0.1144
  229MPD1    N1 3485   0.704   2.746  14.291  0.2298  0.0176  0.3272
  229MPD1    H6 3486   0.661   2.782  14.206 -0.7566  0.0368  0.8311
  229MPD1    H7 3487   0.766   2.670  14.265  0.8073  0.7006 -0.2507
  230MPD1     C 3488   0.595   2.019  15.547 -0.9662  0.0653  0.3579
  230MPD1    C1 3489   0.676   1.926  15.489 -0.2124 -0.0189  0.1008
  230MPD1    C2 3490   0.694   1.946  15.357  0.1974 -0.7918 -0.8173
  230MPD1    C3 3491   0.646   2.051  15.277  0.8719 -0.7542 -0.0678
  230MPD1    C4 3492   0.575   2.151  15.345  0.0372  0.6366 -0.1248
  230MPD1    C5 3493   0.541   2.120  15.468 -0.1389  0.4187  0.8817
  230MPD1     H 3494   0.752   1.880  15.294  0.6471 -1.3924  0.2412
  230MPD1    H1 3495   0.523   2.237  15.306 -0.6844  0.4039  0.3236
  230MPD1    H2 3496   0.579   2.014  15.654  1.3854  0.1375  0.7087
  230MPD1    H3 3497   0.470   2.188  15.514 -2.8209 -1.0784 -1.0601
  230MPD1     N 3498   0.680   2.065  15.140  0.1200 -0.0011  0.0765
  230MPD1    H5 3499   0.751   2.001  15.105  3.0630  3.5253 -0.3559
  230MPD1    N1 3500   0.709   1.809  15.555 -0.3944  0.0515 -0.1291
  230MPD1    H6 3501   0.802   1.769  15.539 -0.5862 -0.1563 -0.7097
  230MPD1    H7 3502   0.695   1.821  15.655  0.9534  0.5712 -0.0002
  231MPD1     C 3503   3.560   4.187  15.420 -0.1595 -0.5309  0.5118
  231MPD1    C1 3504   3.508   4.184  15.294  0.6335  0.0605  0.2560
  231MPD1    C2 3505   3.580   4.244  15.193 -0.1850 -0.8516 -0.5151
  231MPD1    C3 3506   3.691   4.319  15.214 -0.0079 -0.0679 -0.3097
  231MPD1    C4 3507   3.739   4.328  15.343 -0.7373 -0.0385  0.9656
  231MPD1    C5 3508   3.676   4.258  15.443  0.4277  0.5576  0.1731
  231MPD1     H 3509   3.556   4.216  15.091 -0.1419 -0.4280 -0.6434
  231MPD1    H1 3510   3.832   4.376  15.371  0.6121 -1.2330 -1.4429
  231MPD1    H2 3511   3.523   4.137  15.509 -1.2783  1.3296  1.0835
  231MPD1    H3 3512   3.710   4.263  15.546 -0.4768  0.6779  0.4658
  231MPD1     N 3513   3.739   4.393  15.105 -0.5324 -0.0644  0.1398
  231MPD1    H5 3514   3.690   4.375  15.018 -0.2479 -1.2238  0.2124
  231MPD1    N1 3515   3.405   4.098  15.263 -0.1467  0.0372 -0.9736
  231MPD1    H6 3516   3.378   4.105  15.165 -1.2252  2.2443 -0.5288
  231MPD1    H7 3517   3.328   4.129  15.323 -1.1678 -3.0976 -0.6480
  232MPD1     C 3518   0.687   1.876   0.367  0.0066 -0.2452  0.1958
  232MPD1    C1 3519   0.639   1.999   0.388 -0.1660 -0.6913 -0.3771
  232MPD1    C2 3520   0.677   2.070   0.499 -0.8881 -0.3781 -0.4611
  232MPD1    C3 3521   0.740   2.005   0.602 -0.1714  0.7496  0.6232
  232MPD1    C4 3522   0.790   1.881   0.584  0.1302  0.0839  0.2653
  232MPD1    C5 3523   0.764   1.820   0.465  0.4331  0.4685 -0.7738
  232MPD1     H 3524   0.643   2.173   0.502  1.3624  0.3552  0.4779
  232MPD1    H1 3525   0.850   1.822   0.653  1.7926 -0.4120 -1.6166
  232MPD1    H2 3526   0.664   1.816   0.280  1.1333  0.4178 -0.5541
  232MPD1    H3 3527   0.805   1.721   0.456 -0.4329 -0.0944  1.5994
  232MPD1     N 3528   0.759   2.082   0.717  0.9582  0.6503  0.2021
  232MPD1    H5 3529   0.716   2.174   0.722 -0.6930 -0.1249  0.1100
  232MPD1    N1 3530   0.578   2.066   0.274 -0.4493  0.3088  0.0194
  232MPD1    H6 3531   0.508   2.134   0.303  0.1663  0.9583  0.0010
  232MPD1    H7 3532   0.527   1.995   0.222 -0.2623 -1.2755  2.0107
  233MPD1     C 3533   1.998   4.341   2.355 -0.3795 -0.1723  0.2594
  233MPD1    C1 3534   2.099   4.387   2.438 -0.4133 -0.1149 -0.1431
  233MPD1    C2 3535   2.192   4.474   2.386 -0.1581  0.6821  0.0654
  233MPD1    C3 3536   2.169   4.531   2.261 -0.5652 -0.3011 -0.0453
  233MPD1    C4 3537   2.064   4.493   2.184 -0.6611 -0.3294  0.1367
  233MPD1    C5 3538   1.976   4.399   2.235  0.4258 -0.2753 -0.0184
  233MPD1     H 3539   2.282   4.487   2.444 -0.6033 -0.8562  1.1073
  233MPD1    H1 3540   2.061   4.516   2.078 -1.6449 -0.6256  0.0910
  233MPD1    H2 3541   1.929   4.260   2.376  1.6478 -1.3494  2.4387
  233MPD1    H3 3542   1.890   4.373   2.175  0.2267 -0.0822  0.1862
  233MPD1     N 3543   2.262   4.605   2.186  0.3454 -0.4761 -0.0238
  233MPD1    H5 3544   2.233   4.639   2.094  1.3645  0.2631 -0.0739
  233MPD1    N1 3545   2.132   4.312   2.557 -0.0513 -0.4946 -0.5279
  233MPD1    H6 3546   2.195   4.358   2.622 -1.1688 -0.7907  0.7658
  233MPD1    H7 3547   2.047   4.295   2.610 -0.2922  2.1315 -0.0537
  234MPD1     C 3548   3.501   3.554  10.622 -0.0270  0.0387  0.1309
  234MPD1    C1 3549   3.587   3.663  10.607  0.3903 -0.3102 -0.4999
  234MPD1    C2 3550   3.607   3.723  10.485  0.1644  0.3805 -0.4515
  234MPD1    C3 3551   3.553   3.656  10.383  0.4869 -0.1867 -0.0853
  234MPD1    C4 3552   3.475   3.544  10.390 -0.7835 -0.6789  0.8496
  234MPD1    C5 3553   3.439   3.491  10.510  0.3806 -1.1769  0.4362
  234MPD1     H 3554   3.663   3.815  10.466 -0.7139  0.5029 -2.4786
  234MPD1    H1 3555   3.419   3.499  10.309  0.2746 -1.0374  0.3277
  234MPD1    H2 3556   3.477   3.518  10.721  1.3945 -0.8025  0.1749
  234MPD1    H3 3557   3.378   3.401  10.519  0.2573 -0.8876  2.5614
  234MPD1     N 3558   3.587   3.711  10.263 -0.1945 -0.0699  0.2804
  234MPD1    H5 3559   3.647   3.792  10.257  0.0772 -0.3783 -1.2447
  234MPD1    N1 3560   3.612   3.749  10.718 -0.0144  0.1521  0.1955
  234MPD1    H6 3561   3.632   3.691  10.799  0.3914 -1.0976 -0.7999
  234MPD1    H7 3562   3.698   3.799  10.696  0.9127 -0.0584  3.3753
  235MPD1     C 3563   4.550   2.630   9.175  0.5124  0.3486 -0.5862
  235MPD1    C1 3564   4.538   2.751   9.111  0.0246 -0.2438  1.0033
  235MPD1    C2 3565   4.410   2.788   9.072  0.1777 -0.1048 -0.1882
  235MPD1    C3 3566   4.298   2.701   9.083 -0.8655 -0.3358 -0.4641
  235MPD1    C4 3567   4.320   2.573   9.134 -0.2479 -0.4714  0.6361
  235MPD1    C5 3568   4.446   2.546   9.197  0.4452  0.4615 -0.1295
  235MPD1     H 3569   4.392   2.893   9.054  0.8540  0.0199 -0.1216
  235MPD1    H1 3570   4.246   2.494   9.133 -1.4558  0.6589 -0.0683
  235MPD1    H2 3571   4.644   2.606   9.224 -0.0713  1.3118  1.0009
  235MPD1    H3 3572   4.465   2.456   9.254 -0.7227  0.5079  0.3490
  235MPD1     N 3573   4.175   2.757   9.037  0.9332 -0.1281 -0.2071
  235MPD1    H5 3574   4.182   2.847   8.990  0.9248 -0.1312 -0.2142
  235MPD1    N1 3575   4.628   2.852   9.132  0.0198  0.6703  0.6488
  235MPD1    H6 3576   0.003   2.820   9.118 -1.0548 -0.7536 -3.3249
  235MPD1    H7 3577   4.604   2.927   9.067  0.9867 -0.3602 -0.8732
  236MPD1     C 3578   4.109   2.711   9.459 -0.1121  0.7813 -0.5793
  236MPD1    C1 3579   4.105   2.632   9.576  0.6459 -0.1340  0.3051
  236MPD1    C2 3580   4.187   2.665   9.679 -0.0587  0.0462  0.6688
  236MPD1    C3 3581   4.272   2.773   9.671  0.4026  0.0224 -0.3398
  236MPD1    C4 3582   4.264   2.857   9.564 -0.9534 -0.4659  0.1629
  236MPD1    C5 3583   4.190   2.819   9.451 -0.1328  0.0423  0.1251
  236MPD1     H 3584   4.191   2.604   9.769  2.3471 -0.6919  0.0478
  236MPD1    H1 3585   4.324   2.945   9.549 -2.0986  0.2887  0.0142
  236MPD1    H2 3586   4.054   2.686   9.369 -0.9762 -0.0065  0.1638
  236MPD1    H3 3587   4.187   2.888   9.368  1.4666  0.5273  0.4638
  236MPD1     N 3588   4.359   2.814   9.778  0.1780  0.3784  0.0051
  236MPD1    H5 3589   4.408   2.902   9.766 -0.5899  0.8181  0.1676
  236MPD1    N1 3590   4.024   2.517   9.587 -0.1063  0.1336 -0.1709
  236MPD1    H6 3591   4.069   2.444   9.643  0.0820 -0.8287 -1.5751
  236MPD1    H7 3592   4.005   2.472   9.497  1.6710  0.0302 -0.5119
  237MPD1     C 3593   3.811   0.824  15.218  0.4664  0.0106 -0.7497
  237MPD1    C1 3594   3.724   0.848  15.113  0.5128 -0.2185  0.0974
  237MPD1    C2 3595   3.604   0.780  15.120  0.1251 -0.6849  0.1294
  237MPD1    C3 3596   3.587   0.669  15.197  0.4787  0.3739  0.0882
  237MPD1    C4 3597   3.681   0.639  15.283  0.4335 -0.4305 -0.5539
  237MPD1    C5 3598   3.797   0.713  15.295 -0.7363  0.4247 -0.5540
  237MPD1     H 3599   3.512   0.805  15.068  1.1344  0.5997 -1.0282
  237MPD1    H1 3600   3.680   0.547  15.340  2.0354 -0.6593 -0.8850
  237MPD1    H2 3601   3.906   0.876  15.220  1.2391 -1.3688 -1.8636
  237MPD1    H3 3602   3.864   0.695  15.379 -1.3468  0.8101  0.0128
  237MPD1     N 3603   3.480   0.581  15.192 -0.6113 -0.6691  0.1207
  237MPD1    H5 3604   3.495   0.494  15.243  0.9064 -0.9301 -0.7695
  237MPD1    N1 3605   3.754   0.961  15.034  0.2875 -0.0293 -0.4940
  237MPD1    H6 3606   3.722   0.948  14.938 -1.9566  1.2713  0.0824
  237MPD1    H7 3607   3.850   0.997  15.036 -0.5389  2.1192  0.6019
  238MPD1     C 3608   0.042   3.873  15.569 -0.0503  0.3678 -0.7026
  238MPD1    C1 3609   4.622   3.848  15.551  0.0330  0.2326  0.3921
  238MPD1    C2 3610   4.566   3.904  15.433  0.4713 -0.7535 -0.1031
  238MPD1    C3 3611   4.641   3.959  15.332  0.4796  0.1216 -0.4354
  238MPD1    C4 3612   0.061   3.977  15.354  0.5303  0.6076  0.5988
  238MPD1    C5 3613   0.109   3.940  15.482  0.3518 -0.4797  0.2980
  238MPD1     H 3614   4.459   3.890  15.417  0.0715 -1.1606  2.9945
  238MPD1    H1 3615   0.127   4.033  15.289 -2.2621 -0.7434 -3.4008
  238MPD1    H2 3616   0.088   3.833  15.658  0.6927 -1.9674 -2.1416
  238MPD1    H3 3617   0.213   3.967  15.497 -0.1466  1.6228 -0.1568
  238MPD1     N 3618   4.583   4.005  15.208 -0.0813  0.3576 -0.2706
  238MPD1    H5 3619   4.654   4.052  15.153 -1.5596  2.9221  0.0247
  238MPD1    N1 3620   4.538   3.800  15.655 -0.7076  0.5339  0.4341
  238MPD1    H6 3621   4.459   3.748  15.616  0.4365 -0.8628 -0.0433
  238MPD1    H7 3622   4.585   3.727  15.709  0.3387  0.6483 -0.3241
  239MPD1     C 3623   0.995   0.308  14.886 -0.5751  1.2791 -0.0678
  239MPD1    C1 3624   0.859   0.312  14.902 -0.2354  0.0174  0.4600
  239MPD1    C2 3625   0.789   0.351  14.794 -0.4083 -1.4905  0.1475
  239MPD1    C3 3626   0.844   0.391  14.673  0.0446  1.2214  0.3690
  239MPD1    C4 3627   0.983   0.390  14.660 -0.2696  0.1327  0.2342
  239MPD1    C5 3628   1.055   0.351  14.771 -0.5572  0.2135  0.0713
  239MPD1     H 3629   0.681   0.361  14.799 -0.3150 -1.3186  1.7331
  239MPD1    H1 3630   1.036   0.432  14.575  0.1400 -1.0228 -0.0756
  239MPD1    H2 3631   1.061   0.283  14.968 -2.3353  0.2945  1.0402
  239MPD1    H3 3632   1.163   0.344  14.764 -0.6287  0.2701 -0.9844
  239MPD1     N 3633   0.763   0.422  14.563 -0.1921  0.3110 -0.4025
  239MPD1    H5 3634   0.811   0.454  14.479 -0.1541  1.4411  0.0510
  239MPD1    N1 3635   0.804   0.313  15.030 -0.2268 -0.3445 -0.6094
  239MPD1    H6 3636   0.708   0.285  15.047 -0.5286  2.5266  2.2023
  239MPD1    H7 3637   0.861   0.253  15.089 -0.6965 -1.5010 -1.3279
  240MPD1     C 3638   0.454   0.306  13.967 -0.2240 -0.9900 -0.0297
  240MPD1    C1 3639   0.324   0.286  13.925  0.7056  0.3274  0.7035
  240MPD1    C2 3640   0.239   0.195  13.992 -0.1144  0.2530 -0.3063
  240MPD1    C3 3641   0.288   0.140  14.111 -0.3719 -1.1835  0.0413
  240MPD1    C4 3642   0.417   0.163  14.158 -0.4466  0.1655 -0.1200
  240MPD1    C5 3643   0.499   0.256  14.090 -0.5162 -0.8073  0.4937
  240MPD1     H 3644   0.147   0.162  13.946  0.2978  0.5219 -1.3145
  240MPD1    H1 3645   0.458   0.115  14.246  0.2275  1.0104  0.0241
  240MPD1    H2 3646   0.522   0.374  13.918 -1.2399 -0.0883 -0.1795
  240MPD1    H3 3647   0.597   0.270  14.133  0.9121 -1.3169 -2.5594
  240MPD1     N 3648   0.195   0.053  14.177  0.0021  0.2757  0.7475
  240MPD1    H5 3649   0.098   0.059  14.149  0.5160  0.2857 -0.9840
  240MPD1    N1 3650   0.285   0.323  13.801 -0.5893 -0.4252  0.5962
  240MPD1    H6 3651   0.185   0.344  13.810 -1.0045 -1.1537 -2.1881
  240MPD1    H7 3652   0.337   0.409  13.783  1.0370 -0.8818  3.1709
  241MPD1     C 3653   0.039   4.469  15.134 -1.0591 -0.0657 -0.4908
  241MPD1    C1 3654   4.648   4.432  15.063 -0.2652  0.1495 -0.2369
  241MPD1    C2 3655   4.661   4.427  14.921 -0.2752 -0.3721  0.1859
  241MPD1    C3 3656   0.052   4.479  14.856  0.1365 -0.4701 -0.6664
  241MPD1    C4 3657   0.154   4.524  14.935 -0.3040  0.0728 -0.3368
  241MPD1    C5 3658   0.145   4.522  15.070 -0.0865  0.1756 -0.2459
  241MPD1     H 3659   4.579   4.387  14.862 -1.5331  0.9825  1.0200
  241MPD1    H1 3660   0.242   4.566  14.888  0.4641 -0.5126  0.5756
  241MPD1    H2 3661   0.046   4.462  15.242 -1.9016 -0.9665 -0.4983
  241MPD1    H3 3662   0.229   4.546  15.134 -1.1867 -0.1694  1.3205
  241MPD1     N 3663   0.072   4.496  14.721 -0.3359 -0.0532  0.0449
  241MPD1    H5 3664   0.164   4.524  14.687 -1.0099  1.0752 -0.8096
  241MPD1    N1 3665   4.544   4.363  15.131 -0.3058 -0.2053  0.7120
  241MPD1    H6 3666   4.530   4.403  15.223 -2.1894 -0.6648  0.6220
  241MPD1    H7 3667   4.454   4.376  15.085  0.1008  2.6902  0.7191
  242MPD1     C 3668   3.910   3.321  15.869  0.3170 -0.3126  0.0536
  242MPD1    C1 3669   3.943   3.189  15.881  0.4635 -0.2475  0.2509
  242MPD1    C2 3670   4.068   3.148  15.840  0.3971  0.4283 -0.6334
  242MPD1    C3 3671   4.151   3.231  15.769  0.6094  0.2822 -0.5494
  242MPD1    C4 3672   4.109   3.358  15.739  0.3858  0.0849  0.0119
  242MPD1    C5 3673   3.990   3.399  15.790  0.1254  0.3278  0.4787
  242MPD1     H 3674   4.100   3.047  15.863  3.0133  1.2383 -0.7479
  242MPD1    H1 3675   4.155   3.430  15.672 -1.1550 -0.1909 -1.3506
  242MPD1    H2 3676   3.817   3.363  15.907  0.6836  0.9691 -0.4637
  242MPD1    H3 3677   3.950   3.499  15.777  0.5671  0.4862  0.3294
  242MPD1     N 3678   4.273   3.195  15.711  0.6513  0.2630  0.1810
  242MPD1    H5 3679   4.316   3.267  15.654  3.0664 -0.9824  0.4145
  242MPD1    N1 3680   3.868   3.117  15.970 -0.6033  0.3407 -0.1686
  242MPD1    H6 3681   3.767   3.129  15.964 -0.5910  0.7912  0.5832
  242MPD1    H7 3682   3.883   3.018  15.952  0.8566  0.8081 -1.5331
  243MPD1     C 3683   2.387   1.157  17.512  0.4367  0.0651 -0.0067
  243MPD1    C1 3684   2.297   1.229  17.588  0.2838 -0.1302  0.2023
  243MPD1    C2 3685   2.195   1.297  17.524 -0.1831  0.1736 -1.0703
  243MPD1    C3 3686   2.165   1.269  17.390  0.5458 -0.4386  0.1808
  243MPD1    C4 3687   2.253   1.189  17.320  0.5720 -0.2895 -0.0961
  243MPD1    C5 3688   2.361   1.134  17.381 -0.4112  0.1103  0.0270
  243MPD1     H 3689   2.137   1.374  17.574 -0.9750 -0.9404 -0.2515
  243MPD1    H1 3690   2.231   1.165  17.217 -0.7697 -0.2579  0.1756
  243MPD1    H2 3691   2.482   1.123  17.551 -0.5753 -3.4508 -0.5970
  243MPD1    H3 3692   2.433   1.080  17.320 -0.9229  1.1596 -1.5081
  243MPD1     N 3693   2.056   1.329  17.339 -0.2007  0.0326  0.0197
  243MPD1    H5 3694   2.008   1.388  17.407 -0.0405  0.0432  0.1251
  243MPD1    N1 3695   2.340   1.271   0.031  0.4480 -0.3599 -0.2646
  243MPD1    H6 3696   2.405   1.211   0.082  1.3077  1.4519  0.7714
  243MPD1    H7 3697   2.254   1.273   0.086  0.1041  2.2638 -0.8701
  244MPD1     C 3698   1.374   1.561   0.105  0.1267  0.0049 -0.6529
  244MPD1    C1 3699   1.475   1.464   0.104  0.1409  0.3257  0.5126
  244MPD1    C2 3700   1.567   1.463  17.680 -0.1242 -0.1831  0.9742
  244MPD1    C3 3701   1.553   1.538  17.568 -0.2442 -0.2928 -0.4770
  244MPD1    C4 3702   1.450   1.630  17.573 -0.9789  0.2625  0.2318
  244MPD1    C5 3703   1.364   1.644  17.678 -0.1097  0.7355  0.1997
  244MPD1     H 3704   1.651   1.395   0.004  0.3154  0.3240  0.6320
  244MPD1    H1 3705   1.438   1.699  17.490 -0.1502 -0.0164 -0.1187
  244MPD1    H2 3706   1.297   1.571   0.181  1.3920  0.3929  0.5796
  244MPD1    H3 3707   1.303   1.733  17.679  1.7705  2.0259  1.5971
  244MPD1     N 3708   1.641   1.525  17.460  0.2016 -0.6231 -0.6019
  244MPD1    H5 3709   1.723   1.465  17.471  0.0472 -0.8371 -0.6163
  244MPD1    N1 3710   1.508   1.392   0.221 -0.7686 -0.3358  0.7800
  244MPD1    H6 3711   1.578   1.319   0.219  0.0435  0.4779 -0.0485
  244MPD1    H7 3712   1.418   1.370   0.265 -1.6683  3.8106  1.0852
  245MPD1     C 3713   2.316   2.368  13.463 -0.4582 -0.2154  0.0873
  245MPD1    C1 3714   2.409   2.324  13.562  0.0050  1.1334  0.3940
  245MPD1    C2 3715   2.548   2.347  13.538 -0.0896  0.0250 -0.2031
  245MPD1    C3 3716   2.585   2.428  13.431 -0.0852  0.2181 -0.0542
  245MPD1    C4 3717   2.492   2.485  13.350  0.4944 -0.1288  0.4466
  245MPD1    C5 3718   2.360   2.452  13.367 -0.7557  1.2686 -0.1512
  245MPD1     H 3719   2.616   2.301  13.609 -1.7400  0.6411  1.7724
  245MPD1    H1 3720   2.504   2.555  13.269 -0.4979 -0.5370 -0.0559
  245MPD1    H2 3721   2.216   2.328  13.448  0.1185 -2.4304  2.2411
  245MPD1    H3 3722   2.282   2.489  13.302  0.5002  1.0241 -1.7927
  245MPD1     N 3723   2.719   2.458  13.407 -0.0425 -0.3990  0.1239
  245MPD1    H5 3724   2.783   2.406  13.467  0.4115  1.3768  1.1800
  245MPD1    N1 3725   2.365   2.236  13.659 -0.0912  0.0963  0.3552
  245MPD1    H6 3726   2.420   2.236  13.744  1.7593 -0.2909 -0.8455
  245MPD1    H7 3727   2.270   2.251  13.693 -0.0022  0.8232  0.2702
  246MPD1     C 3728   2.997   4.434   8.467 -0.0452 -0.4526 -0.2642
  246MPD1    C1 3729   3.013   4.298   8.488  0.7520  0.7389 -0.4818
  246MPD1    C2 3730   3.143   4.242   8.484  0.1691 -0.0281 -0.0699
  246MPD1    C3 3731   3.261   4.316   8.458  0.7091 -0.2207  0.1667
  246MPD1    C4 3732   3.239   4.449   8.423  0.3289  0.1029  0.1065
  246MPD1    C5 3733   3.111   4.512   8.437  0.0404  0.0832 -0.0936
  246MPD1     H 3734   3.153   4.137   8.507 -2.0177 -0.3553 -0.7012
  246MPD1    H1 3735   3.321   4.519   8.417  0.2693  0.2857  1.5338
  246MPD1    H2 3736   2.896   4.473   8.461 -0.0834 -0.5184 -0.0419
  246MPD1    H3 3737   3.096   4.618   8.421 -1.5535  0.0740  1.3033
  246MPD1     N 3738   3.383   4.251   8.475 -0.1183  0.3288  0.8636
  246MPD1    H5 3739   3.378   4.153   8.499  1.9440 -0.0530 -0.2785
  246MPD1    N1 3740   2.900   4.217   8.503  0.6801 -0.2669 -0.3291
  246MPD1    H6 3741   2.811   4.265   8.516  1.6978  1.0949  1.5927
  246MPD1    H7 3742   2.911   4.133   8.560  0.8508 -0.7998 -1.1368
  247MPD1     C 3743   2.743   2.812  16.517 -0.3357 -0.5626  0.0469
  247MPD1    C1 3744   2.627   2.764  16.464  0.1104 -1.1855 -0.2593
  247MPD1    C2 3745   2.615   2.627  16.460 -0.0862 -0.3984 -1.0251
  247MPD1    C3 3746   2.718   2.539  16.495  0.7061 -0.2693 -0.6552
  247MPD1    C4 3747   2.832   2.590  16.552 -0.1526 -0.5312 -0.0056
  247MPD1    C5 3748   2.843   2.727  16.568 -0.2166 -0.3466  0.0009
  247MPD1     H 3749   2.525   2.590  16.412 -1.1035 -0.6066  1.0319
  247MPD1    H1 3750   2.907   2.530  16.603 -1.1045 -0.5781  1.3397
  247MPD1    H2 3751   2.756   2.917  16.540 -1.8615 -0.3476 -0.0672
  247MPD1    H3 3752   2.921   2.768  16.631 -1.7142  1.7818  0.4850
  247MPD1     N 3753   2.714   2.399  16.473  0.0614 -0.1551  0.0913
  247MPD1    H5 3754   2.796   2.342  16.493  2.0000  3.0256  1.1968
  247MPD1    N1 3755   2.529   2.852  16.422 -0.1049 -0.1137  0.2890
  247MPD1    H6 3756   2.435   2.818  16.404 -0.8084  1.4873  0.9465
  247MPD1    H7 3757   2.518   2.924  16.493 -1.9667 -0.8790  0.7621
  248MPD1     C 3758   4.410   2.550   0.617 -0.5127  0.1844 -0.8030
  248MPD1    C1 3759   4.463   2.477   0.518  0.7857 -0.3870  0.4426
  248MPD1    C2 3760   4.391   2.377   0.455 -0.0197 -0.4983 -0.6389
  248MPD1    C3 3761   4.264   2.353   0.501  0.7848 -0.7118 -0.0030
  248MPD1    C4 3762   4.216   2.420   0.610  0.4276  0.3110 -0.0783
  248MPD1    C5 3763   4.283   2.529   0.662 -0.4427  0.4880 -0.2983
  248MPD1     H 3764   4.443   2.317   0.382  1.0837 -0.0386 -0.2407
  248MPD1    H1 3765   4.119   2.398   0.654  0.2741  0.6369 -0.2502
  248MPD1    H2 3766   4.476   2.605   0.683  1.1300 -2.4513 -0.2472
  248MPD1    H3 3767   4.246   2.581   0.750 -0.3446 -2.7769  1.6521
  248MPD1     N 3768   4.200   2.242   0.444  0.0841  0.1186  0.0734
  248MPD1    H5 3769   4.249   2.185   0.376 -1.5863 -1.0942 -0.1229
  248MPD1    N1 3770   4.606   2.489   0.501  0.6283  0.4057  0.3326
  248MPD1    H6 3771   4.648   2.575   0.534  0.7668  0.8375 -0.9812
  248MPD1    H7 3772   4.644   2.460   0.411 -1.6666 -2.0239  0.1398
  249MPD1     C 3773   0.305   1.990   9.201 -0.1254 -0.2165 -0.7537
  249MPD1    C1 3774   0.220   2.014   9.308  0.4520 -0.2489  0.4346
  249MPD1    C2 3775   0.230   1.936   9.422  0.4667 -0.1800 -0.2659
  249MPD1    C3 3776   0.314   1.829   9.424 -0.3568 -0.6647  0.1494
  249MPD1    C4 3777   0.397   1.800   9.312 -0.0297 -0.4595  0.4636
  249MPD1    C5 3778   0.391   1.885   9.211 -0.1292  0.3894 -0.2369
  249MPD1     H 3779   0.171   1.952   9.511  2.3142 -1.3885  1.1748
  249MPD1    H1 3780   0.461   1.713   9.317 -1.5240 -1.3970  3.4003
  249MPD1    H2 3781   0.321   2.067   9.126 -1.4109  1.7154  0.9789
  249MPD1    H3 3782   0.469   1.875   9.136  1.5967 -0.8519  1.7478
  249MPD1     N 3783   0.321   1.750   9.542  0.6436  0.3123  1.0684
  249MPD1    H5 3784   0.272   1.783   9.624 -3.1567 -1.9290 -0.2752
  249MPD1    N1 3785   0.146   2.132   9.297 -0.1749  0.0977 -0.4435
  249MPD1    H6 3786   0.134   2.163   9.201  2.8396  0.3062 -0.7475
  249MPD1    H7 3787   0.056   2.125   9.344  1.1622  1.0329  2.2589
  250MPD2     C 3788   2.050   0.654  12.900  0.4514 -0.1039  0.0258
  250MPD2    C1 3789   1.945   0.711  12.834  0.4739 -0.5834  0.5279
  250MPD2    C2 3790   1.852   0.629  12.776 -1.0236  0.0109  0.4447
  250MPD2    C3 3791   1.858   0.493  12.784  0.2123  0.0977  0.1496
  250MPD2    C4 3792   1.958   0.434  12.860  0.1018 -0.0025 -0.3748
  250MPD2    C5 3793   2.051   0.518  12.917  0.0134 -0.3073  0.1061
  250MPD2     H 3794   1.763   0.678  12.739 -0.7802  1.6019  2.0027
  250MPD2    H1 3795   1.965   0.327  12.871 -0.1479  0.0144 -0.0603
  250MPD2    H2 3796   2.130   0.712  12.945 -0.0664  1.3887 -0.9614
  250MPD2    H3 3797   2.129   0.478  12.980 -0.4113 -0.0790  0.7736
  250MPD2     N 3798   1.758   0.408  12.731  0.1693  0.4343  0.2363
  250MPD2    H5 3799   1.769   0.309  12.750  0.4336  0.2124 -1.0978
  250MPD2    N1 3800   1.940   0.852  12.837 -0.1410  0.1885 -0.2008
  250MPD2    H7 3801   2.008   0.895  12.899 -1.0625  3.5822 -1.4954
  251TMC3    C1 3802   1.858   1.068  12.817 -1.0684  0.6322  0.4516
  251TMC3    C2 3803   1.750   1.150  12.831  0.3596 -0.3770  0.7043
  251TMC3    C3 3804   1.764   1.284  12.839 -0.9766  0.5088  0.5842
  251TMC3    C4 3805   1.985   1.123  12.804 -0.1861  0.2938 -0.3104
  251TMC3    C5 3806   1.994   1.261  12.826  0.3301 -0.1363  0.3146
  251TMC3    C6 3807   1.885   1.341  12.841 -0.6071 -0.0590  0.4562
  251TMC3     C 3808   1.828   0.930  12.800  0.3325  0.3499 -0.1469
  251TMC3     O 3809   1.714   0.894  12.782 -0.1099 -1.2061  0.0111
  251TMC3     H 3810   1.649   1.112  12.837  0.2718 -0.2388  0.1777
  251TMC3    H1 3811   2.066   1.052  12.795  0.2016  0.8468 -1.1068
  251TMC3    H2 3812   1.897   1.448  12.830  2.0440 -0.3664  0.3636
  251TMC3    C7 3813   2.129   1.321  12.849 -0.1569  0.1628  0.3034
  251TMC3    C8 3814   1.656   1.351  12.906  0.4495  0.0597 -0.6885
  251TMC3    O1 3815   2.138   1.420  12.924 -0.4690  0.1380 -0.0799
  251TMC3    O2 3816   1.546   1.321  12.866  0.0404  0.0571 -0.1559
  252TMC3    C1 3817   2.698   2.421   8.686 -0.1977  0.0615 -0.3082
  252TMC3    C2 3818   2.789   2.440   8.793  0.1039  0.2071 -0.0661
  252TMC3    C3 3819   2.846   2.324   8.838 -0.9961 -0.0570 -0.3701
  252TMC3    C4 3820   2.672   2.297   8.646 -0.5717  0.6584  0.6549
  252TMC3    C5 3821   2.725   2.182   8.699 -0.0731  0.2877 -0.1193
  252TMC3    C6 3822   2.818   2.195   8.801  0.2471 -0.1399 -0.0013
  252TMC3     C 3823   2.628   2.532   8.619  0.0874  0.8785 -0.2131
  252TMC3     O 3824   2.608   2.530   8.500  0.2560 -0.2607 -0.7028
  252TMC3     H 3825   2.819   2.540   8.821  2.4062 -0.5503  0.2333
  252TMC3    H1 3826   2.626   2.279   8.549  1.2732 -0.2787 -0.0470
  252TMC3    H2 3827   2.869   2.104   8.832  0.8532 -0.7041 -2.7063
  252TMC3    C7 3828   2.695   2.056   8.639  0.2306 -0.3849 -0.0191
  252TMC3    C8 3829   2.941   2.334   8.943 -0.1732  0.2910 -0.0246
  252TMC3    O1 3830   2.634   2.051   8.534 -0.2135 -0.1041 -0.1147
  252TMC3    O2 3831   3.006   2.232   8.965  0.9401  0.5678  0.2342
  253MPD2     C 3832   3.162   0.744  15.408 -0.3055  0.4556  0.3732
  253MPD2    C1 3833   3.022   0.745  15.438 -0.3761 -0.3297  0.3414
  253MPD2    C2 3834   2.983   0.710  15.570 -0.6436  0.3554  0.9485
  253MPD2    C3 3835   3.077   0.684  15.667  0.0344  0.7960  0.1455
  253MPD2    C4 3836   3.208   0.682  15.636 -0.5205 -0.2867 -0.8785
  253MPD2    C5 3837   3.246   0.701  15.502 -0.7103 -0.3842  0.1895
  253MPD2     H 3838   2.879   0.707  15.600 -0.4718 -0.7451  1.4065
  253MPD2    H1 3839   3.280   0.648  15.709 -0.9551  1.3555  0.3161
  253MPD2    H2 3840   3.197   0.782  15.313 -0.5849 -0.8204 -0.2385
  253MPD2    H3 3841   3.351   0.693  15.475 -0.2416  2.2528  1.2482
  253MPD2     N 3842   3.041   0.670  15.803 -0.0616 -0.5602 -0.7610
  253MPD2    H5 3843   3.112   0.625  15.860 -0.2788  0.9293  0.6774
  253MPD2    N1 3844   2.926   0.789  15.349  0.0636 -0.2557 -0.0059
  253MPD2    H7 3845   2.832   0.791  15.388 -0.7119 -2.8444 -1.7396
  254TMC3    C1 3846   2.893   0.652  15.986  0.0709  0.1418 -0.7747
  254TMC3    C2 3847   2.763   0.638  16.011 -0.3826 -0.2819  0.1403
  254TMC3    C3 3848   2.727   0.578  16.128 -0.4749 -0.3568  0.4941
  254TMC3    C4 3849   2.994   0.599  16.056  0.6680 -0.0799 -1.4207
  254TMC3    C5 3850   2.953   0.546  16.181 -0.9191  0.5373  0.6071
  254TMC3    C6 3851   2.820   0.534  16.213 -0.4275  0.6381  0.7443
  254TMC3     C 3852   2.922   0.705  15.860 -0.7015  0.4962 -0.2543
  254TMC3     O 3853   2.847   0.795  15.829  0.3048 -0.7753 -0.4037
  254TMC3     H 3854   2.690   0.668  15.937  1.4791  2.9068 -0.4464
  254TMC3    H1 3855   3.097   0.614  16.024  1.0881 -1.1538 -0.5731
  254TMC3    H2 3856   2.794   0.485  16.306  0.6377  0.2587  0.8397
  254TMC3    C7 3857   3.049   0.544  16.290 -0.3605 -0.3957  0.1900
  254TMC3    C8 3858   2.594   0.612  16.184 -0.4421  0.1348 -0.5481
  254TMC3    O1 3859   3.004   0.497  16.392 -0.0497 -0.2623 -0.0939
  254TMC3    O2 3860   2.573   0.589  16.300 -0.2220 -0.2121  0.1371
  255MPD2     C 3861   1.477   4.265   9.864  0.5465 -0.1482  0.5443
  255MPD2    C1 3862   1.545   4.325   9.763 -0.8337  0.2116 -0.6638
  255MPD2    C2 3863   1.676   4.282   9.752  0.1254 -0.2362 -0.8160
  255MPD2    C3 3864   1.732   4.187   9.830 -0.1740  0.0313  0.6134
  255MPD2    C4 3865   1.652   4.112   9.922 -0.2622 -0.4786  0.1891
  255MPD2    C5 3866   1.527   4.161   9.940 -0.0790  0.7747  0.0209
  255MPD2     H 3867   1.746   4.330   9.684  0.3351  0.8736  0.1851
  255MPD2    H1 3868   1.690   4.029   9.980 -0.2493  0.0287  0.9036
  255MPD2    H2 3869   1.374   4.295   9.881  0.4821 -0.9969  1.6850
  255MPD2    H3 3870   1.462   4.109  10.009 -0.6623  0.7387 -0.5642
  255MPD2     N 3871   1.864   4.146   9.804 -0.4424  0.0771 -0.5768
  255MPD2    H5 3872   1.912   4.200   9.734  0.1085  0.3842  0.0370
  255MPD2    N1 3873   1.479   4.425   9.685 -0.1040 -0.2710 -0.7110
  255MPD2    H7 3874   1.380   4.442   9.702  0.3560  1.7066  0.0126
  256TMC3    C1 3875   1.435   4.584   9.516 -0.2434  0.1578 -0.4449
  256TMC3    C2 3876   1.476   4.647   9.401  0.2468  0.6424  1.2859
  256TMC3    C3 3877   1.379   4.693   9.311  0.1500  0.2786 -0.1846
  256TMC3    C4 3878   1.304   4.591   9.556 -0.0092  0.0362 -0.2028
  256TMC3    C5 3879   1.216   4.664   9.476 -0.0862 -0.0248 -0.1444
  256TMC3    C6 3880   1.248   4.713   9.355  0.1956  0.4840 -0.2763
  256TMC3     C 3881   1.536   4.498   9.581  0.3058  0.0544 -0.3599
  256TMC3     O 3882   1.649   4.488   9.536 -0.4722 -0.1544 -0.0822
  256TMC3     H 3883   1.582   4.640   9.380 -0.0013  0.8052  0.0095
  256TMC3    H1 3884   1.276   4.554   9.654  3.4935 -1.0082  0.3934
  256TMC3    H2 3885   1.171   0.032   9.290  1.6922  1.2426 -1.5738
  256TMC3    C7 3886   1.084   4.620   9.500  0.3537  0.5079 -0.3789
  256TMC3    C8 3887   1.417   4.712   9.173  0.4235  0.1674  0.0195
  256TMC3    O1 3888   1.068   4.535   9.587  0.2789 -0.8895  0.2998
  256TMC3    O2 3889   1.329   0.041   9.099  0.5908 -0.5526  0.6784
  257MPD2     C 3890   0.279   1.128  12.959 -0.8864 -0.1826  0.2341
  257MPD2    C1 3891   0.314   1.029  12.868  0.4275 -0.6647  0.3308
  257MPD2    C2 3892   0.391   0.929  12.915  0.6073 -0.2877 -0.7201
  257MPD2    C3 3893   0.426   0.920  13.051  0.4149  0.1294 -0.0595
  257MPD2    C4 3894   0.377   1.010  13.141 -0.2189  0.2697  0.3141
  257MPD2    C5 3895   0.307   1.119  13.091  0.0373 -0.0993  0.3337
  257MPD2     H 3896   0.426   0.853  12.846  0.7117  1.3419 -2.4659
  257MPD2    H1 3897   0.389   1.007  13.249 -1.2070  2.7092  0.4929
  257MPD2    H2 3898   0.221   1.216  12.933 -1.7273 -0.5337  0.8985
  257MPD2    H3 3899   0.278   1.196  13.162  1.0934  1.2993 -0.7492
  257MPD2     N 3900   0.511   0.813  13.090 -0.1654 -0.0773 -0.1274
  257MPD2    H5 3901   0.563   0.773  13.012 -3.3873 -1.2093 -1.6782
  257MPD2    N1 3902   0.289   1.052  12.731  0.0743  0.6926 -0.5809
  257MPD2    H7 3903   0.339   0.998  12.661  1.6227  0.1359  0.9597
  258TMC3    C1 3904   0.645   0.669  13.223  1.4519  0.4174 -0.2166
  258TMC3    C2 3905   0.757   0.679  13.144  0.8865 -0.0257  0.3437
  258TMC3    C3 3906   0.865   0.593  13.169 -0.5385  0.1381 -0.3558
  258TMC3    C4 3907   0.639   0.576  13.327 -0.4101  0.0200 -0.5807
  258TMC3    C5 3908   0.753   0.507  13.358 -0.1130  0.6997  0.1329
  258TMC3    C6 3909   0.861   0.509  13.280 -0.4434  0.7308  0.2019
  258TMC3     C 3910   0.540   0.769  13.213 -0.4598  0.0681 -0.1228
  258TMC3     O 3911   0.490   0.804  13.322 -0.2438 -0.5864 -0.3437
  258TMC3     H 3912   0.772   0.756  13.069  1.2753 -1.8090 -1.3967
  258TMC3    H1 3913   0.554   0.582  13.395  0.1347 -3.0301  0.3396
  258TMC3    H2 3914   0.940   0.444  13.316  1.0376  1.7200 -1.2186
  258TMC3    C7 3915   0.743   0.445  13.488 -0.1040  0.0318 -0.6016
  258TMC3    C8 3916   0.969   0.588  13.067 -0.2097 -0.0396 -0.3120
  258TMC3    O1 3917   0.631   0.440  13.542  0.0302 -0.7941 -0.1059
  258TMC3    O2 3918   0.959   0.658  12.966 -0.5663 -0.8017  0.1030
  259MPD2     C 3919   3.865   1.681   1.362 -0.7969 -0.1960  0.0906
  259MPD2    C1 3920   3.961   1.718   1.459 -0.0431  0.1824  0.6687
  259MPD2    C2 3921   4.093   1.743   1.416 -0.3335  0.8533  0.4392
  259MPD2    C3 3922   4.121   1.744   1.279 -0.1006 -0.2001  0.1016
  259MPD2    C4 3923   4.021   1.722   1.190  0.5746  0.0080  0.1552
  259MPD2    C5 3924   3.898   1.676   1.235 -0.4274 -0.3212  0.4107
  259MPD2     H 3925   4.168   1.777   1.487 -0.1539  0.9145  0.2198
  259MPD2    H1 3926   4.036   1.735   1.083  0.3897  3.2060  0.5126
  259MPD2    H2 3927   3.761   1.663   1.388 -0.7133 -0.4291  0.2693
  259MPD2    H3 3928   3.822   1.650   1.162  0.5565 -1.5048 -0.1886
  259MPD2     N 3929   4.251   1.770   1.237  0.6117 -0.1888  0.2456
  259MPD2    H5 3930   4.318   1.807   1.305  1.8629 -0.0972 -1.0297
  259MPD2    N1 3931   3.920   1.727   1.589 -0.3159 -0.1177 -0.0568
  259MPD2    H7 3932   3.819   1.728   1.605 -0.0962  1.5522  1.2266
  260TMC3    C1 3933   4.422   1.804   1.085  0.2807 -0.2303  0.6599
  260TMC3    C2 3934   4.439   1.934   1.120 -0.2060 -0.9682  0.2787
  260TMC3    C3 3935   4.540   2.004   1.061 -0.6171 -0.5058 -0.4351
  260TMC3    C4 3936   4.496   1.746   0.990 -0.2672  0.2333  0.1615
  260TMC3    C5 3937   4.596   1.820   0.932  0.1948 -0.0124 -0.3039
  260TMC3    C6 3938   4.615   1.954   0.958 -0.0554 -0.0191 -0.2249
  260TMC3     C 3939   4.292   1.750   1.112  0.0972  0.7576 -0.2852
  260TMC3     O 3940   4.252   1.668   1.032  0.4826  0.2933  0.3193
  260TMC3     H 3941   4.368   1.997   1.172 -0.5141  1.3027 -2.8605
  260TMC3    H1 3942   4.470   1.643   0.970  1.0812  0.1732 -1.3593
  260TMC3    H2 3943   4.695   2.005   0.906  0.6601 -1.1495 -0.2474
  260TMC3    C7 3944   4.632   1.773   0.796 -1.1518 -0.1181 -0.1735
  260TMC3    C8 3945   4.571   2.134   1.119 -0.5613  0.6974  0.2643
  260TMC3    O1 3946   4.565   1.681   0.755  0.3158  0.3396  0.2250
  260TMC3    O2 3947   4.496   2.188   1.200  0.0388 -0.3084 -0.1610
  261MPD2     C 3948   1.049   0.503  12.364 -0.1924 -0.8545  0.2383
  261MPD2    C1 3949   1.182   0.484  12.334  0.8455 -0.2979 -0.2854
  261MPD2    C2 3950   1.238   0.558  12.238 -0.0589  0.0439  0.1066
  261MPD2    C3 3951   1.169   0.670  12.177  0.3070 -0.0795 -0.1919
  261MPD2    C4 3952   1.037   0.688  12.218 -0.2701  0.2243  0.1717
  261MPD2    C5 3953   0.975   0.599  12.303  0.1403  0.6521  0.3528
  261MPD2     H 3954   1.338   0.536  12.203 -0.8438 -1.3716 -1.2822
  261MPD2    H1 3955   0.967   0.755  12.169 -0.7789  0.4420  1.2056
  261MPD2    H2 3956   0.995   0.454  12.444 -2.2375 -0.7432 -1.0659
  261MPD2    H3 3957   0.870   0.611  12.328 -1.0731 -1.5614 -3.7891
  261MPD2     N 3958   1.231   0.748  12.078  0.8049  0.3727 -0.1666
  261MPD2    H5 3959   1.309   0.700  12.035  0.6362 -1.8223  1.9738
  261MPD2    N1 3960   1.264   0.387  12.398  0.0809  0.1368 -0.1796
  261MPD2    H7 3961   1.363   0.386  12.377  0.2989 -1.9180  0.9026
  262TMC3    C1 3962   1.257   0.938  11.936  0.2025  0.3232  0.9015
  262TMC3    C2 3963   1.226   1.065  11.910 -0.1953  1.1103 -0.4499
  262TMC3    C3 3964   1.270   1.119  11.791  0.4442  0.0492 -0.2002
  262TMC3    C4 3965   1.349   0.869  11.859  1.1820  0.1133  0.3966
  262TMC3    C5 3966   1.389   0.923  11.743  0.0244 -0.2022 -0.5039
  262TMC3    C6 3967   1.339   1.043  11.707  0.1204 -0.0495  0.3748
  262TMC3     C 3968   1.183   0.870  12.040  0.3332 -0.1247 -0.4490
  262TMC3     O 3969   1.103   0.936  12.101 -0.0807  0.7628  0.8091
  262TMC3     H 3970   1.170   1.125  11.981  0.3754 -2.5717  3.0429
  262TMC3    H1 3971   1.398   0.782  11.903  0.7922  0.5064  1.6208
  262TMC3    H2 3972   1.359   1.088  11.610  0.3835 -0.3004  0.3116
  262TMC3    C7 3973   1.476   0.848  11.649  1.6294 -0.1092  0.7196
  262TMC3    C8 3974   1.218   1.240  11.738  0.0857  0.3819  0.2613
  262TMC3    O1 3975   1.505   0.732  11.686 -0.2585  0.7594  0.0754
  262TMC3    O2 3976   1.266   1.290  11.636 -0.6992  0.7311 -0.9908
  263MPD2     C 3977   2.290   0.614  10.962 -0.0593 -0.1645 -0.2191
  263MPD2    C1 3978   2.374   0.531  10.889 -0.3195 -0.6223 -0.4807
  263MPD2    C2 3979   2.432   0.573  10.772 -0.0122 -0.7880  0.0569
  263MPD2    C3 3980   2.413   0.705  10.738  0.7994  0.3810 -0.5950
  263MPD2    C4 3981   2.327   0.790  10.809 -0.4869  0.1967  0.0386
  263MPD2    C5 3982   2.266   0.741  10.923 -0.2342 -0.0845  0.3917
  263MPD2     H 3983   2.495   0.514  10.706  3.4305  2.9283  0.0042
  263MPD2    H1 3984   2.306   0.892  10.778 -3.1273 -1.0307 -2.1642
  263MPD2    H2 3985   2.240   0.574  11.049  1.2337  1.5517  1.3045
  263MPD2    H3 3986   2.200   0.801  10.984 -0.6711  0.4861 -0.6444
  263MPD2     N 3987   2.473   0.769  10.629  0.0637 -0.7421 -0.6795
  263MPD2    H5 3988   2.441   0.864  10.613 -3.3098 -1.2931  2.8326
  263MPD2    N1 3989   2.416   0.408  10.949 -0.1564  0.0996  0.3285
  263MPD2    H7 3990   2.381   0.398  11.044  0.4814 -0.6946  0.4756
  264TMC3    C1 3991   2.642   0.813  10.476  0.6278  0.1467 -0.3234
  264TMC3    C2 3992   2.632   0.943  10.518 -0.7569  0.3681  0.2685
  264TMC3    C3 3993   2.658   1.037  10.419 -0.3640 -0.3046  0.2890
  264TMC3    C4 3994   2.697   0.774  10.357  0.1447 -0.8950  0.6494
  264TMC3    C5 3995   2.728   0.875  10.271  0.4235 -0.4343  0.3370
  264TMC3    C6 3996   2.701   1.003  10.293 -0.6348 -0.1120  0.7864
  264TMC3     C 3997   2.579   0.715  10.558 -0.0822  0.0118 -0.2492
  264TMC3     O 3998   2.629   0.603  10.560 -0.1909  0.2515 -0.5275
  264TMC3     H 3999   2.617   0.972  10.621 -0.4612  1.2721  0.0617
  264TMC3    H1 4000   2.710   0.673  10.321  2.6436  0.2302 -1.7475
  264TMC3    H2 4001   2.714   1.077  10.215  2.8671 -2.7854 -1.1692
  264TMC3    C7 4002   2.857   0.862  10.205 -0.4283 -0.4388  0.0687
  264TMC3    C8 4003   2.739   1.156  10.465 -0.2797 -0.9070 -0.2801
  264TMC3    O1 4004   2.886   0.767  10.124 -0.3384  0.0543  0.2630
  264TMC3    O2 4005   2.828   1.187  10.385  0.1920 -0.4871  0.5020
  265MPD2     C 4006   4.035   0.354  15.600 -0.4047  0.6461 -0.3757
  265MPD2    C1 4007   4.058   0.481  15.550 -0.2535  0.4229  0.8543
  265MPD2    C2 4008   4.123   0.493  15.424 -0.5136  0.5374  0.0527
  265MPD2    C3 4009   4.166   0.380  15.355 -0.6130 -0.1020  1.4747
  265MPD2    C4 4010   4.142   0.251  15.404 -0.0314 -0.6148  0.0062
  265MPD2    C5 4011   4.066   0.239  15.522 -0.1464  0.1431 -0.3141
  265MPD2     H 4012   4.143   0.591  15.383 -0.7411  0.1514 -0.9931
  265MPD2    H1 4013   4.169   0.166  15.343 -0.6627 -1.7048  1.2637
  265MPD2    H2 4014   3.993   0.323  15.695  0.8812  1.8554  0.5874
  265MPD2    H3 4015   4.051   0.139  15.563  2.7684 -0.5189 -0.8323
  265MPD2     N 4016   4.235   0.377  15.231 -0.0497  0.0984 -0.5357
  265MPD2    H5 4017   4.244   0.284  15.191 -1.0165 -0.9070  1.5998
  265MPD2    N1 4018   4.023   0.603  15.617 -0.4088  0.9747  0.2164
  265MPD2    H7 4019   4.050   0.695  15.584  0.3106  0.5188 -0.4670
  266TMC3    C1 4020   3.923   0.734  15.789  0.5406 -0.4209 -0.2418
  266TMC3    C2 4021   3.906   0.743  15.930  0.0898 -0.2623  0.1259
  266TMC3    C3 4022   3.907   0.871  15.976  0.5509  0.5887 -0.3835
  266TMC3    C4 4023   3.935   0.845  15.710  0.0896 -0.1923  0.3751
  266TMC3    C5 4024   3.941   0.970  15.770  0.1917 -0.1311  0.2899
  266TMC3    C6 4025   3.925   0.990  15.901  0.4575 -0.1620  0.0205
  266TMC3     C 4026   3.943   0.604  15.729 -0.4689 -0.5717 -0.3126
  266TMC3     O 4027   3.911   0.510  15.798 -0.2428 -0.3079 -0.4224
  266TMC3     H 4028   3.900   0.654  15.991  1.2310 -2.6959 -3.3532
  266TMC3    H1 4029   3.909   0.835  15.605 -1.7887  1.3474  0.6906
  266TMC3    H2 4030   3.921   1.087  15.948 -0.4280  0.9479 -2.3032
  266TMC3    C7 4031   3.932   1.089  15.685  0.3076  0.0476  0.2976
  266TMC3    C8 4032   3.866   0.887  16.117  0.5472  0.3344 -0.3078
  266TMC3    O1 4033   3.896   1.192  15.739  0.3301  0.2283 -0.3858
  266TMC3    O2 4034   3.799   0.795  16.154  0.5125  0.4757 -0.0883
  267MPD2     C 4035   2.233   1.647  17.498 -0.6187  0.0365 -0.3318
  267MPD2    C1 4036   2.333   1.724  17.452  1.0957 -0.9148 -0.1595
  267MPD2    C2 4037   2.302   1.821  17.350 -0.8547  0.7727  0.5682
  267MPD2    C3 4038   2.176   1.830  17.295 -0.1837 -0.1941  0.5617
  267MPD2    C4 4039   2.080   1.743  17.338  0.1668  0.1980 -0.4647
  267MPD2    C5 4040   2.105   1.663  17.447 -0.1796  0.1369 -0.5321
  267MPD2     H 4041   2.380   1.885  17.310 -1.2200  0.9896  0.2064
  267MPD2    H1 4042   1.978   1.740  17.302  0.1816 -1.1040 -0.4290
  267MPD2    H2 4043   2.248   1.589  17.588  0.7638  4.2567  2.1815
  267MPD2    H3 4044   2.033   1.596  17.492  1.0581 -1.0571 -0.3314
  267MPD2     N 4045   2.145   1.914  17.184 -0.5009  0.4727  0.4787
  267MPD2    H5 4046   2.047   1.914  17.156  0.1348  0.0608 -1.7444
  267MPD2    N1 4047   2.463   1.713  17.504  0.0856  0.0350 -0.6341
  267MPD2    H7 4048   2.488   1.632  17.560  0.9630 -0.3134 -1.5425
  268TMC3    C1 4049   2.666   1.793  17.592  0.4656 -0.1574 -0.6103
  268TMC3    C2 4050   2.773   1.877  17.571  0.1835 -0.4128  0.7524
  268TMC3    C3 4051   2.853   1.913  17.670 -0.4757  0.7324 -0.3406
  268TMC3    C4 4052   2.630   1.772   0.041 -0.1854  0.2066  0.0894
  268TMC3    C5 4053   2.709   1.807   0.144 -0.3233 -0.3886 -0.0172
  268TMC3    C6 4054   2.821   1.884   0.121 -0.6548  0.3594  0.0650
  268TMC3     C 4055   2.566   1.808  17.488 -0.3616 -0.1164  0.6157
  268TMC3     O 4056   2.567   1.920  17.432  0.2785 -0.0030 -1.0205
  268TMC3     H 4057   2.803   1.889  17.467 -3.3164 -1.1644 -0.3738
  268TMC3    H1 4058   2.536   1.727   0.069 -1.4896  3.4356  0.8749
  268TMC3    H2 4059   2.876   1.933   0.201 -2.9029  0.7513  1.3626
  268TMC3    C7 4060   2.640   1.831   0.273 -0.1502 -0.8368  0.0646
  268TMC3    C8 4061   2.945   2.025  17.640 -0.2464  0.2041 -0.4242
  268TMC3    O1 4062   2.574   1.740   0.325  0.1680  0.1168  0.5697
  268TMC3    O2 4063   3.005   2.070   0.055  0.2652 -0.5947  0.2940
  269MPD2     C 4064   2.156   0.724  15.685 -0.3723  0.0214 -0.3409
  269MPD2    C1 4065   2.020   0.761  15.689 -0.2766  0.2610 -0.1621
  269MPD2    C2 4066   1.983   0.898  15.659 -0.6389  0.2723 -0.0482
  269MPD2    C3 4067   2.076   0.991  15.617  0.1532 -0.2664 -0.2329
  269MPD2    C4 4068   2.217   0.951  15.606 -0.0261  0.9497  0.0811
  269MPD2    C5 4069   2.244   0.823  15.651 -0.6547 -0.1096 -0.1674
  269MPD2     H 4070   1.881   0.933  15.672 -0.9904 -0.7688  0.0131
  269MPD2    H1 4071   2.291   1.006  15.549  0.0671  0.0101 -0.7072
  269MPD2    H2 4072   2.191   0.622  15.697  0.7407  0.5044  0.4840
  269MPD2    H3 4073   2.348   0.793  15.649 -1.3183 -2.5626  0.6461
  269MPD2     N 4074   2.023   1.117  15.580 -0.1377 -0.0927  0.0061
  269MPD2    H5 4075   1.930   1.138  15.615 -1.6723 -2.4851 -2.6603
  269MPD2    N1 4076   1.931   0.656  15.717 -0.2105 -1.0232  0.3247
  269MPD2    H7 4077   1.969   0.562  15.718 -1.2435 -1.4311  2.2636
  270TMC3    C1 4078   1.730   0.536  15.726  0.8595 -0.4921  0.9415
  270TMC3    C2 4079   1.614   0.524  15.657 -0.2610  0.4477 -0.0174
  270TMC3    C3 4080   1.540   0.408  15.655 -0.5308  0.2200  0.6045
  270TMC3    C4 4081   1.788   0.441  15.800  0.1711 -0.8205 -0.2074
  270TMC3    C5 4082   1.719   0.323  15.796  0.3942  0.5120 -0.1455
  270TMC3    C6 4083   1.606   0.299  15.718  0.6462 -0.1938  0.0232
  270TMC3     C 4084   1.796   0.665  15.725 -0.1448  0.1518  0.0844
  270TMC3     O 4085   1.718   0.759  15.725  0.0165 -0.7577  0.6514
  270TMC3     H 4086   1.573   0.614  15.612  0.8485  0.0700 -1.7848
  270TMC3    H1 4087   1.881   0.461  15.852 -0.2494 -2.0233  0.9947
  270TMC3    H2 4088   1.558   0.204  15.703 -2.1691  0.9343  1.8590
  270TMC3    C7 4089   1.802   0.213  15.841  0.2088 -0.2887 -0.3628
  270TMC3    C8 4090   1.466   0.380  15.533  0.0471 -0.1866  0.1663
  270TMC3    O1 4091   1.910   0.238  15.897 -0.1791 -0.0154  0.4260
  270TMC3    O2 4092   1.381   0.290  15.546 -0.0219 -0.3955  0.4421
  271MPD2     C 4093   1.094   1.044  13.902  0.5682  0.4361 -0.3613
  271MPD2    C1 4094   1.012   0.982  13.995  0.0230  0.2302 -0.6556
  271MPD2    C2 4095   0.877   1.013  14.004 -0.0499 -0.2255  0.2364
  271MPD2    C3 4096   0.825   1.106  13.913  0.2892  0.0241  1.5021
  271MPD2    C4 4097   0.903   1.168  13.818 -0.5668 -0.0687  0.7227
  271MPD2    C5 4098   1.038   1.129  13.809 -0.3982  0.1857 -0.1923
  271MPD2     H 4099   0.812   0.965  14.076 -0.1603  3.5075  2.6011
  271MPD2    H1 4100   0.866   1.246  13.752 -0.7457 -0.2498  0.6052
  271MPD2    H2 4101   1.201   1.030  13.899  0.2315 -2.3195  0.1102
  271MPD2    H3 4102   1.088   1.176  13.725 -0.2110  1.6884  0.7546
  271MPD2     N 4103   0.687   1.143  13.908  0.0397  0.1576  0.5851
  271MPD2    H5 4104   0.657   1.205  13.834  1.4973  0.6365  0.3798
  271MPD2    N1 4105   1.060   0.879  14.088  0.5755  0.1168 -0.0653
  271MPD2    H7 4106   0.991   0.831  14.144  0.9811  0.2259  0.5360
  272TMC3    C1 4107   1.185   0.712  14.184  0.3346  0.6457  0.1083
  272TMC3    C2 4108   1.297   0.628  14.167  0.1060  0.8168  0.0683
  272TMC3    C3 4109   1.347   0.568  14.282  0.4311  0.3002 -0.5131
  272TMC3    C4 4110   1.119   0.715  14.302 -0.3740 -0.4292 -0.5113
  272TMC3    C5 4111   1.179   0.667  14.416  0.7072 -0.3446 -0.3032
  272TMC3    C6 4112   1.292   0.591  14.408 -0.2193  0.1163 -0.3604
  272TMC3     C 4113   1.184   0.817  14.084  0.0613  0.5388  0.2523
  272TMC3     O 4114   1.272   0.829  14.005 -0.0990 -0.3285 -0.2274
  272TMC3     H 4115   1.349   0.623  14.073 -0.1446  1.7789 -0.1220
  272TMC3    H1 4116   1.034   0.780  14.317 -1.6274 -1.6455 -2.2376
  272TMC3    H2 4117   1.342   0.557  14.498 -1.1929 -2.5937 -0.8481
  272TMC3    C7 4118   1.110   0.688  14.539 -0.2897  0.0696  0.4147
  272TMC3    C8 4119   1.488   0.534  14.281 -0.4122 -0.2802 -0.6543
  272TMC3    O1 4120   0.993   0.714  14.531 -0.2470 -0.0652  0.3747
  272TMC3    O2 4121   1.533   0.569  14.172  0.5038  0.3185 -0.0594
  273MPD2     C 4122   2.565   3.709  11.369  0.0903 -0.1604  0.2963
  273MPD2    C1 4123   2.640   3.828  11.393  0.0721  0.6809  0.8119
  273MPD2    C2 4124   2.721   3.865  11.281  0.0735  0.5477 -0.3141
  273MPD2    C3 4125   2.719   3.795  11.160  0.3970  0.3214  0.2807
  273MPD2    C4 4126   2.650   3.680  11.150 -0.3257  0.4491 -0.5170
  273MPD2    C5 4127   2.579   3.639  11.259  0.3417  0.0967  0.5568
  273MPD2     H 4128   2.771   3.960  11.293 -1.1426  1.2007 -0.4844
  273MPD2    H1 4129   2.654   3.617  11.061 -0.3891 -0.8965  0.4361
  273MPD2    H2 4130   2.507   3.652  11.441 -0.3338 -0.0347  0.0463
  273MPD2    H3 4131   2.524   3.545  11.263  0.4732  0.0343  0.9173
  273MPD2     N 4132   2.792   3.858  11.055 -0.1828  0.3198  0.2755
  273MPD2    H5 4133   2.840   3.941  11.088 -1.1604  0.6677  0.8273
  273MPD2    N1 4134   2.649   3.887  11.522  0.1976  0.2332 -0.4013
  273MPD2    H7 4135   2.592   3.839  11.591  0.6495  0.0475 -0.1597
  274TMC3    C1 4136   2.910   3.869  10.844  0.3489  0.2833  0.3731
  274TMC3    C2 4137   2.904   3.847  10.703 -0.4667  0.0411 -0.0708
  274TMC3    C3 4138   2.965   3.940  10.621 -0.2885 -0.0205 -0.3245
  274TMC3    C4 4139   2.975   3.978  10.890 -0.5936  0.1847  0.2253
  274TMC3    C5 4140   3.047   4.061  10.808 -0.0245 -0.4548  0.3094
  274TMC3    C6 4141   3.035   4.044  10.675 -0.7301  0.3346 -0.7820
  274TMC3     C 4142   2.803   3.812  10.927 -0.5392  0.2622 -0.0582
  274TMC3     O 4143   2.744   3.714  10.881  0.1165 -0.5095 -0.2035
  274TMC3     H 4144   2.849   3.767  10.655 -2.4823  1.5925 -0.3765
  274TMC3    H1 4145   2.971   4.002  10.995  0.3476  2.0038 -0.1577
  274TMC3    H2 4146   3.086   4.123  10.621 -1.6806 -0.9877 -3.6532
  274TMC3    C7 4147   3.045   4.203  10.851  0.3776 -0.3782  0.2454
  274TMC3    C8 4148   2.923   3.943  10.480  0.0364  0.5058  1.1063
  274TMC3    O1 4149   3.000   4.282  10.771  0.3635 -0.5357  0.1537
  274TMC3    O2 4150   2.838   3.864  10.441  0.3641  0.7794 -0.1600
  275MPD2     C 4151   2.665   1.772  14.345  0.8716 -0.2366 -0.4997
  275MPD2    C1 4152   2.618   1.729  14.475  0.0949 -0.1518 -0.5591
  275MPD2    C2 4153   2.497   1.659  14.490  0.1623 -0.2524 -0.3310
  275MPD2    C3 4154   2.431   1.612  14.375  0.0987 -0.3808  0.7216
  275MPD2    C4 4155   2.480   1.658  14.251 -0.3584  0.2113  0.3838
  275MPD2    C5 4156   2.590   1.739  14.236  0.2538 -0.4412 -0.1544
  275MPD2     H 4157   2.457   1.620  14.583  0.6141 -0.7607 -0.3487
  275MPD2    H1 4158   2.445   1.608  14.162  0.4224  0.1525  0.1135
  275MPD2    H2 4159   2.758   1.826  14.332  0.2058  0.3402 -2.8753
  275MPD2    H3 4160   2.624   1.767  14.136  1.2771 -0.7692  0.0971
  275MPD2     N 4161   2.312   1.542  14.380  0.2378 -0.0907 -0.0502
  275MPD2    H5 4162   2.268   1.529  14.289  0.1462  0.2131 -0.0486
  275MPD2    N1 4163   2.683   1.762  14.591  0.6857 -0.3453  0.4728
  275MPD2    H7 4164   2.641   1.735  14.680 -1.6681  0.6059 -0.3630
  276TMC3    C1 4165   2.821   1.863  14.748  0.3171  0.3268 -0.3639
  276TMC3    C2 4166   2.715   1.853  14.836 -0.7616  0.0749  0.6408
  276TMC3    C3 4167   2.727   1.910  14.960 -0.4045  0.5423 -0.8894
  276TMC3    C4 4168   2.938   1.918  14.787 -0.2882  0.6688  1.0156
  276TMC3    C5 4169   2.944   1.964  14.918  0.3648  0.3374 -0.0097
  276TMC3    C6 4170   2.840   1.973  15.001 -0.3805  0.8784  0.2708
  276TMC3     C 4171   2.803   1.830  14.609 -0.1429 -0.4182 -0.2467
  276TMC3     O 4172   2.881   1.875  14.525 -0.2218 -0.7196 -0.5087
  276TMC3     H 4173   2.615   1.815  14.817  0.0870 -1.2108 -1.1807
  276TMC3    H1 4174   3.023   1.938  14.722  0.2873 -0.5636  1.3865
  276TMC3    H2 4175   2.863   1.995  15.105  1.2994 -0.2659  0.1307
  276TMC3    C7 4176   3.064   2.020  14.977 -0.3034 -0.0049 -0.8134
  276TMC3    C8 4177   2.666   1.832  15.064  0.5139  0.8913  0.1252
  276TMC3    O1 4178   3.052   2.098  15.068  0.5218  0.1131  0.3281
  276TMC3    O2 4179   2.646   1.887  15.168  0.4201  0.5742 -0.0555
  277MPD2     C 4180   4.659   0.976  13.109  0.3669 -0.0208 -0.6355
  277MPD2    C1 4181   4.529   0.985  13.156  0.0911 -0.4030  0.3404
  277MPD2    C2 4182   4.488   0.891  13.252  0.3355  0.1508 -0.3239
  277MPD2    C3 4183   4.574   0.796  13.307 -0.1084  0.2909 -0.1837
  277MPD2    C4 4184   4.700   0.787  13.261 -0.1225 -0.0637 -0.2267
  277MPD2    C5 4185   0.018   0.880  13.166  0.1959 -0.5066 -0.2869
  277MPD2     H 4186   4.393   0.889  13.303  1.3220  0.8626  1.5668
  277MPD2    H1 4187   0.052   0.711  13.289  2.1727  2.0084 -0.5237
  277MPD2    H2 4188   4.708   1.054  13.052  0.6959 -0.2911 -0.7178
  277MPD2    H3 4189   0.119   0.859  13.132 -0.4377 -1.9826 -1.2548
  277MPD2     N 4190   4.510   0.703  13.398 -0.3975 -0.2234 -0.2851
  277MPD2    H5 4191   4.412   0.712  13.425  0.1122 -0.2784  1.6305
  277MPD2    N1 4192   4.437   1.072  13.085  0.0355  0.1597 -0.1154
  277MPD2    H7 4193   4.478   1.136  13.018 -0.5557  1.2542  0.5829
  278TMC3    C1 4194   4.467   0.517  13.537 -0.1112  0.0783  0.0930
  278TMC3    C2 4195   4.489   0.379  13.552  0.0296 -0.1017 -0.4622
  278TMC3    C3 4196   4.379   0.300  13.570  0.1354 -0.3679  0.2223
  278TMC3    C4 4197   4.347   0.574  13.563 -0.3891 -0.2982  0.0562
  278TMC3    C5 4198   4.243   0.495  13.584  0.1971  0.6796 -0.2009
  278TMC3    C6 4199   4.254   0.354  13.577  0.0593 -0.1554  0.4688
  278TMC3     C 4200   4.567   0.591  13.452  0.6311 -0.5093  0.8108
  278TMC3     O 4201   4.673   0.542  13.427 -0.6509  0.9203 -0.0747
  278TMC3     H 4202   4.587   0.340  13.527  0.6373  0.1037  1.6060
  278TMC3    H1 4203   4.332   0.675  13.600 -0.0830 -0.0327 -0.5544
  278TMC3    H2 4204   4.165   0.300  13.609 -1.2470  1.1200 -1.0210
  278TMC3    C7 4205   4.119   0.556  13.567 -0.6963  0.7161  0.6672
  278TMC3    C8 4206   4.392   0.169  13.513 -0.3582  1.0953 -0.0564
  278TMC3    O1 4207   4.110   0.677  13.592  0.6705  0.8657 -0.2236
  278TMC3    O2 4208   4.494   0.104  13.531 -0.0108  0.1893 -0.4856
  279MPD2     C 4209   3.612   0.092   0.372 -0.4881 -0.0040 -0.1888
  279MPD2    C1 4210   3.599   0.223   0.413  0.2555 -1.1260 -0.0177
  279MPD2    C2 4211   3.697   0.319   0.367  0.1281 -0.1914  0.3742
  279MPD2    C3 4212   3.790   0.279   0.274 -0.2061  0.0016  0.3590
  279MPD2    C4 4213   3.789   0.155   0.222  0.7090  0.2930  0.0631
  279MPD2    C5 4214   3.706   0.062   0.280  0.3278 -0.0870 -0.2263
  279MPD2     H 4215   3.700   0.421   0.403  1.1006  0.6035 -1.9347
  279MPD2    H1 4216   3.861   0.128   0.145 -1.4827 -4.2518 -0.4150
  279MPD2    H2 4217   3.557   0.008   0.412 -0.9269  0.2524 -0.2599
  279MPD2    H3 4218   3.714   4.678   0.247 -1.2735  0.0186 -0.9625
  279MPD2     N 4219   3.882   0.371   0.211  0.6224 -0.2007  0.1964
  279MPD2    H5 4220   3.917   0.338   0.122 -0.2614 -1.1964  0.2245
  279MPD2    N1 4221   3.502   0.266   0.506 -0.1683 -0.7780 -0.0910
  279MPD2    H7 4222   3.437   0.199   0.546  0.5965 -1.4410  0.0516
  280TMC3    C1 4223   3.366   0.429   0.628  0.3837  0.0794  0.2965
  280TMC3    C2 4224   3.297   0.334   0.693  0.1928 -0.4353  0.3648
  280TMC3    C3 4225   3.238   0.376   0.811 -0.1235  0.7732 -0.1600
  280TMC3    C4 4226   3.368   0.561   0.654 -0.3249 -0.1219 -0.2496
  280TMC3    C5 4227   3.304   0.598   0.773 -0.4867  0.4809 -0.5316
  280TMC3    C6 4228   3.232   0.508   0.850 -0.0690 -1.2906 -0.2325
  280TMC3     C 4229   3.470   0.402   0.529  0.3388  0.1593  0.1019
  280TMC3     O 4230   3.502   0.498   0.460  1.4222 -0.1806  0.3443
  280TMC3     H 4231   3.291   0.228   0.668  0.1320 -0.1260 -0.9074
  280TMC3    H1 4232   3.430   0.632   0.602  2.6761 -1.0965  2.0109
  280TMC3    H2 4233   3.176   0.540   0.938  0.0957  0.4080 -0.7327
  280TMC3    C7 4234   3.307   0.735   0.811 -0.4222  0.4503  0.2756
  280TMC3    C8 4235   3.128   0.290   0.855 -0.1855  0.0244 -0.9804
  280TMC3    O1 4236   3.348   0.770   0.922  0.2866 -0.3121  0.4902
  280TMC3    O2 4237   3.091   0.203   0.776  0.2543 -0.1815 -0.1568
  281TMC3    C1 4238   2.878   1.540  13.362  0.1467 -0.0521 -1.1773
  281TMC3    C2 4239   2.891   1.477  13.240 -0.2336 -0.0660 -0.2333
  281TMC3    C3 4240   2.770   1.416  13.198  0.3154  0.2090 -0.6608
  281TMC3    C4 4241   2.761   1.527  13.436 -0.0239  0.0521  0.6237
  281TMC3    C5 4242   2.663   1.443  13.400 -0.0870 -0.7245  0.1710
  281TMC3    C6 4243   2.665   1.380  13.281 -0.9258  0.0794  0.0525
  281TMC3     C 4244   2.914   1.686  13.357  0.0460  0.0693  0.4183
  281TMC3     O 4245   3.017   1.713  13.298 -0.2813  0.2047  0.0075
  281TMC3     H 4246   2.971   1.486  13.167 -2.3805  1.0414 -2.4504
  281TMC3    H1 4247   2.755   1.584  13.528 -3.6123  0.1109  0.3690
  281TMC3    H2 4248   2.575   1.329  13.250 -1.6771  1.5129 -0.1297
  281TMC3    C7 4249   2.568   1.402  13.498  0.0755  0.1941  0.2690
  281TMC3    C8 4250   2.762   1.366  13.058 -0.1436 -0.0058 -0.7003
  281TMC3    O1 4251   2.525   1.484  13.576  0.4246  0.0212  0.2343
  281TMC3    O2 4252   2.850   1.300  13.012  0.0734 -0.9921 -0.7409
  282MPD2     C 4253   4.101   2.085  15.128 -0.0946 -0.7855  0.6428
  282MPD2    C1 4254   3.997   2.172  15.143 -0.5594  0.2888 -0.0089
  282MPD2    C2 4255   3.922   2.204  15.031 -0.1139 -0.2839  0.4941
  282MPD2    C3 4256   3.933   2.146  14.911 -0.6949 -0.1066  0.0292
  282MPD2    C4 4257   4.038   2.054  14.893 -0.2704 -0.5175 -0.0694
  282MPD2    C5 4258   4.118   2.022  15.004 -0.5329 -0.1456 -0.2800
  282MPD2     H 4259   3.853   2.288  15.035 -0.3059 -0.4016 -0.2748
  282MPD2    H1 4260   4.054   2.005  14.798 -1.0685  0.3283 -0.6450
  282MPD2    H2 4261   4.157   2.048  15.213  0.1784 -1.2358  0.2670
  282MPD2    H3 4262   4.194   1.947  14.986 -1.1170 -0.4671 -1.4023
  282MPD2     N 4263   3.861   2.199  14.799  0.4030 -0.6032 -0.4765
  282MPD2    H5 4264   3.813   2.286  14.818  1.8695 -0.3700  2.1342
  282MPD2    N1 4265   3.948   2.225  15.260 -0.6855  0.0140  0.0890
  282MPD2    H7 4266   3.879   2.298  15.244 -1.9683 -1.2605 -0.1466
  283TMC3    C1 4267   3.925   2.264  15.490  0.0650 -0.3590  0.2177
  283TMC3    C2 4268   3.905   2.404  15.475  0.3281 -0.8332  0.1676
  283TMC3    C3 4269   3.872   2.473  15.587 -0.3558  0.5982 -0.0246
  283TMC3    C4 4270   3.903   2.196  15.607  0.2636 -0.2568 -0.1319
  283TMC3    C5 4271   3.863   2.270  15.711  0.5666 -0.4834  0.0010
  283TMC3    C6 4272   3.850   2.406  15.705 -0.2604  0.6139  0.4147
  283TMC3     C 4273   3.988   2.187  15.385 -0.1942 -0.8204  0.3297
  283TMC3     O 4274   4.043   2.082  15.418  0.2782 -0.3401 -0.3303
  283TMC3     H 4275   3.930   2.458  15.384  0.9372  1.5947  1.7736
  283TMC3    H1 4276   3.912   2.089  15.595  0.9905 -0.5572  3.3526
  283TMC3    H2 4277   3.833   2.466  15.794  0.6280 -0.2439  1.1641
  283TMC3    C7 4278   3.796   2.194  15.815  0.4988  0.2660 -0.0314
  283TMC3    C8 4279   3.905   2.623  15.589  0.6259  0.0748  0.2622
  283TMC3    O1 4280   3.707   2.251  15.870 -0.9028 -0.4158  0.1323
  283TMC3    O2 4281   3.951   2.662  15.695 -0.3694  0.4320 -0.1685
  284MPD2     C 4282   3.108   2.294  11.771 -0.2186  0.5640 -0.3692
  284MPD2    C1 4283   3.127   2.228  11.657  0.1174 -0.2373 -0.3399
  284MPD2    C2 4284   3.086   2.097  11.648  0.2031 -0.1241 -0.1327
  284MPD2    C3 4285   3.036   2.025  11.757  0.2160 -0.5268 -0.4158
  284MPD2    C4 4286   3.008   2.101  11.875 -0.7943 -0.0214 -0.4176
  284MPD2    C5 4287   3.042   2.234  11.873  0.5286  0.3387  0.0440
  284MPD2     H 4288   3.093   2.043  11.555  2.5740  1.4296 -0.8483
  284MPD2    H1 4289   2.958   2.054  11.959 -0.4604 -0.5127 -0.4908
  284MPD2    H2 4290   3.140   2.396  11.791 -0.4990  0.7356 -0.8042
  284MPD2    H3 4291   3.016   2.288  11.963  0.0755  0.4307 -0.1391
  284MPD2     N 4292   3.011   1.883  11.758 -0.7836  1.0868 -0.3293
  284MPD2    H5 4293   2.970   1.845  11.843 -0.3842 -0.0514 -0.6488
  284MPD2    N1 4294   3.184   2.282  11.540  0.2283  1.0845 -0.9091
  284MPD2    H7 4295   3.213   2.224  11.461 -0.4850  0.9396 -1.0636
  285TMC3    C1 4296   3.282   2.436  11.398  0.4405  0.0544  0.1613
  285TMC3    C2 4297   3.346   2.335  11.338 -0.0215 -0.4669  0.7611
  285TMC3    C3 4298   3.380   2.353  11.208  0.7986 -0.3739 -0.0830
  285TMC3    C4 4299   3.248   2.555  11.334 -0.8657 -0.0233  0.8272
  285TMC3    C5 4300   3.286   2.563  11.200  0.0921  0.0354 -0.0904
  285TMC3    C6 4301   3.362   2.467  11.139 -0.3108  0.4381  0.4685
  285TMC3     C 4302   3.212   2.412  11.523 -0.5050  0.6458  0.1951
  285TMC3     O 4303   3.183   2.508  11.593  0.0457 -0.6448  0.0179
  285TMC3     H 4304   3.362   2.236  11.381  1.4167 -0.5296  0.0525
  285TMC3    H1 4305   3.218   2.640  11.393  0.7634 -0.4404  2.2336
  285TMC3    H2 4306   3.391   2.469  11.035 -1.5548 -0.3759  0.1108
  285TMC3    C7 4307   3.276   2.697  11.141 -0.0518 -0.3652  1.0655
  285TMC3    C8 4308   3.405   2.230  11.134 -0.3939 -0.1818 -0.5926
  285TMC3    O1 4309   3.243   2.788  11.214  0.2691 -0.0343 -0.5997
  285TMC3    O2 4310   3.330   2.204  11.043  0.3504 -0.2940  0.2701
  286MPD2     C 4311   2.829   0.472   2.023  0.1752 -0.5414  0.1808
  286MPD2    C1 4312   2.807   0.417   1.899  0.4820  0.4549 -0.4122
  286MPD2    C2 4313   2.912   0.426   1.806  0.1055 -0.5651 -0.0942
  286MPD2    C3 4314   3.023   0.493   1.835  0.1092 -0.0900 -0.1012
  286MPD2    C4 4315   3.044   0.548   1.966 -0.1124 -0.1585 -0.3595
  286MPD2    C5 4316   2.945   0.540   2.052 -0.2181 -0.5219  0.9560
  286MPD2     H 4317   2.893   0.384   1.708 -2.9624  1.0547 -0.1656
  286MPD2    H1 4318   3.128   0.606   2.003 -0.7178  0.2888  0.3468
  286MPD2    H2 4319   2.748   0.474   2.096  0.1981  2.5762  0.1155
  286MPD2    H3 4320   2.965   0.584   2.149 -1.6074 -1.5818  1.7232
  286MPD2     N 4321   3.131   0.504   1.741  0.3647  0.2635 -0.7700
  286MPD2    H5 4322   3.218   0.547   1.769  0.4089 -1.0826  1.2389
  286MPD2    N1 4323   2.682   0.374   1.848  0.1331 -0.0462  0.2879
  286MPD2    H7 4324   2.673   0.345   1.751 -2.5985 -1.0759  0.8558
  287TMC3    C1 4325   3.257   0.488   1.542  0.0942 -0.9885 -0.4173
  287TMC3    C2 4326   3.263   0.483   1.407  0.3897 -0.6895  0.5969
  287TMC3    C3 4327   3.390   0.474   1.349  0.6642  0.5799  0.1292
  287TMC3    C4 4328   3.368   0.477   1.617 -0.3629  0.2775 -0.0739
  287TMC3    C5 4329   3.494   0.477   1.557 -0.5011 -0.0788  0.2569
  287TMC3    C6 4330   3.508   0.476   1.423 -0.4310  0.0299  0.0401
  287TMC3     C 4331   3.132   0.462   1.608 -0.2730 -1.1226 -0.4486
  287TMC3     O 4332   3.049   0.414   1.534  0.1092  0.2536 -0.0506
  287TMC3     H 4333   3.173   0.498   1.349  1.5300  1.9125 -0.4518
  287TMC3    H1 4334   3.374   0.482   1.725  0.3752 -2.1338 -0.0032
  287TMC3    H2 4335   3.603   0.444   1.380 -0.1359  1.8764 -0.6646
  287TMC3    C7 4336   3.606   0.440   1.637 -1.2400  0.3212 -1.0415
  287TMC3    C8 4337   3.395   0.441   1.209  0.0921 -0.5327 -0.0823
  287TMC3    O1 4338   3.586   0.391   1.747 -0.3225 -0.5087  0.4315
  287TMC3    O2 4339   3.295   0.399   1.154 -0.6540  0.3421  0.0400
  288TMC3    C1 4340   4.703   0.369  14.284  0.0632 -0.2981 -0.2539
  288TMC3    C2 4341   4.582   0.396  14.344  0.2907  0.2620  0.6888
  288TMC3    C3 4342   4.500   0.491  14.280  0.0886 -0.9711  0.4238
  288TMC3    C4 4343   0.024   0.458  14.185 -0.2039  0.2522  0.0137
  288TMC3    C5 4344   4.669   0.556  14.137 -0.0631 -0.1994  0.2594
  288TMC3    C6 4345   4.548   0.583  14.190  0.2255 -0.2127 -0.2153
  288TMC3     C 4346   0.085   0.323  14.374  0.1526 -0.0977  0.5467
  288TMC3     O 4347   0.200   0.359  14.360 -0.4395  0.6559  0.4267
  288TMC3     H 4348   4.545   0.354  14.437 -1.1978  0.7340  0.3139
  288TMC3    H1 4349   0.125   0.450  14.146 -0.0932  0.4277  0.2613
  288TMC3    H2 4350   4.475   0.651  14.148  0.5375  0.5890  0.5305
  288TMC3    C7 4351   0.014   0.640  14.039  0.5705 -0.3562  0.4182
  288TMC3    C8 4352   4.374   0.513  14.343  0.0272  0.5220  0.0809
  288TMC3    O1 4353   0.138   0.644  14.034 -0.5873 -0.4229  0.3431
  288TMC3    O2 4354   4.326   0.629  14.344 -0.5389  0.8165 -0.4740
  289MPD2     C 4355   4.361   4.113  14.226  0.2986 -0.3822 -0.4486
  289MPD2    C1 4356   4.428   4.214  14.153  0.3204  0.3882  0.3347
  289MPD2    C2 4357   4.393   4.230  14.021 -0.1882  0.4296 -0.1431
  289MPD2    C3 4358   4.308   4.150  13.954 -0.0710  0.0361 -0.5699
  289MPD2    C4 4359   4.249   4.043  14.025  0.4474  0.8025 -0.2978
  289MPD2    C5 4360   4.272   4.027  14.165 -0.2818 -0.0267 -0.1969
  289MPD2     H 4361   4.429   4.321  13.973  1.1933 -0.0533 -0.0373
  289MPD2    H1 4362   4.179   3.970  13.987  0.5453 -0.3374  1.7066
  289MPD2    H2 4363   4.388   4.104  14.331  0.8041  2.4890 -0.3377
  289MPD2    H3 4364   4.210   3.953  14.213  0.5440 -1.2890 -1.0768
  289MPD2     N 4365   4.272   4.171  13.822 -0.3139 -0.0932 -0.6084
  289MPD2    H5 4366   4.209   4.096  13.795 -2.4963  1.6258 -0.2715
  289MPD2    N1 4367   4.512   4.294  14.226 -0.0537 -0.0067 -0.9444
  289MPD2    H7 4368   4.524   4.271  14.324 -1.3963  1.7169 -0.3721
  290TMC3    C1 4369   4.218   4.287  13.629 -0.2082  0.3600 -0.1736
  290TMC3    C2 4370   4.160   4.412  13.599  0.1901  0.2437 -0.8865
  290TMC3    C3 4371   4.064   4.413  13.500 -0.3933  0.4408  0.3432
  290TMC3    C4 4372   4.179   4.174  13.565  0.1214 -0.4687 -0.6003
  290TMC3    C5 4373   4.088   4.182  13.464 -0.3526  0.0140  0.5344
  290TMC3    C6 4374   4.034   4.301  13.424  0.3646 -0.7129  0.3698
  290TMC3     C 4375   4.298   4.285  13.752 -0.4676 -0.4479 -0.1137
  290TMC3     O 4376   4.348   4.392  13.783  0.1682  0.3601 -0.3155
  290TMC3     H 4377   4.168   4.496  13.666 -1.5449  1.4471 -2.1876
  290TMC3    H1 4378   4.228   4.084  13.601  2.8215  1.1686 -0.2194
  290TMC3    H2 4379   3.940   4.302  13.370  0.4164 -0.4747  0.2807
  290TMC3    C7 4380   4.072   4.067  13.373  0.1422 -0.2787  0.0342
  290TMC3    C8 4381   3.973   4.527  13.499 -0.1249 -0.7173 -0.0200
  290TMC3    O1 4382   4.062   4.088  13.256 -0.2814 -0.4144  0.2581
  290TMC3    O2 4383   3.869   4.508  13.437 -0.2872  0.0934 -0.1188
  291MPD2     C 4384   4.295   3.495   0.534 -0.1173 -0.2347  0.6053
  291MPD2    C1 4385   4.256   3.367   0.508  0.2369  0.2615  0.2721
  291MPD2    C2 4386   4.352   3.290   0.444 -0.3874 -0.1788  0.1542
  291MPD2    C3 4387   4.478   3.329   0.417  0.6573  0.2756  0.3013
  291MPD2    C4 4388   4.516   3.455   0.462  0.1843 -0.3182 -0.1409
  291MPD2    C5 4389   4.420   3.540   0.509 -0.3919  0.5820 -0.7010
  291MPD2     H 4390   4.319   3.188   0.433  0.5253 -0.4032 -0.4301
  291MPD2    H1 4391   4.611   3.501   0.438  1.0897 -1.4894  1.1612
  291MPD2    H2 4392   4.219   3.569   0.558  0.6401  1.1369 -1.1868
  291MPD2    H3 4393   4.447   3.641   0.536 -1.8296  1.1982 -1.6052
  291MPD2     N 4394   4.577   3.244   0.367  0.0613 -0.6039 -0.3499
  291MPD2    H5 4395   4.673   3.277   0.363 -0.2586  0.2209 -1.1518
  291MPD2    N1 4396   4.131   3.316   0.537  0.4281  0.5447 -0.1594
  291MPD2    H7 4397   4.122   3.218   0.515  3.8314  0.7945 -2.5955
  292TMC3    C1 4398   3.913   3.310   0.632  0.5285 -0.2890  0.4047
  292TMC3    C2 4399   3.823   3.345   0.724  0.6845  0.2409  0.5866
  292TMC3    C3 4400   3.692   3.326   0.697 -0.3800 -0.0175  0.2226
  292TMC3    C4 4401   3.874   3.250   0.515  0.2754 -0.2143 -0.0072
  292TMC3    C5 4402   3.737   3.245   0.496 -0.3568 -0.5572 -0.3287
  292TMC3    C6 4403   3.638   3.296   0.574  0.2791 -0.9241  0.3543
  292TMC3     C 4404   4.042   3.379   0.627  0.0142  0.4499  1.2098
  292TMC3     O 4405   4.062   3.475   0.703  0.2849 -0.0902  0.3457
  292TMC3     H 4406   3.856   3.378   0.822 -1.9604 -1.9480  2.2196
  292TMC3    H1 4407   3.937   3.207   0.437 -0.9010 -1.6638 -0.1529
  292TMC3    H2 4408   3.532   3.286   0.553  0.1998 -1.4832  0.9994
  292TMC3    C7 4409   3.695   3.148   0.390 -0.3975 -0.2075  0.0983
  292TMC3    C8 4410   3.599   3.327   0.812  0.0433  0.2054 -0.7804
  292TMC3    O1 4411   3.778   3.076   0.336 -0.0002  0.3467  0.3235
  292TMC3    O2 4412   3.640   3.367   0.919  0.1454 -0.6582 -0.1739
  293MPD2     C 4413   0.775   1.205  12.592  0.0589 -0.6228  0.0313
  293MPD2    C1 4414   0.695   1.098  12.621  0.4730  0.0321  0.2496
  293MPD2    C2 4415   0.672   1.077  12.756 -0.2119 -0.2483  0.6897
  293MPD2    C3 4416   0.748   1.150  12.853  0.3150  0.0247 -0.4487
  293MPD2    C4 4417   0.831   1.252  12.811 -0.0306 -0.3108  0.0946
  293MPD2    C5 4418   0.840   1.284  12.678  0.1987 -0.3568 -0.4693
  293MPD2     H 4419   0.605   1.001  12.794 -0.5492 -1.4734 -2.3442
  293MPD2    H1 4420   0.898   1.297  12.883  3.7769  0.6736 -4.0744
  293MPD2    H2 4421   0.786   1.226  12.486  0.6318 -1.8898 -0.1634
  293MPD2    H3 4422   0.908   1.361  12.644  1.2888 -0.9606  0.3019
  293MPD2     N 4423   0.716   1.124  12.994 -0.2493 -0.3370  0.2119
  293MPD2    H5 4424   0.651   1.047  13.004  2.2306 -2.1709  2.4398
  293MPD2    N1 4425   0.635   1.025  12.515 -0.5468  0.2265 -0.4696
  293MPD2    H7 4426   0.671   1.038  12.421  2.5596  0.8258  0.8216
  294TMC3    C1 4427   0.497   0.868  12.407 -0.8996 -0.0924 -0.8128
  294TMC3    C2 4428   0.438   0.743  12.409  0.4560 -0.4110  0.2164
  294TMC3    C3 4429   0.404   0.683  12.294  0.7902 -0.4911 -0.0289
  294TMC3    C4 4430   0.505   0.928  12.283 -0.4987  0.1487  0.4991
  294TMC3    C5 4431   0.447   0.871  12.176 -0.0520  0.5743  0.3333
  294TMC3    C6 4432   0.401   0.750  12.174 -0.1727  0.8829 -0.5234
  294TMC3     C 4433   0.543   0.927  12.533  0.2785 -0.4494 -0.1522
  294TMC3     O 4434   0.499   0.877  12.635 -0.6219  0.3204  1.1477
  294TMC3     H 4435   0.445   0.686  12.501 -0.6470  0.4987  0.8674
  294TMC3    H1 4436   0.537   1.030  12.270 -0.1462 -0.0591 -0.2277
  294TMC3    H2 4437   0.371   0.710  12.078 -1.3087 -0.8490  0.5697
  294TMC3    C7 4438   0.482   0.929  12.054  1.1522  1.0053 -0.1185
  294TMC3    C8 4439   0.330   0.560  12.315 -0.9046 -0.0481  0.2942
  294TMC3    O1 4440   0.398   0.938  11.968  0.1536 -0.4350  0.2824
  294TMC3    O2 4441   0.317   0.518  12.428 -0.2141 -0.1624  0.0550
  295MPD2     C 4442   0.795   3.725   0.536  0.4864 -0.2635 -0.2564
  295MPD2    C1 4443   0.807   3.855   0.559  0.4351  0.0054  0.2405
  295MPD2    C2 4444   0.860   3.902   0.681 -0.0320 -0.0672 -0.2517
  295MPD2    C3 4445   0.889   3.805   0.778 -0.0196  0.3471  0.4333
  295MPD2    C4 4446   0.868   3.672   0.752  0.1760 -0.4944  0.2969
  295MPD2    C5 4447   0.823   3.632   0.628 -0.4144 -0.1742  0.1624
  295MPD2     H 4448   0.852   4.009   0.697  0.3105 -0.3752  2.0405
  295MPD2    H1 4449   0.879   3.603   0.835 -2.9458 -1.2919  0.0449
  295MPD2    H2 4450   0.772   3.691   0.436  0.6611 -1.5069  0.1323
  295MPD2    H3 4451   0.796   3.531   0.599 -2.4327  0.4735 -0.2137
  295MPD2     N 4452   0.918   3.826   0.909  0.1027  0.3464 -0.4187
  295MPD2    H5 4453   0.947   3.743   0.961 -0.8755  0.5343  0.4305
  295MPD2    N1 4454   0.784   3.957   0.469  0.5710  0.5236  0.3395
  295MPD2    H7 4455   0.803   4.051   0.502  2.3408  1.0608 -2.1720
  296TMC3    C1 4456   0.885   3.911   1.124  0.1403  0.8826 -0.3409
  296TMC3    C2 4457   0.911   4.004   1.211  0.0906  0.0697 -0.3550
  296TMC3    C3 4458   0.876   3.983   1.345  0.0640  0.3927  0.1448
  296TMC3    C4 4459   0.831   3.793   1.159  0.0641 -0.4689  1.0286
  296TMC3    C5 4460   0.815   3.762   1.295 -0.1031  0.8740  0.4761
  296TMC3    C6 4461   0.822   3.865   1.384  0.2638 -0.3046  0.4794
  296TMC3     C 4462   0.911   3.940   0.983 -0.4350  0.5282 -0.0930
  296TMC3     O 4463   0.900   4.057   0.948 -0.2352 -0.5191  0.6859
  296TMC3     H 4464   0.948   4.100   1.175  1.1900  0.2896  1.3446
  296TMC3    H1 4465   0.813   3.717   1.085  0.4524 -0.4740  0.9366
  296TMC3    H2 4466   0.778   3.853   1.483 -1.5922  0.4977 -0.2444
  296TMC3    C7 4467   0.717   3.655   1.310  0.6115  0.4932  0.0842
  296TMC3    C8 4468   0.909   4.091   1.432  0.6085  0.6696  0.4927
  296TMC3    O1 4469   0.674   3.594   1.215 -0.0968 -0.2205 -0.6071
  296TMC3    O2 4470   0.936   4.205   1.388 -0.3279  0.0448  0.0914
  297MPD2     C 4471   3.239   0.920  16.526  0.0769  0.1173  0.3309
  297MPD2    C1 4472   3.232   1.015  16.426 -0.3410 -0.8006  0.4201
  297MPD2    C2 4473   3.342   1.100  16.414 -0.2891  0.2632 -0.1436
  297MPD2    C3 4474   3.444   1.110  16.508 -0.0615  0.0754 -0.2517
  297MPD2    C4 4475   3.433   1.029  16.621 -0.0553  0.0791 -0.2437
  297MPD2    C5 4476   3.334   0.938  16.625 -0.8767 -0.1536  0.0948
  297MPD2     H 4477   3.346   1.169  16.331 -0.1294  0.5150  0.0718
  297MPD2    H1 4478   3.501   1.031  16.706 -1.0062  0.9076  0.4900
  297MPD2    H2 4479   3.169   0.839  16.541 -2.6693  2.4439 -0.0321
  297MPD2    H3 4480   3.329   0.872  16.710 -0.0376  1.0937  1.1162
  297MPD2     N 4481   3.537   1.215  16.509 -0.7312  0.2378  0.2797
  297MPD2    H5 4482   3.545   1.274  16.426  0.8772 -0.5939 -0.1532
  297MPD2    N1 4483   3.137   1.019  16.323  0.2563 -1.0414  0.8356
  297MPD2    H7 4484   3.159   1.093  16.257 -2.1580 -1.6317 -0.6307
  298TMC3    C1 4485   2.921   0.969  16.228 -0.7038 -0.0713 -0.0861
  298TMC3    C2 4486   2.951   1.035  16.111 -0.3190  0.4871 -0.2389
  298TMC3    C3 4487   2.848   1.100  16.049  0.1810  0.3224 -0.0476
  298TMC3    C4 4488   2.803   0.965  16.280 -0.1764  0.7612 -0.3280
  298TMC3    C5 4489   2.705   1.044  16.223  0.1178 -0.2310 -0.1976
  298TMC3    C6 4490   2.729   1.116  16.111 -0.2099  0.6211 -0.4238
  298TMC3     C 4491   3.027   0.929  16.315  0.0900 -0.0033  0.0804
  298TMC3     O 4492   2.990   0.835  16.387  0.2539  0.2801  0.3736
  298TMC3     H 4493   3.053   1.051  16.076 -0.0820 -0.5470 -0.0149
  298TMC3    H1 4494   2.785   0.912  16.373  2.0774 -0.2220 -0.4620
  298TMC3    H2 4495   2.677   1.207  16.084  1.3102  0.8222 -2.6932
  298TMC3    C7 4496   2.615   1.105  16.322  0.1016 -0.1722  0.3240
  298TMC3    C8 4497   2.880   1.178  15.937 -0.8627  0.1279  0.4952
  298TMC3    O1 4498   2.662   1.113  16.435 -0.4277 -0.2762 -0.6878
  298TMC3    O2 4499   2.820   1.283  15.914 -0.1865  0.6863  0.3893
  299MPD2     C 4500   0.156   1.902  10.759 -0.3234 -0.5796 -0.0255
  299MPD2    C1 4501   0.040   1.845  10.810  0.1231 -0.4144 -0.1635
  299MPD2    C2 4502   4.687   1.766  10.722  0.4187  0.0839 -0.2797
  299MPD2    C3 4503   0.010   1.742  10.594 -0.1594 -0.2615 -0.7204
  299MPD2    C4 4504   0.130   1.797  10.548 -0.5959  0.2505  0.0605
  299MPD2    C5 4505   0.201   1.873  10.635  0.2139 -0.5378  0.2439
  299MPD2     H 4506   4.593   1.723  10.753  0.6606 -0.3308 -0.1180
  299MPD2    H1 4507   0.151   1.809  10.442 -0.0810  1.3540  0.2894
  299MPD2    H2 4508   0.207   1.981  10.813 -2.9320 -0.3991  2.1640
  299MPD2    H3 4509   0.280   1.932  10.590 -0.5676 -0.4590 -1.0220
  299MPD2     N 4510   4.658   1.664  10.502 -0.2887  0.0754  0.2533
  299MPD2    H5 4511   4.685   1.671  10.404  1.0127 -1.8893  0.4858
  299MPD2    N1 4512   4.714   1.893  10.935  0.3137 -0.1105  0.6705
  299MPD2    H7 4513   0.062   1.959  10.973  0.6222 -0.9815  1.6326
  300TMC3    C1 4514   4.496   1.540  10.406 -0.5082  0.1107 -0.5925
  300TMC3    C2 4515   4.461   1.641  10.320 -0.3391  0.2437  0.1631
  300TMC3    C3 4516   4.364   1.617  10.225 -0.5321  0.1281 -0.3133
  300TMC3    C4 4517   4.429   1.422  10.408  0.4108  0.0704  0.3732
  300TMC3    C5 4518   4.328   1.403  10.318 -0.1471  0.0382 -0.5168
  300TMC3    C6 4519   4.299   1.501  10.223  0.5245  0.3871 -0.0137
  300TMC3     C 4520   4.556   1.584  10.526 -0.1302 -0.0598  0.6538
  300TMC3     O 4521   4.504   1.543  10.629  0.3614  0.0390  0.2950
  300TMC3     H 4522   4.493   1.741  10.346  1.0034 -0.1567  0.0489
  300TMC3    H1 4523   4.445   1.345  10.482  1.0329 -0.3259 -0.1740
  300TMC3    H2 4524   4.207   1.480  10.168  0.9350  2.4824 -1.4943
  300TMC3    C7 4525   4.245   1.292  10.346  0.0049 -0.2466  0.1998
  300TMC3    C8 4526   4.280   1.727  10.206  0.1180 -0.5197 -0.1801
  300TMC3    O1 4527   4.287   1.190  10.398 -0.2210  0.1508 -0.6139
  300TMC3    O2 4528   4.291   1.819  10.288 -0.6598  0.2353  0.0170
  301MPD2     C 4529   1.634   2.369   1.945 -0.4270  0.5284 -0.5552
  301MPD2    C1 4530   1.613   2.356   1.812  0.8346 -0.3486  0.0982
  301MPD2    C2 4531   1.698   2.269   1.744 -0.1914  0.2142 -0.2943
  301MPD2    C3 4532   1.795   2.192   1.811 -0.8716  0.4494 -0.1586
  301MPD2    C4 4533   1.818   2.205   1.948 -0.6391 -0.1092 -0.2707
  301MPD2    C5 4534   1.732   2.296   2.008 -0.3980  0.0002 -0.1831
  301MPD2     H 4535   1.661   2.258   1.643  0.5025 -1.5894 -0.3332
  301MPD2    H1 4536   1.888   2.149   2.010  0.5266  0.3349 -1.1922
  301MPD2    H2 4537   1.573   2.442   1.996 -1.0173 -0.6258  0.3981
  301MPD2    H3 4538   1.732   2.287   2.116  2.7878 -0.9533 -0.2507
  301MPD2     N 4539   1.869   2.093   1.737 -0.0076 -0.4006 -0.1389
  301MPD2    H5 4540   1.907   2.016   1.792 -1.6697  0.3967  2.1250
  301MPD2    N1 4541   1.509   2.417   1.737  0.0061 -0.5029 -0.2187
  301MPD2    H7 4542   1.517   2.404   1.637 -1.9607 -0.9178 -0.3341
  302TMC3    C1 4543   1.926   1.956   1.551  0.4342  0.1713 -0.0800
  302TMC3    C2 4544   1.946   1.842   1.629  0.2209 -0.1412 -0.3586
  302TMC3    C3 4545   1.990   1.735   1.568  0.2963 -0.6256  0.4118
  302TMC3    C4 4546   1.947   1.952   1.420 -0.7373 -0.1296  0.4762
  302TMC3    C5 4547   1.974   1.837   1.359  0.1406  0.9225 -0.3169
  302TMC3    C6 4548   2.001   1.726   1.431 -0.5975  0.9234 -0.0272
  302TMC3     C 4549   1.860   2.072   1.599  1.2189  0.6772 -0.3047
  302TMC3     O 4550   1.823   2.148   1.513  0.0552 -0.1482  0.4894
  302TMC3     H 4551   1.928   1.830   1.735 -0.4465 -0.5454 -0.5228
  302TMC3    H1 4552   1.943   2.041   1.357  2.6568  0.3514  0.9170
  302TMC3    H2 4553   2.019   1.632   1.380  0.1867  0.6077  0.8278
  302TMC3    C7 4554   1.979   1.828   1.215 -0.1163 -0.0704 -0.0208
  302TMC3    C8 4555   2.028   1.619   1.641  0.0585  0.3608 -0.2356
  302TMC3    O1 4556   2.051   1.741   1.169  0.2467 -0.0728 -0.4189
  302TMC3    O2 4557   2.051   1.517   1.579 -0.4669 -0.1519  0.5052
  303MPD2     C 4558   1.482   1.015  10.577  0.9564  0.4268 -0.2444
  303MPD2    C1 4559   1.448   0.955  10.456  0.6029  0.6741  0.3025
  303MPD2    C2 4560   1.553   0.919  10.371  0.1555  0.4373  0.4938
  303MPD2    C3 4561   1.686   0.956  10.393 -0.6504 -0.6404  0.6589
  303MPD2    C4 4562   1.712   1.022  10.512 -0.5976  0.4403  0.2400
  303MPD2    C5 4563   1.614   1.045  10.604 -0.0773 -0.5975 -0.1106
  303MPD2     H 4564   1.522   0.870  10.279  0.1337 -0.2077  0.8501
  303MPD2    H1 4565   1.813   1.043  10.545  0.1335  0.0741 -1.7300
  303MPD2    H2 4566   1.406   1.023  10.654  1.3019 -2.3162  0.3874
  303MPD2    H3 4567   1.641   1.097  10.695  1.5747  0.5013 -1.2105
  303MPD2     N 4568   1.791   0.939  10.300 -0.5829  0.6110 -0.2750
  303MPD2    H5 4569   1.887   0.952  10.333  0.2979 -0.4391 -2.4315
  303MPD2    N1 4570   1.314   0.945  10.421 -0.0776  0.1644  0.7202
  303MPD2    H7 4571   1.246   0.951  10.495 -0.4432 -0.6717  0.4545
  304TMC3    C1 4572   1.136   0.908  10.271  0.0743  0.2421 -0.1055
  304TMC3    C2 4573   1.076   0.951  10.156 -0.7647  0.4712  0.6922
  304TMC3    C3 4574   1.001   0.861  10.077 -0.6481 -0.5775  1.0127
  304TMC3    C4 4575   1.112   0.787  10.320  0.0511 -0.1225  0.0154
  304TMC3    C5 4576   1.024   0.702  10.251  0.4620 -0.1427 -0.4318
  304TMC3    C6 4577   0.965   0.745  10.134  0.8298 -0.0801  0.0096
  304TMC3     C 4578   1.272   0.959  10.293  0.8490  0.0550  0.3091
  304TMC3     O 4579   1.338   0.990  10.193  0.0246  0.1082  0.7174
  304TMC3     H 4580   1.097   1.048  10.112 -2.2526 -0.1899 -1.4406
  304TMC3    H1 4581   1.161   0.748  10.408 -2.1315  1.9075  2.1313
  304TMC3    H2 4582   0.902   0.679  10.076  0.1876 -0.9925  1.7371
  304TMC3    C7 4583   1.062   0.567  10.232 -0.4247 -0.4448 -0.7462
  304TMC3    C8 4584   1.068   0.848   9.940 -0.4686 -0.2086  0.4273
  304TMC3    O1 4585   1.041   0.509  10.130 -0.4407  0.2132  0.1564
  304TMC3    O2 4586   1.070   0.948   9.869 -0.1696 -0.2177  0.0706
  305MPD2     C 4587   3.927   2.905  14.156 -0.5606  0.7835 -0.3997
  305MPD2    C1 4588   4.029   2.817  14.151  0.4960  0.5842  0.2144
  305MPD2    C2 4589   4.055   2.750  14.031 -0.9177  0.1270  0.0582
  305MPD2    C3 4590   3.970   2.762  13.925 -0.2750  0.3736 -0.4611
  305MPD2    C4 4591   3.860   2.845  13.941 -0.0572 -0.0789 -0.4476
  305MPD2    C5 4592   3.838   2.913  14.057 -0.5735  0.0631 -0.7518
  305MPD2     H 4593   4.143   2.687  14.021 -0.6356  1.0109 -3.1733
  305MPD2    H1 4594   3.798   2.862  13.854 -0.2026  1.1902 -0.0949
  305MPD2    H2 4595   3.899   2.958  14.246 -0.4893 -0.1977  0.1997
  305MPD2    H3 4596   3.760   2.987  14.071  0.2427  0.3793  2.1205
  305MPD2     N 4597   3.990   2.702  13.795 -0.9206 -0.3545 -0.6862
  305MPD2    H5 4598   3.929   2.732  13.720  0.0051 -1.0905 -1.7538
  305MPD2    N1 4599   4.114   2.803  14.263  0.2564 -0.5356  0.3741
  305MPD2    H7 4600   4.092   2.861  14.343  1.3872  0.2561  0.1003
  306TMC3    C1 4601   4.294   2.740  14.398  0.7857  0.5095 -0.0296
  306TMC3    C2 4602   4.361   2.636  14.454 -0.2930 -0.4269 -0.7934
  306TMC3    C3 4603   4.393   2.637  14.585  0.0465 -0.8404  0.1334
  306TMC3    C4 4604   4.277   2.861  14.462  0.3418 -1.1494  0.0677
  306TMC3    C5 4605   4.334   2.866  14.596 -0.4932 -0.2631  0.3887
  306TMC3    C6 4606   4.385   2.754  14.658 -0.3802  0.2844  0.3807
  306TMC3     C 4607   4.228   2.716  14.276  0.2427  0.7139 -0.0495
  306TMC3     O 4608   4.262   2.616  14.206  0.5206 -0.0945 -0.1070
  306TMC3     H 4609   4.365   2.539  14.405  0.0328  0.2108 -2.0287
  306TMC3    H1 4610   4.238   2.950  14.415 -1.4174 -1.0054  1.8459
  306TMC3    H2 4611   4.423   2.760  14.759 -0.5875  0.9116  0.4258
  306TMC3    C7 4612   4.325   2.998  14.659  0.2832 -0.1666 -0.3694
  306TMC3    C8 4613   4.458   2.518  14.642 -1.8198 -0.3030  0.7037
  306TMC3    O1 4614   4.297   3.094  14.586  0.2221 -0.3465 -0.1594
  306TMC3    O2 4615   4.518   2.445  14.565  0.8059  0.2415 -0.3735
  307MPD2     C 4616   2.190   0.013   0.771  1.2657  0.5535  0.0073
  307MPD2    C1 4617   2.129   0.136   0.737  0.0435 -0.4871  0.1254
  307MPD2    C2 4618   2.020   0.182   0.807 -0.1744  0.9206  0.0394
  307MPD2    C3 4619   1.974   0.113   0.919  0.1044 -0.1795  0.2437
  307MPD2    C4 4620   2.023   4.704   0.943  0.0487 -0.3172 -0.5093
  307MPD2    C5 4621   2.133   4.660   0.873  0.0730  0.4180 -0.1906
  307MPD2     H 4622   1.977   0.273   0.767 -2.2936 -1.4851 -3.1583
  307MPD2    H1 4623   1.991   4.643   1.027 -2.7752  0.5734 -0.9249
  307MPD2    H2 4624   2.261   4.680   0.708 -0.1044  1.4392 -2.2957
  307MPD2    H3 4625   2.183   4.569   0.905  2.5204  2.2274  1.1152
  307MPD2     N 4626   1.866   0.175   0.992 -0.3801  0.3057 -0.3738
  307MPD2    H5 4627   1.847   0.267   0.951  0.1742 -0.1721 -1.7033
  307MPD2    N1 4628   2.158   0.214   0.617  0.1469  0.7264  0.4436
  307MPD2    H7 4629   2.104   0.299   0.605 -0.7472 -0.0238 -0.8640
  308TMC3    C1 4630   1.434   0.187   1.025  0.1954 -0.0588 -0.0276
  308TMC3    C2 4631   1.443   0.322   1.036  0.4617  0.6107  0.6288
  308TMC3    C3 4632   1.556   0.376   1.085  0.4006 -0.5116 -0.4340
  308TMC3    C4 4633   1.543   0.110   1.058 -0.0271  0.1156 -0.5147
  308TMC3    C5 4634   1.661   0.169   1.102  0.9872 -0.4551 -0.2450
  308TMC3    C6 4635   1.670   0.301   1.109  0.3068  0.0480  0.2060
  308TMC3     C 4636   1.312   0.118   0.975 -0.4589 -0.1874 -0.5533
  308TMC3     O 4637   1.304   4.720   0.996 -0.1101  0.5419 -0.4011
  308TMC3     H 4638   1.356   0.386   1.026  0.2572  0.4588  1.5027
  308TMC3    H1 4639   1.530   0.003   1.062  2.6104 -0.1537  1.0295
  308TMC3    H2 4640   1.756   0.347   1.156  1.6553 -0.4548 -1.7526
  308TMC3    C7 4641   1.783   0.106   1.083  0.0630 -0.2435  1.0571
  308TMC3    C8 4642   1.570   0.515   1.116 -0.1316  0.1031 -0.1089
  308TMC3    O1 4643   1.802   4.712   1.126  0.2691  0.1273  0.2529
  308TMC3    O2 4644   1.657   0.555   1.198 -0.2156 -0.3101 -0.4870
  309MPD2     C 4645   1.156   0.942  17.346 -0.2418  0.0285  0.2701
  309MPD2    C1 4646   1.104   1.032  17.257  0.1191 -0.0535  0.2365
  309MPD2    C2 4647   0.980   1.092  17.266 -0.9259 -0.1124 -0.0767
  309MPD2    C3 4648   0.910   1.061  17.381 -0.1225 -0.4539 -0.0554
  309MPD2    C4 4649   0.968   0.991  17.489 -0.1113 -0.1750 -0.2640
  309MPD2    C5 4650   1.082   0.919  17.460  0.0469  0.5933 -0.1662
  309MPD2     H 4651   0.939   1.158  17.190 -1.2678  0.0575  0.2521
  309MPD2    H1 4652   0.912   0.973  17.580  1.7832 -2.4926  0.4423
  309MPD2    H2 4653   1.242   0.877  17.340 -0.9375 -1.1490  2.7034
  309MPD2    H3 4654   1.111   0.835  17.524 -0.6330 -0.2802 -1.0035
  309MPD2     N 4655   0.778   1.112  17.410  0.0345 -0.3213  0.2920
  309MPD2    H5 4656   0.735   1.086  17.498 -0.1150  0.2695  0.3912
  309MPD2    N1 4657   1.167   1.055  17.131  0.5173 -0.4096 -0.5564
  309MPD2    H7 4658   1.110   1.084  17.052  0.7807  1.4522 -0.0698
  310TMC3    C1 4659   1.320   1.045  16.959 -0.2400 -0.0187 -0.1505
  310TMC3    C2 4660   1.261   1.141  16.883 -0.2656  0.0349 -0.9937
  310TMC3    C3 4661   1.314   1.172  16.760 -0.2460 -0.1327 -0.7539
  310TMC3    C4 4662   1.427   0.974  16.909 -0.5839 -0.0931 -0.0983
  310TMC3    C5 4663   1.475   1.012  16.784 -0.0064 -0.0335  0.8037
  310TMC3    C6 4664   1.427   1.115  16.712 -0.1679 -0.6018 -0.3670
  310TMC3     C 4665   1.287   1.010  17.093  0.0737 -1.1058  0.1088
  310TMC3     O 4666   1.372   0.944  17.154 -0.0353  0.6932  0.1828
  310TMC3     H 4667   1.176   1.191  16.929 -0.2028 -1.3931  0.6717
  310TMC3    H1 4668   1.458   0.890  16.970 -1.3754  0.2754  0.8008
  310TMC3    H2 4669   1.471   1.163  16.625  1.4611  0.5835  1.1131
  310TMC3    C7 4670   1.608   0.970  16.750  0.0474  0.5921  0.3470
  310TMC3    C8 4671   1.235   1.240  16.659  0.9855 -0.3024 -0.2168
  310TMC3    O1 4672   1.632   0.986  16.629  0.3210  0.4786 -0.6227
  310TMC3    O2 4673   1.258   1.221  16.541  0.1300 -0.5235  0.1542
  311MPD2     C 4674   3.173   2.578  12.695  0.1476  0.3454 -0.0806
  311MPD2    C1 4675   3.178   2.708  12.741 -0.1474  0.0651  0.1229
  311MPD2    C2 4676   3.065   2.751  12.809 -0.2864 -0.2845 -0.6222
  311MPD2    C3 4677   2.961   2.663  12.835  0.2464  0.1934  0.1904
  311MPD2    C4 4678   2.980   2.527  12.811  0.0164 -0.2983 -0.6517
  311MPD2    C5 4679   3.076   2.488  12.738 -0.2662  0.1775 -0.3467
  311MPD2     H 4680   3.062   2.852  12.847  1.1503  0.3307 -2.1526
  311MPD2    H1 4681   2.921   2.451  12.860  0.2108 -0.2690 -0.3711
  311MPD2    H2 4682   3.254   2.536  12.636 -0.9071 -0.6839 -0.7926
  311MPD2    H3 4683   3.088   2.382  12.716  1.8463  0.4794 -0.5905
  311MPD2     N 4684   2.846   2.709  12.895 -1.1233 -0.2753 -0.1962
  311MPD2    H5 4685   2.830   2.809  12.908  0.8525 -0.1839  1.3920
  311MPD2    N1 4686   3.280   2.792  12.698 -0.3258 -0.4983 -0.4303
  311MPD2    H7 4687   3.299   2.876  12.752  0.3972 -0.7401 -0.3146
  312TMC3    C1 4688   2.608   2.711  12.927 -0.1193 -0.4032  0.5639
  312TMC3    C2 4689   2.490   2.702  12.847  0.4747 -0.0679  0.6814
  312TMC3    C3 4690   2.399   2.803  12.866  0.3653 -0.0936  0.6404
  312TMC3    C4 4691   2.624   2.800  13.026  0.8753  0.7693 -0.3544
  312TMC3    C5 4692   2.533   2.899  13.040 -0.2431 -0.1504  0.5667
  312TMC3    C6 4693   2.422   2.903  12.962  0.3142  0.1738 -0.4455
  312TMC3     C 4694   2.728   2.633  12.887  0.0321  0.4469 -0.3614
  312TMC3     O 4695   2.702   2.521  12.845  0.6394  0.6782 -0.3631
  312TMC3     H 4696   2.479   2.629  12.767  3.0697  0.3007 -0.0189
  312TMC3    H1 4697   2.718   2.797  13.080  0.5195  0.8593  0.2657
  312TMC3    H2 4698   2.350   2.983  12.974 -0.0206 -0.3339  0.8825
  312TMC3    C7 4699   2.500   2.944  13.178 -0.3610 -0.2246  0.3542
  312TMC3    C8 4700   2.273   2.803  12.788  0.4848 -0.2870 -0.0693
  312TMC3    O1 4701   2.421   3.040  13.182  0.2585  0.2396  0.0580
  312TMC3    O2 4702   2.210   2.903  12.772  0.5033  0.4188  0.0361
  313MPD2     C 4703   3.461   1.593  10.203 -0.5673 -0.2483 -0.1826
  313MPD2    C1 4704   3.333   1.628  10.222  0.2180 -0.2187  0.5965
  313MPD2    C2 4705   3.234   1.546  10.164 -0.8049  0.3875 -1.0436
  313MPD2    C3 4706   3.271   1.432  10.092  0.1970  0.4001  0.2687
  313MPD2    C4 4707   3.402   1.394  10.077 -0.0374 -0.7880  0.1636
  313MPD2    C5 4708   3.494   1.470  10.144 -0.4362 -0.2306 -0.4779
  313MPD2     H 4709   3.131   1.574  10.179 -0.6419  0.9706 -1.0122
  313MPD2    H1 4710   3.441   1.314  10.015  1.3057  1.1584 -1.5072
  313MPD2    H2 4711   3.548   1.634  10.252  0.1226 -1.5583 -0.3169
  313MPD2    H3 4712   3.598   1.442  10.128  0.1597  2.3587 -1.0914
  313MPD2     N 4713   3.161   1.355  10.050 -0.4673 -0.3256  0.4391
  313MPD2    H5 4714   3.073   1.377  10.095 -1.0219 -0.9744 -0.3282
  313MPD2    N1 4715   3.282   1.746  10.288 -0.0726 -0.6238  0.7136
  313MPD2    H7 4716   3.182   1.747  10.303 -0.2845  1.8150 -1.0078
  314TMC3    C1 4717   3.289   1.961  10.364  0.0128 -0.1005 -0.3036
  314TMC3    C2 4718   3.356   2.074  10.402 -0.2654  0.5627  0.5650
  314TMC3    C3 4719   3.289   2.192  10.397 -0.7955 -0.3191 -0.5916
  314TMC3    C4 4720   3.158   1.966  10.320 -0.2793 -0.3857  0.1474
  314TMC3    C5 4721   3.103   2.090  10.300  0.6105 -0.1800  0.1438
  314TMC3    C6 4722   3.157   2.201  10.351  0.2329  0.2568 -0.0952
  314TMC3     C 4723   3.363   1.842  10.336  0.1690  0.0510  0.4693
  314TMC3     O 4724   3.484   1.859  10.319  0.4054 -0.3344  0.3239
  314TMC3     H 4725   3.462   2.072  10.423 -0.0553  0.2455 -0.5158
  314TMC3    H1 4726   3.096   1.882  10.290 -0.5769  0.5385 -1.8337
  314TMC3    H2 4727   3.091   2.284  10.373 -0.5038 -0.5002  0.5622
  314TMC3    C7 4728   2.985   2.099  10.221 -0.0073  0.0860  0.0138
  314TMC3    C8 4729   3.323   2.295  10.498 -0.8619 -0.9509  0.4477
  314TMC3    O1 4730   2.923   1.992  10.218 -0.8471  0.5611 -0.5284
  314TMC3    O2 4731   3.271   2.406  10.496  0.2232 -0.4950 -0.3911
  315MPD2     C 4732   2.344   0.747   0.474 -0.7706 -0.0679 -1.1100
  315MPD2    C1 4733   2.480   0.725   0.509  0.1609 -0.2569  0.2358
  315MPD2    C2 4734   2.572   0.823   0.474  0.0314 -0.1119  0.2115
  315MPD2    C3 4735   2.538   0.927   0.388  0.7792 -1.0458 -0.2089
  315MPD2    C4 4736   2.405   0.950   0.356  0.0570  0.0306  0.0177
  315MPD2    C5 4737   2.310   0.862   0.408 -0.3754  0.2200 -0.1659
  315MPD2     H 4738   2.673   0.808   0.509  1.1424  2.5553 -1.8605
  315MPD2    H1 4739   2.366   1.042   0.315  1.0080  0.0085 -0.9117
  315MPD2    H2 4740   2.266   0.681   0.512  0.0456 -1.5379 -1.9733
  315MPD2    H3 4741   2.205   0.883   0.390 -0.9698 -1.3295  1.4806
  315MPD2     N 4742   2.641   1.009   0.340 -0.0645 -0.4552 -0.0422
  315MPD2    H5 4743   2.735   0.994   0.376  0.1402  0.5579 -0.1549
  315MPD2    N1 4744   2.526   0.614   0.589  0.4898  0.9094  0.2332
  315MPD2    H7 4745   2.624   0.614   0.615  0.4696 -1.3202  0.3597
  316TMC3    C1 4746   2.744   1.194   0.236 -0.7527 -0.6736  0.2442
  316TMC3    C2 4747   2.830   1.199   0.340  0.5918  0.1433  0.0820
  316TMC3    C3 4748   2.935   1.285   0.324  0.5755  0.1133  0.0873
  316TMC3    C4 4749   2.743   1.279   0.132  0.2175 -0.0644  0.0208
  316TMC3    C5 4750   2.840   1.375   0.134  0.8487 -0.1034 -0.7710
  316TMC3    C6 4751   2.940   1.374   0.225  0.2409  0.8060 -0.3093
  316TMC3     C 4752   2.621   1.119   0.257 -0.3680  0.8202 -0.4804
  316TMC3     O 4753   2.526   1.145   0.186 -0.0252 -0.2070 -0.5455
  316TMC3     H 4754   2.819   1.129   0.421  1.4210 -0.4225 -0.2956
  316TMC3    H1 4755   2.665   1.280   0.056 -0.6638 -2.3560  0.9177
  316TMC3    H2 4756   3.026   1.439   0.223  2.5062 -2.1516  1.6524
  316TMC3    C7 4757   2.860   1.464   0.018  0.3647 -0.8171 -0.9907
  316TMC3    C8 4758   3.033   1.282   0.424 -0.5144  0.1522 -0.7584
  316TMC3    O1 4759   2.946   1.548   0.035 -0.1702  0.3993  0.3594
  316TMC3    O2 4760   3.101   1.382   0.452  0.1345  0.0716  0.6711
  317MPD2     C 4761   0.206   4.515  12.679  0.6136 -0.0395 -0.3006
  317MPD2    C1 4762   0.242   4.384  12.670 -0.3218  0.2044 -0.1148
  317MPD2    C2 4763   0.252   4.314  12.793  0.7543 -0.2488  0.7988
  317MPD2    C3 4764   0.232   4.375  12.911 -0.3886 -0.1493 -0.4818
  317MPD2    C4 4765   0.189   4.507  12.917  0.2191  0.5243  0.4591
  317MPD2    C5 4766   0.169   4.574  12.799 -0.2530  0.4319  0.4830
  317MPD2     H 4767   0.285   4.211  12.794 -0.5257 -0.6510  0.5303
  317MPD2    H1 4768   0.158   4.562  13.006 -1.7930 -0.3989  0.3277
  317MPD2    H2 4769   0.186   4.587  12.601 -1.3777 -1.2474 -0.9138
  317MPD2    H3 4770   0.132   4.676  12.792  0.6796  0.9298  2.6737
  317MPD2     N 4771   0.236   4.290  13.018  0.3459  0.1193  0.3195
  317MPD2    H5 4772   0.247   4.191  12.997  1.2261  0.3022 -0.0905
  317MPD2    N1 4773   0.269   4.322  12.549  0.3856  0.0675 -0.5912
  317MPD2    H7 4774   0.309   4.230  12.561 -0.1989  0.0114  0.8769
  318TMC3    C1 4775   0.207   4.213  13.240  0.0008 -0.6181  0.1013
  318TMC3    C2 4776   0.154   4.101  13.191 -0.6807  0.6960 -0.4925
  318TMC3    C3 4777   0.144   3.990  13.272  0.0387  0.0698  0.1217
  318TMC3    C4 4778   0.271   4.221  13.359 -0.3183 -0.5171  0.5851
  318TMC3    C5 4779   0.266   4.110  13.435  0.8893  0.4805 -0.1644
  318TMC3    C6 4780   0.200   3.995  13.392  1.1693 -0.6236  0.9725
  318TMC3     C 4781   0.229   4.327  13.151  0.1319  0.0443 -0.6352
  318TMC3     O 4782   0.235   4.438  13.204 -0.2013 -0.0085 -0.4095
  318TMC3     H 4783   0.093   4.098  13.102 -1.5247 -0.1327  0.1103
  318TMC3    H1 4784   0.311   4.310  13.405 -0.5925 -0.4411  0.6747
  318TMC3    H2 4785   0.176   3.910  13.455  1.6272 -2.7303 -1.6954
  318TMC3    C7 4786   0.331   4.110  13.564  0.4671 -0.1399  0.8643
  318TMC3    C8 4787   0.079   3.868  13.225 -0.0943  0.1679  0.3477
  318TMC3    O1 4788   0.318   4.209  13.629  0.0177 -0.2108  0.0810
  318TMC3    O2 4789   0.118   3.766  13.278 -0.0299  0.0298 -0.5890
  319MPD2     C 4790   0.888   0.151  16.609  0.2186 -0.5092 -0.0725
  319MPD2    C1 4791   0.858   0.266  16.542 -0.0427  0.6921 -0.1824
  319MPD2    C2 4792   0.748   0.272  16.454 -0.5321 -0.1422 -0.2021
  319MPD2    C3 4793   0.661   0.164  16.452  0.6318 -0.1976  0.3616
  319MPD2    C4 4794   0.694   0.050  16.526 -0.8859  0.0892 -0.2192
  319MPD2    C5 4795   0.805   0.043  16.593 -0.6111 -0.5662  0.6335
  319MPD2     H 4796   0.731   0.362  16.396 -1.9443 -0.3063 -0.0550
  319MPD2    H1 4797   0.635   4.679  16.514 -0.8687  0.0631 -0.1036
  319MPD2    H2 4798   0.972   0.141  16.676 -0.1284  0.6850  0.5273
  319MPD2    H3 4799   0.828   4.665  16.635 -1.2979 -1.1795 -0.4083
  319MPD2     N 4800   0.534   0.172  16.386  0.2373 -0.1895 -0.1320
  319MPD2    H5 4801   0.470   0.096  16.405  2.6834 -1.2948  3.4595
  319MPD2    N1 4802   0.935   0.389  16.558  0.0579 -0.3334 -0.0381
  319MPD2    H7 4803   0.906   0.470  16.505  4.2882  0.8208 -0.5510
  320TMC3    C1 4804   0.349   0.248  16.262 -0.0443  0.3609  0.7299
  320TMC3    C2 4805   0.295   0.345  16.189  0.3032 -0.7934 -0.1745
  320TMC3    C3 4806   0.162   0.317  16.164 -0.6819  0.2560  0.5119
  320TMC3    C4 4807   0.278   0.139  16.304  0.0713  0.9298 -0.3247
  320TMC3    C5 4808   0.148   0.126  16.278  1.1045  0.1990 -0.1093
  320TMC3    C6 4809   0.079   0.227  16.218  0.6694  0.7102  0.3252
  320TMC3     C 4810   0.487   0.272  16.311  0.1314 -0.6180  0.1014
  320TMC3     O 4811   0.537   0.379  16.282 -0.1068  0.4470 -0.3149
  320TMC3     H 4812   0.346   0.424  16.136 -0.1379 -0.9482 -0.8316
  320TMC3    H1 4813   0.327   0.055  16.353  0.4319  0.0665 -2.1468
  320TMC3    H2 4814   4.693   0.216  16.198  0.4193  0.0501  2.0010
  320TMC3    C7 4815   0.067   0.019  16.334 -0.2159 -0.7802 -0.2625
  320TMC3    C8 4816   0.098   0.411  16.067 -0.0521  0.8270  0.9249
  320TMC3    O1 4817   0.121   4.628  16.342 -0.0192 -0.1413  0.2279
  320TMC3    O2 4818   0.151   0.516  16.039  0.0036 -0.1004  0.0916
  321TMC3    C1 4819   1.074   0.543  16.663  0.4039  0.1277  0.4459
  321TMC3    C2 4820   0.970   0.614  16.712  0.5965 -0.4640  0.2380
  321TMC3    C3 4821   1.002   0.716  16.798  0.8437  0.0754  0.2793
  321TMC3    C4 4822   1.204   0.569  16.691 -0.6631  0.2406 -0.4234
  321TMC3    C5 4823   1.232   0.670  16.778 -0.6653  0.1392  0.0713
  321TMC3    C6 4824   1.130   0.748  16.827  0.2626 -0.0643 -0.1811
  321TMC3     C 4825   1.055   0.403  16.623 -0.6837  0.0052 -0.1888
  321TMC3     O 4826   1.129   0.326  16.684  0.2240  0.1588 -0.4714
  321TMC3     H 4827   0.867   0.585  16.696  0.3704  0.9022 -0.8161
  321TMC3    H1 4828   1.278   0.494  16.666  0.7406  0.5927  2.5914
  321TMC3    H2 4829   1.153   0.840  16.879 -1.3692  1.9475 -2.9974
  321TMC3    C7 4830   1.313   0.624  16.885 -0.6129 -0.2553 -0.0213
  321TMC3    C8 4831   0.916   0.705  16.913 -0.0473  0.3065 -0.0435
  321TMC3    O1 4832   1.275   0.664  16.992 -0.3899 -0.0439  0.5687
  321TMC3    O2 4833   0.797   0.682  16.893 -0.3047  0.8459  0.0336
  322MPD2     C 4834   3.962   2.173  13.519  0.1691  0.0273 -0.4130
  322MPD2    C1 4835   3.963   2.079  13.621 -0.5338 -0.4060  0.0158
  322MPD2    C2 4836   3.972   1.943  13.600  0.2285  0.4493 -0.1205
  322MPD2    C3 4837   3.986   1.905  13.466  0.3023 -0.0664  0.0142
  322MPD2    C4 4838   3.965   1.992  13.366 -0.7152  0.2378 -0.6684
  322MPD2    C5 4839   3.959   2.129  13.387 -0.2038 -0.2485 -1.2210
  322MPD2     H 4840   3.998   1.865  13.671  1.9473  0.9330 -0.2276
  322MPD2    H1 4841   3.955   1.969  13.261  0.1290  0.7156 -0.8559
  322MPD2    H2 4842   3.974   2.278  13.543  0.3146 -0.6119  2.4073
  322MPD2    H3 4843   3.961   2.194  13.300 -1.9902  1.3323 -0.0892
  322MPD2     N 4844   4.018   1.772  13.434 -0.3647  0.5751  0.1292
  322MPD2    H5 4845   4.009   1.706  13.511  2.0545  0.1978  0.1027
  322MPD2    N1 4846   3.974   2.134  13.748 -0.1415 -0.8550  0.2701
  322MPD2    H7 4847   3.972   2.235  13.755  1.4517 -0.7704 -0.6279
  323TMC3    C1 4848   4.022   2.155  13.972 -0.2342  1.2438 -0.4341
  323TMC3    C2 4849   4.120   2.242  13.943  0.1842  0.0187 -0.4158
  323TMC3    C3 4850   4.191   2.279  14.049 -0.1756 -0.1531 -0.3206
  323TMC3    C4 4851   3.978   2.128  14.097 -0.0113  0.4160 -0.0700
  323TMC3    C5 4852   4.063   2.162  14.200  0.1610  0.0726 -0.1896
  323TMC3    C6 4853   4.160   2.254  14.180 -0.3004  0.2341  0.0756
  323TMC3     C 4854   3.983   2.070  13.863  0.0938 -0.5727 -0.7040
  323TMC3     O 4855   3.986   1.951  13.887  0.4332 -0.0107  0.3396
  323TMC3     H 4856   4.163   2.246  13.844  3.8644 -1.3296  1.1072
  323TMC3    H1 4857   3.900   2.052  14.106  1.8307 -1.6796 -1.9827
  323TMC3    H2 4858   4.234   2.279  14.255 -0.0331 -1.1102  0.2571
  323TMC3    C7 4859   4.068   2.072  14.312 -0.0762  0.3810 -0.3253
  323TMC3    C8 4860   4.333   2.306  14.019  0.2299 -0.8045  0.5174
  323TMC3    O1 4861   4.028   1.961  14.292  0.1155 -0.5072 -0.0203
  323TMC3    O2 4862   4.372   2.264  13.914 -0.7590 -0.3336  0.1294
  324MPD2     C 4863   1.250   2.868  14.555 -0.5078 -0.6954  0.2373
  324MPD2    C1 4864   1.280   2.988  14.489  0.1536 -0.1217 -0.3331
  324MPD2    C2 4865   1.198   3.039  14.391  0.1648 -0.2769  0.2940
  324MPD2    C3 4866   1.081   2.973  14.361 -0.1577  0.0072  0.3426
  324MPD2    C4 4867   1.059   2.847  14.423 -0.5702  0.1648 -0.5817
  324MPD2    C5 4868   1.135   2.802  14.526  0.5722 -0.0741  0.2851
  324MPD2     H 4869   1.214   3.137  14.348  1.2514 -0.5267  0.1311
  324MPD2    H1 4870   0.982   2.774  14.400 -1.0454  0.2400  0.7734
  324MPD2    H2 4871   1.301   2.830  14.643  1.1690  1.1480  0.0583
  324MPD2    H3 4872   1.103   2.711  14.576  2.4047  0.3751  2.2714
  324MPD2     N 4873   0.980   3.019  14.271  0.3390 -0.3215 -0.2343
  324MPD2    H5 4874   0.900   2.959  14.252  0.5059 -0.5537 -0.2108
  324MPD2    N1 4875   1.407   3.064  14.505  0.2094 -0.1763 -0.1776
  324MPD2    H7 4876   1.409   3.153  14.458  3.0075 -0.7647 -1.1729
  325TMC3    C1 4877   0.857   3.177  14.137  0.5972 -0.4568 -0.1632
  325TMC3    C2 4878   0.744   3.100  14.158 -0.6485  0.0886 -0.2378
  325TMC3    C3 4879   0.623   3.153  14.131  0.2020  0.4629 -0.4054
  325TMC3    C4 4880   0.842   3.307  14.099  0.5797  0.0565  0.4612
  325TMC3    C5 4881   0.722   3.357  14.055 -0.3554  0.1162 -0.2252
  325TMC3    C6 4882   0.613   3.276  14.069  0.4654 -0.5083 -0.4586
  325TMC3     C 4883   0.974   3.153  14.226  0.1268 -0.0716 -0.2840
  325TMC3     O 4884   1.054   3.242  14.233 -0.2092 -0.1269  0.1888
  325TMC3     H 4885   0.743   2.999  14.195 -3.3296 -0.0792 -0.7608
  325TMC3    H1 4886   0.922   3.378  14.113  0.5391  0.6514 -2.2012
  325TMC3    H2 4887   0.525   3.309  14.016  1.6494 -0.3132 -2.3129
  325TMC3    C7 4888   0.699   3.505  14.073  0.6288  0.1094  0.4746
  325TMC3    C8 4889   0.528   3.048  14.110  0.4645 -0.4005  0.7354
  325TMC3    O1 4890   0.803   3.567  14.065  0.2971  0.0483 -0.5952
  325TMC3    O2 4891   0.566   2.932  14.117  1.0125  0.9188  1.1909
  326MPD2     C 4892   2.556   4.081  10.509 -0.2493 -0.7068  0.8140
  326MPD2    C1 4893   2.554   4.194  10.425 -0.4126  0.2110 -1.1972
  326MPD2    C2 4894   2.631   4.305  10.452  0.1964 -0.3350  0.3335
  326MPD2    C3 4895   2.723   4.291  10.559  0.1881  0.5037  0.0520
  326MPD2    C4 4896   2.725   4.183  10.638  0.0801  0.0259  0.2445
  326MPD2    C5 4897   2.644   4.076  10.614  0.0947 -0.3305  0.2937
  326MPD2     H 4898   2.624   4.398  10.395 -1.3245  0.0773  1.1966
  326MPD2    H1 4899   2.784   4.179  10.729 -3.0261 -1.4619  2.1730
  326MPD2    H2 4900   2.497   3.991  10.491  1.0828 -1.6416  1.1260
  326MPD2    H3 4901   2.643   3.985  10.672 -0.1353 -0.9450 -0.6793
  326MPD2     N 4902   2.819   4.392  10.595 -0.4304 -0.3035 -0.6880
  326MPD2    H5 4903   2.886   4.372  10.668 -1.2158 -0.4876 -0.0201
  326MPD2    N1 4904   2.477   4.203  10.308 -0.3177 -0.0983  0.1337
  326MPD2    H7 4905   2.472   4.294  10.263  2.8669 -0.6425 -1.3317
  327TMC3    C1 4906   2.370   4.119  10.112 -0.4743  0.5674  0.2889
  327TMC3    C2 4907   2.317   4.241  10.087  0.0671 -0.1457 -0.1733
  327TMC3    C3 4908   2.360   4.306   9.975 -0.3126 -0.0321 -0.4001
  327TMC3    C4 4909   2.447   4.051  10.021  0.5715  0.0514  0.2048
  327TMC3    C5 4910   2.505   4.126   9.923  0.6950  0.4290 -0.4477
  327TMC3    C6 4911   2.453   4.250   9.892  0.0790  0.4696  0.6612
  327TMC3     C 4912   2.405   4.100  10.251  0.0202 -0.6281 -0.4857
  327TMC3     O 4913   2.404   3.983  10.286 -0.2194  0.1260 -0.2740
  327TMC3     H 4914   2.255   4.287  10.163  0.8668  0.4407  0.1339
  327TMC3    H1 4915   2.470   3.946  10.034  1.5538  0.0379 -1.6151
  327TMC3    H2 4916   2.505   4.309   9.818  1.1972 -1.2048  0.1077
  327TMC3    C7 4917   2.642   4.115   9.909 -0.2432 -0.1085  0.6819
  327TMC3    C8 4918   2.338   4.454   9.970 -0.5049  0.6729 -0.5140
  327TMC3    O1 4919   2.705   4.164   9.816 -0.7175 -0.4110  0.3730
  327TMC3    O2 4920   2.424   4.522   9.917  0.3927  0.1041  0.1292
  328MPD2     C 4921   0.082   3.629  17.022 -0.2604  0.2255 -0.3107
  328MPD2    C1 4922   4.720   3.589  16.918  0.1758 -0.5546 -0.0475
  328MPD2    C2 4923   4.654   3.689  16.851  0.4084  0.0434 -0.8070
  328MPD2    C3 4924   4.667   3.824  16.883  0.0829  0.7448 -0.3210
  328MPD2    C4 4925   0.030   3.854  16.993 -0.8466  0.0483  0.1557
  328MPD2    C5 4926   0.097   3.755  17.066 -0.6156  0.1818 -0.3675
  328MPD2     H 4927   4.574   3.662  16.784  1.7786 -0.8817 -2.0594
  328MPD2    H1 4928   0.048   3.961  17.005 -0.2333 -0.1994  1.4441
  328MPD2    H2 4929   0.138   3.552  17.074 -0.2848 -0.8412 -1.8536
  328MPD2    H3 4930   0.156   3.770  17.156 -1.0512 -1.5505  0.2036
  328MPD2     N 4931   4.584   3.935  16.832 -0.1037 -0.1035  0.6576
  328MPD2    H5 4932   4.614   4.026  16.864 -0.0665  0.4704 -0.9886
  328MPD2    N1 4933   4.694   3.457  16.892  0.0898  0.2226  0.3436
  328MPD2    H7 4934   0.024   3.392  16.952  0.0828 -0.2552 -0.1654
  329TMC3    C1 4935   4.620   3.253  16.803 -0.4725 -0.2354 -0.3331
  329TMC3    C2 4936   4.665   3.194  16.916 -1.1575  0.0226 -0.1762
  329TMC3    C3 4937   4.612   3.070  16.950 -0.0096  0.4173 -0.2676
  329TMC3    C4 4938   4.528   3.186  16.720 -0.9064 -0.1126  0.5521
  329TMC3    C5 4939   4.478   3.066  16.763 -0.0240  0.2608  0.0348
  329TMC3    C6 4940   4.523   3.003  16.874  0.0873 -0.3865  0.2141
  329TMC3     C 4941   4.618   3.403  16.798  0.0856 -1.1957  0.5628
  329TMC3     O 4942   4.565   3.445  16.694 -0.0225 -0.5163 -0.0421
  329TMC3     H 4943   0.027   3.241  16.970 -1.3210  0.3288 -0.1971
  329TMC3    H1 4944   4.474   3.241  16.644  0.7425 -1.3657 -1.5251
  329TMC3    H2 4945   4.487   2.909  16.913 -0.0528 -1.3803 -2.3315
  329TMC3    C7 4946   4.348   3.018  16.707 -0.7369 -0.1850 -0.0810
  329TMC3    C8 4947   4.655   3.012  17.085  0.4363 -0.0193 -0.2243
  329TMC3    O1 4948   4.293   2.941  16.787  0.2177  0.0200 -0.9135
  329TMC3    O2 4949   0.001   3.084  17.161  0.0392  0.2037  0.1431
  330TMC3    C1 4950   2.055   3.266   8.986 -0.3627 -0.1202  0.3686
  330TMC3    C2 4951   2.033   3.163   8.896  0.8813 -0.2607  0.3394
  330TMC3    C3 4952   2.124   3.059   8.894 -0.3074 -0.3419 -0.0968
  330TMC3    C4 4953   2.154   3.255   9.081 -0.4837 -0.1463  0.6269
  330TMC3    C5 4954   2.244   3.155   9.070  0.5675 -0.4424 -0.0602
  330TMC3    C6 4955   2.232   3.061   8.976  0.5677  0.6103  0.6469
  330TMC3     C 4956   1.930   3.338   9.013  0.3281 -0.9164  0.4226
  330TMC3     O 4957   1.822   3.294   8.973  0.1998 -0.3358 -0.4423
  330TMC3     H 4958   1.956   3.166   8.820  0.3895 -5.1561  0.6450
  330TMC3    H1 4959   2.144   3.304   9.177  0.1098 -0.4567  0.8475
  330TMC3    H2 4960   2.314   2.991   8.962  0.0005  0.0139  0.3129
  330TMC3    C7 4961   2.368   3.162   9.152 -0.3950 -0.2603  0.8877
  330TMC3    C8 4962   2.102   2.950   8.805  0.1258 -0.1084  0.0839
  330TMC3    O1 4963   2.443   3.064   9.157  0.6419  0.5098 -0.4413
  330TMC3    O2 4964   2.052   2.986   8.699  0.0801  0.5211 -0.0141
  331MPD2     C 4965   0.920   2.345  13.038 -1.0222  0.5010  0.2031
  331MPD2    C1 4966   1.011   2.390  12.943 -0.5535 -0.5740  0.3791
  331MPD2    C2 4967   0.994   2.359  12.811  0.4948 -0.5177 -0.0680
  331MPD2    C3 4968   0.884   2.284  12.771  0.0491  0.4429  0.0503
  331MPD2    C4 4969   0.791   2.237  12.863  0.5253 -0.4529  0.2514
  331MPD2    C5 4970   0.812   2.268  12.993  0.3790 -0.1348 -0.4585
  331MPD2     H 4971   1.064   2.392  12.736  1.0111  2.4403  1.6916
  331MPD2    H1 4972   0.707   2.171  12.842 -0.6295  1.0121  0.2603
  331MPD2    H2 4973   0.939   2.371  13.141  0.3908 -3.2773  0.9066
  331MPD2    H3 4974   0.733   2.243  13.063  0.6710  0.9333  0.2584
  331MPD2     N 4975   0.880   2.257  12.635  0.6122 -0.3823  0.4338
  331MPD2    H5 4976   0.953   2.293  12.573  1.8689 -2.3957  0.7551
  331MPD2    N1 4977   1.119   2.463  12.997  0.1163 -0.3633  0.1378
  331MPD2    H7 4978   1.142   2.460  13.095 -0.0472  1.0982  0.2075
  332TMC3    C1 4979   0.825   2.135  12.446  0.2562 -0.9542  0.7203
  332TMC3    C2 4980   0.883   2.225  12.364 -0.2708  0.1515 -0.0542
  332TMC3    C3 4981   0.929   2.167  12.244  0.6478  0.3251 -0.5838
  332TMC3    C4 4982   0.790   2.006  12.416 -0.1903 -0.2074 -0.8762
  332TMC3    C5 4983   0.859   1.945  12.310  0.1613 -0.4957 -0.5632
  332TMC3    C6 4984   0.928   2.032  12.224 -0.6652  0.1734 -0.1855
  332TMC3     C 4985   0.780   2.176  12.579  0.3192  0.3977 -0.3241
  332TMC3     O 4986   0.679   2.125  12.630  0.6433 -0.6906  0.1005
  332TMC3     H 4987   0.886   2.332  12.382 -2.0598  0.3930 -1.2854
  332TMC3    H1 4988   0.736   1.952  12.493  2.3518 -0.2287  0.9121
  332TMC3    H2 4989   0.973   1.987  12.136 -0.6116 -1.0161  0.4543
  332TMC3    C7 4990   0.926   1.825  12.352  0.0658  0.7004  0.4350
  332TMC3    C8 4991   0.978   2.255  12.143  0.5995  0.6215  0.4686
  332TMC3    O1 4992   0.862   1.727  12.390  0.7381  0.7248  0.2071
  332TMC3    O2 4993   1.010   2.368  12.185  0.2086  0.3238  0.1406
  333MPD2     C 4994   1.126   2.970  11.050  0.4436  0.0581  0.0260
  333MPD2    C1 4995   1.197   2.862  11.004 -0.1410  0.1615  0.6188
  333MPD2    C2 4996   1.158   2.734  11.015 -0.6619 -0.4170  0.3801
  333MPD2    C3 4997   1.047   2.716  11.091 -0.4472  0.3925  0.2562
  333MPD2    C4 4998   0.973   2.817  11.143 -0.3581  0.4699  0.0823
  333MPD2    C5 4999   1.011   2.947  11.117  0.2236 -0.3780 -0.7619
  333MPD2     H 5000   1.224   2.655  10.980  2.1272  3.7321 -3.6126
  333MPD2    H1 5001   0.878   2.795  11.190  0.0516 -0.1173  0.6298
  333MPD2    H2 5002   1.144   3.074  11.025  1.2969 -0.3345 -0.9599
  333MPD2    H3 5003   0.945   3.028  11.145  0.6241 -0.8773  1.6508
  333MPD2     N 5004   1.008   2.582  11.106  0.7619 -0.7039 -0.6006
  333MPD2    H5 5005   1.047   2.516  11.039  1.1265  1.4457 -2.5011
  333MPD2    N1 5006   1.321   2.902  10.937  0.3368  0.2837 -0.3802
  333MPD2    H7 5007   1.335   3.002  10.928  2.4039  0.2210  2.1480
  334TMC3    C1 5008   1.507   2.902  10.796 -0.6241 -0.0684 -0.1815
  334TMC3    C2 5009   1.627   2.838  10.775  0.3390 -0.7668 -0.1818
  334TMC3    C3 5010   1.718   2.903  10.695 -0.1852 -0.2166  0.8711
  334TMC3    C4 5011   1.478   3.023  10.744  0.0961  0.5496  0.3240
  334TMC3    C5 5012   1.578   3.085  10.678 -0.2035 -0.0220  0.8413
  334TMC3    C6 5013   1.699   3.029  10.651  0.1725 -1.1706  1.0654
  334TMC3     C 5014   1.403   2.824  10.857  0.0238 -0.0223 -0.3591
  334TMC3     O 5015   1.413   2.702  10.856 -0.1804 -0.1225 -0.0065
  334TMC3     H 5016   1.639   2.735  10.809  0.1719 -1.1095 -1.1528
  334TMC3    H1 5017   1.382   3.069  10.766 -0.9726 -2.3181  1.5976
  334TMC3    H2 5018   1.785   3.092  10.629 -0.8433  0.2820  1.1937
  334TMC3    C7 5019   1.563   3.223  10.649 -0.3078  0.7070 -0.4590
  334TMC3    C8 5020   1.837   2.826  10.660 -0.2222 -0.2207  0.2524
  334TMC3    O1 5021   1.475   3.273  10.708  0.3710  0.3135  0.2929
  334TMC3    O2 5022   1.845   2.719  10.719  0.0507  0.4309 -0.1772
  335TMC3    C1 5023   0.512   3.938  17.284 -0.9352  0.5846  0.3199
  335TMC3    C2 5024   0.481   3.827  17.217  0.6255 -0.4265 -0.3839
  335TMC3    C3 5025   0.576   3.777  17.135  0.5620  0.5316 -0.1384
  335TMC3    C4 5026   0.641   3.993  17.274 -0.0436 -0.7626 -0.0173
  335TMC3    C5 5027   0.725   3.940  17.189  0.0019  0.2285 -0.3129
  335TMC3    C6 5028   0.703   3.831  17.118 -0.0885  0.2818 -0.0100
  335TMC3     C 5029   0.402   4.014  17.334 -0.2659 -0.9991  1.1820
  335TMC3     O 5030   0.293   3.968  17.350  0.4073 -0.0863  0.2858
  335TMC3     H 5031   0.380   3.790  17.207  0.2288 -0.1872  2.9288
  335TMC3    H1 5032   0.658   4.092  17.313 -1.7001 -0.1895 -0.7477
  335TMC3    H2 5033   0.778   3.782  17.058  0.5046  0.4486  0.5937
  335TMC3    C7 5034   0.859   3.992  17.184 -0.8895 -0.8108  0.6223
  335TMC3    C8 5035   0.546   3.682  17.039 -0.7854  0.3577 -0.2672
  335TMC3    O1 5036   0.911   3.977  17.076 -0.3566  0.0629 -0.5508
  335TMC3    O2 5037   0.613   3.685  16.940 -0.6040  0.2762 -0.0859
  336MPD2     C 5038   0.247   1.466  16.080 -0.0098  0.6419  0.7054
  336MPD2    C1 5039   0.219   1.407  15.956 -0.0488  0.1587  0.3621
  336MPD2    C2 5040   0.280   1.286  15.918  0.0538  0.2499  0.6834
  336MPD2    C3 5041   0.372   1.232  16.010  0.2598  0.4789 -0.1520
  336MPD2    C4 5042   0.390   1.292  16.137 -0.3690 -0.1436  0.0771
  336MPD2    C5 5043   0.335   1.407  16.169 -0.2378  0.2139  0.1370
  336MPD2     H 5044   0.252   1.232  15.829  0.7669 -1.4987  1.5172
  336MPD2    H1 5045   0.448   1.241  16.212  1.6430  1.1597 -0.5908
  336MPD2    H2 5046   0.195   1.549  16.127 -1.0186 -0.0494  0.8212
  336MPD2    H3 5047   0.365   1.443  16.267  3.5264 -1.0877 -0.5346
  336MPD2     N 5048   0.431   1.104  15.983 -0.1768  0.3523  0.8821
  336MPD2    H5 5049   0.478   1.056  16.059  1.6468  0.6746 -0.0422
  336MPD2    N1 5050   0.134   1.482  15.872 -0.8065 -0.2176  0.1441
  336MPD2    H7 5051   0.101   1.425  15.795  0.8059 -3.0782  1.5708
  337TMC3    C1 5052   0.030   1.663  15.781 -0.1579  0.5008 -0.1418
  337TMC3    C2 5053   4.639   1.590  15.751 -0.4106  0.0487  0.0410
  337TMC3    C3 5054   4.561   1.626  15.646  0.3846  0.0568 -0.1027
  337TMC3    C4 5055   0.059   1.782  15.709  0.3095  0.4478  0.2253
  337TMC3    C5 5056   4.694   1.813  15.608  0.8226 -0.1765 -0.3490
  337TMC3    C6 5057   4.595   1.731  15.568  0.6283 -0.1949  0.0310
  337TMC3     C 5058   0.122   1.623  15.876 -0.4701  0.2910  0.9584
  337TMC3     O 5059   0.195   1.710  15.924 -0.0030 -0.2470  0.6262
  337TMC3     H 5060   4.606   1.502  15.805 -1.2998  0.0822 -0.4490
  337TMC3    H1 5061   0.143   1.843  15.740 -0.9968  1.4738  1.7285
  337TMC3    H2 5062   4.538   1.758  15.480 -0.0263 -0.7404  0.2915
  337TMC3    C7 5063   4.707   1.943  15.555 -0.2068  0.7095  0.3343
  337TMC3    C8 5064   4.422   1.571  15.652 -0.2965 -0.0133  0.7094
  337TMC3    O1 5065   4.650   1.958  15.446 -0.0507  0.7027 -1.1032
  337TMC3    O2 5066   4.406   1.460  15.701  0.3529 -0.1483 -0.4691
  338MPD2     C 5067   0.666   1.212   0.694 -0.3557 -0.4830 -0.9722
  338MPD2    C1 5068   0.670   1.093   0.761 -0.5348  0.4309  0.3042
  338MPD2    C2 5069   0.676   1.088   0.897 -0.2618  0.1279 -0.6650
  338MPD2    C3 5070   0.696   1.205   0.970 -0.2321  0.2384 -0.4041
  338MPD2    C4 5071   0.702   1.320   0.898 -0.2200 -0.1375 -0.2373
  338MPD2    C5 5072   0.696   1.321   0.762  0.0193 -0.0922 -0.4333
  338MPD2     H 5073   0.665   0.995   0.952 -0.6211  1.7362  2.0308
  338MPD2    H1 5074   0.713   1.415   0.949  1.2166  1.1690 -2.9654
  338MPD2    H2 5075   0.651   1.229   0.588  0.3229  0.2748 -0.9530
  338MPD2    H3 5076   0.694   1.413   0.706 -0.8261  0.0866 -0.1067
  338MPD2     N 5077   0.707   1.204   1.108  0.0586  0.0110  0.3573
  338MPD2    H5 5078   0.705   1.109   1.143 -0.9859  0.6383  1.9885
  338MPD2    N1 5079   0.672   0.976   0.681  0.4958 -0.5811  0.5621
  338MPD2    H7 5080   0.676   0.990   0.581  0.3266  0.4089  0.6938
  339TMC3    C1 5081   0.760   1.259   1.331  0.3977  0.6791 -0.0636
  339TMC3    C2 5082   0.658   1.190   1.388  0.6507 -0.3067  0.0506
  339TMC3    C3 5083   0.640   1.195   1.522 -0.3910  0.2018 -0.4921
  339TMC3    C4 5084   0.831   1.342   1.409 -0.4045 -0.0526 -0.0685
  339TMC3    C5 5085   0.821   1.339   1.545  0.0903 -0.1413 -0.0434
  339TMC3    C6 5086   0.728   1.264   1.602  0.5375  0.4445 -1.3430
  339TMC3     C 5087   0.739   1.307   1.197 -0.3741  0.4535  0.2685
  339TMC3     O 5088   0.765   1.427   1.173  0.4685 -0.0085 -0.4279
  339TMC3     H 5089   0.583   1.143   1.325  1.7731 -0.7383 -0.9719
  339TMC3    H1 5090   0.913   1.400   1.369  0.1593  0.8888  2.4165
  339TMC3    H2 5091   0.716   1.261   1.710 -0.3744 -2.8022 -1.5315
  339TMC3    C7 5092   0.856   1.466   1.617  0.4475  0.6614 -0.6072
  339TMC3    C8 5093   0.515   1.160   1.576 -0.2986 -0.2367 -0.0092
  339TMC3    O1 5094   0.873   1.468   1.739 -0.7268  0.1799  0.0116
  339TMC3    O2 5095   0.420   1.190   1.508  0.0705 -0.3610 -0.1889
  340MPD2     C 5096   0.596   4.622   9.372  0.0090  0.2381 -0.0993
  340MPD2    C1 5097   0.684   4.522   9.400 -0.1858  0.2725  0.0835
  340MPD2    C2 5098   0.816   4.552   9.427 -0.0459 -0.1556 -0.0640
  340MPD2    C3 5099   0.863   4.682   9.425 -0.4236 -0.0445 -0.4719
  340MPD2    C4 5100   0.774   0.063   9.393 -0.0249 -0.4328 -0.2582
  340MPD2    C5 5101   0.645   0.029   9.373  0.1605 -0.4376  0.7095
  340MPD2     H 5102   0.880   4.468   9.452 -0.2739  0.2174  1.7147
  340MPD2    H1 5103   0.802   0.167   9.397  1.4027 -0.8181 -0.2607
  340MPD2    H2 5104   0.495   4.600   9.337  0.6692 -0.9813 -1.2519
  340MPD2    H3 5105   0.581   0.112   9.347 -2.0254 -2.0769  0.8114
  340MPD2     N 5106   0.995   4.717   9.457  0.0453  0.7374 -0.0194
  340MPD2    H5 5107   1.031   0.090   9.435 -0.0970  0.7447 -0.2200
  340MPD2    N1 5108   0.627   4.394   9.414 -0.0502  0.0750 -0.2740
  340MPD2    H7 5109   0.530   4.387   9.385  0.2071 -0.1824 -1.0896
  341TMC3    C1 5110   0.618   4.159   9.443 -0.1277 -0.4120  0.4967
  341TMC3    C2 5111   0.549   4.147   9.330  0.2334  0.2031 -0.1798
  341TMC3    C3 5112   0.559   4.029   9.260 -0.2559  0.8060 -0.3380
  341TMC3    C4 5113   0.684   4.052   9.500 -0.2493 -0.0435  0.7368
  341TMC3    C5 5114   0.688   3.936   9.431 -0.1086 -0.0959 -0.0627
  341TMC3    C6 5115   0.644   3.928   9.305 -0.8009  0.0298 -0.0578
  341TMC3     C 5116   0.687   4.284   9.473  0.5896  0.8017  0.2267
  341TMC3     O 5117   0.793   4.279   9.531 -0.6619 -0.4346 -0.4073
  341TMC3     H 5118   0.473   4.217   9.298  1.2767  1.4225  0.0260
  341TMC3    H1 5119   0.742   4.066   9.590  0.6926 -0.0586  0.1257
  341TMC3    H2 5120   0.660   3.836   9.249 -0.2722  0.3040 -0.3533
  341TMC3    C7 5121   0.790   3.838   9.461  0.5443 -0.0039  0.0576
  341TMC3    C8 5122   0.485   3.991   9.142 -0.5533 -0.1484 -0.9039
  341TMC3    O1 5123   0.823   3.768   9.366  0.5117  0.4451 -0.1271
  341TMC3    O2 5124   0.487   3.872   9.111  0.0125  0.0540 -0.1386
  342MPD2     C 5125   3.554   1.685   0.115 -0.0405 -0.7840  0.0255
  342MPD2    C1 5126   3.613   1.730  17.679  0.5498 -0.2592  0.2305
  342MPD2    C2 5127   3.651   1.862  17.668  0.0995 -0.2831  0.4991
  342MPD2    C3 5128   3.624   1.959   0.088  0.1012 -0.6210 -0.1815
  342MPD2    C4 5129   3.556   1.908   0.200 -0.6701 -0.1058 -0.0116
  342MPD2    C5 5130   3.534   1.776   0.215 -0.4003  0.2468 -0.1061
  342MPD2     H 5131   3.685   1.902  17.574  1.0389  1.3333  1.5231
  342MPD2    H1 5132   3.530   1.970   0.285  1.9857  0.1938  0.5825
  342MPD2    H2 5133   3.538   1.582   0.142  0.5961 -1.2024 -1.1882
  342MPD2    H3 5134   3.487   1.739   0.305 -0.5298  1.8793  0.5129
  342MPD2     N 5135   3.652   2.096   0.077  0.6465  0.2693 -0.2493
  342MPD2    H5 5136   3.612   2.144   0.157 -0.1271 -0.4376 -0.2139
  342MPD2    N1 5137   3.639   1.637  17.571 -0.1217 -0.4799 -0.5918
  342MPD2    H7 5138   3.688   1.680  17.492  2.9077 -0.6918  1.1535
  343TMC3    C1 5139   3.648   1.428  17.444 -0.3607  0.1776 -0.4848
  343TMC3    C2 5140   3.783   1.428  17.404 -0.6757  0.4067  0.6544
  343TMC3    C3 5141   3.827   1.333  17.315 -0.0905  0.3999  0.1296
  343TMC3    C4 5142   3.562   1.345  17.389  0.1441  0.2202  0.0347
  343TMC3    C5 5143   3.603   1.243  17.307 -0.1294  0.2383 -0.3413
  343TMC3    C6 5144   3.735   1.237  17.268  0.1970  0.5013 -0.2775
  343TMC3     C 5145   3.595   1.504  17.559 -0.1238  0.0218  0.3749
  343TMC3     O 5146   3.528   1.437  17.639  0.0819  0.0153  0.4174
  343TMC3     H 5147   3.852   1.491  17.460 -0.6817  0.7296  0.2978
  343TMC3    H1 5148   3.462   1.332  17.430 -0.1735  2.9458  0.1802
  343TMC3    H2 5149   3.775   1.153  17.212 -1.8834 -0.9229  0.4075
  343TMC3    C7 5150   3.537   1.119  17.332 -0.8845 -0.0132 -1.0082
  343TMC3    C8 5151   3.967   1.303  17.319 -0.1029 -0.5208 -0.4650
  343TMC3    O1 5152   3.420   1.111  17.292 -0.3776 -0.2970 -0.1837
  343TMC3    O2 5153   4.021   1.341  17.423  0.2467 -0.3734  0.1593
  344MPD2     C 5154   4.609   2.510  11.351  0.0028  0.1459  0.0263
  344MPD2    C1 5155   4.662   2.447  11.242  0.2615 -0.1492  0.0395
  344MPD2    C2 5156   0.037   2.522  11.167  0.6494 -0.7874  0.6500
  344MPD2    C3 5157   0.057   2.651  11.185 -0.0584  0.8307  0.2320
  344MPD2    C4 5158   4.719   2.708  11.292 -0.4821  0.8059  0.5819
  344MPD2    C5 5159   4.638   2.635  11.380 -0.0780  0.2919 -0.2562
  344MPD2     H 5160   0.093   2.476  11.086  0.5662 -0.3969  0.3742
  344MPD2    H1 5161   0.025   2.812  11.311 -2.3501  1.2985  0.3924
  344MPD2    H2 5162   4.537   2.471  11.423  0.3272 -0.1279  0.2002
  344MPD2    H3 5163   4.585   2.684  11.461  2.3224  2.4446 -0.0132
  344MPD2     N 5164   0.137   2.732  11.107 -0.1844  0.2660  0.3762
  344MPD2    H5 5165   0.137   2.832  11.125  0.2066  0.2847  0.2792
  344MPD2    N1 5166   4.656   2.308  11.222  0.0952  0.4592  0.3121
  344MPD2    H7 5167   4.708   2.261  11.148 -1.5911  1.7733 -1.6984
  345TMC3    C1 5168   0.283   2.806  10.930  0.7424 -0.5897  0.4133
  345TMC3    C2 5169   0.267   2.932  10.985  0.2478 -0.3536 -0.6173
  345TMC3    C3 5170   0.306   3.037  10.907  0.6503 -0.5631 -0.4381
  345TMC3    C4 5171   0.323   2.781  10.799  0.1254 -1.0726 -0.4884
  345TMC3    C5 5172   0.372   2.894  10.728 -0.0027  0.4014  0.2171
  345TMC3    C6 5173   0.364   3.017  10.788 -0.3345 -0.8049 -0.0942
  345TMC3     C 5174   0.211   2.695  10.993  0.0753  0.1686  0.2218
  345TMC3     O 5175   0.217   2.586  10.931 -0.0614 -0.1940 -0.3164
  345TMC3     H 5176   0.230   2.947  11.086 -0.9475  0.7376 -1.2107
  345TMC3    H1 5177   0.339   2.679  10.767  0.0183 -1.1249 -0.3755
  345TMC3    H2 5178   0.410   3.100  10.736  0.3575 -0.9339  0.3140
  345TMC3    C7 5179   0.393   2.887  10.584 -1.0024 -0.1058  0.6474
  345TMC3    C8 5180   0.296   3.168  10.960  0.0227 -0.2362  0.7330
  345TMC3    O1 5181   0.422   2.991  10.529  0.4975 -0.1173  0.2732
  345TMC3    O2 5182   0.262   3.190  11.074 -0.5159  0.0740  0.5334
  346MPD2     C 5183   4.096   3.573  13.957  0.0871  0.3435 -0.5173
  346MPD2    C1 5184   4.222   3.596  13.903  0.4795 -0.1597  1.0266
  346MPD2    C2 5185   4.316   3.647  13.985 -0.5364 -1.1862  0.4387
  346MPD2    C3 5186   4.288   3.665  14.117  0.4468 -0.5898  0.4465
  346MPD2    C4 5187   4.169   3.623  14.173 -0.4495 -0.2335 -0.1416
  346MPD2    C5 5188   4.071   3.579  14.093 -1.1533 -0.3029  0.4161
  346MPD2     H 5189   4.412   3.680  13.946 -2.0567  0.4093 -2.0238
  346MPD2    H1 5190   4.147   3.620  14.279 -1.1149 -1.0718 -0.3031
  346MPD2    H2 5191   4.016   3.541  13.892 -1.2763  1.6380  0.5238
  346MPD2    H3 5192   3.975   3.542  14.126 -1.0409 -2.0281 -1.1300
  346MPD2     N 5193   4.391   3.722  14.195  0.1017 -0.3417  0.8490
  346MPD2    H5 5194   4.481   3.740  14.150 -0.5060  2.3822  0.6999
  346MPD2    N1 5195   4.253   3.590  13.761 -0.1686  0.4203 -0.1004
  346MPD2    H7 5196   4.346   3.614  13.731 -0.1708 -1.1101 -1.3410
  347TMC3    C1 5197   4.505   3.769  14.391  0.2034  0.3888 -0.1563
  347TMC3    C2 5198   4.617   3.783  14.321 -0.1801 -0.1395  0.3477
  347TMC3    C3 5199   0.014   3.772  14.391 -0.1463 -0.0384 -0.2268
  347TMC3    C4 5200   4.509   3.752  14.530  0.4463 -0.5851  0.1802
  347TMC3    C5 5201   4.629   3.746  14.596  0.6551 -0.6091 -0.2470
  347TMC3    C6 5202   0.023   3.747  14.522  0.8243 -0.9091 -0.0653
  347TMC3     C 5203   4.382   3.738  14.332 -0.4063  1.0602 -0.4765
  347TMC3     O 5204   4.282   3.748  14.398 -0.2775 -0.1639  0.0277
  347TMC3     H 5205   4.629   3.819  14.220 -1.9286  1.3430  0.6591
  347TMC3    H1 5206   4.420   3.752  14.591  0.7541  1.7344  0.6291
  347TMC3    H2 5207   0.121   3.720  14.560  0.3695 -2.4464  0.0074
  347TMC3    C7 5208   4.633   3.732  14.741 -0.2961  0.5580 -0.1489
  347TMC3    C8 5209   0.126   3.765  14.302  0.0006  0.5810  0.0044
  347TMC3    O1 5210   4.525   3.713  14.795  0.3667 -0.0382  0.3794
  347TMC3    O2 5211   0.115   3.708  14.193 -0.7204 -0.5456  0.4056
  348MPD2     C 5212   2.766   3.228  11.905 -0.6700  0.0994  0.4932
  348MPD2    C1 5213   2.860   3.203  11.806  0.0390 -0.3310 -0.0948
  348MPD2    C2 5214   2.859   3.284  11.692 -0.4252  0.6387  0.1577
  348MPD2    C3 5215   2.797   3.406  11.700  0.0581  0.2374 -0.5453
  348MPD2    C4 5216   2.725   3.433  11.813 -0.6082  0.0536  0.1099
  348MPD2    C5 5217   2.697   3.342  11.907  0.3444  0.9934 -0.3772
  348MPD2     H 5218   2.916   3.262  11.603  1.3862  1.9873  0.9782
  348MPD2    H1 5219   2.680   3.531  11.823 -1.1071  0.1459 -3.2550
  348MPD2    H2 5220   2.772   3.164  11.992  0.1225 -0.2804  0.1582
  348MPD2    H3 5221   2.635   3.375  11.989 -0.8213 -0.6624 -0.6139
  348MPD2     N 5222   2.834   3.508  11.609  0.5746 -0.3206  0.0951
  348MPD2    H5 5223   2.883   3.477  11.526 -0.6011  1.2630 -1.1805
  348MPD2    N1 5224   2.967   3.108  11.820  0.3713  0.2006  0.1994
  348MPD2    H7 5225   3.027   3.089  11.740  0.1749 -1.4092  0.4499
  349TMC3    C1 5226   3.152   3.030  11.933  0.0346 -0.2842 -0.3732
  349TMC3    C2 5227   3.198   2.923  11.999 -0.6613 -1.0869 -0.1021
  349TMC3    C3 5228   3.328   2.910  11.989  0.8079  0.3661  0.3003
  349TMC3    C4 5229   3.226   3.135  11.885  0.1135 -0.4208  1.1482
  349TMC3    C5 5230   3.360   3.122  11.899 -0.0891  0.1032  1.0113
  349TMC3    C6 5231   3.416   3.004  11.936  1.3376  0.1116 -0.0377
  349TMC3     C 5232   3.005   3.049  11.936  0.2945  0.3038 -0.3107
  349TMC3     O 5233   2.958   3.059  12.051  0.8013 -0.6292  0.3024
  349TMC3     H 5234   3.130   2.845  12.031 -0.3766  0.1256  3.4511
  349TMC3    H1 5235   3.187   3.231  11.853  2.3957 -0.5912 -2.0547
  349TMC3    H2 5236   3.523   2.991  11.929  0.9592 -2.4352 -1.0980
  349TMC3    C7 5237   3.438   3.202  11.808 -0.7210 -0.0503  0.1835
  349TMC3    C8 5238   3.380   2.791  12.059  0.1879 -0.3465  0.9569
  349TMC3    O1 5239   3.524   3.143  11.741  0.9752 -0.1367 -0.5609
  349TMC3    O2 5240   3.297   2.745  12.139  0.1022 -0.1134  0.3498
  350MPD2     C 5241   3.042   1.232   9.098 -0.6428 -0.2689 -0.8284
  350MPD2    C1 5242   3.101   1.131   9.168  1.1655  0.0844  0.2282
  350MPD2    C2 5243   3.082   1.115   9.310  0.2253  0.5998 -0.2649
  350MPD2    C3 5244   3.002   1.209   9.379 -0.2018  0.0059 -0.1264
  350MPD2    C4 5245   2.949   1.316   9.304 -0.0650 -0.5939  0.6208
  350MPD2    C5 5246   2.975   1.325   9.173  0.1992 -0.4699 -0.0577
  350MPD2     H 5247   3.138   1.041   9.366  1.6535  1.6992 -0.2383
  350MPD2    H1 5248   2.894   1.400   9.343  0.6947  0.0319  0.3317
  350MPD2    H2 5249   3.054   1.224   8.991 -2.3642 -1.6357 -0.9197
  350MPD2    H3 5250   2.923   1.403   9.119 -0.7292 -1.0417  0.0062
  350MPD2     N 5251   2.975   1.190   9.514  0.1972 -0.1094  0.0039
  350MPD2    H5 5252   3.010   1.107   9.560 -2.2529 -2.0777 -1.6976
  350MPD2    N1 5253   3.195   1.043   9.106 -0.2538  0.5909  0.1982
  350MPD2    H7 5254   3.225   0.959   9.155  1.7531  1.6661  0.8606
  351TMC3    C1 5255   3.330   0.948   8.939  0.0098 -0.2936 -0.6079
  351TMC3    C2 5256   3.310   0.823   9.000  0.4851  0.2995  1.1815
  351TMC3    C3 5257   3.381   0.714   8.950  0.0949  0.3027  0.0957
  351TMC3    C4 5258   3.407   0.952   8.823  0.6563 -0.3821  0.2291
  351TMC3    C5 5259   3.463   0.849   8.770 -0.2093  1.0142 -0.1572
  351TMC3    C6 5260   3.464   0.726   8.837 -0.5276  0.3667  0.0819
  351TMC3     C 5261   3.249   1.060   8.980  0.2589 -1.0869 -0.4738
  351TMC3     O 5262   3.232   1.151   8.902  0.5145 -0.2670 -0.8909
  351TMC3     H 5263   3.224   0.802   9.062 -0.2246  2.9998  1.1397
  351TMC3    H1 5264   3.422   1.047   8.772  1.5001 -0.2781  0.6867
  351TMC3    H2 5265   3.516   0.637   8.806  0.5578  1.9435 -2.5977
  351TMC3    C7 5266   3.549   0.863   8.655  0.8880  0.2353 -0.0397
  351TMC3    C8 5267   3.410   0.599   9.032  0.1676  0.2579  0.5127
  351TMC3    O1 5268   3.639   0.777   8.641  0.2693  0.0272 -0.0815
  351TMC3    O2 5269   3.504   0.523   9.004 -0.0791  0.1033 -0.3453
  352MPD2     C 5270   1.097   3.274   1.474  0.0950  0.7527 -0.3985
  352MPD2    C1 5271   1.015   3.169   1.431 -0.3166  0.1073  0.0407
  352MPD2    C2 5272   1.029   3.048   1.486 -0.7604  0.1505 -0.1000
  352MPD2    C3 5273   1.138   3.007   1.557 -0.2399  0.3158 -0.6036
  352MPD2    C4 5274   1.216   3.106   1.601 -0.5246 -0.0905 -0.4483
  352MPD2    C5 5275   1.195   3.240   1.565  0.1955  0.3806  0.1359
  352MPD2     H 5276   0.946   2.981   1.465 -0.8507  0.2933 -0.1987
  352MPD2    H1 5277   1.295   3.077   1.669 -2.1325  1.8663  2.2195
  352MPD2    H2 5278   1.086   3.380   1.453 -1.2381  0.8108  0.6412
  352MPD2    H3 5279   1.257   3.314   1.616  1.3311  0.5426 -1.4545
  352MPD2     N 5280   1.150   2.878   1.603  0.1837 -0.2156 -0.7193
  352MPD2    H5 5281   1.208   2.872   1.686  0.4771 -0.9809 -0.9816
  352MPD2    N1 5282   0.895   3.189   1.357 -0.3415  0.0567  0.1892
  352MPD2    H7 5283   0.819   3.123   1.364  0.2926 -0.5791  1.0526
  353TMC3    C1 5284   1.103   2.644   1.634  0.4637 -0.3388 -0.9130
  353TMC3    C2 5285   1.226   2.637   1.698 -0.2212 -0.3135  0.2055
  353TMC3    C3 5286   1.303   2.527   1.683 -0.7315  0.4093 -0.3577
  353TMC3    C4 5287   1.070   2.542   1.542 -0.1464  0.3401 -0.4842
  353TMC3    C5 5288   1.158   2.441   1.523 -0.5344 -0.0719  0.0525
  353TMC3    C6 5289   1.272   2.431   1.591 -0.4458  0.0768 -0.1085
  353TMC3     C 5290   1.070   2.770   1.566 -0.4670 -0.0576 -0.3932
  353TMC3     O 5291   0.980   2.767   1.484 -0.1199  0.0890  0.7807
  353TMC3     H 5292   1.255   2.712   1.771  0.2592 -0.6884  0.4035
  353TMC3    H1 5293   0.976   2.535   1.489 -1.1367 -1.0239  1.4584
  353TMC3    H2 5294   1.312   2.331   1.599 -2.1276 -0.5043  0.9789
  353TMC3    C7 5295   1.178   2.394   1.383  0.4465  0.0370 -0.4900
  353TMC3    C8 5296   1.409   2.508   1.775  1.0652  0.2859 -0.0109
  353TMC3    O1 5297   1.257   2.299   1.366 -0.2303  0.2136  0.9077
  353TMC3    O2 5298   1.392   2.554   1.887 -0.1302  0.6295  0.2198
  354TMC3    C1 5299   2.252   4.236  12.966  0.0430  0.1743 -0.0131
  354TMC3    C2 5300   2.226   4.345  12.881 -0.6653  0.0526  0.6968
  354TMC3    C3 5301   2.296   4.342  12.764 -0.9690 -0.1327 -1.0913
  354TMC3    C4 5302   2.325   4.125  12.925 -0.3420 -0.4034  0.6191
  354TMC3    C5 5303   2.389   4.128  12.803  0.3254 -0.4583  0.2161
  354TMC3    C6 5304   2.375   4.234  12.714  0.0999 -0.3542  0.0542
  354TMC3     C 5305   2.188   4.236  13.092  0.1541 -0.0165  0.3265
  354TMC3     O 5306   2.091   4.311  13.111 -0.1284  0.0090 -0.2462
  354TMC3     H 5307   2.158   4.424  12.909 -0.2264  0.7532 -0.2128
  354TMC3    H1 5308   2.360   4.052  12.997 -3.5607 -0.7229  1.8720
  354TMC3    H2 5309   2.416   4.244  12.614  0.9781 -2.1441  0.2448
  354TMC3    C7 5310   2.520   4.057  12.787 -0.4899  0.1930 -1.1135
  354TMC3    C8 5311   2.336   4.468  12.705  0.0538 -0.5167 -0.1988
  354TMC3    O1 5312   2.541   3.950  12.843 -0.5691 -0.3432  0.0970
  354TMC3    O2 5313   2.397   4.461  12.601  0.3436 -0.0247  0.0451
  355MPD2     C 5314   2.835   0.491  11.304 -0.3587  0.3691 -0.7847
  355MPD2    C1 5315   2.912   0.609  11.293  0.3846  0.1281 -0.0617
  355MPD2    C2 5316   3.021   0.630  11.377  0.1526 -0.2022  0.7504
  355MPD2    C3 5317   3.066   0.533  11.464 -0.1484 -0.3807 -0.2373
  355MPD2    C4 5318   2.992   0.421  11.484 -0.6621 -0.3210  0.9800
  355MPD2    C5 5319   2.877   0.400  11.407 -0.0716  0.3925 -0.0374
  355MPD2     H 5320   3.080   0.720  11.367 -0.6557 -0.3632 -5.1094
  355MPD2    H1 5321   3.017   0.346  11.559  0.5050 -0.5598  0.3431
  355MPD2    H2 5322   2.740   0.481  11.253 -1.3883 -0.5337  1.2967
  355MPD2    H3 5323   2.818   0.311  11.423 -0.9784  0.9949 -0.0486
  355MPD2     N 5324   3.183   0.550  11.547  0.1837  0.0697  0.1933
  355MPD2    H5 5325   3.188   0.473  11.613 -0.5285 -1.2397 -1.2772
  355MPD2    N1 5326   2.873   0.707  11.199  0.0024  0.0095 -0.3779
  355MPD2    H7 5327   2.806   0.689  11.126 -0.9594 -2.0179  1.0087
  356TMC3    C1 5328   3.395   0.619  11.605  0.5023  1.0367  0.6246
  356TMC3    C2 5329   3.500   0.662  11.534 -0.2267 -0.0465  0.2576
  356TMC3    C3 5330   3.592   0.747  11.595  0.7398  0.8821 -0.1185
  356TMC3    C4 5331   3.387   0.627  11.750 -0.7237 -0.2629  0.4641
  356TMC3    C5 5332   3.487   0.700  11.805  0.5274  0.1819 -0.8590
  356TMC3    C6 5333   3.579   0.772  11.728  0.5156  0.0683 -0.1669
  356TMC3     C 5334   3.275   0.650  11.538 -1.3927  0.3646 -0.6777
  356TMC3     O 5335   3.286   0.747  11.466 -0.3415 -0.2960  0.0869
  356TMC3     H 5336   3.494   0.675  11.427  2.8248 -0.0371  0.1081
  356TMC3    H1 5337   3.303   0.599  11.813 -0.3762  0.6917  1.3661
  356TMC3    H2 5338   3.654   0.837  11.772  0.8768 -0.5199  0.0901
  356TMC3    C7 5339   3.473   0.753  11.938  1.1190 -0.3940 -0.5767
  356TMC3    C8 5340   3.687   0.819  11.513 -0.3013 -0.2552 -0.6448
  356TMC3    O1 5341   3.446   0.675  12.028 -0.1166  0.2541  0.0205
  356TMC3    O2 5342   3.710   0.767  11.408  0.1623  0.4936  0.3905
  357MPD2     C 5343   2.517   4.511   1.339  0.9315  0.0841 -0.0671
  357MPD2    C1 5344   2.635   4.557   1.395  0.0012 -0.1356  0.2516
  357MPD2    C2 5345   2.636   4.613   1.520 -0.0993  0.4350 -1.3891
  357MPD2    C3 5346   2.528   4.600   1.603 -0.9065  0.0992  0.2403
  357MPD2    C4 5347   2.411   4.551   1.556  1.0106  0.7129  0.2226
  357MPD2    C5 5348   2.405   4.527   1.420 -0.1334  0.1795 -0.1085
  357MPD2     H 5349   2.731   4.646   1.560 -0.2022  0.0697 -0.8529
  357MPD2    H1 5350   2.322   4.553   1.617  2.0020 -0.3532  1.7078
  357MPD2    H2 5351   2.505   4.469   1.240  1.0908  0.7337 -0.3576
  357MPD2    H3 5352   2.308   4.495   1.385  1.2181 -0.6303 -3.0795
  357MPD2     N 5353   2.515   4.646   1.736  0.5317 -0.1206  0.4196
  357MPD2    H5 5354   2.422   4.633   1.776  0.6557 -1.3758  0.3017
  357MPD2    N1 5355   2.746   4.539   1.312 -0.0463  0.6523 -0.6647
  357MPD2    H7 5356   2.733   4.495   1.221  1.2957 -0.5917 -0.2543
  358TMC3    C1 5357   2.978   4.525   1.263  0.9876  0.5216 -0.0012
  358TMC3    C2 5358   2.947   4.482   1.137  0.0596 -0.6290 -0.0846
  358TMC3    C3 5359   3.022   4.525   1.036 -0.0134 -0.1440  0.9451
  358TMC3    C4 5360   3.085   4.607   1.288 -0.0917  0.1696  0.5663
  358TMC3    C5 5361   3.161   4.645   1.179  0.2238  0.7821 -0.1751
  358TMC3    C6 5362   3.127   4.608   1.049 -0.2380 -0.2578 -0.0773
  358TMC3     C 5363   2.872   4.543   1.365  0.2541  0.0574  0.0907
  358TMC3     O 5364   2.905   4.555   1.484  0.2902 -0.3230 -0.0699
  358TMC3     H 5365   2.861   4.416   1.126  0.2303 -1.2115  1.9970
  358TMC3    H1 5366   3.115   4.632   1.390  2.5473  0.3827 -0.2496
  358TMC3    H2 5367   3.175   4.649   0.961 -0.1565 -0.3668 -0.0836
  358TMC3    C7 5368   3.290   4.704   1.190  0.8798  0.5901  0.3248
  358TMC3    C8 5369   3.019   4.449   0.909  0.0753  0.5923  0.1767
  358TMC3    O1 5370   3.341   0.020   1.086 -0.0855 -0.5525  0.1938
  358TMC3    O2 5371   3.077   4.502   0.813 -0.0601 -0.1368 -0.3070
  359MPD2     C 5372   2.989   3.884  12.337 -0.6311 -0.4107 -0.5825
  359MPD2    C1 5373   2.898   3.850  12.244 -0.5822  0.3691  0.0224
  359MPD2    C2 5374   2.818   3.736  12.271  0.0926  0.7490  0.2312
  359MPD2    C3 5375   2.833   3.672  12.396 -0.2096 -0.6377  0.1078
  359MPD2    C4 5376   2.927   3.707  12.480 -0.1748  0.4400 -0.4288
  359MPD2    C5 5377   3.012   3.808  12.447  0.2977 -0.1404 -0.3269
  359MPD2     H 5378   2.746   3.694  12.202 -0.0904  0.6428  0.4900
  359MPD2    H1 5379   2.942   3.656  12.574  3.5377 -1.0034 -1.8177
  359MPD2    H2 5380   3.041   3.979  12.335 -0.8514 -0.2552  1.0650
  359MPD2    H3 5381   3.082   3.832  12.527  1.9470 -1.3586 -1.3975
  359MPD2     N 5382   2.756   3.560  12.449  0.2115 -0.2013 -0.4446
  359MPD2    H5 5383   2.776   3.519  12.539 -0.4795  1.1906  0.3404
  359MPD2    N1 5384   2.885   3.926  12.122 -1.0813 -0.4240 -0.4815
  359MPD2    H7 5385   2.961   3.992  12.108  0.4022 -1.7847  1.1899
  360TMC3    C1 5386   2.800   3.982  11.904  0.4285  0.1696  0.1476
  360TMC3    C2 5387   2.856   4.105  11.919 -0.5373  1.0558  0.3010
  360TMC3    C3 5388   2.848   4.191  11.812 -0.2720  0.3592 -0.2139
  360TMC3    C4 5389   2.730   3.952  11.782  0.0004  0.2547 -0.7459
  360TMC3    C5 5390   2.726   4.042  11.681  0.0440  0.1940 -0.5185
  360TMC3    C6 5391   2.776   4.167  11.700 -0.1526  0.4592 -0.9585
  360TMC3     C 5392   2.793   3.891  12.020 -0.4444  0.5887  0.2809
  360TMC3     O 5393   2.715   3.797  12.021 -0.0867 -0.2295  0.1744
  360TMC3     H 5394   2.916   4.144  12.000 -1.2191 -0.7707  1.6830
  360TMC3    H1 5395   2.691   3.851  11.778 -0.3702  0.4264 -1.3552
  360TMC3    H2 5396   2.789   4.239  11.619 -0.9337  1.3282 -0.3034
  360TMC3    C7 5397   2.712   4.005  11.541 -0.2622 -0.1443 -0.2861
  360TMC3    C8 5398   2.956   4.288  11.800  0.5746 -0.2899 -0.1666
  360TMC3    O1 5399   2.764   4.083  11.461  0.2164  0.4301  0.0843
  360TMC3    O2 5400   2.940   4.386  11.732  0.0662  0.0484 -0.2882
  361MPD2     C 5401   4.158   2.066  17.069  0.1376 -0.5819 -0.1004
  361MPD2    C1 5402   4.215   2.193  17.083 -0.2393  0.7406  0.3817
  361MPD2    C2 5403   4.355   2.202  17.066  0.0328 -0.1530  0.1774
  361MPD2    C3 5404   4.430   2.093  17.058 -0.0562  0.8263  0.0535
  361MPD2    C4 5405   4.376   1.971  17.043  0.1741  0.3541  0.1375
  361MPD2    C5 5406   4.237   1.961  17.046  0.2215  0.5052  0.5064
  361MPD2     H 5407   4.400   2.301  17.067 -1.9570  0.7721  0.3787
  361MPD2    H1 5408   4.439   1.884  17.027 -0.5834 -0.0285 -0.7874
  361MPD2    H2 5409   4.054   2.039  17.086  0.0597 -0.0988  0.2063
  361MPD2    H3 5410   4.190   1.863  17.043  3.1271 -0.8786  0.6031
  361MPD2     N 5411   4.573   2.096  17.049 -0.1267  0.3536 -0.1553
  361MPD2    H5 5412   4.621   2.015  17.010  1.6083  0.0936  2.5641
  361MPD2    N1 5413   4.135   2.310  17.104 -0.4691 -0.6383  0.0937
  361MPD2    H7 5414   4.177   2.402  17.114  1.1190 -1.4629  1.0112
  362TMC3    C1 5415   3.942   2.431  17.163 -0.2242 -0.4516 -0.3935
  362TMC3    C2 5416   3.838   2.444  17.254  0.8287  0.5384 -0.4585
  362TMC3    C3 5417   3.767   2.557  17.256 -0.3434  0.5120  0.5192
  362TMC3    C4 5418   3.972   2.533  17.074  0.1113 -0.4116  0.6320
  362TMC3    C5 5419   3.894   2.645  17.085  0.4062  0.2670 -0.1719
  362TMC3    C6 5420   3.788   2.654  17.166 -0.3176  0.5836 -0.4427
  362TMC3     C 5421   4.004   2.304  17.147  0.1745 -0.2371 -0.2313
  362TMC3     O 5422   3.947   2.212  17.206 -0.1333  0.6446  0.1059
  362TMC3     H 5423   3.813   2.363  17.321 -3.2075  3.7074  1.8594
  362TMC3    H1 5424   4.051   2.530  17.000  0.0160 -1.7525  0.5744
  362TMC3    H2 5425   3.714   2.732  17.148 -1.3453  0.1055  1.6717
  362TMC3    C7 5426   3.865   2.703  16.952  0.0284 -0.3434 -0.2628
  362TMC3    C8 5427   3.647   2.559  17.345  0.8066 -0.5969 -1.1034
  362TMC3    O1 5428   3.924   2.801  16.917  0.1590  0.8052  0.1895
  362TMC3    O2 5429   3.600   2.451  17.373 -0.0267  0.3284  0.5548
  363TMC3    C1 5430   3.806   0.809   8.952 -0.4853  0.1891  0.4772
  363TMC3    C2 5431   3.786   0.715   9.059  0.4371  0.2501 -0.2141
  363TMC3    C3 5432   3.714   0.757   9.167 -0.0073  0.2729 -0.1836
  363TMC3    C4 5433   3.761   0.943   8.973 -0.5968  0.0025  0.4208
  363TMC3    C5 5434   3.695   0.977   9.091  0.0755 -0.0397 -0.3057
  363TMC3    C6 5435   3.667   0.884   9.187 -0.7548 -0.1724  0.5709
  363TMC3     C 5436   3.896   0.771   8.844 -0.3577  0.1499 -0.5848
  363TMC3     O 5437   3.951   0.664   8.857 -0.1767  0.4881  0.2595
  363TMC3     H 5438   3.808   0.611   9.037 -1.0705  0.2602 -1.7621
  363TMC3    H1 5439   3.785   1.019   8.899  0.9408  0.8398  1.7762
  363TMC3    H2 5440   3.606   0.904   9.275 -1.1991 -1.5407  0.5838
  363TMC3    C7 5441   3.615   1.098   9.095  0.0157  0.1473 -0.8480
  363TMC3    C8 5442   3.690   0.661   9.277 -0.1938  0.8678 -0.6221
  363TMC3    O1 5443   3.608   1.162   8.990  0.8044  0.1977  0.4346
  363TMC3    O2 5444   3.595   0.694   9.351  0.5931  0.1979  0.3003
  364MPD2     C 5445   2.108   0.171  10.124  0.2995  0.6219 -0.0337
  364MPD2    C1 5446   2.225   0.149  10.060 -0.3720  0.6052  0.1977
  364MPD2    C2 5447   2.265   0.020  10.016  0.2009 -0.0530 -0.4234
  364MPD2    C3 5448   2.184   4.626  10.044 -0.6115  0.0269 -0.0596
  364MPD2    C4 5449   2.067   4.653  10.114 -0.2699  0.0365 -0.3372
  364MPD2    C5 5450   2.035   0.061  10.146  1.1373  0.8744 -0.4272
  364MPD2     H 5451   2.355   0.016   9.955  0.1141 -0.6359 -0.5082
  364MPD2    H1 5452   1.990   4.580  10.136 -0.6857  0.9331  1.2306
  364MPD2    H2 5453   2.071   0.266  10.159 -0.0939 -0.0898  1.5168
  364MPD2    H3 5454   1.939   0.084  10.190  1.1252  0.7744 -0.4022
  364MPD2     N 5455   2.217   4.493  10.020  0.4996  0.1875  0.5017
  364MPD2    H5 5456   2.154   4.420  10.050  0.3937 -0.1112 -0.4465
  364MPD2    N1 5457   2.301   0.265  10.035 -0.0268  0.1577  0.8469
  364MPD2    H7 5458   2.258   0.350  10.069 -1.0497  0.3625 -0.9486
  365TMC3    C1 5459   2.443   0.400   9.920  0.2356  0.1777 -0.0308
  365TMC3    C2 5460   2.469   0.420   9.790 -0.4429  0.2627  0.1927
  365TMC3    C3 5461   2.520   0.550   9.761 -0.4934  0.4252  0.0006
  365TMC3    C4 5462   2.432   0.499  10.014  0.3270  0.1735  0.0063
  365TMC3    C5 5463   2.470   0.626   9.979  0.2001 -0.3755  0.1622
  365TMC3    C6 5464   2.521   0.654   9.856  0.4831  0.1546  0.8013
  365TMC3     C 5465   2.413   0.268   9.957 -0.0002  0.5138 -0.5641
  365TMC3     O 5466   2.476   0.178   9.903 -0.0706 -0.1130 -0.2342
  365TMC3     H 5467   2.470   0.330   9.730 -1.5659  0.7261 -0.5248
  365TMC3    H1 5468   2.416   0.482  10.120  3.3020 -3.4455 -0.1430
  365TMC3    H2 5469   2.551   0.753   9.823  1.3851  0.3068  2.0802
  365TMC3    C7 5470   2.447   0.742  10.063 -0.1938  0.1769 -0.3660
  365TMC3    C8 5471   2.516   0.598   9.626 -0.5567  0.8167  0.7750
  365TMC3    O1 5472   2.499   0.847  10.030 -0.0896 -0.4191  0.5132
  365TMC3    O2 5473   2.483   0.713   9.604 -0.1197  0.7715 -0.2596
  366MPD2     C 5474   4.545   0.681  15.368  0.2718 -0.4177 -0.2358
  366MPD2    C1 5475   4.650   0.771  15.352  0.6319 -0.4334 -0.3484
  366MPD2    C2 5476   0.047   0.721  15.301 -0.6834 -0.1127  0.4293
  366MPD2    C3 5477   0.063   0.594  15.253 -0.3928 -0.6355 -0.7860
  366MPD2    C4 5478   4.676   0.507  15.256  0.2996  0.1821 -0.4229
  366MPD2    C5 5479   4.562   0.556  15.319 -0.1092 -0.8809 -0.2281
  366MPD2     H 5480   0.134   0.785  15.291  1.0035 -2.4529 -0.0180
  366MPD2    H1 5481   4.680   0.403  15.228 -4.3595 -1.0617  3.6064
  366MPD2    H2 5482   4.448   0.711  15.407  0.7928 -0.6489  1.2173
  366MPD2    H3 5483   4.480   0.485  15.325 -0.5842 -0.5193 -2.5630
  366MPD2     N 5484   0.185   0.559  15.184 -0.0489  0.1150 -0.2262
  366MPD2    H5 5485   0.253   0.630  15.160 -1.6450  2.1152  1.2417
  366MPD2    N1 5486   4.649   0.909  15.378  0.2795  0.0096 -0.5071
  366MPD2    H7 5487   0.020   0.953  15.386 -0.1369  0.4520  1.7777
  367TMC3    C1 5488   4.547   1.118  15.402 -0.4712  0.1766 -0.1114
  367TMC3    C2 5489   4.657   1.162  15.456 -0.1759 -1.0132 -0.3292
  367TMC3    C3 5490   4.677   1.297  15.462  0.2207  0.0411  0.5388
  367TMC3    C4 5491   4.455   1.202  15.346 -0.4637  0.4031 -0.3499
  367TMC3    C5 5492   4.482   1.334  15.348  0.1053 -0.5293 -0.6815
  367TMC3    C6 5493   4.596   1.383  15.405 -0.4656  0.1992  0.3761
  367TMC3     C 5494   4.529   0.976  15.386  0.3618  0.3242 -0.1816
  367TMC3     O 5495   4.416   0.932  15.359  0.2527  0.2628  0.2124
  367TMC3     H 5496   0.012   1.095  15.499  0.6645  0.8652  1.1143
  367TMC3    H1 5497   4.359   1.165  15.313 -2.0274  3.0775  1.2318
  367TMC3    H2 5498   4.625   1.486  15.389 -2.4939  0.6459 -0.5575
  367TMC3    C7 5499   4.394   1.429  15.283 -0.6442 -0.2830 -0.3965
  367TMC3    C8 5500   0.063   1.340  15.552  0.1214 -0.3716  0.0173
  367TMC3    O1 5501   4.401   1.551  15.303  0.2998 -0.2162 -0.0017
  367TMC3    O2 5502   0.067   1.288  15.661  0.3437  0.3720 -0.0281
  368MPD2     C 5503   1.227   2.859  13.103  0.4329 -0.2512 -0.1170
  368MPD2    C1 5504   1.172   2.962  13.022  0.3322  0.4052  0.4756
  368MPD2    C2 5505   1.260   3.061  12.975 -0.4130  0.7099  0.0005
  368MPD2    C3 5506   1.389   3.058  13.008  0.2011  0.6788 -0.7168
  368MPD2    C4 5507   1.442   2.955  13.091 -0.4903  0.5007  0.6010
  368MPD2    C5 5508   1.360   2.856  13.134  0.2493  0.6389 -0.6669
  368MPD2     H 5509   1.224   3.147  12.920 -2.1485 -1.2869 -1.9948
  368MPD2    H1 5510   1.544   2.954  13.128  0.2714  1.2142 -1.4393
  368MPD2    H2 5511   1.169   2.774  13.136  0.4336  0.5506  1.9570
  368MPD2    H3 5512   1.392   2.770  13.191 -1.5176 -0.3752 -1.2117
  368MPD2     N 5513   1.486   3.145  12.950 -0.4634  0.1197  0.4943
  368MPD2    H5 5514   1.581   3.128  12.980  0.2384  1.9704 -0.7174
  368MPD2    N1 5515   1.031   2.975  12.999  0.4599 -0.4896 -0.1271
  368MPD2    H7 5516   0.970   2.905  13.041  0.3701  0.0887  0.6983
  369TMC3    C1 5517   0.834   3.037  12.883 -0.4900 -0.5173 -0.1457
  369TMC3    C2 5518   0.775   3.109  12.781 -0.3720 -0.0842  0.1002
  369TMC3    C3 5519   0.644   3.078  12.763 -0.0659  0.1931 -0.7649
  369TMC3    C4 5520   0.765   2.945  12.962  0.0016  0.2701 -0.1148
  369TMC3    C5 5521   0.635   2.913  12.930 -0.4294  0.3755  0.2104
  369TMC3    C6 5522   0.572   2.983  12.832 -0.5789  0.2162 -0.3759
  369TMC3     C 5523   0.972   3.057  12.903  0.5432 -1.1385  0.2136
  369TMC3     O 5524   1.023   3.150  12.842  0.0341  0.3809 -0.0668
  369TMC3     H 5525   0.825   3.175  12.711  1.3819 -0.7590  0.7242
  369TMC3    H1 5526   0.804   2.893  13.049  0.6669 -2.3261 -1.9576
  369TMC3    H2 5527   0.471   2.952  12.807 -0.1705 -1.2489 -0.2192
  369TMC3    C7 5528   0.562   2.821  13.011 -0.0155  0.1599  0.2086
  369TMC3    C8 5529   0.580   3.165  12.663  0.0463 -0.2215  0.5754
  369TMC3    O1 5530   0.627   2.752  13.094 -0.8219 -0.0144 -0.3899
  369TMC3    O2 5531   0.650   3.257  12.616  0.2314 -0.4406  0.0802
  370TMC3    C1 5532   0.468   3.241  15.890 -0.9193  0.3973 -0.5722
  370TMC3    C2 5533   0.377   3.165  15.972 -0.1174 -0.4609  0.2614
  370TMC3    C3 5534   0.391   3.030  15.976 -0.3349  0.1753 -0.3612
  370TMC3    C4 5535   0.562   3.178  15.818  0.3911  0.1468  0.2100
  370TMC3    C5 5536   0.578   3.049  15.824 -0.4947  0.5286 -0.0101
  370TMC3    C6 5537   0.495   2.970  15.907 -0.4208  0.8212  0.4798
  370TMC3     C 5538   0.506   3.355  15.967  0.0474 -0.7381  0.2717
  370TMC3     O 5539   0.486   3.365  16.089 -0.0397  0.3151  0.1787
  370TMC3     H 5540   0.309   3.220  16.035  1.0242  2.4087 -0.9933
  370TMC3    H1 5541   0.637   3.233  15.764  0.7699  0.4193  1.0086
  370TMC3    H2 5542   0.509   2.863  15.915 -0.3341  0.6383 -2.1838
  370TMC3    C7 5543   0.659   2.995  15.720 -0.3055  0.2852 -0.1591
  370TMC3    C8 5544   0.379   2.978  16.115  0.2121  0.3841 -0.0502
  370TMC3    O1 5545   0.683   3.065  15.621  0.4995 -0.1501  1.0311
  370TMC3    O2 5546   0.470   2.906  16.157 -0.0606 -1.0636  0.1677
  371TMC3    C1 5547   2.014   1.347  15.508  0.2303 -0.0164  0.1832
  371TMC3    C2 5548   1.904   1.368  15.582 -0.7275  0.5467 -0.1071
  371TMC3    C3 5549   1.834   1.485  15.564  1.0879 -0.2363  0.2062
  371TMC3    C4 5550   2.060   1.443  15.417  0.1977 -0.3358 -0.1618
  371TMC3    C5 5551   1.981   1.551  15.395  0.4228  0.2276 -0.1665
  371TMC3    C6 5552   1.873   1.579  15.467 -0.8572  0.3260  0.0227
  371TMC3     C 5553   2.090   1.224  15.518 -0.6162 -0.5822 -0.2232
  371TMC3     O 5554   2.201   1.232  15.466  0.2459 -0.4544  0.1858
  371TMC3     H 5555   1.877   1.305  15.667  2.0100  1.5389  1.5053
  371TMC3    H1 5556   2.158   1.430  15.374 -0.2500 -1.8965 -0.7383
  371TMC3    H2 5557   1.810   1.663  15.441 -0.6875  0.5464  0.3253
  371TMC3    C7 5558   2.042   1.642  15.300  0.0425  1.0106  0.4082
  371TMC3    C8 5559   1.723   1.508  15.652 -0.0993  0.4460  0.1246
  371TMC3    O1 5560   2.021   1.760  15.317  0.2124  0.1955 -0.2319
  371TMC3    O2 5561   1.673   1.415  15.711  0.2751 -0.4341 -0.7583
  372MPD2     C 5562   1.163   3.225  13.410 -0.2489  0.0666  0.0571
  372MPD2    C1 5563   1.283   3.165  13.442  0.8158 -0.0002  0.0890
  372MPD2    C2 5564   1.289   3.035  13.485  0.1065 -0.2537  0.2133
  372MPD2    C3 5565   1.172   2.960  13.484 -0.0938  0.1964  0.1766
  372MPD2    C4 5566   1.055   3.024  13.470 -0.0734 -0.0034 -0.1972
  372MPD2    C5 5567   1.050   3.154  13.424  0.0369  0.1842 -0.1689
  372MPD2     H 5568   1.385   2.994  13.515 -0.1052 -0.1333  1.0791
  372MPD2    H1 5569   0.959   2.974  13.474 -0.2620  0.3328 -0.4706
  372MPD2    H2 5570   1.152   3.333  13.397  1.7682  0.2049 -0.5881
  372MPD2    H3 5571   0.958   3.201  13.392 -0.0897 -1.9650 -2.9303
  372MPD2     N 5572   1.180   2.821  13.508 -0.5929 -0.7149  0.4440
  372MPD2    H5 5573   1.092   2.772  13.510  0.3440 -2.2805  2.4980
  372MPD2    N1 5574   1.409   3.229  13.431  0.4775 -0.1427 -0.2151
  372MPD2    H7 5575   1.487   3.173  13.463 -0.7309 -1.6150  0.1670
  373TMC3    C1 5576   1.261   2.600  13.513 -0.5802 -0.3838  0.4670
  373TMC3    C2 5577   1.190   2.564  13.625  0.2075  0.1094 -0.2603
  373TMC3    C3 5578   1.200   2.432  13.668 -0.0114 -0.0439  0.6712
  373TMC3    C4 5579   1.349   2.514  13.458  0.3725  0.3206  0.9724
  373TMC3    C5 5580   1.369   2.386  13.512 -0.0376  0.0188 -0.2585
  373TMC3    C6 5581   1.282   2.345  13.611 -0.6773 -0.0096  0.0527
  373TMC3     C 5582   1.297   2.742  13.492 -0.2505  0.0792  0.0336
  373TMC3     O 5583   1.409   2.761  13.444  0.4561  0.6782 -0.7671
  373TMC3     H 5584   1.131   2.637  13.678 -0.3738  1.2067 -2.4027
  373TMC3    H1 5585   1.413   2.543  13.375 -1.5329  0.7240 -0.3372
  373TMC3    H2 5586   1.303   2.261  13.677 -1.1256 -0.4742 -0.3971
  373TMC3    C7 5587   1.496   2.330  13.488  1.2615 -0.6718  0.0578
  373TMC3    C8 5588   1.157   2.406  13.806  0.1395  0.1496 -0.1306
  373TMC3    O1 5589   1.568   2.376  13.402  0.0068 -0.4158  0.5610
  373TMC3    O2 5590   1.146   2.293  13.851  0.3532 -0.4256  0.2083
  374TMC3    C1 5591   2.897   2.975   9.274  0.1768  0.8033  0.6019
  374TMC3    C2 5592   3.009   3.028   9.332 -0.2581 -0.4518 -0.1845
  374TMC3    C3 5593   2.994   3.100   9.448 -0.5341  0.0623  0.4677
  374TMC3    C4 5594   2.770   3.011   9.319  0.0063 -0.5800  0.0045
  374TMC3    C5 5595   2.758   3.089   9.435 -0.1450  0.1428  0.0829
  374TMC3    C6 5596   2.869   3.144   9.490  0.5727  0.6809  0.2236
  374TMC3     C 5597   2.901   2.950   9.139 -0.7095  0.3272 -0.0709
  374TMC3     O 5598   2.811   2.998   9.068 -0.0268  0.0868  0.4811
  374TMC3     H 5599   3.113   3.017   9.302 -0.3069  2.4083 -1.3576
  374TMC3    H1 5600   2.683   2.960   9.280 -1.0665  1.6663 -0.5200
  374TMC3    H2 5601   2.861   3.194   9.586 -2.9383  0.1716  0.1672
  374TMC3    C7 5602   2.646   3.075   9.524  0.1083  0.4519 -0.1292
  374TMC3    C8 5603   3.119   3.141   9.518  0.3975 -0.6056 -0.7572
  374TMC3    O1 5604   2.675   3.086   9.641  0.2277 -0.3025  0.3520
  374TMC3    O2 5605   3.230   3.096   9.481  0.1063 -0.3073 -0.3767
  375MPD2     C 5606   2.170   3.935  16.800 -0.1455 -0.5030 -0.6822
  375MPD2    C1 5607   2.055   3.856  16.779 -0.6793  0.0409  0.0969
  375MPD2    C2 5608   2.064   3.757  16.682  0.1230 -0.2785  0.2640
  375MPD2    C3 5609   2.175   3.744  16.597 -0.3238 -0.5210 -0.0504
  375MPD2    C4 5610   2.280   3.828  16.622 -0.1828 -0.1085 -0.1263
  375MPD2    C5 5611   2.275   3.919  16.717 -0.0461 -0.0267 -0.2513
  375MPD2     H 5612   1.975   3.698  16.666 -0.7360  1.2767 -0.7087
  375MPD2    H1 5613   2.370   3.820  16.562  1.9075  0.6186  2.9043
  375MPD2    H2 5614   2.165   4.027  16.857  0.6117 -0.3662 -0.8447
  375MPD2    H3 5615   2.357   3.989  16.709 -1.0807  1.2323  0.3025
  375MPD2     N 5616   2.211   3.638  16.507 -0.2620  0.0393  0.0870
  375MPD2    H5 5617   2.308   3.620  16.483 -0.3615  2.2457 -2.0119
  375MPD2    N1 5618   1.925   3.877  16.835 -0.1305 -0.1215 -0.2846
  375MPD2    H7 5619   1.853   3.830  16.782  1.1382 -2.1939 -0.1631
  376TMC3    C1 5620   2.147   3.443  16.394 -0.1240  1.0353  0.3396
  376TMC3    C2 5621   2.278   3.396  16.404 -0.3683  0.2886  0.2484
  376TMC3    C3 5622   2.317   3.295  16.327 -0.6576 -0.1913  0.6930
  376TMC3    C4 5623   2.058   3.387  16.312  0.3572 -0.7189  1.0627
  376TMC3    C5 5624   2.108   3.290  16.229 -0.2824 -0.4876 -0.3147
  376TMC3    C6 5625   2.237   3.239  16.241  0.2290  0.8684 -0.9172
  376TMC3     C 5626   2.108   3.557  16.470 -0.6533  0.1707  0.6603
  376TMC3     O 5627   1.986   3.569  16.480 -0.1109  0.1409  0.2121
  376TMC3     H 5628   2.335   3.430  16.489  1.0545  1.1250 -1.0525
  376TMC3    H1 5629   1.956   3.424  16.302  0.3210 -0.8078  1.0964
  376TMC3    H2 5630   2.265   3.146  16.193 -1.1491  0.1168 -0.2654
  376TMC3    C7 5631   2.055   3.293  16.090  0.2787  0.2218 -0.1052
  376TMC3    C8 5632   2.458   3.253  16.324  0.6074 -0.4240 -0.5501
  376TMC3    O1 5633   1.982   3.392  16.079 -0.4006 -0.4881  0.1392
  376TMC3    O2 5634   2.494   3.232  16.209  0.1422  0.2180  0.0035
  377MPD2     C 5635   0.139   3.046  12.028 -0.8523  0.0731 -0.1700
  377MPD2    C1 5636   0.181   2.954  12.117 -0.1780 -0.2388 -0.7237
  377MPD2    C2 5637   0.094   2.917  12.218 -0.6477 -0.1945 -0.5706
  377MPD2    C3 5638   4.689   2.976  12.224  0.5679  0.1257 -0.2936
  377MPD2    C4 5639   4.645   3.073  12.135  0.2150 -0.3405 -0.5388
  377MPD2    C5 5640   0.011   3.104  12.033 -0.5162  0.3219  0.6194
  377MPD2     H 5641   0.132   2.851  12.295  0.3577  0.3843 -0.5757
  377MPD2    H1 5642   4.542   3.109  12.141 -1.0674 -4.0846  0.0991
  377MPD2    H2 5643   0.200   3.072  11.941  2.3531 -2.7417  1.2333
  377MPD2    H3 5644   4.699   3.159  11.945 -0.7582  0.5887  0.8774
  377MPD2     N 5645   4.587   2.930  12.309 -0.3191 -0.1733 -0.3188
  377MPD2    H5 5646   4.495   2.971  12.300 -1.6459 -2.9775  0.4514
  377MPD2    N1 5647   0.313   2.913  12.110  0.3065 -0.2578 -0.8735
  377MPD2    H7 5648   0.364   2.956  12.033  0.0752  3.3269  0.9814
  378TMC3    C1 5649   0.641   2.984  12.017 -0.0807  0.7204  0.7676
  378TMC3    C2 5650   0.544   2.891  12.035  0.0350 -0.2196  0.2043
  378TMC3    C3 5651   0.525   2.846  12.163 -0.1928  0.2427  0.1335
  378TMC3    C4 5652   0.713   3.040  12.121  0.3610 -0.2936  0.0018
  378TMC3    C5 5653   0.694   2.986  12.245 -0.0655 -0.1352  0.1297
  378TMC3    C6 5654   0.598   2.890  12.268  0.3416 -0.4841 -0.2126
  378TMC3     C 5655   0.579   3.084  11.928  0.3723  0.0534 -0.3430
  378TMC3     O 5656   0.460   3.062  11.902 -0.1261  0.3147  0.2452
  378TMC3     H 5657   0.496   2.840  11.952 -0.2640  1.8815 -0.9161
  378TMC3    H1 5658   0.769   3.132  12.113 -1.6780  0.7809 -1.8716
  378TMC3    H2 5659   0.573   2.851  12.366  3.1354 -1.0697  0.2595
  378TMC3    C7 5660   0.799   3.012  12.347  0.6389 -0.3522 -0.4207
  378TMC3    C8 5661   0.386   2.834  12.195  0.2162 -0.1298  0.3199
  378TMC3    O1 5662   0.777   2.988  12.459  0.2052  0.4937  0.6720
  378TMC3    O2 5663   0.354   2.767  12.292 -0.3950  0.1945 -0.2411
  379MPD2     C 5664   0.835   1.520  16.481  0.0943 -0.6432  0.1490
  379MPD2    C1 5665   0.901   1.409  16.426  0.9442  0.8320  0.0481
  379MPD2    C2 5666   1.000   1.346  16.500  0.6498 -0.3062 -0.4288
  379MPD2    C3 5667   1.032   1.386  16.629 -0.3115 -0.2625  0.3838
  379MPD2    C4 5668   0.963   1.489  16.684  0.3123 -0.3911  0.6405
  379MPD2    C5 5669   0.866   1.555  16.613  0.5025 -0.2623 -0.5472
  379MPD2     H 5670   1.064   1.272  16.452  0.9597  0.7080 -1.5986
  379MPD2    H1 5671   0.973   1.518  16.788  3.6906  1.0833 -0.0780
  379MPD2    H2 5672   0.751   1.571  16.437  0.4347  0.4059  0.7199
  379MPD2    H3 5673   0.815   1.634  16.667  0.9733 -0.6699  0.4799
  379MPD2     N 5674   1.136   1.323  16.708  0.1221 -0.2058  0.3449
  379MPD2    H5 5675   1.130   1.349  16.806 -0.2006 -1.1558  0.5805
  379MPD2    N1 5676   0.868   1.382  16.290 -0.6238 -0.0290 -0.4806
  379MPD2    H7 5677   0.800   1.441  16.243 -2.7689 -1.4004  0.9024
  380TMC3    C1 5678   0.861   1.271  16.077 -0.6406  0.4072 -0.0054
  380TMC3    C2 5679   0.909   1.161  16.008 -0.3344 -0.1848  0.0093
  380TMC3    C3 5680   0.857   1.146  15.883 -1.2134  0.3420 -0.2499
  380TMC3    C4 5681   0.760   1.356  16.031 -0.0102  0.0078 -0.4663
  380TMC3    C5 5682   0.712   1.327  15.902  0.7079  0.5164 -0.1763
  380TMC3    C6 5683   0.744   1.217  15.832 -0.4543  0.6860  0.5660
  380TMC3     C 5684   0.913   1.271  16.214 -0.0372 -0.5593  1.4799
  380TMC3     O 5685   0.976   1.176  16.258  0.8383  0.2253 -0.4356
  380TMC3     H 5686   0.984   1.094  16.047 -1.5500 -1.0947  0.7726
  380TMC3    H1 5687   0.748   1.453  16.078 -2.2779 -0.5452  0.1092
  380TMC3    H2 5688   0.720   1.180  15.733  3.8065  1.3100 -0.7032
  380TMC3    C7 5689   0.647   1.440  15.832  0.1061 -0.8227 -0.0738
  380TMC3    C8 5690   0.966   1.142  15.787  0.1363  0.0620  0.3367
  380TMC3    O1 5691   0.691   1.549  15.859 -0.1953 -0.1968 -0.3060
  380TMC3    O2 5692   0.947   1.206  15.683  0.1511  0.4630 -0.1382
  381TMC3    C1 5693   0.690   2.389  16.180 -0.1254 -0.2939  0.4238
  381TMC3    C2 5694   0.701   2.510  16.112 -0.4554 -0.5038  0.3345
  381TMC3    C3 5695   0.681   2.626  16.176  0.4890  0.6744  0.2961
  381TMC3    C4 5696   0.680   2.391  16.315 -0.4719 -0.1382 -0.0494
  381TMC3    C5 5697   0.666   2.509  16.372 -0.9183 -0.2247 -0.0118
  381TMC3    C6 5698   0.673   2.631  16.313 -0.2000  0.4630 -0.2542
  381TMC3     C 5699   0.713   2.268  16.102  0.0840  0.3006  0.3679
  381TMC3     O 5700   0.791   2.268  16.006  0.0865 -0.4545  0.0343
  381TMC3     H 5701   0.694   2.507  16.004 -0.5904  2.0660  0.2802
  381TMC3    H1 5702   0.663   2.302  16.375  0.4090  0.9478  1.8149
  381TMC3    H2 5703   0.642   2.720  16.367 -0.1779  1.3914 -1.7731
  381TMC3    C7 5704   0.624   2.515  16.515  0.3915  0.3974  0.2101
  381TMC3    C8 5705   0.740   2.741  16.100  0.1119 -0.3842  0.0285
  381TMC3    O1 5706   0.589   2.623  16.554 -0.8119  0.2273  0.1784
  381TMC3    O2 5707   0.782   2.723  15.991  0.0439  0.0726  0.3719
  382MPD2     C 5708   4.362   0.401  17.533 -0.6317 -0.4685  0.0421
  382MPD2    C1 5709   4.501   0.388  17.511  0.2629  0.3981 -1.0339
  382MPD2    C2 5710   4.553   0.280  17.442 -0.1704 -1.2276  0.4395
  382MPD2    C3 5711   4.475   0.179  17.396  0.2089 -0.2486  0.0050
  382MPD2    C4 5712   4.339   0.196  17.419 -0.0421 -1.0854 -0.2981
  382MPD2    C5 5713   4.284   0.301  17.481  0.3378  0.0615 -0.5848
  382MPD2     H 5714   4.659   0.289  17.423 -0.2291 -1.7154 -0.1171
  382MPD2    H1 5715   4.263   0.127  17.384 -0.3597 -1.1184  0.4574
  382MPD2    H2 5716   4.311   0.489  17.571 -0.8940 -0.6581  0.1305
  382MPD2    H3 5717   4.177   0.308  17.499  0.5244 -0.8695  0.8633
  382MPD2     N 5718   4.512   0.054  17.344  0.2237  0.3180  0.4044
  382MPD2    H5 5719   4.437   4.717  17.306 -0.9569  2.7357 -0.9171
  382MPD2    N1 5720   4.590   0.485  17.558  0.4905 -1.1552  0.2088
  382MPD2    H7 5721   4.688   0.463  17.544 -0.0225 -2.0511 -2.0002
  383TMC3    C1 5722   4.650   4.591  17.290 -0.1997 -0.4117 -0.0556
  383TMC3    C2 5723   4.553   4.497  17.303 -0.2486 -0.3440 -0.1526
  383TMC3    C3 5724   4.571   4.383  17.232 -0.3872  0.2882 -0.6529
  383TMC3    C4 5725   0.047   4.563  17.221  0.0297  0.0674 -0.7684
  383TMC3    C5 5726   0.060   4.434  17.163  0.6985 -0.5425  0.1135
  383TMC3    C6 5727   4.675   4.345  17.158  0.2065 -0.7260 -0.0378
  383TMC3     C 5728   4.641   0.015  17.316 -0.5597  0.5130  1.1059
  383TMC3     O 5729   0.021   0.080  17.320  0.7524 -0.1710  0.3521
  383TMC3     H 5730   4.465   4.520  17.362 -1.9517  0.9257 -3.1952
  383TMC3    H1 5731   0.139   4.622  17.223  0.7545 -1.0415 -1.8372
  383TMC3    H2 5732   4.686   4.255  17.098 -1.3858 -2.6470  2.5554
  383TMC3    C7 5733   0.196   4.401  17.116 -0.3863 -0.1763 -0.1783
  383TMC3    C8 5734   4.456   4.299  17.228  0.5951 -0.2826 -0.3581
  383TMC3    O1 5735   0.268   4.499  17.104 -0.0834 -0.2114 -0.7527
  383TMC3    O2 5736   4.352   4.362  17.252 -0.0926 -0.6910  0.3001
  384MPD2     C 5737   1.475   1.517  11.710 -0.5470  0.0611  0.0379
  384MPD2    C1 5738   1.496   1.443  11.820 -0.9653 -0.1992 -0.4063
  384MPD2    C2 5739   1.580   1.337  11.812  0.2502 -0.8091  0.0790
  384MPD2    C3 5740   1.642   1.296  11.702  0.0835 -0.0629  0.3629
  384MPD2    C4 5741   1.635   1.375  11.587  0.5217  0.2775 -0.7859
  384MPD2    C5 5742   1.548   1.483  11.595  0.0276 -0.5409 -0.7361
  384MPD2     H 5743   1.590   1.275  11.900  0.4712 -4.1046 -2.2557
  384MPD2    H1 5744   1.694   1.353  11.498  0.3815 -0.4603 -0.6950
  384MPD2    H2 5745   1.401   1.596  11.699 -0.8377 -0.1739  0.2871
  384MPD2    H3 5746   1.537   1.543  11.506 -0.3730  0.5589  0.0493
  384MPD2     N 5747   1.723   1.183  11.715  0.0336 -0.0499  0.1756
  384MPD2    H5 5748   1.709   1.142  11.807  1.8056  1.4510  1.1012
  384MPD2    N1 5749   1.435   1.470  11.946 -0.1214  0.4486  0.2650
  384MPD2    H7 5750   1.462   1.408  12.021  2.4895  0.4342 -0.6594
  385TMC3    C1 5751   1.871   1.010  11.669  0.2830  0.3994 -0.0931
  385TMC3    C2 5752   1.872   0.899  11.588 -0.1249 -0.7261 -0.1417
  385TMC3    C3 5753   1.860   0.782  11.659 -0.4018 -0.4413  0.4907
  385TMC3    C4 5754   1.870   1.001  11.802  0.4101 -0.8604  0.5389
  385TMC3    C5 5755   1.841   0.884  11.870  0.0956  0.3634  0.2623
  385TMC3    C6 5756   1.837   0.767  11.791  0.4187 -0.1243  0.0115
  385TMC3     C 5757   1.803   1.119  11.618 -0.6935 -0.7471 -0.4951
  385TMC3     O 5758   1.817   1.148  11.502  0.0668  0.0895  0.7529
  385TMC3     H 5759   1.856   0.903  11.481 -3.3183 -0.4637  0.3383
  385TMC3    H1 5760   1.887   1.093  11.857  0.1717 -0.5683  0.1174
  385TMC3    H2 5761   1.815   0.670  11.835  2.4570 -0.5516  0.0865
  385TMC3    C7 5762   1.734   0.916  11.959  0.6521  0.4514 -1.3273
  385TMC3    C8 5763   1.923   0.666  11.603 -0.8654  0.0155  0.0061
  385TMC3    O1 5764   1.698   1.036  11.952 -0.0923 -0.6086 -0.2133
  385TMC3    O2 5765   1.930   0.567  11.677 -0.5195  0.4148 -0.0943
  386TMC3    C1 5766   1.854   3.851  12.084  0.0195  0.2832  0.1121
  386TMC3    C2 5767   1.889   3.875  11.956 -0.1949 -0.5643 -0.1201
  386TMC3    C3 5768   1.782   3.911  11.875 -0.6467 -0.0191 -0.4365
  386TMC3    C4 5769   1.723   3.847  12.130  0.3931 -0.3750 -0.0980
  386TMC3    C5 5770   1.621   3.867  12.040 -0.6098  0.4256  0.2438
  386TMC3    C6 5771   1.648   3.907  11.913  0.2830  0.0347  0.1527
  386TMC3     C 5772   1.947   3.784  12.168 -0.4949 -0.7562 -0.1563
  386TMC3     O 5773   1.951   3.814  12.284 -0.4251 -0.4785  0.1028
  386TMC3     H 5774   1.993   3.876  11.924 -0.6657 -0.2812 -1.6482
  386TMC3    H1 5775   1.712   3.801  12.228 -0.2968 -0.5835 -0.2734
  386TMC3    H2 5776   1.570   3.930  11.841  0.0897 -0.0698  0.3282
  386TMC3    C7 5777   1.491   3.807  12.056  0.5786  0.2506 -0.1143
  386TMC3    C8 5778   1.806   3.921  11.729 -0.4161  0.0452  0.4398
  386TMC3    O1 5779   1.429   3.789  11.951 -0.1306  0.6256 -0.8346
  386TMC3    O2 5780   1.709   3.943  11.652  0.5668  0.0315  0.0730
  387MPD2     C 5781   4.537   3.685   9.492 -0.4546  0.0038 -0.2232
  387MPD2    C1 5782   4.648   3.717   9.569  0.1677  0.4033  0.0947
  387MPD2    C2 5783   0.015   3.618   9.602 -1.2316  0.3924  0.1908
  387MPD2    C3 5784   4.706   3.483   9.574 -0.6671 -0.3438 -0.0486
  387MPD2    C4 5785   4.583   3.445   9.510  0.3060  0.1269  0.0036
  387MPD2    C5 5786   4.515   3.552   9.459 -0.0371  0.3623  0.1180
  387MPD2     H 5787   0.105   3.640   9.659  0.0702 -2.0244 -0.9314
  387MPD2    H1 5788   4.568   3.340   9.489 -2.1601  0.5083 -0.0877
  387MPD2    H2 5789   4.470   3.750   9.436 -0.8172 -1.1196 -1.0898
  387MPD2    H3 5790   4.422   3.535   9.405 -0.0736 -2.1930  0.9713
  387MPD2     N 5791   0.078   3.388   9.626  0.5991  0.2531  0.6462
  387MPD2    H5 5792   0.169   3.423   9.655  0.7447 -0.4899  1.0986
  387MPD2    N1 5793   4.679   3.841   9.615 -0.1781  0.2663  0.1659
  387MPD2    H7 5794   0.048   3.850   9.663  0.4488 -1.8898 -0.5596
  388TMC3    C1 5795   4.653   4.053   9.691  0.7190 -0.2326  0.8653
  388TMC3    C2 5796   4.617   4.180   9.668 -0.2352 -0.0453  0.0410
  388TMC3    C3 5797   4.678   4.276   9.747 -0.4140 -0.4087  0.7607
  388TMC3    C4 5798   0.012   4.009   9.793 -0.1308 -0.3256  0.3927
  388TMC3    C5 5799   0.073   4.106   9.864 -0.6819  0.3934  0.3101
  388TMC3    C6 5800   0.047   4.237   9.840  0.4756 -0.1370  0.1403
  388TMC3     C 5801   4.596   3.947   9.613 -0.1692  0.2038  0.8123
  388TMC3     O 5802   4.486   3.967   9.557  0.5784  0.6848  0.2315
  388TMC3     H 5803   4.541   4.204   9.595 -0.3143  0.3133  0.2441
  388TMC3    H1 5804   0.004   3.908   9.831 -1.4960  0.2199  1.5596
  388TMC3    H2 5805   0.103   4.315   9.890 -1.7620  0.5081  1.6267
  388TMC3    C7 5806   0.171   4.069   9.964  0.0190 -0.1351 -0.7148
  388TMC3    C8 5807   4.663   4.420   9.726  0.1005 -0.4892  0.0395
  388TMC3    O1 5808   0.187   4.127  10.071 -0.7021 -0.3805  0.0346
  388TMC3    O2 5809   4.715   4.490   9.811  0.7754  0.0652  0.1716
  389MPD2     C 5810   4.197   1.962  10.665  0.2925  0.2884 -0.2238
  389MPD2    C1 5811   4.056   1.946  10.660  0.0623 -0.5162 -0.5617
  389MPD2    C2 5812   3.994   1.820  10.691  0.3223  0.0450  0.0970
  389MPD2    C3 5813   4.089   1.720  10.718 -0.2560 -0.9075  0.2419
  389MPD2    C4 5814   4.226   1.742  10.731  0.1662 -0.0136 -0.0751
  389MPD2    C5 5815   4.278   1.867  10.705  0.5518  0.1298  0.1213
  389MPD2     H 5816   3.887   1.806  10.683  0.5192 -1.5437  0.3811
  389MPD2    H1 5817   4.295   1.660  10.748 -0.5251 -0.5357  0.1807
  389MPD2    H2 5818   4.239   2.059  10.641  0.6270  0.4106  0.8708
  389MPD2    H3 5819   4.384   1.888  10.703  0.7688 -1.0017 -0.5626
  389MPD2     N 5820   4.051   1.590  10.759  0.0726 -0.1124 -0.2765
  389MPD2    H5 5821   4.122   1.526  10.793  0.2552  0.9851  1.3954
  389MPD2    N1 5822   3.987   2.053  10.615 -0.7520 -0.2798 -0.0134
  389MPD2    H7 5823   4.044   2.135  10.598 -2.2820  0.3876 -1.8914
  390TMC3    C1 5824   3.909   1.417  10.848  0.1838 -0.6319 -0.3644
  390TMC3    C2 5825   3.816   1.325  10.812  0.0093 -0.0506  0.4980
  390TMC3    C3 5826   3.744   1.257  10.905 -0.1774 -0.2151 -0.4838
  390TMC3    C4 5827   3.927   1.451  10.976 -0.1532 -0.1965  0.0316
  390TMC3    C5 5828   3.849   1.389  11.073 -0.4478  0.3987  0.2603
  390TMC3    C6 5829   3.764   1.287  11.035 -0.6914 -0.0117  0.6678
  390TMC3     C 5830   3.921   1.539  10.772  0.5730  0.1509  0.2439
  390TMC3     O 5831   3.811   1.592  10.753 -0.7096  0.2520  0.5303
  390TMC3     H 5832   3.799   1.312  10.706 -1.3975 -1.3335  0.8825
  390TMC3    H1 5833   3.963   1.552  10.996 -1.1245  0.4356 -1.4145
  390TMC3    H2 5834   3.707   1.232  11.109 -1.7536 -0.4309 -0.4741
  390TMC3    C7 5835   3.805   1.485  11.171 -0.3201 -0.3889  0.0446
  390TMC3    C8 5836   3.610   1.242  10.869  0.3056 -0.5820  0.0343
  390TMC3    O1 5837   3.890   1.572  11.198 -0.1756 -0.6376 -0.2252
  390TMC3    O2 5838   3.564   1.131  10.841  0.1742 -0.2648  0.2797
  391MPD2     C 5839   2.922   3.323  11.043 -1.0140 -0.5363  0.1707
  391MPD2    C1 5840   2.965   3.454  11.050  0.8894  0.4639 -0.5135
  391MPD2    C2 5841   2.991   3.515  10.926 -0.7448  0.2494 -0.5047
  391MPD2    C3 5842   2.976   3.454  10.801  0.7541 -0.4117 -0.3622
  391MPD2    C4 5843   2.914   3.328  10.800 -0.5435 -0.3500  0.3883
  391MPD2    C5 5844   2.896   3.265  10.917  0.0353  0.3088 -0.6565
  391MPD2     H 5845   3.028   3.617  10.934  0.3406 -0.1000 -1.0655
  391MPD2    H1 5846   2.895   3.268  10.711 -1.9844 -0.2000  0.5996
  391MPD2    H2 5847   2.904   3.270  11.136  0.8530 -1.6293 -0.0824
  391MPD2    H3 5848   2.851   3.166  10.924 -1.7717  1.3007  1.9226
  391MPD2     N 5849   3.034   3.513  10.687  0.6198  0.1349 -0.4092
  391MPD2    H5 5850   3.110   3.579  10.702  1.5307 -0.7132 -1.2553
  391MPD2    N1 5851   2.975   3.523  11.176  0.1675  0.2199 -0.7269
  391MPD2    H7 5852   2.955   3.468  11.259  1.0100 -0.0260 -0.6956
  392TMC3    C1 5853   3.065   3.539  10.448  0.1674 -0.0014 -0.0626
  392TMC3    C2 5854   3.060   3.475  10.326  0.1536  0.0486  0.0761
  392TMC3    C3 5855   3.114   3.533  10.216 -0.3552  0.0226  0.2248
  392TMC3    C4 5856   3.127   3.658  10.460  0.3747  0.0209  0.0991
  392TMC3    C5 5857   3.179   3.717  10.350  0.4572  0.3570  0.0262
  392TMC3    C6 5858   3.177   3.651  10.225  0.4229  0.0320 -0.2944
  392TMC3     C 5859   2.994   3.477  10.560  0.2656  0.1837  0.5025
  392TMC3     O 5860   2.903   3.397  10.535  0.1315  0.4366 -0.2837
  392TMC3     H 5861   2.983   3.400  10.311  0.0706 -0.1167  1.3865
  392TMC3    H1 5862   3.135   3.708  10.556 -1.7815  0.7899 -0.1198
  392TMC3    H2 5863   3.229   3.692  10.138 -3.0926  1.8790 -1.5546
  392TMC3    C7 5864   3.268   3.822  10.378  0.0900  0.3081  0.8262
  392TMC3    C8 5865   3.107   3.456  10.097 -0.1962 -1.8638  0.2827
  392TMC3    O1 5866   3.287   3.850  10.498  0.5645  0.3432  0.0166
  392TMC3    O2 5867   3.009   3.379  10.088 -0.4053  0.1295 -0.4722
  393TMC3    C1 5868   1.864   1.382  10.157  0.2124 -0.5102 -0.0382
  393TMC3    C2 5869   1.754   1.363  10.234  0.1459  0.0844  0.2202
  393TMC3    C3 5870   1.785   1.350  10.370 -0.1573 -0.9210 -0.5152
  393TMC3    C4 5871   1.993   1.376  10.201 -0.1395 -0.3638  0.0239
  393TMC3    C5 5872   2.015   1.369  10.337 -0.4529 -0.3152 -0.6490
  393TMC3    C6 5873   1.912   1.354  10.421 -0.6663  0.2964  0.2028
  393TMC3     C 5874   1.856   1.339  10.022 -0.4666 -0.6302  0.6116
  393TMC3     O 5875   1.936   1.383   9.936  0.1663 -0.5910 -0.1119
  393TMC3     H 5876   1.658   1.398  10.197  0.9445  2.3639  0.2557
  393TMC3    H1 5877   2.071   1.394  10.128 -0.1947  1.5904  0.4396
  393TMC3    H2 5878   1.923   1.331  10.526 -1.3957 -1.6380 -0.1601
  393TMC3    C7 5879   2.153   1.383  10.396 -0.4374 -0.1865  0.9285
  393TMC3    C8 5880   1.696   1.389  10.476  0.2962  0.4671 -0.3084
  393TMC3    O1 5881   2.149   1.431  10.509  0.5305  0.0754 -0.4478
  393TMC3    O2 5882   1.746   1.471  10.553  0.0635 -0.4292 -0.0038
  394TMC3    C1 5883   3.818   2.167  10.505  0.5319  0.9178 -0.8928
  394TMC3    C2 5884   3.760   2.141  10.387  0.3215 -0.3589  0.6632
  394TMC3    C3 5885   3.758   2.232  10.289  0.3083  0.7747  0.8589
  394TMC3    C4 5886   3.887   2.274  10.529  0.0457  0.1113  0.1408
  394TMC3    C5 5887   3.878   2.369  10.427 -0.3448  0.2443  0.3008
  394TMC3    C6 5888   3.813   2.357  10.304 -0.1001  0.0574  0.5270
  394TMC3     C 5889   3.855   2.045  10.575 -0.3335  0.5186  0.9082
  394TMC3     O 5890   3.771   1.953  10.577  0.1647 -0.2762 -0.7365
  394TMC3     H 5891   3.712   2.044  10.385  0.9685 -0.6649  0.3485
  394TMC3    H1 5892   3.938   2.293  10.623  1.0047  0.0608 -0.3657
  394TMC3    H2 5893   3.811   2.436  10.230  3.3189  0.5411  0.9449
  394TMC3    C7 5894   3.996   2.452  10.410  0.0644 -0.1976 -0.0977
  394TMC3    C8 5895   3.781   2.171  10.165  0.4399 -0.2282  0.1798
  394TMC3    O1 5896   4.017   2.488  10.294  0.4702  0.0386 -0.2959
  394TMC3    O2 5897   3.747   2.224  10.062 -0.4819  0.3232  0.4183
  395TMC3    C1 5898   3.450   3.556  14.475 -0.4655 -0.3424 -0.1353
  395TMC3    C2 5899   3.317   3.575  14.433 -0.0611  0.6817  0.4606
  395TMC3    C3 5900   3.269   3.705  14.439 -0.2270  0.1060  0.5938
  395TMC3    C4 5901   3.520   3.654  14.536 -0.0582 -0.7316 -0.3352
  395TMC3    C5 5902   3.473   3.781  14.532  0.3946 -0.0989 -0.0446
  395TMC3    C6 5903   3.350   3.804  14.479  0.9430  0.0051  0.3229
  395TMC3     C 5904   3.465   3.428  14.533  0.0060 -0.1843 -0.7086
  395TMC3     O 5905   3.559   3.350  14.514  0.8010 -0.1628 -0.2671
  395TMC3     H 5906   3.264   3.503  14.371 -1.2948  2.0453 -0.0872
  395TMC3    H1 5907   3.611   3.626  14.588 -1.5244 -0.8259  2.2171
  395TMC3    H2 5908   3.312   3.905  14.489 -1.4023 -0.7721 -0.7581
  395TMC3    C7 5909   3.563   3.887  14.559 -0.4119  0.1192  0.2640
  395TMC3    C8 5910   3.141   3.717  14.500 -0.2773 -0.0028 -0.3655
  395TMC3    O1 5911   3.509   3.993  14.577 -0.3069 -0.0008  0.0948
  395TMC3    O2 5912   3.096   3.827  14.526  0.0031 -0.2660 -0.3153
  396MPD2     C 5913   2.988   4.695  17.528  0.0422 -0.3431 -0.2147
  396MPD2    C1 5914   3.107   4.661  17.460  1.2717 -0.0607  0.1782
  396MPD2    C2 5915   3.171   0.034  17.380  0.3377  0.5287 -0.3886
  396MPD2    C3 5916   3.116   0.157  17.357  0.6414 -0.0666 -0.1386
  396MPD2    C4 5917   2.994   0.184  17.414 -0.2058  0.1517  0.3677
  396MPD2    C5 5918   2.929   0.098  17.501  0.4570  0.0368  0.8936
  396MPD2     H 5919   3.274   0.013  17.354  0.9351  0.8975  1.6148
  396MPD2    H1 5920   2.944   0.280  17.404  0.4768  0.5137  0.4474
  396MPD2    H2 5921   2.935   4.624  17.591 -1.3748  0.9768  0.0688
  396MPD2    H3 5922   2.834   0.119  17.550 -1.3253 -2.0499 -1.6068
  396MPD2     N 5923   3.186   0.243  17.274 -0.0223 -0.1719  0.1849
  396MPD2    H5 5924   3.287   0.235  17.264 -0.1335 -2.6432  1.1518
  396MPD2    N1 5925   3.158   4.533  17.492 -0.4485 -0.1667 -0.5920
  396MPD2    H7 5926   3.103   4.474  17.554 -0.6641  0.7813  0.1084
  397TMC3    C1 5927   3.289   4.351  17.490  0.4811 -0.0134 -0.3377
  397TMC3    C2 5928   3.296   4.261  17.388 -0.2689  0.0344 -0.0805
  397TMC3    C3 5929   3.215   4.149  17.390  0.7105 -0.3748 -0.0789
  397TMC3    C4 5930   3.231   4.310  17.606 -0.4622  0.0098 -0.0933
  397TMC3    C5 5931   3.178   4.182  17.615 -0.0140  0.3375 -0.1243
  397TMC3    C6 5932   3.166   4.102  17.507 -0.2936  0.4471  0.5964
  397TMC3     C 5933   3.272   4.484  17.435  0.7466 -0.2076  0.1096
  397TMC3     O 5934   3.336   4.524  17.340  0.7370  0.6245 -0.2476
  397TMC3     H 5935   3.332   4.301  17.294 -1.0737  1.5866  0.2813
  397TMC3    H1 5936   3.229   4.379   0.007  0.1255 -0.0949  0.0050
  397TMC3    H2 5937   3.123   4.006  17.529  0.5407  0.5547  2.7566
  397TMC3    C7 5938   3.132   4.131   0.063 -0.1156  0.1309  0.2858
  397TMC3    C8 5939   3.124   4.135  17.280  1.1188  0.6184 -0.2600
  397TMC3    O1 5940   3.043   4.044   0.065 -0.2838 -0.3630  0.0862
  397TMC3    O2 5941   3.146   4.199  17.179  0.2354  0.0517 -0.3099
  398MPD2     C 5942   0.867   0.647   0.172  0.6420  0.1944  0.2930
  398MPD2    C1 5943   0.958   0.616   0.272  0.7957 -0.4712 -0.0652
  398MPD2    C2 5944   1.044   0.719   0.316 -0.7364 -0.1109  0.5250
  398MPD2    C3 5945   1.045   0.837   0.256  0.3505 -0.0216 -0.9333
  398MPD2    C4 5946   0.961   0.862   0.151 -0.1900  0.0034  0.2635
  398MPD2    C5 5947   0.862   0.771   0.112  0.3952  0.7559  0.4403
  398MPD2     H 5948   1.110   0.707   0.401  1.3867  0.7777 -0.9810
  398MPD2    H1 5949   0.960   0.957   0.099  0.4187  0.7550  1.6282
  398MPD2    H2 5950   0.799   0.574   0.131  2.2954 -0.5952 -1.0385
  398MPD2    H3 5951   0.805   0.804   0.025 -0.9520 -1.6219  0.3976
  398MPD2     N 5952   1.143   0.930   0.303 -0.3051  0.3100 -0.3978
  398MPD2    H5 5953   1.184   0.916   0.394 -0.5983 -2.1505 -0.6551
  398MPD2    N1 5954   0.964   0.491   0.337 -0.0867 -0.1157 -0.0471
  398MPD2    H7 5955   1.021   0.491   0.421 -0.2301 -0.4861  0.0548
  399TMC3    C1 5956   0.955   0.257   0.365 -0.0162 -0.4159 -0.4118
  399TMC3    C2 5957   1.086   0.266   0.410 -0.2783  0.3988 -0.2667
  399TMC3    C3 5958   1.150   0.159   0.464 -0.3289 -0.1430  0.0184
  399TMC3    C4 5959   0.882   0.138   0.375  0.0794 -0.0614 -0.0027
  399TMC3    C5 5960   0.947   0.029   0.422 -0.0605  0.3171  0.3841
  399TMC3    C6 5961   1.074   0.045   0.476  0.1125  0.7708  0.0373
  399TMC3     C 5962   0.900   0.373   0.301 -1.0229  0.3266  0.1919
  399TMC3     O 5963   0.795   0.367   0.227 -0.2998  0.1257  0.4122
  399TMC3     H 5964   1.146   0.353   0.385  0.3381  0.3420  0.9944
  399TMC3    H1 5965   0.777   0.142   0.347  0.0466  2.6472  0.4854
  399TMC3    H2 5966   1.121   4.677   0.519  0.0259  1.4531  1.5467
  399TMC3    C7 5967   0.865   4.625   0.434 -0.3621 -0.9930  0.9390
  399TMC3    C8 5968   1.283   0.172   0.537  0.0490  0.2047 -0.5090
  399TMC3    O1 5969   0.896   4.551   0.529  0.4798  0.2390 -0.2696
  399TMC3    O2 5970   1.346   0.271   0.501 -0.5044 -0.4482 -0.1519
  400TMC3    C1 5971   4.397   4.024  16.729 -0.6766 -0.2721  0.4722
  400TMC3    C2 5972   4.281   4.002  16.662  0.4103 -0.6525 -0.1281
  400TMC3    C3 5973   4.190   4.108  16.658 -0.1783  0.5247 -0.3648
  400TMC3    C4 5974   4.418   4.140  16.794 -0.6274 -0.9089 -0.0215
  400TMC3    C5 5975   4.335   4.249  16.777 -0.2860 -0.3532  0.2503
  400TMC3    C6 5976   4.221   4.232  16.704 -0.1949  0.5672 -0.0798
  400TMC3     C 5977   4.470   3.906  16.762 -0.1331 -0.2321 -0.0142
  400TMC3     O 5978   4.426   3.799  16.722  0.6391  0.2060  0.1059
  400TMC3     H 5979   4.261   3.909  16.611 -1.5893 -1.0543  1.3391
  400TMC3    H1 5980   4.501   4.157  16.861  0.0782 -0.8712 -0.9030
  400TMC3    H2 5981   4.155   4.317  16.692 -2.9250 -1.5007  0.3305
  400TMC3    C7 5982   4.377   4.372  16.844 -0.8339  0.3746 -0.4258
  400TMC3    C8 5983   4.053   4.092  16.604  0.1129  0.1690  0.2873
  400TMC3    O1 5984   4.499   4.395  16.842  0.3218 -0.1908 -0.3434
  400TMC3    O2 5985   3.980   4.188  16.624 -0.3340  0.1054  0.3443
  401MPD2     C 5986   2.826   2.467   0.361 -0.0846 -0.0069  0.3147
  401MPD2    C1 5987   2.831   2.470   0.497  0.7761  0.7088 -0.2509
  401MPD2    C2 5988   2.853   2.350   0.564  0.4449  0.0872  0.2749
  401MPD2    C3 5989   2.893   2.233   0.502  0.6619 -0.0525  0.0001
  401MPD2    C4 5990   2.892   2.231   0.368  1.1622  0.2564 -0.3158
  401MPD2    C5 5991   2.853   2.346   0.293  0.6536  0.4505  0.5829
  401MPD2     H 5992   2.841   2.351   0.671 -2.0994  1.7610 -0.0283
  401MPD2    H1 5993   2.930   2.150   0.307 -1.0915 -0.6919 -0.4320
  401MPD2    H2 5994   2.795   2.554   0.306  1.6350  0.5351  0.2263
  401MPD2    H3 5995   2.852   2.328   0.186  0.9741 -0.8658  0.8009
  401MPD2     N 5996   2.904   2.113   0.580  0.2353  0.3865 -0.0818
  401MPD2    H5 5997   2.864   2.122   0.673  1.1600  0.7114  0.2886
  401MPD2    N1 5998   2.795   2.579   0.583  0.2113 -0.2289  0.0718
  401MPD2    H7 5999   2.777   2.551   0.679 -0.1907 -1.1573 -0.2769
  402TMC3    C1 6000   2.977   1.902   0.653 -0.0542 -0.9340 -0.2583
  402TMC3    C2 6001   2.891   1.900   0.762 -0.1725 -0.4024 -0.3104
  402TMC3    C3 6002   2.915   1.817   0.860  0.2290 -0.1289 -0.4038
  402TMC3    C4 6003   3.082   1.814   0.647  0.3424 -0.4523 -0.2628
  402TMC3    C5 6004   3.096   1.726   0.745  0.1666  0.2878 -0.2541
  402TMC3    C6 6005   3.021   1.725   0.864  0.0669  0.3037 -0.6819
  402TMC3     C 6006   2.963   1.995   0.540  0.3406  0.0196 -0.7319
  402TMC3     O 6007   3.023   1.978   0.435 -0.3373  0.1965 -0.6510
  402TMC3     H 6008   2.797   1.952   0.753 -0.8142 -1.4444  0.3005
  402TMC3    H1 6009   3.161   1.827   0.574  1.9181 -2.4965  1.0697
  402TMC3    H2 6010   3.048   1.672   0.955 -0.9811  0.4837 -0.2610
  402TMC3    C7 6011   3.211   1.642   0.749  0.3737 -0.3832  1.0225
  402TMC3    C8 6012   2.831   1.809   0.982 -0.2694  0.5402 -0.5155
  402TMC3    O1 6013   3.204   1.538   0.816 -0.0176  0.1945 -0.7578
  402TMC3    O2 6014   2.844   1.705   1.048 -0.4165  0.5011 -0.6394
  403MPD2     C 6015   0.694   1.676  13.479 -0.3570  0.1346 -0.3323
  403MPD2    C1 6016   0.720   1.550  13.528 -0.2521  0.2284  0.1275
  403MPD2    C2 6017   0.799   1.543  13.640 -0.3433  0.0769 -0.1940
  403MPD2    C3 6018   0.866   1.651  13.695 -0.0675  1.1403  0.2119
  403MPD2    C4 6019   0.836   1.778  13.644 -0.4936  0.0900 -0.2024
  403MPD2    C5 6020   0.743   1.790  13.541 -0.0961 -0.6255  0.9602
  403MPD2     H 6021   0.818   1.443  13.680  1.0294 -0.0841 -1.2574
  403MPD2    H1 6022   0.882   1.872  13.674 -3.8309  1.2309  1.3102
  403MPD2    H2 6023   0.633   1.677  13.389  2.1249  0.0572 -2.0101
  403MPD2    H3 6024   0.724   1.883  13.489  1.7813 -0.8726 -0.1527
  403MPD2     N 6025   0.964   1.623  13.799  0.8812 -0.0447 -0.6728
  403MPD2    H5 6026   0.979   1.528  13.829  1.6877 -0.0255 -1.0069
  403MPD2    N1 6027   0.657   1.439  13.469 -0.1260  0.1333  0.2322
  403MPD2    H7 6028   0.608   1.452  13.380  1.6014 -0.2473 -0.7747
  404TMC3    C1 6029   0.644   1.209  13.432  0.4576 -0.2411 -0.0472
  404TMC3    C2 6030   0.681   1.087  13.491  1.0578  0.0030 -0.1769
  404TMC3    C3 6031   0.738   0.993  13.409  0.4802  0.2221  0.1051
  404TMC3    C4 6032   0.651   1.229  13.295  1.1946  0.5314  0.6388
  404TMC3    C5 6033   0.713   1.134  13.222  0.1392 -0.1434 -0.7322
  404TMC3    C6 6034   0.763   1.020  13.277  0.3668 -0.0401  0.6529
  404TMC3     C 6035   0.647   1.314  13.527 -0.2291 -0.1510 -0.3173
  404TMC3     O 6036   0.667   1.284  13.646 -0.1402  0.2664 -0.2586
  404TMC3     H 6037   0.683   1.075  13.599  0.7239  0.6937 -0.0929
  404TMC3    H1 6038   0.635   1.325  13.246  1.7437 -0.2128 -0.9776
  404TMC3    H2 6039   0.802   0.938  13.218  1.0568  1.4849 -1.0240
  404TMC3    C7 6040   0.768   1.187  13.099 -0.4937 -0.5197 -0.3769
  404TMC3    C8 6041   0.802   0.877  13.467 -0.7562 -0.4087  0.1439
  404TMC3    O1 6042   0.819   1.296  13.110  0.0541 -0.5160 -0.0714
  404TMC3    O2 6043   0.887   0.820  13.401  0.0484 -0.0499 -0.5235
  405MPD2     C 6044   1.415   1.720  14.871  0.1375  0.8111 -0.3426
  405MPD2    C1 6045   1.400   1.650  14.748 -0.5557 -0.0064 -0.2491
  405MPD2    C2 6046   1.324   1.709  14.645 -0.2145  0.3271  0.3287
  405MPD2    C3 6047   1.263   1.836  14.663 -0.1207 -0.2943 -0.2320
  405MPD2    C4 6048   1.273   1.901  14.784 -0.6192  0.6284  0.0099
  405MPD2    C5 6049   1.355   1.841  14.880  0.4115  0.4166  0.4217
  405MPD2     H 6050   1.315   1.662  14.548  0.0102 -0.5353  0.7255
  405MPD2    H1 6051   1.229   1.998  14.797 -1.0234  0.6759 -1.7900
  405MPD2    H2 6052   1.465   1.679  14.958 -2.7304  1.2034  1.4727
  405MPD2    H3 6053   1.365   1.882  14.980  0.3673 -0.1666  0.6674
  405MPD2     N 6054   1.201   1.883  14.548  0.6578  0.2052  0.0434
  405MPD2    H5 6055   1.205   1.821  14.468  1.6175  1.5026 -0.8995
  405MPD2    N1 6056   1.441   1.516  14.749 -0.8433 -0.4753  0.4039
  405MPD2    H7 6057   1.466   1.482  14.841  2.2542 -1.0636 -0.6747
  406TMC3    C1 6058   0.926   2.082  14.221  0.6612  0.6426 -0.2227
  406TMC3    C2 6059   0.884   1.954  14.186 -0.5764 -0.3604  0.3310
  406TMC3    C3 6060   0.938   1.849  14.249  0.3969 -0.3821  0.5369
  406TMC3    C4 6061   1.016   2.094  14.329 -0.0913 -0.5712  0.1046
  406TMC3    C5 6062   1.059   1.988  14.393 -0.1286 -0.4237  0.0385
  406TMC3    C6 6063   1.019   1.867  14.356  0.2783 -0.5714 -0.1046
  406TMC3     C 6064   0.815   2.165  14.235 -0.5911 -0.0571  0.2925
  406TMC3     O 6065   0.832   2.281  14.208  0.0147  0.2720  0.6408
  406TMC3     H 6066   0.816   1.934  14.104 -1.2935  2.6044  0.1811
  406TMC3    H1 6067   1.050   2.193  14.358 -1.2612  0.1101 -0.8102
  406TMC3    H2 6068   1.020   1.789  14.431  3.3758  1.1444  1.5828
  406TMC3    C7 6069   1.125   2.001  14.525  0.5034 -0.8272  0.4438
  406TMC3    C8 6070   0.907   1.710  14.214 -0.4959  0.3047  0.3235
  406TMC3    O1 6071   1.117   2.104  14.600 -0.0414 -0.4491 -0.3327
  406TMC3    O2 6072   0.807   1.693  14.147  0.4065 -0.1709 -0.2644
  407MPD2     C 6073   3.949   2.978   9.654  0.3762  0.2876 -0.2046
  407MPD2    C1 6074   3.939   3.105   9.602 -0.1828 -0.0723  0.2572
  407MPD2    C2 6075   3.974   3.209   9.679 -0.0139  0.6175 -0.2244
  407MPD2    C3 6076   4.029   3.195   9.809 -0.3666 -0.5817 -0.4698
  407MPD2    C4 6077   4.047   3.071   9.859 -0.0558  0.6741  0.0147
  407MPD2    C5 6078   4.006   2.966   9.785 -0.2528 -0.4136  0.0376
  407MPD2     H 6079   3.954   3.307   9.639  0.5470  0.6623 -0.3883
  407MPD2    H1 6080   4.092   3.053   9.956  4.3390  0.6555 -2.0292
  407MPD2    H2 6081   3.918   2.893   9.594 -1.4824  2.4064 -2.2381
  407MPD2    H3 6082   4.021   2.871   9.835 -4.7441 -0.9768  0.3739
  407MPD2     N 6083   4.096   3.312   9.875  0.4218 -0.4303 -0.5729
  407MPD2    H5 6084   4.165   3.283   9.944 -0.6728  0.6876  0.9893
  407MPD2    N1 6085   3.896   3.121   9.471  0.0001 -0.8740 -0.0870
  407MPD2    H7 6086   3.907   3.043   9.407  1.0059 -0.5814 -0.2685
  408TMC3    C1 6087   3.874   3.239   9.265 -0.1175 -0.2586 -0.0983
  408TMC3    C2 6088   4.002   3.214   9.231  0.1666 -0.0176  0.3817
  408TMC3    C3 6089   4.065   3.304   9.146  0.4356  0.1860 -0.0040
  408TMC3    C4 6090   3.804   3.340   9.202  0.0407 -0.0367  0.7464
  408TMC3    C5 6091   3.867   3.403   9.097  0.7261  0.7605 -0.1550
  408TMC3    C6 6092   4.000   3.397   9.071  0.1302 -1.2584  0.2042
  408TMC3     C 6093   3.860   3.239   9.414 -0.0329  0.5898  0.3846
  408TMC3     O 6094   3.841   3.347   9.458  0.0582 -0.6204 -0.3803
  408TMC3     H 6095   4.060   3.154   9.300  2.4621  0.8394 -0.7900
  408TMC3    H1 6096   3.716   3.377   9.254  1.5777  0.8459  2.6949
  408TMC3    H2 6097   4.039   3.454   8.987 -0.1466 -0.0076  0.9200
  408TMC3    C7 6098   3.805   3.518   9.037 -0.9605 -0.1478 -0.1122
  408TMC3    C8 6099   4.205   3.299   9.119  0.0928  0.4041  0.5001
  408TMC3    O1 6100   3.874   3.604   8.984  0.3039  0.0647  0.8721
  408TMC3    O2 6101   4.261   3.199   9.161  0.1974 -0.2231  0.3179
  409MPD2     C 6102   3.180   3.661  17.197  0.0953  0.3041  0.2558
  409MPD2    C1 6103   3.281   3.693  17.281  0.3381 -0.3467  0.5446
  409MPD2    C2 6104   3.374   3.787  17.243  0.5242 -0.1754  0.9292
  409MPD2    C3 6105   3.355   3.854  17.122 -0.7945  0.2059 -0.8567
  409MPD2    C4 6106   3.250   3.820  17.036  0.0230  0.2136  0.8643
  409MPD2    C5 6107   3.163   3.723  17.075  0.6410  1.0467  0.4211
  409MPD2     H 6108   3.459   3.806  17.307  2.0568  0.3922 -1.2476
  409MPD2    H1 6109   3.231   3.871  16.943  1.6461  0.8245  0.8584
  409MPD2    H2 6110   3.101   3.593  17.228 -0.4904  0.2028 -1.4367
  409MPD2    H3 6111   3.079   3.698  17.012 -0.5868  3.8804  0.9017
  409MPD2     N 6112   3.443   3.949  17.068 -0.3621 -0.2184 -0.3964
  409MPD2    H5 6113   3.411   3.977  16.976  2.2309 -2.3639 -1.9655
  409MPD2    N1 6114   3.316   3.621  17.401  0.9417  0.4033 -0.0202
  409MPD2    H7 6115   3.411   3.639  17.433  0.4334  2.5130  0.2443
  410TMC3    C1 6116   3.638   4.069  17.037  0.3457 -0.2303  0.0366
  410TMC3    C2 6117   3.773   4.066  17.061 -0.7541 -0.5826  0.6558
  410TMC3    C3 6118   3.844   4.139  16.968 -0.0069 -0.0779  0.2190
  410TMC3    C4 6119   3.574   4.137  16.940 -0.0465 -0.1742  0.3407
  410TMC3    C5 6120   3.653   4.217  16.865 -0.2868 -0.0144 -0.3590
  410TMC3    C6 6121   3.781   4.223  16.880 -0.4241  0.1319 -1.0823
  410TMC3     C 6122   3.560   3.993  17.126  0.5896 -0.4692 -0.0739
  410TMC3     O 6123   3.602   3.986  17.241  0.0203  0.1059  0.0169
  410TMC3     H 6124   3.829   4.022  17.143  0.5367 -0.5224 -0.2109
  410TMC3    H1 6125   3.467   4.131  16.930 -0.2442  2.0350  0.9895
  410TMC3    H2 6126   3.847   4.284  16.819  0.1897  1.1718  0.6289
  410TMC3    C7 6127   3.598   4.287  16.745  0.5439 -0.2421 -0.8457
  410TMC3    C8 6128   3.985   4.161  17.004  0.9655 -0.7084  0.5715
  410TMC3    O1 6129   3.665   4.384  16.708 -0.0697  0.0125 -0.2042
  410TMC3    O2 6130   4.044   4.262  16.974  0.3309 -0.8967  0.2926
  411MPD2     C 6131   3.960   0.194  14.326 -0.4062  0.0174 -0.3995
  411MPD2    C1 6132   3.851   0.142  14.395  0.0192 -0.4244  0.6143
  411MPD2    C2 6133   3.826   0.007  14.379  0.6766  0.2837  0.0446
  411MPD2    C3 6134   3.900   4.650  14.296 -0.3205  0.5097  0.8309
  411MPD2    C4 6135   4.018   4.697  14.250  0.2396  0.3938 -0.5687
  411MPD2    C5 6136   4.047   0.106  14.269 -0.3201  0.4243  0.0300
  411MPD2     H 6137   3.735   4.689  14.424  0.8846 -1.7974 -1.3383
  411MPD2    H1 6138   4.084   4.647  14.179  1.6055  1.4630 -0.0656
  411MPD2    H2 6139   3.967   0.302  14.323 -0.8483  0.0808  0.8819
  411MPD2    H3 6140   4.127   0.140  14.203 -1.1728  0.3947 -1.0251
  411MPD2     N 6141   3.868   4.515  14.260 -0.0557  0.3111  0.0689
  411MPD2    H5 6142   3.939   4.481  14.196 -1.1307 -0.2751 -0.8054
  411MPD2    N1 6143   3.756   0.230  14.447 -0.4804  0.3006  0.2273
  411MPD2    H7 6144   3.749   0.321  14.403 -0.5034  0.4662  0.5772
  412TMC3    C1 6145   3.774   4.308  14.245  0.0014 -0.2841 -0.0485
  412TMC3    C2 6146   3.674   4.224  14.283  0.5919 -0.2531 -0.3049
  412TMC3    C3 6147   3.663   4.097  14.222 -0.1114 -0.8648  0.4642
  412TMC3    C4 6148   3.866   4.268  14.147 -0.3331 -0.6029  0.0673
  412TMC3    C5 6149   3.845   4.146  14.086 -0.0837 -0.3521  0.4269
  412TMC3    C6 6150   3.756   4.057  14.133  0.6558 -0.4869 -0.2235
  412TMC3     C 6151   3.761   4.434  14.301 -0.6430  0.4879 -0.1342
  412TMC3     O 6152   3.672   4.467  14.381  0.8693 -0.0129  0.0289
  412TMC3     H 6153   3.598   4.267  14.347 -0.4554  0.1999 -1.8574
  412TMC3    H1 6154   3.917   4.346  14.092 -1.0938 -0.3747 -0.3059
  412TMC3    H2 6155   3.747   3.963  14.080  0.1819 -0.1180 -0.7960
  412TMC3    C7 6156   3.835   4.161  13.941  0.3614 -0.1807  0.0754
  412TMC3    C8 6157   3.534   4.048  14.185  0.1009  0.0056  0.0322
  412TMC3    O1 6158   3.938   4.180  13.879 -0.1846  0.5370 -0.5390
  412TMC3    O2 6159   3.520   3.977  14.087 -0.0066 -0.3686 -0.5191
  413MPD2     C 6160   0.168   2.781  15.951  0.3540  0.0534  0.2097
  413MPD2    C1 6161   0.182   2.810  15.817 -0.1340 -0.6860  0.0214
  413MPD2    C2 6162   0.276   2.745  15.741  0.6139  0.1586 -1.1933
  413MPD2    C3 6163   0.366   2.650  15.799  0.0783  0.2328 -0.2382
  413MPD2    C4 6164   0.343   2.617  15.931  0.1219 -0.6717 -0.7511
  413MPD2    C5 6165   0.254   2.688  16.000  0.5456  0.3760 -0.0403
  413MPD2     H 6166   0.289   2.777  15.638  1.5871  0.3955 -0.9956
  413MPD2    H1 6167   0.412   2.554  15.986  0.4604  0.7876  0.4867
  413MPD2    H2 6168   0.080   2.813  16.006  1.7843  3.3063  0.6145
  413MPD2    H3 6169   0.237   2.653  16.101 -0.3244 -2.1242 -1.0398
  413MPD2     N 6170   0.459   2.586  15.716 -0.4484  0.2736 -0.2243
  413MPD2    H5 6171   0.463   2.617  15.619  1.0099  1.4374  0.2003
  413MPD2    N1 6172   0.086   2.901  15.767 -0.4196  0.1095  0.1937
  413MPD2    H7 6173   0.031   2.956  15.832  2.4157  0.6247  2.1650
  414TMC3    C1 6174   0.621   2.428  15.660 -0.2083  0.2667  0.1378
  414TMC3    C2 6175   0.705   2.332  15.700  0.5806 -0.2050 -0.0701
  414TMC3    C3 6176   0.818   2.310  15.627  0.1650  0.9693 -0.1884
  414TMC3    C4 6177   0.640   2.491  15.545  0.5044  0.0133 -0.1816
  414TMC3    C5 6178   0.746   2.452  15.467  0.0148  0.5753  0.1273
  414TMC3    C6 6179   0.840   2.377  15.513  0.1358  0.0348  0.4740
  414TMC3     C 6180   0.532   2.477  15.755 -0.0750  0.1439 -0.5083
  414TMC3     O 6181   0.521   2.407  15.854 -0.2114 -0.2926  0.2889
  414TMC3     H 6182   0.681   2.273  15.788 -0.0321 -1.7942 -1.3129
  414TMC3    H1 6183   0.572   2.558  15.492  2.4408  1.4939 -0.8382
  414TMC3    H2 6184   0.926   2.343  15.455 -0.8948 -3.6834  1.1277
  414TMC3    C7 6185   0.752   2.495  15.321  0.8397  0.9439  0.1802
  414TMC3    C8 6186   0.899   2.188  15.638 -0.2095  0.5674  0.5050
  414TMC3    O1 6187   0.673   2.580  15.283  0.1427  0.2983  0.2236
  414TMC3    O2 6188   0.929   2.137  15.530  0.4643 -0.1255  0.4644
  415TMC3    C1 6189   1.896   0.891  10.102 -0.0702 -0.2654  0.2487
  415TMC3    C2 6190   1.984   1.001  10.102  0.3657  0.0569 -0.3881
  415TMC3    C3 6191   2.093   0.992  10.023 -0.6496  0.1775 -0.5956
  415TMC3    C4 6192   1.916   0.792  10.015  0.1512 -0.0174  0.0215
  415TMC3    C5 6193   2.027   0.792   9.932 -0.4676  0.5612 -0.2861
  415TMC3    C6 6194   2.120   0.888   9.937 -0.1045 -0.2266 -0.8526
  415TMC3     C 6195   1.772   0.891  10.172 -1.0799 -0.0037 -0.0031
  415TMC3     O 6196   1.680   0.825  10.123  0.1810  0.3154 -0.0148
  415TMC3     H 6197   1.959   1.094  10.152 -0.1621 -0.1403 -0.2832
  415TMC3    H1 6198   1.848   0.708  10.024  1.3950 -1.2305 -1.7639
  415TMC3    H2 6199   2.212   0.874   9.882  0.6790 -1.2952  0.7381
  415TMC3    C7 6200   2.055   0.664   9.867  0.6627 -0.1765 -0.3000
  415TMC3    C8 6201   2.174   1.110  10.011  0.1974  0.2080 -0.1486
  415TMC3    O1 6202   2.166   0.648   9.817 -0.0135  0.0015  0.0587
  415TMC3    O2 6203   2.165   1.190  10.105 -0.2285  0.7267  0.3610
  416MPD2     C 6204   3.119   4.584  11.169 -0.2320  0.5161 -0.2451
  416MPD2    C1 6205   3.023   4.568  11.078 -0.3469  0.4307  0.3106
  416MPD2    C2 6206   3.022   4.451  11.006 -0.5575 -0.4250 -0.6232
  416MPD2    C3 6207   3.112   4.346  11.035 -0.4977 -0.4366  0.9905
  416MPD2    C4 6208   3.198   4.357  11.140 -0.0422 -0.7640 -0.4999
  416MPD2    C5 6209   3.199   4.478  11.205 -0.0017  0.8407 -0.5844
  416MPD2     H 6210   2.950   4.439  10.926 -1.0540 -1.0624 -0.0805
  416MPD2    H1 6211   3.249   4.271  11.182  1.3196 -0.9025 -2.4177
  416MPD2    H2 6212   3.108   4.677  11.224  1.2385  1.5907 -1.7825
  416MPD2    H3 6213   3.262   4.481  11.293 -1.6220  0.2194  0.5896
  416MPD2     N 6214   3.120   4.227  10.968 -0.2409  0.0061  0.1768
  416MPD2    H5 6215   3.168   4.147  11.009  0.4862  0.0698 -0.5512
  416MPD2    N1 6216   2.938   4.678  11.061  0.5378  0.0537  0.1031
  416MPD2    H7 6217   2.951   0.042  11.116  2.0452 -0.8045  1.0494
  417TMC3    C1 6218   2.736   0.074  11.026  0.5832  0.0211  0.6299
  417TMC3    C2 6219   2.726   0.082  11.165  0.9033 -0.7801  0.5497
  417TMC3    C3 6220   2.625   0.161  11.214  0.0998  0.7234 -0.5266
  417TMC3    C4 6221   2.649   0.139  10.936  0.5084  0.7469 -0.2935
  417TMC3    C5 6222   2.556   0.222  10.992  0.2032  0.1173  0.8423
  417TMC3    C6 6223   2.546   0.238  11.127 -0.1845 -0.1192 -0.1966
  417TMC3     C 6224   2.827   4.683  10.977 -0.1614 -0.1550  0.0645
  417TMC3     O 6225   2.792   4.606  10.882 -0.5514 -0.5874 -0.0414
  417TMC3     H 6226   2.797   0.040  11.235 -0.7475 -1.2134  1.9663
  417TMC3    H1 6227   2.654   0.121  10.829  2.9217  1.1251 -0.2360
  417TMC3    H2 6228   2.469   0.293  11.181  0.7653 -0.9665  2.0212
  417TMC3    C7 6229   2.498   0.314  10.897 -0.1580  0.3155 -0.0469
  417TMC3    C8 6230   2.593   0.147  11.358  0.9713  1.1701  0.3647
  417TMC3    O1 6231   2.531   0.295  10.782 -0.1592  0.2881  0.0598
  417TMC3    O2 6232   2.553   0.249  11.416 -0.7380 -0.4772 -0.1486
  418TMC3    C1 6233   1.542   1.034   0.293  0.5869 -0.2774  0.8004
  418TMC3    C2 6234   1.424   1.089   0.245  0.3443  0.4490 -0.1956
  418TMC3    C3 6235   1.310   1.082   0.320 -0.3169 -0.3023  0.4860
  418TMC3    C4 6236   1.543   0.996   0.429  0.2674 -0.8194 -0.1833
  418TMC3    C5 6237   1.433   0.998   0.503  0.3946 -0.5589 -0.0778
  418TMC3    C6 6238   1.315   1.029   0.447  0.0750 -0.8474 -0.5765
  418TMC3     C 6239   1.665   1.036   0.206  0.7923 -0.6155 -0.7510
  418TMC3     O 6240   1.669   1.129   0.127  0.0374  0.4912 -0.0557
  418TMC3     H 6241   1.412   1.103   0.138 -1.9749  0.5321  0.0764
  418TMC3    H1 6242   1.635   0.956   0.469  0.7858 -0.1245 -0.6738
  418TMC3    H2 6243   1.226   1.024   0.509  0.2644 -0.4871 -0.2757
  418TMC3    C7 6244   1.432   0.920   0.624  0.0130  0.4019  0.8079
  418TMC3    C8 6245   1.195   1.037   0.241 -0.1812 -0.3407 -0.2923
  418TMC3    O1 6246   1.372   0.813   0.615 -0.1426  0.0136  0.0967
  418TMC3    O2 6247   1.186   1.072   0.127 -0.1122  0.1651  0.1868
  419MPD2     C 6248   0.715   4.227  12.354  0.7136 -0.2645 -0.2111
  419MPD2    C1 6249   0.638   4.346  12.353  0.1096 -0.2754  0.0708
  419MPD2    C2 6250   0.605   4.406  12.473  0.4350 -0.0141 -0.4512
  419MPD2    C3 6251   0.644   4.359  12.596  0.6808 -0.3108 -0.0219
  419MPD2    C4 6252   0.716   4.240  12.588  0.3680  0.4877  0.4367
  419MPD2    C5 6253   0.747   4.172  12.476  0.2638 -0.0860 -0.5669
  419MPD2     H 6254   0.546   4.496  12.467  0.3440 -0.0635 -0.2834
  419MPD2    H1 6255   0.741   4.198  12.684 -0.6678 -2.3631 -0.5616
  419MPD2    H2 6256   0.737   4.176  12.261 -1.1889 -1.4121 -0.0267
  419MPD2    H3 6257   0.800   4.077  12.480 -0.5376 -0.4589  0.8949
  419MPD2     N 6258   0.600   4.428  12.716 -0.4633  0.3171 -0.0686
  419MPD2    H5 6259   0.551   4.516  12.706 -1.4409  0.0089  1.8633
  419MPD2    N1 6260   0.610   4.419  12.230  0.2410  0.1805 -0.8438
  419MPD2    H7 6261   0.549   4.500  12.237  1.0575  1.0227 -3.4659
  420TMC3    C1 6262   0.586   4.490  12.946 -0.2184 -0.6696  0.1044
  420TMC3    C2 6263   0.526   4.605  12.905  0.3173  0.4402  0.2726
  420TMC3    C3 6264   0.459   4.681  12.995  0.4546  0.4961  0.5798
  420TMC3    C4 6265   0.581   4.453  13.078  1.0919  0.7770 -0.6781
  420TMC3    C5 6266   0.523   4.535  13.170 -0.1282  0.2357  0.6623
  420TMC3    C6 6267   0.458   4.649  13.128  0.4679 -0.5271 -0.1453
  420TMC3     C 6268   0.632   4.389  12.849 -0.5854 -0.7808  0.2343
  420TMC3     O 6269   0.704   4.296  12.880 -0.6972  0.3482 -0.1156
  420TMC3     H 6270   0.533   4.639  12.802  0.2857  2.0979  0.8083
  420TMC3    H1 6271   0.640   4.365  13.102  0.3613  0.7059  0.8559
  420TMC3    H2 6272   0.408   4.708  13.203 -2.1739 -1.1672 -1.4260
  420TMC3    C7 6273   0.549   4.506  13.310 -0.0547  0.4550  0.1139
  420TMC3    C8 6274   0.411   0.096  12.946  0.2886 -0.2716 -0.1021
  420TMC3    O1 6275   0.575   4.396  13.355  0.0675 -0.0874 -0.7368
  420TMC3    O2 6276   0.400   0.103  12.826  0.6706 -0.2316  0.3867
  421TMC3    C1 6277   1.140   1.629  13.946  0.2262 -1.0406 -0.3117
  421TMC3    C2 6278   1.201   1.697  14.050 -0.8539  0.6843 -0.1504
  421TMC3    C3 6279   1.302   1.626  14.116 -0.1499 -0.2156  0.6460
  421TMC3    C4 6280   1.168   1.504  13.915  0.5578 -0.9720 -0.7251
  421TMC3    C5 6281   1.279   1.440  13.971 -0.2991  0.6314  0.0261
  421TMC3    C6 6282   1.347   1.498  14.079 -0.6383 -0.4374  0.8178
  421TMC3     C 6283   1.052   1.709  13.859 -0.4243 -0.2671  0.3895
  421TMC3     O 6284   1.055   1.831  13.876  0.1894 -0.1457  0.4347
  421TMC3     H 6285   1.174   1.797  14.082  0.0501  0.9586 -0.2415
  421TMC3    H1 6286   1.122   1.457  13.828  2.4499 -0.0071 -2.2571
  421TMC3    H2 6287   1.408   1.429  14.136  1.6933  0.0406 -1.1135
  421TMC3    C7 6288   1.345   1.338  13.892  0.1154  0.0267 -0.1790
  421TMC3    C8 6289   1.364   1.694  14.231  0.4512 -0.1306 -0.2674
  421TMC3    O1 6290   1.423   1.266  13.956 -0.1390 -0.5694  1.0030
  421TMC3    O2 6291   1.284   1.767  14.289  0.4301 -0.0754 -0.2889
  422TMC3    C1 6292   3.664   2.897  12.434 -0.4974 -0.2240  0.5051
  422TMC3    C2 6293   3.728   2.955  12.541  0.2808  0.6752 -0.2097
  422TMC3    C3 6294   3.653   2.982  12.648 -0.3687 -0.3488  0.5136
  422TMC3    C4 6295   3.534   2.856  12.441  0.3760  0.9633 -0.4531
  422TMC3    C5 6296   3.477   2.856  12.563 -0.4348  0.1011 -0.3633
  422TMC3    C6 6297   3.525   2.928  12.669  0.3257  0.2357 -0.2377
  422TMC3     C 6298   3.679   2.981  12.314 -0.0963  0.3326 -0.1337
  422TMC3     O 6299   3.796   2.996  12.274 -0.4615  0.4435 -0.2286
  422TMC3     H 6300   3.822   3.007  12.532 -0.1964  1.2925 -1.7317
  422TMC3    H1 6301   3.486   2.813  12.353 -0.3640 -0.7354  0.7792
  422TMC3    H2 6302   3.480   2.950  12.765  1.3638 -1.4696  0.6367
  422TMC3    C7 6303   3.366   2.768  12.587 -0.5257 -0.0609  0.3984
  422TMC3    C8 6304   3.673   3.121  12.685  0.0688  0.2008  0.0297
  422TMC3    O1 6305   3.353   2.686  12.503  0.1443 -0.3282  0.2185
  422TMC3    O2 6306   3.787   3.144  12.717  0.0146 -0.7593 -0.1538
  423MPD2     C 6307   0.564   3.424   0.565  0.2630  0.4359 -0.1513
  423MPD2    C1 6308   0.617   3.294   0.600 -0.2342 -0.7262 -0.2828
  423MPD2    C2 6309   0.653   3.212   0.493  0.3715  0.6321  0.7132
  423MPD2    C3 6310   0.646   3.258   0.358  0.4518  0.6433  0.2425
  423MPD2    C4 6311   0.603   3.385   0.335 -0.4534 -0.3913 -0.5745
  423MPD2    C5 6312   0.564   3.472   0.433  1.1590 -0.1533  0.6987
  423MPD2     H 6313   0.705   3.123   0.525 -2.6334 -1.6749 -0.8847
  423MPD2    H1 6314   0.583   3.420   0.234  0.1455  0.2489 -0.4694
  423MPD2    H2 6315   0.543   3.500   0.640 -0.5528 -0.1682  0.2394
  423MPD2    H3 6316   0.533   3.572   0.409  0.1390 -0.4480  0.7833
  423MPD2     N 6317   0.678   3.179   0.244  0.1088 -0.2112 -0.6213
  423MPD2    H5 6318   0.664   3.217   0.151 -0.7484 -0.6256 -0.6585
  423MPD2    N1 6319   0.633   3.238   0.733 -0.2417  0.5166 -0.0813
  423MPD2    H7 6320   0.668   3.143   0.740  1.3770  1.1126  0.0498
  424TMC3    C1 6321   0.693   3.238   0.962 -0.3843 -0.4849  0.8183
  424TMC3    C2 6322   0.775   3.299   1.050  0.6524  1.8076  0.8311
  424TMC3    C3 6323   0.769   3.273   1.185 -0.5194  0.0641 -0.0663
  424TMC3    C4 6324   0.592   3.156   1.004 -0.4715 -0.1456  0.5485
  424TMC3    C5 6325   0.572   3.144   1.140  0.6483  0.1206 -0.2424
  424TMC3    C6 6326   0.665   3.193   1.228 -0.0198 -0.2571 -0.2748
  424TMC3     C 6327   0.664   3.315   0.846  0.3316  0.0591  0.6892
  424TMC3     O 6328   0.682   3.435   0.852 -0.3174  0.4516  0.3352
  424TMC3     H 6329   0.849   3.367   1.011  0.9727  0.2467 -1.3314
  424TMC3    H1 6330   0.533   3.111   0.925 -0.3337  0.1545  0.2758
  424TMC3    H2 6331   0.652   3.171   1.334  1.0726 -0.1832 -0.1234
  424TMC3    C7 6332   0.476   3.037   1.175  0.3214 -0.1025 -0.2489
  424TMC3    C8 6333   0.887   3.288   1.258 -1.2095  0.9146 -0.1913
  424TMC3    O1 6334   0.416   2.991   1.082 -0.2335 -0.2077  0.0072
  424TMC3    O2 6335   0.966   3.373   1.218 -0.0222 -0.0553 -0.4020
  425MPD2     C 6336   4.387   2.484  17.271  0.5561  0.3923 -0.8669
  425MPD2    C1 6337   4.387   2.404  17.379  0.4181  0.2375 -0.3617
  425MPD2    C2 6338   4.287   2.421  17.481 -0.6448  0.0242  0.5339
  425MPD2    C3 6339   4.178   2.507  17.464  0.1304 -0.2170  0.0396
  425MPD2    C4 6340   4.182   2.592  17.352 -0.5572  0.0512  0.1005
  425MPD2    C5 6341   4.286   2.578  17.267  0.4034 -0.6045 -0.3879
  425MPD2     H 6342   4.285   2.351  17.563 -4.9659 -0.3826  0.1190
  425MPD2    H1 6343   4.103   2.664  17.336 -1.8470 -1.0847  1.3136
  425MPD2    H2 6344   4.458   2.486  17.188  2.0020 -0.3270  0.3416
  425MPD2    H3 6345   4.279   2.647  17.184  1.2249 -1.4077 -1.1189
  425MPD2     N 6346   4.071   2.490  17.551 -1.1141  0.4644  0.4393
  425MPD2    H5 6347   4.080   2.424  17.627 -2.7445  1.1337  1.2197
  425MPD2    N1 6348   4.489   2.316  17.390 -0.8395  0.2959  0.3669
  425MPD2    H7 6349   4.539   2.291  17.305  1.3987  0.8030  1.5090
  426TMC3    C1 6350   4.627   2.156  17.474  0.2251 -0.3935 -0.1895
  426TMC3    C2 6351   4.584   2.062  17.387  0.1037  0.4352  0.4898
  426TMC3    C3 6352   4.652   1.939  17.396 -0.1743  0.4824  0.1255
  426TMC3    C4 6353   4.711   2.129  17.573 -0.3583 -0.6875 -0.2704
  426TMC3    C5 6354   0.054   2.013  17.580  0.9072  0.3405  0.3759
  426TMC3    C6 6355   0.038   1.916  17.485 -0.3709 -0.2918  0.8851
  426TMC3     C 6356   4.537   2.260  17.505  0.1712  0.1838 -0.3428
  426TMC3     O 6357   4.516   2.294  17.621  0.3342  0.2396 -0.3442
  426TMC3     H 6358   4.497   2.082  17.325  0.0080 -1.3223  0.0398
  426TMC3    H1 6359   0.016   2.207  17.644  0.3471 -0.2175 -1.0403
  426TMC3    H2 6360   0.084   1.820  17.505  2.6694  0.8058 -0.8717
  426TMC3    C7 6361   0.101   1.987   0.027  0.1066 -0.6122  0.1067
  426TMC3    C8 6362   4.595   1.823  17.350 -0.1363 -0.3905 -0.0803
  426TMC3    O1 6363   0.208   1.936   0.038  0.2301 -0.4413 -0.4652
  426TMC3    O2 6364   4.654   1.717  17.338  0.1236 -0.1317  0.4523
  427MPD2     C 6365   2.714   4.663  14.580  0.0879  0.3848  0.5384
  427MPD2    C1 6366   2.674   4.631  14.701  0.0072 -0.0083  0.1575
  427MPD2    C2 6367   2.540   4.640  14.736 -0.0818  0.4634 -0.0139
  427MPD2    C3 6368   2.446   4.677  14.637  0.7090 -0.3366  0.4794
  427MPD2    C4 6369   2.495   4.716  14.512  0.4149 -1.6006 -0.3920
  427MPD2    C5 6370   2.625   4.716  14.485  0.2481  0.4880 -0.3150
  427MPD2     H 6371   2.513   4.600  14.833  0.7620 -0.1101 -0.0116
  427MPD2    H1 6372   2.430   0.026  14.430  2.0907 -0.4312 -1.3063
  427MPD2    H2 6373   2.812   4.643  14.539 -1.4555 -4.2870 -0.9427
  427MPD2    H3 6374   2.645   0.017  14.381  1.4453  0.8290 -0.0175
  427MPD2     N 6375   2.314   4.698  14.676  0.4626 -0.2731  0.1326
  427MPD2    H5 6376   2.258   0.020  14.603 -0.0176  2.7205  2.2454
  427MPD2    N1 6377   2.762   4.571  14.796  0.0235  0.3460  0.4931
  427MPD2    H7 6378   2.722   4.542  14.885 -0.8347  0.8794  0.2867
  428TMC3    C1 6379   2.941   4.485  14.904 -0.0624  0.6418 -0.2603
  428TMC3    C2 6380   2.869   4.383  14.962 -0.0988 -0.8799 -0.4472
  428TMC3    C3 6381   2.925   4.304  15.054 -0.3258  0.0220  0.1061
  428TMC3    C4 6382   3.069   4.510  14.941 -0.0133 -0.0142 -0.0811
  428TMC3    C5 6383   3.121   4.427  15.034  0.4029  0.5618  0.0209
  428TMC3    C6 6384   3.053   4.325  15.095  0.6136  0.6712 -0.8539
  428TMC3     C 6385   2.895   4.560  14.791 -0.0200  0.0696 -0.3016
  428TMC3     O 6386   2.976   4.617  14.720 -0.8078 -0.0648  0.2016
  428TMC3     H 6387   2.769   4.360  14.928 -0.0225 -0.6119 -0.8507
  428TMC3    H1 6388   3.123   4.595  14.901  0.4707  0.0818  0.7817
  428TMC3    H2 6389   3.106   4.270  15.172  1.8614  2.3339 -0.5247
  428TMC3    C7 6390   3.241   4.465  15.109 -0.1592  0.0929  0.5829
  428TMC3    C8 6391   2.871   4.173  15.085  0.0479 -0.1701 -0.1781
  428TMC3    O1 6392   3.246   4.434  15.225  0.6440 -0.2856 -0.0159
  428TMC3    O2 6393   2.946   4.086  15.120  0.0094 -0.1218 -0.0974
  429MPD2     C 6394   3.378   4.605   0.210 -0.1064  0.0886 -0.3625
  429MPD2    C1 6395   3.504   4.554   0.176 -0.3077 -0.0720 -0.0858
  429MPD2    C2 6396   3.556   4.597   0.054  0.3958 -0.1063 -0.0304
  429MPD2    C3 6397   3.496   4.688  17.649  0.1651  0.1194  0.8627
  429MPD2    C4 6398   3.370   0.009  17.681 -0.1462 -0.3630  0.5623
  429MPD2    C5 6399   3.313   4.688   0.120  0.1357  0.1591 -0.1646
  429MPD2     H 6400   3.651   4.554   0.023  0.1320 -0.9417  0.3329
  429MPD2    H1 6401   3.317   0.084  17.624  0.4937  0.0855  0.5682
  429MPD2    H2 6402   3.330   4.577   0.303 -1.6620  1.4163 -0.7522
  429MPD2    H3 6403   3.214   0.008   0.141 -0.2893 -1.9751  1.8193
  429MPD2     N 6404   3.574   0.002  17.537  0.2316  0.8103  0.2969
  429MPD2    H5 6405   3.666   4.678  17.532 -0.8920 -1.6213  1.2157
  429MPD2    N1 6406   3.574   4.464   0.256 -0.0044 -0.1843 -0.2225
  429MPD2    H7 6407   3.651   4.419   0.208 -0.4221  0.7383 -1.7500
  430TMC3    C1 6408   3.624   0.092  17.326 -0.7759 -0.8743  0.1463
  430TMC3    C2 6409   3.586   0.180  17.234  0.5779  0.6521 -0.3337
  430TMC3    C3 6410   3.672   0.190  17.125 -0.3761 -0.1477 -0.6041
  430TMC3    C4 6411   3.734   0.011  17.328  0.0672  0.0318  0.6465
  430TMC3    C5 6412   3.816   0.031  17.222 -0.3930 -0.4080  0.1626
  430TMC3    C6 6413   3.785   0.116  17.120 -0.1065  0.6695 -0.2018
  430TMC3     C 6414   3.533   0.084  17.437  0.4122 -0.1993 -0.8191
  430TMC3     O 6415   3.437   0.165  17.438 -0.4892 -0.0973  0.0871
  430TMC3     H 6416   3.498   0.242  17.228 -0.6584 -1.0279  0.4191
  430TMC3    H1 6417   3.761   4.649  17.394  1.6634 -1.0067 -1.2764
  430TMC3    H2 6418   3.846   0.121  17.031  2.0544  1.2272  1.3296
  430TMC3    C7 6419   3.944   4.690  17.220 -0.2259  0.2422 -0.3225
  430TMC3    C8 6420   3.643   0.258  16.999 -0.1621 -0.1780 -0.2783
  430TMC3    O1 6421   3.957   4.578  17.254 -0.0194 -0.0183  0.3995
  430TMC3    O2 6422   3.534   0.242  16.951  0.2422  0.2412 -0.2898
  431MPD2     C 6423   0.172   0.317  12.280  0.7933  0.1088  0.3801
  431MPD2    C1 6424   0.270   0.357  12.195  0.0733 -0.6516 -0.6810
  431MPD2    C2 6425   0.321   0.279  12.097 -0.2561  0.1142 -0.5571
  431MPD2    C3 6426   0.278   0.144  12.091 -0.1770  0.3534  0.2767
  431MPD2    C4 6427   0.186   0.095  12.186 -0.5926 -0.7213 -0.0750
  431MPD2    C5 6428   0.142   0.187  12.278 -0.0331  0.0846  0.2116
  431MPD2     H 6429   0.403   0.318  12.038  0.1314 -0.5065 -0.4281
  431MPD2    H1 6430   0.154   4.711  12.186 -0.0326 -0.8884  0.2271
  431MPD2    H2 6431   0.123   0.377  12.355  1.2462 -0.4508  1.1371
  431MPD2    H3 6432   0.076   0.142  12.351  1.4773 -1.9806  0.2750
  431MPD2     N 6433   0.348   0.045  12.022 -0.2981 -0.1496  0.2831
  431MPD2    H5 6434   0.313   4.670  12.032  0.3286 -0.4937 -0.8795
  431MPD2    N1 6435   0.318   0.490  12.201 -1.3643 -0.4748  0.1999
  431MPD2    H7 6436   0.369   0.524  12.120 -0.6716  0.6055  1.1046
  432TMC3    C1 6437   0.517   4.660  11.902 -0.0213  0.1083 -0.6459
  432TMC3    C2 6438   0.586   4.645  11.784  0.1488  0.0270  0.1208
  432TMC3    C3 6439   0.693   4.555  11.783  1.0131  0.5443 -0.6704
  432TMC3    C4 6440   0.552   4.585  12.013  0.6618 -0.1010  0.5194
  432TMC3    C5 6441   0.646   4.483  12.000  1.1378 -0.0895  0.0809
  432TMC3    C6 6442   0.714   4.461  11.882 -0.2728 -0.3823  0.4676
  432TMC3     C 6443   0.448   0.069  11.928  0.1768  0.1108  0.0721
  432TMC3     O 6444   0.492   0.171  11.877 -0.8687 -0.0025  0.1378
  432TMC3     H 6445   0.572   4.703  11.694 -3.6809 -0.5591  0.3143
  432TMC3    H1 6446   0.491   4.594  12.102 -1.9145  0.9182 -1.3458
  432TMC3    H2 6447   0.797   4.392  11.871 -1.0751 -1.2122 -0.3446
  432TMC3    C7 6448   0.686   4.404  12.111  0.0904 -0.5464 -0.1253
  432TMC3    C8 6449   0.749   4.512  11.657  0.5014  0.0404  0.1953
  432TMC3    O1 6450   0.782   4.328  12.084 -0.3873 -0.3372 -0.7381
  432TMC3    O2 6451   0.777   4.393  11.636 -0.1248 -0.0313 -0.7234
  433MPD2     C 6452   4.124   4.184  10.963 -0.2867 -0.8411  0.0479
  433MPD2    C1 6453   4.036   4.077  10.946 -0.4682  0.4132 -0.1739
  433MPD2    C2 6454   3.946   4.042  11.050  0.0833  0.1846  0.6884
  433MPD2    C3 6455   3.958   4.109  11.172  0.0370  0.4800 -0.3457
  433MPD2    C4 6456   4.042   4.219  11.189  0.6556  0.3247 -0.4343
  433MPD2    C5 6457   4.124   4.252  11.080  0.1385  0.2453 -0.1290
  433MPD2     H 6458   3.889   3.949  11.047  0.4778 -0.0732  1.1600
  433MPD2    H1 6459   4.057   4.278  11.279 -0.5255  0.2428 -0.1886
  433MPD2    H2 6460   4.176   4.221  10.875  1.0350  0.3543  1.3275
  433MPD2    H3 6461   4.186   4.341  11.075  0.1120  0.2450 -0.4604
  433MPD2     N 6462   3.887   4.059  11.284 -0.0573  0.2912 -0.9193
  433MPD2    H5 6463   3.841   3.970  11.274 -1.0782  0.7715 -0.5140
  433MPD2    N1 6464   4.038   4.017  10.817  0.4175 -0.3415 -0.2272
  433MPD2    H7 6465   4.128   4.026  10.772  0.1223  0.5541 -0.6451
  434TMC3    C1 6466   3.975   3.828  10.694 -0.1513 -0.8867 -0.3764
  434TMC3    C2 6467   4.039   3.727  10.763 -0.2728 -0.7065  0.4606
  434TMC3    C3 6468   4.100   3.620  10.697  0.5518  0.5437  0.1838
  434TMC3    C4 6469   3.957   3.827  10.560 -0.1739 -0.2590  0.4628
  434TMC3    C5 6470   4.011   3.717  10.493 -1.5576 -0.2167 -0.0721
  434TMC3    C6 6471   4.080   3.611  10.559  0.1363 -0.5212  0.3546
  434TMC3     C 6472   3.933   3.938  10.772  0.5666 -0.1763  0.8129
  434TMC3     O 6473   3.814   3.926  10.809 -1.1112  0.0035 -0.3832
  434TMC3     H 6474   4.049   3.737  10.870 -0.1173  1.7642  0.2003
  434TMC3    H1 6475   3.897   3.903  10.512 -1.5476 -1.1275  0.8025
  434TMC3    H2 6476   4.119   3.528  10.502 -1.2491 -0.5843 -0.5022
  434TMC3    C7 6477   3.954   3.683  10.363  1.1187 -0.1081 -0.2286
  434TMC3    C8 6478   4.166   3.514  10.784  0.2558 -0.8450  0.1846
  434TMC3    O1 6479   3.879   3.770  10.317 -0.1026  0.5887 -0.4443
  434TMC3    O2 6480   4.155   3.538  10.902 -0.5015  0.6661  0.0004
  435MPD2     C 6481   0.870   3.201  15.156 -0.2336  0.1662 -0.2686
  435MPD2    C1 6482   0.822   3.161  15.273 -0.3637 -0.1806 -0.1775
  435MPD2    C2 6483   0.911   3.103  15.362  0.0535  0.0732  0.3030
  435MPD2    C3 6484   1.050   3.104  15.344 -0.3092  0.5292  0.1316
  435MPD2    C4 6485   1.100   3.143  15.221  0.1216 -0.2758 -0.3869
  435MPD2    C5 6486   1.003   3.187  15.130  0.4184 -0.1889 -0.1279
  435MPD2     H 6487   0.885   3.080  15.464  2.7611  1.5271  1.3347
  435MPD2    H1 6488   1.207   3.152  15.201  0.7585  0.5436  3.3887
  435MPD2    H2 6489   0.802   3.242  15.082  0.7085 -2.5216 -2.6465
  435MPD2    H3 6490   1.025   3.230  15.033  0.7250  0.0654  0.0542
  435MPD2     N 6491   1.131   3.052  15.447 -0.2065  0.0360 -0.1385
  435MPD2    H5 6492   1.081   3.014  15.527 -0.6138 -0.9361 -0.8483
  435MPD2    N1 6493   0.684   3.173  15.317 -0.0860 -0.3436 -0.4881
  435MPD2    H7 6494   0.658   3.132  15.406 -0.3769 -0.9293 -0.8462
  436TMC3    C1 6495   0.365   3.336  15.501  0.5889  0.1064  0.1772
  436TMC3    C2 6496   0.473   3.275  15.445  0.2751  0.1447  0.4860
  436TMC3    C3 6497   0.462   3.221  15.322  0.8346 -0.2656 -0.0003
  436TMC3    C4 6498   0.254   3.355  15.426 -0.5372  0.4631  0.3798
  436TMC3    C5 6499   0.252   3.316  15.291  0.3719 -0.6472  0.2724
  436TMC3    C6 6500   0.357   3.241  15.245  0.3474 -0.1205 -0.8170
  436TMC3     C 6501   0.392   3.433  15.599 -0.8146  0.1158 -0.3139
  436TMC3     O 6502   0.511   3.459  15.626  0.8382  0.3221  0.0782
  436TMC3     H 6503   0.569   3.279  15.495  1.2494  0.0857 -1.3803
  436TMC3    H1 6504   0.174   3.417  15.464 -0.2308  0.9815  0.1740
  436TMC3    H2 6505   0.363   3.219  15.139 -1.9443  0.0507 -0.9861
  436TMC3    C7 6506   0.135   3.320  15.219 -0.1334 -0.1037 -0.2859
  436TMC3    C8 6507   0.585   3.231  15.239  0.4663 -0.2598 -0.5602
  436TMC3    O1 6508   0.036   3.349  15.287  0.4526  0.1810 -0.9067
  436TMC3    O2 6509   0.589   3.288  15.131  0.1525 -0.3189  0.3375
  437TMC3    C1 6510   3.963   1.569  12.514  0.0149 -0.4757  0.3127
  437TMC3    C2 6511   3.929   1.676  12.590 -0.6794  0.9212  0.1251
  437TMC3    C3 6512   3.947   1.799  12.531  0.1884 -0.4633 -0.6187
  437TMC3    C4 6513   4.012   1.584  12.389  0.2599  0.0570 -0.2734
  437TMC3    C5 6514   4.020   1.708  12.334 -0.1788  0.1059  0.1095
  437TMC3    C6 6515   3.992   1.824  12.402  0.2741 -0.4070 -0.3757
  437TMC3     C 6516   3.924   1.439  12.549  0.0364  0.8145  1.0896
  437TMC3     O 6517   4.006   1.353  12.565 -0.6628 -0.2477 -0.1272
  437TMC3     H 6518   3.900   1.659  12.693  0.5689  0.2994  0.3735
  437TMC3    H1 6519   4.026   1.490  12.337  1.5318 -0.8562  1.7303
  437TMC3    H2 6520   4.009   1.920  12.357  0.2940 -0.6195 -0.8210
  437TMC3    C7 6521   4.138   1.728  12.248  0.5365  0.5162  0.7606
  437TMC3    C8 6522   3.938   1.913  12.610  0.0357 -0.2916 -0.1890
  437TMC3    O1 6523   4.150   1.830  12.184  0.1559  0.1198 -0.5587
  437TMC3    O2 6524   4.013   2.005  12.586  0.1739 -0.1051  0.1304
  438MPD2     C 6525   1.771   1.373  16.792 -1.0276  0.0011 -0.4165
  438MPD2    C1 6526   1.801   1.269  16.878  0.4379  0.3549 -0.4644
  438MPD2    C2 6527   1.725   1.247  16.990  0.5668  0.3311  0.5417
  438MPD2    C3 6528   1.606   1.320  17.002 -0.0064 -0.1977 -0.0761
  438MPD2    C4 6529   1.571   1.408  16.903  0.5142  0.2482 -0.1342
  438MPD2    C5 6530   1.649   1.443  16.799 -0.2382 -0.2411  0.0031
  438MPD2     H 6531   1.757   1.169  17.058 -0.8762  1.3368  2.3752
  438MPD2    H1 6532   1.476   1.458  16.915  1.1607  1.1495  1.3111
  438MPD2    H2 6533   1.837   1.396  16.710 -1.5673  1.6731 -0.3883
  438MPD2    H3 6534   1.624   1.515  16.722 -1.3194  1.1676  1.6974
  438MPD2     N 6535   1.537   1.301  17.126  0.2353  0.2356 -0.1006
  438MPD2    H5 6536   1.581   1.237  17.190 -1.6642 -1.5301 -0.5603
  438MPD2    N1 6537   1.920   1.188  16.864 -0.1753 -0.0003  0.5758
  438MPD2    H7 6538   1.933   1.122  16.941  0.0479 -0.0187  0.5226
  439TMC3    C1 6539   2.100   1.073  16.754 -0.0776  0.1809 -0.7238
  439TMC3    C2 6540   2.142   1.033  16.628  0.1857  0.2055 -0.3174
  439TMC3    C3 6541   2.258   0.965  16.630  0.2262  0.9322  0.3026
  439TMC3    C4 6542   2.161   1.048  16.871  0.5758 -0.4578  0.0712
  439TMC3    C5 6543   2.281   0.985  16.865  0.0168 -0.3200  0.2967
  439TMC3    C6 6544   2.329   0.941  16.740 -0.2212  0.6150  0.2027
  439TMC3     C 6545   1.992   1.182  16.751 -0.0849 -0.0888  0.4765
  439TMC3     O 6546   1.965   1.224  16.640 -0.6133 -0.0593  0.6033
  439TMC3     H 6547   2.116   1.082  16.535 -2.0294  1.6171  1.0616
  439TMC3    H1 6548   2.135   1.100  16.963 -3.1444  1.3428 -1.9859
  439TMC3    H2 6549   2.428   0.897  16.735 -1.7708 -2.8600  0.1226
  439TMC3    C7 6550   2.344   0.928  16.977  0.2385 -0.0200 -0.7766
  439TMC3    C8 6551   2.314   0.912  16.503 -0.3610  0.0257  0.2009
  439TMC3    O1 6552   2.464   0.891  16.960  0.1108 -0.0545  0.8359
  439TMC3    O2 6553   2.426   0.861  16.511  0.3100 -0.1632 -0.6089
  440MPD2     C 6554   0.975   1.641  14.718  0.7495 -0.8572  0.1104
  440MPD2    C1 6555   0.979   1.741  14.817 -0.5755 -0.4391 -0.0164
  440MPD2    C2 6556   1.048   1.711  14.932  0.0109 -0.3165 -0.1225
  440MPD2    C3 6557   1.100   1.590  14.960 -0.0359 -1.0270 -0.2047
  440MPD2    C4 6558   1.093   1.491  14.863  1.1219  0.4629 -0.1924
  440MPD2    C5 6559   1.042   1.524  14.742 -0.4517  0.3158  0.3451
  440MPD2     H 6560   1.051   1.795  15.001  0.2061  0.8439 -1.5393
  440MPD2    H1 6561   1.132   1.389  14.862  1.0765  0.4378  0.3881
  440MPD2    H2 6562   0.927   1.648  14.621 -0.2365 -1.4457  0.5516
  440MPD2    H3 6563   1.049   1.453  14.660 -0.1941 -0.9257  1.4354
  440MPD2     N 6564   1.171   1.554  15.077  0.1197 -0.0403 -0.0817
  440MPD2    H5 6565   1.201   1.461  15.104 -3.5079 -0.2551  3.2267
  440MPD2    N1 6566   0.910   1.864  14.812  0.4950 -0.2569 -0.5214
  440MPD2    H7 6567   0.923   1.917  14.898  0.1520 -0.3981 -0.3791
  441TMC3    C1 6568   1.288   1.596  15.282  0.1577 -0.0868  0.1743
  441TMC3    C2 6569   1.300   1.670  15.395  0.6559  0.1443  0.6183
  441TMC3    C3 6570   1.344   1.616  15.514 -0.8111  0.0031 -0.0600
  441TMC3    C4 6571   1.324   1.466  15.280  0.4645 -0.4514 -0.5189
  441TMC3    C5 6572   1.368   1.407  15.398 -0.3821 -0.1694  0.1390
  441TMC3    C6 6573   1.383   1.480  15.513  0.2378  0.2921 -0.5972
  441TMC3     C 6574   1.217   1.648  15.169  0.6179  0.2164 -0.5461
  441TMC3     O 6575   1.220   1.768  15.162 -0.2020  0.1391  0.6516
  441TMC3     H 6576   1.274   1.775  15.387 -1.8202 -0.5957 -1.0738
  441TMC3    H1 6577   1.293   1.398  15.202 -0.3769 -0.3756 -0.2420
  441TMC3    H2 6578   1.398   1.429  15.608 -0.8339 -1.9440 -1.5995
  441TMC3    C7 6579   1.316   1.267  15.408 -0.7292 -0.2824  0.8276
  441TMC3    C8 6580   1.285   1.668  15.635 -0.7431 -1.0663  0.9171
  441TMC3    O1 6581   1.198   1.264  15.381  0.1133 -0.3307  0.0998
  441TMC3    O2 6582   1.283   1.577  15.721 -0.1607 -0.4924  0.1321
  442MPD2     C 6583   3.869   2.174  16.815  0.1579 -0.8458  0.5373
  442MPD2    C1 6584   3.790   2.086  16.887  0.0808  0.0010 -0.3555
  442MPD2    C2 6585   3.788   1.949  16.851 -0.0809  0.6672 -0.0474
  442MPD2    C3 6586   3.874   1.905  16.752 -0.2344  0.4691  0.3502
  442MPD2    C4 6587   3.966   1.994  16.697  0.7628 -1.2245 -0.4866
  442MPD2    C5 6588   3.957   2.132  16.726  0.5266 -0.3623 -0.3437
  442MPD2     H 6589   3.739   1.877  16.915 -0.5995  0.2117 -0.9594
  442MPD2    H1 6590   4.039   1.963  16.623  0.0744 -0.4924 -1.4686
  442MPD2    H2 6591   3.878   2.279  16.839 -1.3228  0.0062 -2.6959
  442MPD2    H3 6592   4.020   2.208  16.680  0.4604  0.8718  1.5907
  442MPD2     N 6593   3.872   1.776  16.708  0.3941  0.0441  0.0896
  442MPD2    H5 6594   3.941   1.741  16.643  1.7834  0.7143  1.2075
  442MPD2    N1 6595   3.700   2.129  16.995 -0.0682  0.2602 -0.0858
  442MPD2    H7 6596   3.663   2.059  17.059 -0.0078  1.5957  1.4344
  443TMC3    C1 6597   3.570   2.279  17.122 -0.3321  0.1687  0.7407
  443TMC3    C2 6598   3.471   2.373  17.103 -0.7216  0.1287 -0.4447
  443TMC3    C3 6599   3.343   2.350  17.152  0.5817  0.7416 -0.5548
  443TMC3    C4 6600   3.542   2.165  17.196  0.1924  0.2088  0.2765
  443TMC3    C5 6601   3.419   2.149  17.250 -0.2875 -0.1138 -0.0137
  443TMC3    C6 6602   3.322   2.245  17.233  0.3787 -1.1836  0.1447
  443TMC3     C 6603   3.667   2.257  17.016  0.6992  0.4607  0.1959
  443TMC3     O 6604   3.702   2.356  16.955  1.2831  0.3248  0.2307
  443TMC3     H 6605   3.488   2.454  17.033  3.6922  0.8513  1.4235
  443TMC3    H1 6606   3.614   2.098  17.242 -1.0401 -0.7369  0.8286
  443TMC3    H2 6607   3.221   2.224  17.266  0.1451  0.4507  0.4427
  443TMC3    C7 6608   3.390   2.024  17.307 -0.0185 -0.3914  0.3651
  443TMC3    C8 6609   3.246   2.346  17.042  0.3401 -0.3252 -0.2511
  443TMC3    O1 6610   3.447   1.930  17.252 -0.1199  0.2638  0.4579
  443TMC3    O2 6611   3.193   2.237  17.018 -0.3146  0.2649 -0.3050
  444MPD2     C 6612   4.258   1.192  17.295 -0.6588 -0.1586 -0.0615
  444MPD2    C1 6613   4.154   1.178  17.203 -0.2248 -0.1736  0.0275
  444MPD2    C2 6614   4.189   1.104  17.089  0.0418  0.1785  0.3252
  444MPD2    C3 6615   4.321   1.065  17.064  0.6087  0.3883 -0.3066
  444MPD2    C4 6616   4.424   1.093  17.152 -0.3809 -0.4568  0.4591
  444MPD2    C5 6617   4.384   1.157  17.267 -0.4667 -0.0883 -0.0607
  444MPD2     H 6618   4.113   1.078  17.016 -2.4852 -2.1486  3.7224
  444MPD2    H1 6619   4.528   1.068  17.134 -0.4589 -0.8408  0.5327
  444MPD2    H2 6620   4.240   1.257  17.380  1.7506  0.7922 -0.2916
  444MPD2    H3 6621   4.463   1.175  17.339 -0.9566 -1.3122  0.8078
  444MPD2     N 6622   4.343   0.983  16.949 -0.0059 -0.6805 -0.2019
  444MPD2    H5 6623   4.258   0.946  16.909  1.1341 -0.1391 -3.0711
  444MPD2    N1 6624   4.018   1.221  17.217  0.6107 -0.2989  0.4563
  444MPD2    H7 6625   3.960   1.204  17.135 -0.9926 -1.8285  1.8942
  445TMC3    C1 6626   4.451   0.902  16.752  0.0227 -0.9920 -0.0018
  445TMC3    C2 6627   4.327   0.881  16.686 -0.1918  0.1825 -0.4192
  445TMC3    C3 6628   4.334   0.854  16.554 -0.5984  0.6402  0.5715
  445TMC3    C4 6629   4.571   0.879  16.686  0.0018  0.5086  0.4999
  445TMC3    C5 6630   4.573   0.851  16.552 -0.7719 -0.0871 -0.3302
  445TMC3    C6 6631   4.455   0.838  16.485  0.0399 -0.5663 -0.2486
  445TMC3     C 6632   4.466   0.955  16.889  0.5729 -0.4346 -0.1449
  445TMC3     O 6633   4.573   0.997  16.916  0.2167 -0.3780  0.1391
  445TMC3     H 6634   4.241   0.876  16.751 -1.6754 -0.7385 -2.4409
  445TMC3    H1 6635   4.662   0.882  16.744 -0.6979  2.0949  1.5339
  445TMC3    H2 6636   4.460   0.806  16.382  0.9780  1.4934 -0.8434
  445TMC3    C7 6637   4.685   0.806  16.480  0.7317  0.2448 -0.4941
  445TMC3    C8 6638   4.220   0.791  16.489  0.2067  0.1475  0.6833
  445TMC3    O1 6639   4.673   0.790  16.360  0.4082 -0.0104 -0.5007
  445TMC3    O2 6640   4.160   0.704  16.554 -0.1171  0.0605 -0.2269
  446MPD2     C 6641   3.787   3.364  11.319  0.7936 -0.2149 -0.2614
  446MPD2    C1 6642   3.822   3.360  11.181 -0.4433  0.6881  0.6746
  446MPD2    C2 6643   3.917   3.446  11.133  0.1729 -0.2237  0.4754
  446MPD2    C3 6644   3.962   3.555  11.206 -0.8256  0.7078  0.5484
  446MPD2    C4 6645   3.913   3.566  11.337  0.1690  0.8813 -0.2186
  446MPD2    C5 6646   3.824   3.472  11.392 -0.3008 -0.0818 -0.4532
  446MPD2     H 6647   3.961   3.431  11.035 -0.1536  1.5125  0.0726
  446MPD2    H1 6648   3.943   3.645  11.406 -3.4947  0.3893  1.9188
  446MPD2    H2 6649   3.717   3.289  11.357  0.7418 -1.1072 -2.1075
  446MPD2    H3 6650   3.783   3.478  11.493  0.5322 -0.2367 -0.1074
  446MPD2     N 6651   4.061   3.642  11.146 -0.0713 -0.6612 -0.2424
  446MPD2    H5 6652   4.090   3.623  11.051 -0.0441  1.0933 -0.5843
  446MPD2    N1 6653   3.780   3.260  11.094 -0.2527 -0.1860 -0.2760
  446MPD2    H7 6654   3.790   3.273  10.994 -2.4371  1.5580 -0.2711
  447TMC3    C1 6655   4.250   3.787  11.161  0.5701  0.0116  0.1587
  447TMC3    C2 6656   4.276   3.797  11.026  0.7987 -0.1388  0.3782
  447TMC3    C3 6657   4.407   3.808  10.979  0.2630 -0.4148 -0.4692
  447TMC3    C4 6658   4.352   3.780  11.247  0.0191  0.1369 -0.1695
  447TMC3    C5 6659   4.475   3.757  11.193 -0.5340 -0.5166  0.8611
  447TMC3    C6 6660   4.507   3.771  11.059 -0.5973 -0.4793 -0.2221
  447TMC3     C 6661   4.124   3.745  11.221 -0.6650 -0.3816  0.2677
  447TMC3     O 6662   4.104   3.783  11.337 -0.0497 -0.3104 -0.0173
  447TMC3     H 6663   4.188   3.810  10.963  1.6114  2.3929 -0.2526
  447TMC3    H1 6664   4.337   3.781  11.354  1.9550  0.5124  0.0948
  447TMC3    H2 6665   4.606   3.765  11.016 -1.9717 -0.4244 -3.4294
  447TMC3    C7 6666   4.584   3.695  11.265 -0.8805 -0.6309  0.4601
  447TMC3    C8 6667   4.428   3.789  10.830  0.5043 -0.3915 -0.2357
  447TMC3    O1 6668   4.695   3.707  11.216  0.9561  0.2732  0.4715
  447TMC3    O2 6669   4.364   3.861  10.755  0.1672  0.3019  0.1929
  448TMC3    C1 6670   2.652   2.681  16.860 -0.0255  0.3881 -0.2288
  448TMC3    C2 6671   2.601   2.562  16.810  0.6772  0.4215 -0.6294
  448TMC3    C3 6672   2.641   2.445  16.865  0.1567 -0.0884 -0.0664
  448TMC3    C4 6673   2.750   2.676  16.956 -0.2206 -0.0110 -0.5403
  448TMC3    C5 6674   2.793   2.556  17.004 -0.2359 -0.1737  0.0403
  448TMC3    C6 6675   2.735   2.441  16.968  0.4970 -0.3052 -0.1659
  448TMC3     C 6676   2.605   2.814  16.818 -0.0537 -0.1111 -0.4031
  448TMC3     O 6677   2.663   2.914  16.853 -0.0481 -0.2871  0.8361
  448TMC3     H 6678   2.543   2.549  16.719  1.7600  0.6604 -1.3598
  448TMC3    H1 6679   2.790   2.773  16.986  0.3689 -0.8190  1.2889
  448TMC3    H2 6680   2.797   2.354  16.990  0.9449 -0.3209 -1.4560
  448TMC3    C7 6681   2.874   2.548  17.124 -0.3130 -0.5849  0.2548
  448TMC3    C8 6682   2.571   2.316  16.844  0.3032  0.0872 -0.2516
  448TMC3    O1 6683   2.968   2.625  17.138  0.2025 -0.2634  0.0394
  448TMC3    O2 6684   2.607   2.226  16.922  0.0756 -0.4374  0.0349
  449MPD2     C 6685   3.110   1.222  13.983  0.2401 -0.4696  0.2384
  449MPD2    C1 6686   3.110   1.166  13.853  0.9102  0.2308  0.1207
  449MPD2    C2 6687   3.121   1.027  13.841 -0.0441 -0.5461  0.0943
  449MPD2    C3 6688   3.113   0.946  13.949  0.0905  0.0009  0.2386
  449MPD2    C4 6689   3.096   1.000  14.072  0.2531  0.0749 -0.1798
  449MPD2    C5 6690   3.100   1.136  14.089 -0.0088  0.4282  0.3292
  449MPD2     H 6691   3.130   0.984  13.742  1.7407  2.6091 -1.1538
  449MPD2    H1 6692   3.062   0.943  14.158 -2.0297  0.4963 -0.7884
  449MPD2    H2 6693   3.115   1.328  14.002 -1.3685 -0.2213 -0.6951
  449MPD2    H3 6694   3.094   1.178  14.189  0.1660  0.4358  0.3372
  449MPD2     N 6695   3.131   0.809  13.927 -0.4055 -0.3124  0.1022
  449MPD2    H5 6696   3.131   0.782  13.829  0.9491  2.6322 -0.7060
  449MPD2    N1 6697   3.103   1.239  13.733  0.1487 -0.2819 -0.2122
  449MPD2    H7 6698   3.107   1.188  13.646  1.5022  0.1995 -0.4381
  450TMC3    C1 6699   3.089   1.404  13.578 -0.1222 -0.1921 -1.4520
  450TMC3    C2 6700   3.205   1.454  13.539  0.4410  0.5439  0.2107
  450TMC3    C3 6701   3.272   1.411  13.426 -0.3856 -0.3559 -0.9774
  450TMC3    C4 6702   3.043   1.297  13.502 -0.3822 -0.1667  0.6411
  450TMC3    C5 6703   3.102   1.258  13.387  0.2241 -0.2770  0.0116
  450TMC3    C6 6704   3.213   1.318  13.339  0.0394 -0.4479  0.3223
  450TMC3     C 6705   3.094   1.375  13.726 -0.0425  0.6195  0.2160
  450TMC3     O 6706   3.098   1.459  13.811 -0.2052 -0.5712 -0.3796
  450TMC3     H 6707   3.242   1.539  13.596 -1.5629  1.6723 -0.1777
  450TMC3    H1 6708   2.944   1.259  13.527 -0.4232  1.3124  2.7330
  450TMC3    H2 6709   3.254   1.298  13.241  1.8774  0.6635  0.8772
  450TMC3    C7 6710   3.108   1.117  13.391  0.4230 -0.7621 -1.1710
  450TMC3    C8 6711   3.358   1.510  13.371 -0.5144  0.3683  0.0423
  450TMC3    O1 6712   3.065   1.078  13.503  0.4206  0.9761  0.7882
  450TMC3    O2 6713   3.357   1.628  13.409 -0.3205 -0.0761 -0.2411
  451MPD2     C 6714   0.539   0.343   1.553  0.0878 -0.0460  0.1522
  451MPD2    C1 6715   0.487   0.314   1.673 -0.0881 -1.1013  0.0801
  451MPD2    C2 6716   0.492   0.178   1.707 -0.2929 -0.6232  0.5295
  451MPD2    C3 6717   0.565   0.086   1.636 -0.3207 -0.3775  0.1553
  451MPD2    C4 6718   0.629   0.124   1.520  0.5644  0.0986  0.1029
  451MPD2    C5 6719   0.609   0.252   1.480 -0.4401  0.0921  0.6679
  451MPD2     H 6720   0.425   0.138   1.782 -2.4344  0.4749 -0.8107
  451MPD2    H1 6721   0.703   0.065   1.467  1.0544  1.2496 -0.4800
  451MPD2    H2 6722   0.515   0.442   1.518  0.6353 -0.6750 -1.9607
  451MPD2    H3 6723   0.660   0.281   1.389 -1.2646 -0.7782 -0.0744
  451MPD2     N 6724   0.590   4.673   1.671  0.1742 -0.0702  0.3531
  451MPD2    H5 6725   0.632   4.619   1.596  1.0354 -0.7444  1.3284
  451MPD2    N1 6726   0.406   0.416   1.734 -0.2203 -0.0247 -0.1749
  451MPD2    H7 6727   0.408   0.506   1.687 -0.7489 -0.6689 -1.4411
  452TMC3    C1 6728   0.583   4.471   1.797 -0.1709 -0.0744  0.1781
  452TMC3    C2 6729   0.636   4.406   1.907  0.2489  0.0924  0.2544
  452TMC3    C3 6730   0.650   4.272   1.909  0.7411  0.3047 -0.2639
  452TMC3    C4 6731   0.560   4.400   1.683 -0.3482 -0.4444  0.4454
  452TMC3    C5 6732   0.587   4.269   1.681  0.8762  0.5338  0.2531
  452TMC3    C6 6733   0.633   4.201   1.791 -0.3138 -0.2329 -0.1213
  452TMC3     C 6734   0.550   4.613   1.789  0.2264  0.2166  0.8333
  452TMC3     O 6735   0.526   4.675   1.889  0.2875  0.1263 -0.2811
  452TMC3     H 6736   0.634   4.462   2.000  0.3431 -0.6315  0.6897
  452TMC3    H1 6737   0.522   4.442   1.591 -0.0219  0.6874  0.8292
  452TMC3    H2 6738   0.667   4.098   1.793 -0.8057 -0.4260 -2.1235
  452TMC3    C7 6739   0.551   4.188   1.567 -0.3984 -0.1674  0.3941
  452TMC3    C8 6740   0.690   4.205   2.029  0.1425  0.1733  0.3835
  452TMC3    O1 6741   0.551   4.246   1.461  0.1199  0.5135  0.1954
  452TMC3    O2 6742   0.649   4.094   2.046 -0.0644  0.1785 -0.4640
  453TMC3    C1 6743   1.232   2.119  11.571 -0.4376 -0.6408  0.0151
  453TMC3    C2 6744   1.152   2.037  11.643 -0.1002 -0.2761 -0.5295
  453TMC3    C3 6745   1.064   1.955  11.579 -0.2898  0.2608 -0.4257
  453TMC3    C4 6746   1.220   2.126  11.433  0.0781  0.0570 -0.5796
  453TMC3    C5 6747   1.136   2.044  11.367  0.6055  0.8093  0.3220
  453TMC3    C6 6748   1.055   1.953  11.437 -0.6618 -0.6551 -0.4919
  453TMC3     C 6749   1.350   2.192  11.626 -0.0619  0.2421  0.0286
  453TMC3     O 6750   1.412   2.268  11.555  0.2928  0.1156 -0.5828
  453TMC3     H 6751   1.145   2.039  11.751  1.9394  1.1061 -0.4123
  453TMC3    H1 6752   1.298   2.183  11.385 -0.2418  1.1968  0.2485
  453TMC3    H2 6753   0.982   1.891  11.386 -1.6360  1.6196 -1.8516
  453TMC3    C7 6754   1.154   2.018  11.225  0.3565 -0.9194  0.7307
  453TMC3    C8 6755   0.988   1.866  11.662 -0.0288 -0.0970 -0.3420
  453TMC3    O1 6756   1.071   1.943  11.170 -0.9089 -0.3744 -0.0049
  453TMC3    O2 6757   0.927   1.919  11.759  0.4288 -0.5358 -0.6926
  454MPD2     C 6758   0.104   1.078  16.187  0.6115 -0.1234 -0.4521
  454MPD2    C1 6759   4.714   1.149  16.155  0.1951  0.1880 -0.0956
  454MPD2    C2 6760   4.644   1.201  16.260 -0.7047 -0.4147 -0.6654
  454MPD2    C3 6761   4.676   1.189  16.393 -0.1867  0.2856  0.0859
  454MPD2    C4 6762   0.074   1.123  16.419 -1.2310  0.6636  0.1704
  454MPD2    C5 6763   0.155   1.077  16.319  0.4467  0.7169  0.5418
  454MPD2     H 6764   4.556   1.261  16.236 -0.2394 -0.0107 -1.3505
  454MPD2    H1 6765   0.102   1.106  16.523 -0.7408 -0.9579 -0.2306
  454MPD2    H2 6766   0.179   1.061  16.111  1.7673  0.0100  0.6453
  454MPD2    H3 6767   0.248   1.025  16.338 -1.1160 -2.2681  0.0404
  454MPD2     N 6768   4.599   1.239  16.495  0.8226  0.5603  0.0695
  454MPD2    H5 6769   4.508   1.273  16.466  0.5682 -0.0889  0.1025
  454MPD2    N1 6770   4.670   1.174  16.028  0.0375 -0.4007  0.6374
  454MPD2    H7 6771   4.605   1.250  16.015  0.6917 -0.0552 -0.5706
  455TMC3    C1 6772   4.501   1.262  16.711  0.5015  0.6751  0.4401
  455TMC3    C2 6773   4.522   1.323  16.829  0.2914  0.2181 -0.1759
  455TMC3    C3 6774   4.407   1.369  16.890 -0.4404 -0.0655  0.4520
  455TMC3    C4 6775   4.384   1.236  16.657  0.1304  0.5426  0.2399
  455TMC3    C5 6776   4.277   1.295  16.719 -0.4862  0.3099 -0.7608
  455TMC3    C6 6777   4.279   1.353  16.843 -0.8259 -0.3171 -1.2331
  455TMC3     C 6778   4.628   1.231  16.631  0.3750 -1.5150  0.5768
  455TMC3     O 6779   0.004   1.191  16.696 -0.0894 -0.7077  0.4681
  455TMC3     H 6780   4.625   1.334  16.863  0.9632 -1.2893 -1.7132
  455TMC3    H1 6781   4.377   1.169  16.573 -1.2758  0.4549  0.4159
  455TMC3    H2 6782   4.189   1.387  16.894 -0.1259  0.8612 -0.7758
  455TMC3    C7 6783   4.146   1.234  16.687  0.5071 -0.1742  0.1245
  455TMC3    C8 6784   4.426   1.460  16.999  0.8085  0.6046  0.0552
  455TMC3    O1 6785   4.081   1.206  16.787 -0.8802 -0.2626 -0.2932
  455TMC3    O2 6786   4.531   1.519  17.008 -0.6310 -0.1454 -1.0294
  456MPD2     C 6787   2.288   1.248  16.223 -1.0370  0.3931 -0.4779
  456MPD2    C1 6788   2.398   1.225  16.310 -0.2570  1.1429 -0.3322
  456MPD2    C2 6789   2.392   1.272  16.441 -0.1305 -0.2283  0.1696
  456MPD2    C3 6790   2.282   1.348  16.486 -0.4414 -0.2036  1.1625
  456MPD2    C4 6791   2.184   1.369  16.401  0.2416 -0.5089 -0.1251
  456MPD2    C5 6792   2.177   1.309  16.275 -0.4677  0.8103  0.2043
  456MPD2     H 6793   2.474   1.262  16.511  1.6611 -2.5765 -2.2668
  456MPD2    H1 6794   2.100   1.431  16.429 -0.5376 -1.6912  0.1635
  456MPD2    H2 6795   2.284   1.224  16.118  0.6299  1.3184 -0.7548
  456MPD2    H3 6796   2.094   1.327  16.207  0.8842  0.7921 -1.4538
  456MPD2     N 6797   2.268   1.415  16.609  0.6452 -0.5366  0.0546
  456MPD2    H5 6798   2.199   1.487  16.625  0.1067 -0.7025 -1.4763
  456MPD2    N1 6799   2.510   1.154  16.254 -0.1533 -0.6168  0.2164
  456MPD2    H7 6800   2.506   1.125  16.157 -1.0097 -1.6029  0.5456
  457TMC3    C1 6801   2.324   1.450  16.841 -0.2238 -0.6118 -0.2374
  457TMC3    C2 6802   2.303   1.580  16.815 -0.2785  0.2779 -0.1716
  457TMC3    C3 6803   2.331   1.664  16.918 -0.0075  0.4627 -0.7082
  457TMC3    C4 6804   2.365   1.394  16.959 -0.0641 -0.3037  0.4664
  457TMC3    C5 6805   2.397   1.486  17.052 -0.1684 -0.2769 -0.1523
  457TMC3    C6 6806   2.373   1.622  17.035  0.0227 -0.7683 -0.5236
  457TMC3     C 6807   2.347   1.374  16.720  0.6383 -0.0287  0.4423
  457TMC3     O 6808   2.407   1.268  16.736  0.6638 -0.3594 -0.4562
  457TMC3     H 6809   2.274   1.621  16.719 -3.8319 -0.5282  0.5457
  457TMC3    H1 6810   2.385   1.288  16.974 -1.7225 -0.6978 -0.1771
  457TMC3    H2 6811   2.401   1.688  17.116 -1.0081 -1.2104  0.1793
  457TMC3    C7 6812   2.502   1.448  17.146 -1.3331  0.0987  0.0749
  457TMC3    C8 6813   2.371   1.796  16.889  0.4811  0.2215 -1.2006
  457TMC3    O1 6814   2.508   1.332  17.192 -0.7193  0.5491 -0.3795
  457TMC3    O2 6815   2.469   1.842  16.944  0.1559 -0.6150 -0.0570
  458MPD2     C 6816   4.572   1.546  12.057  1.0038  0.1297 -0.2497
  458MPD2    C1 6817   4.547   1.473  12.177  0.2130  0.1902 -0.4939
  458MPD2    C2 6818   4.435   1.507  12.241  0.2805  0.3788 -0.2173
  458MPD2    C3 6819   4.345   1.607  12.198  0.1376  0.1019  0.4202
  458MPD2    C4 6820   4.375   1.675  12.084 -0.8800  0.4094 -0.3745
  458MPD2    C5 6821   4.496   1.652  12.021  0.1192  0.2546  0.7217
  458MPD2     H 6822   4.421   1.449  12.331 -0.4703 -1.5242 -1.5441
  458MPD2    H1 6823   4.320   1.760  12.045  1.0923  1.7111 -0.3172
  458MPD2    H2 6824   4.668   1.532  12.010 -0.1737  0.9035 -2.8974
  458MPD2    H3 6825   4.518   1.711  11.933 -4.1390  1.3362  0.3661
  458MPD2     N 6826   4.229   1.630  12.275 -0.2962  0.1471  0.5315
  458MPD2    H5 6827   4.217   1.582  12.364  0.0572 -0.2767  0.3478
  458MPD2    N1 6828   4.648   1.382  12.224 -0.7060  0.0641 -0.0659
  458MPD2    H7 6829   0.015   1.385  12.172  0.5299 -0.0169  2.0015
  459TMC3    C1 6830   0.059   1.255  12.367  0.4977  0.4557  0.2761
  459TMC3    C2 6831   0.167   1.272  12.288 -0.6018  0.0893 -0.3222
  459TMC3    C3 6832   0.291   1.221  12.339  0.3883 -0.4934 -0.0854
  459TMC3    C4 6833   0.055   1.180  12.482  0.3716  0.2055 -0.2283
  459TMC3    C5 6834   0.175   1.140  12.537  0.5988  0.1720  0.1431
  459TMC3    C6 6835   0.289   1.160  12.465  0.0199 -0.1668  0.2159
  459TMC3     C 6836   4.643   1.297  12.330  0.2301  0.4371  0.5685
  459TMC3     O 6837   4.550   1.271  12.404 -0.2093 -0.4293 -0.0203
  459TMC3     H 6838   0.152   1.323  12.193  0.0360 -0.0646 -0.5071
  459TMC3    H1 6839   4.693   1.175  12.553 -0.7562  1.7348 -1.4208
  459TMC3    H2 6840   0.382   1.136  12.517 -0.1328  1.4500  1.2215
  459TMC3    C7 6841   0.183   1.129  12.682 -0.1483 -0.5463 -1.1960
  459TMC3    C8 6842   0.415   1.274  12.289  0.0713 -0.8306 -0.4644
  459TMC3    O1 6843   0.082   1.161  12.751  0.3237 -0.3564  0.0368
  459TMC3    O2 6844   0.514   1.248  12.357  0.1896  0.4881 -0.2296
  460MPD2     C 6845   4.575   3.482  10.675  0.8686 -0.3640 -0.5819
  460MPD2    C1 6846   4.508   3.602  10.682  0.9628  0.5073 -0.6610
  460MPD2    C2 6847   4.446   3.641  10.563  0.3077  0.3754 -0.5964
  460MPD2    C3 6848   4.448   3.564  10.445  0.2577 -0.2502  0.0696
  460MPD2    C4 6849   4.526   3.450  10.440  0.2373  0.2676  0.2220
  460MPD2    C5 6850   4.593   3.412  10.556  0.0113  0.3777  0.5903
  460MPD2     H 6851   4.405   3.741  10.560  0.3344  0.4364  1.1293
  460MPD2    H1 6852   4.552   3.399  10.347 -0.0420  1.7057 -0.6486
  460MPD2    H2 6853   4.638   3.452  10.758 -0.6915  0.7119  0.9871
  460MPD2    H3 6854   4.647   3.318  10.563 -1.2720 -0.3804  0.4486
  460MPD2     N 6855   4.383   3.615  10.321  0.2618 -0.0439  0.3717
  460MPD2    H5 6856   4.354   3.712  10.321 -0.5460 -0.2882 -0.6917
  460MPD2    N1 6857   4.499   3.674  10.805  0.2344  0.3697 -0.2694
  460MPD2    H7 6858   4.522   3.620  10.887  0.8718  1.1855  0.0877
  461TMC3    C1 6859   4.267   3.585  10.111 -0.5025  0.5521 -0.6168
  461TMC3    C2 6860   4.178   3.493  10.047  0.4682  0.0909 -0.1830
  461TMC3    C3 6861   4.145   3.534   9.916 -0.4371 -0.4631 -0.0738
  461TMC3    C4 6862   4.307   3.701  10.055  0.2512 -0.8701 -0.8590
  461TMC3    C5 6863   4.249   3.740   9.932 -0.2611 -0.8580 -0.3619
  461TMC3    C6 6864   4.167   3.657   9.861 -0.6416  0.1358 -0.3435
  461TMC3     C 6865   4.344   3.530  10.222 -0.3607  0.6795 -0.3764
  461TMC3     O 6866   4.344   3.405  10.234  0.4466 -0.7447 -0.2370
  461TMC3     H 6867   4.134   3.411  10.102  0.7601 -0.1540 -0.3176
  461TMC3    H1 6868   4.376   3.760  10.113 -0.2324 -1.8841  0.7541
  461TMC3    H2 6869   4.142   3.677   9.757  2.2496 -1.1363 -1.3024
  461TMC3    C7 6870   4.263   3.879   9.882  0.3388 -0.3403  0.2562
  461TMC3    C8 6871   4.069   3.438   9.838 -0.9348  0.5173 -0.2351
  461TMC3    O1 6872   4.210   3.900   9.779 -0.7134 -0.4518  0.0304
  461TMC3    O2 6873   4.006   3.488   9.744 -0.0854  0.2696  0.6920
  462TMC3    C1 6874   0.071   2.895   0.372 -0.3284  0.7002  0.1994
  462TMC3    C2 6875   0.082   2.824   0.257  0.1980 -0.5934  0.1148
  462TMC3    C3 6876   0.016   2.876   0.146  0.4150 -0.8388  0.1676
  462TMC3    C4 6877   0.007   3.011   0.385  0.7750 -0.2013 -0.8358
  462TMC3    C5 6878   4.670   3.058   0.274 -0.0580 -0.3083  0.5787
  462TMC3    C6 6879   4.661   2.988   0.156 -0.3575  0.4779  0.6270
  462TMC3     C 6880   0.124   2.838   0.499 -0.5145 -0.6361  0.5062
  462TMC3     O 6881   0.135   2.906   0.600  0.5248 -0.6344  0.1197
  462TMC3     H 6882   0.140   2.733   0.249  1.5385  0.0478  2.5741
  462TMC3    H1 6883   0.013   3.059   0.482 -0.8477 -1.2075 -0.2309
  462TMC3    H2 6884   4.596   3.015   0.074 -0.7267  0.6436  0.9776
  462TMC3    C7 6885   4.548   3.132   0.294 -0.6270  0.4232  0.4601
  462TMC3    C8 6886   0.027   2.792   0.025 -0.6660  0.8504  0.6450
  462TMC3    O1 6887   4.440   3.089   0.257 -0.1646 -0.6024  0.3530
  462TMC3    O2 6888   0.078   2.680   0.035  0.6112 -0.0406  0.0258
  463MPD2     C 6889   0.134   2.967   2.667  0.3706 -0.9033 -0.6783
  463MPD2    C1 6890   0.141   2.909   2.542 -0.2325  0.5166  0.4071
  463MPD2    C2 6891   0.238   2.945   2.451  1.0899 -0.3018 -0.2899
  463MPD2    C3 6892   0.339   3.036   2.485  0.2353 -0.2299  0.5521
  463MPD2    C4 6893   0.333   3.093   2.611 -0.4721 -0.1601  0.4054
  463MPD2    C5 6894   0.231   3.065   2.695 -0.5152 -0.5911  0.0520
  463MPD2     H 6895   0.233   2.889   2.359 -1.3678 -1.3515  0.4600
  463MPD2    H1 6896   0.403   3.169   2.642  1.7898 -2.2519  0.4297
  463MPD2    H2 6897   0.067   2.938   2.747  1.9947  2.5237  1.9149
  463MPD2    H3 6898   0.218   3.109   2.794  2.6143  1.1716 -0.3102
  463MPD2     N 6899   0.436   3.082   2.396  0.1807  0.6846  0.0796
  463MPD2    H5 6900   0.489   3.165   2.419  1.0860  0.6540 -1.8362
  463MPD2    N1 6901   0.051   2.810   2.504 -0.2990  0.7458 -0.0099
  463MPD2    H7 6902   0.056   2.783   2.407  2.8405  1.1149  0.0711
  464TMC3    C1 6903   4.625   2.637   2.520  0.0604 -0.3165  0.0051
  464TMC3    C2 6904   4.717   2.558   2.456  0.4660 -0.4669 -0.3695
  464TMC3    C3 6905   4.672   2.454   2.375 -0.1742 -0.5466 -0.8007
  464TMC3    C4 6906   4.495   2.604   2.528  0.1219  0.3734 -0.0347
  464TMC3    C5 6907   4.457   2.495   2.449 -0.2404  0.4621  0.1086
  464TMC3    C6 6908   4.535   2.420   2.368  0.3570 -0.0566  0.3651
  464TMC3     C 6909   4.665   2.764   2.580 -0.1562  0.3933 -0.6617
  464TMC3     O 6910   4.620   2.801   2.683  0.1748 -0.0862  0.8135
  464TMC3     H 6911   0.104   2.571   2.467  0.1905  1.5962 -0.2200
  464TMC3    H1 6912   4.424   2.648   2.597  0.8217 -0.2597  1.1094
  464TMC3    H2 6913   4.492   2.357   2.291  2.2839  0.1496 -0.8808
  464TMC3    C7 6914   4.339   2.434   2.494  0.7999  0.5201  0.3922
  464TMC3    C8 6915   0.037   2.440   2.258 -0.0012 -0.6110 -0.2702
  464TMC3    O1 6916   4.332   2.433   2.615 -0.0742 -0.3624 -0.5127
  464TMC3    O2 6917   0.127   2.527   2.251 -0.5032  0.5277 -0.0386
  465MPD2     C 6918   1.858   1.890  16.714 -0.4451 -0.4792  0.0956
  465MPD2    C1 6919   1.753   1.809  16.761  0.3254 -0.1886  0.7097
  465MPD2    C2 6920   1.630   1.802  16.692 -0.9736 -0.1430 -0.2098
  465MPD2    C3 6921   1.616   1.847  16.563  0.1977 -0.3084 -0.3426
  465MPD2    C4 6922   1.725   1.915  16.511  0.4867  0.3907 -0.3564
  465MPD2    C5 6923   1.842   1.932  16.584 -0.1839  0.1945 -0.7733
  465MPD2     H 6924   1.541   1.753  16.731 -0.7524  0.2962  0.8465
  465MPD2    H1 6925   1.719   1.974  16.421 -1.1882 -0.7048 -0.9666
  465MPD2    H2 6926   1.954   1.895  16.765  0.7979  0.0640 -2.3062
  465MPD2    H3 6927   1.920   1.990  16.535  0.0471  1.0335  0.5928
  465MPD2     N 6928   1.494   1.834  16.500  0.1379 -0.3621  0.4378
  465MPD2    H5 6929   1.423   1.786  16.554  1.7612 -0.9454  2.0646
  465MPD2    N1 6930   1.762   1.738  16.882  0.2726 -0.4514  0.4215
  465MPD2    H7 6931   1.670   1.707  16.909 -0.1918  0.7918  0.2487
  466TMC3    C1 6932   1.103   1.872  16.458 -0.6715 -0.3929 -0.3262
  466TMC3    C2 6933   1.074   1.986  16.379  0.0727  0.1871 -0.1955
  466TMC3    C3 6934   1.154   2.022  16.275 -0.1599  0.2345 -0.1894
  466TMC3    C4 6935   1.227   1.814  16.439  0.2863  0.8928  0.2541
  466TMC3    C5 6936   1.314   1.859  16.348  0.4947 -0.0880  0.0778
  466TMC3    C6 6937   1.275   1.958  16.263 -0.3468 -0.4025  0.6130
  466TMC3     C 6938   1.034   1.858  16.591 -0.5058  0.6226 -0.0242
  466TMC3     O 6939   1.112   1.811  16.673 -0.2452 -0.4030  0.3864
  466TMC3     H 6940   0.980   2.032  16.406 -0.4206  0.8166 -2.9664
  466TMC3    H1 6941   1.251   1.734  16.508  0.1966 -0.4615 -1.2969
  466TMC3    H2 6942   1.342   2.010  16.196 -0.6919 -0.9627 -0.1683
  466TMC3    C7 6943   1.458   1.875  16.376  0.1878  0.5325 -0.5026
  466TMC3    C8 6944   1.151   2.160  16.244 -1.0128 -0.0142  0.3207
  466TMC3    O1 6945   1.519   1.945  16.293 -0.4030  0.2639  0.4767
  466TMC3    O2 6946   1.204   2.180  16.137 -0.1314 -0.0759 -0.2419
  467TMC3    C1 6947   2.662   0.458  13.422 -0.2076 -0.0018  0.2024
  467TMC3    C2 6948   2.611   0.577  13.407 -0.0332  0.4344  0.5460
  467TMC3    C3 6949   2.500   0.615  13.476  0.5792  0.3132  0.1636
  467TMC3    C4 6950   2.599   0.356  13.489  0.0922  0.5630 -1.2622
  467TMC3    C5 6951   2.477   0.391  13.550 -0.3219 -0.3249 -0.1077
  467TMC3    C6 6952   2.428   0.522  13.551  0.0341 -0.2425  0.5049
  467TMC3     C 6953   2.773   0.419  13.331 -0.7060  0.3113  0.0087
  467TMC3     O 6954   2.811   0.305  13.335 -0.2199 -0.3273 -0.1862
  467TMC3     H 6955   2.666   0.661  13.366 -1.4122  0.5938 -1.0261
  467TMC3    H1 6956   2.638   0.255  13.487  0.7690  0.8201 -1.0464
  467TMC3    H2 6957   2.327   0.540  13.585  0.8137  0.1117  2.5875
  467TMC3    C7 6958   2.369   0.295  13.529  0.9680  0.0999  0.9056
  467TMC3    C8 6959   2.452   0.750  13.445  0.2122 -0.3202 -0.1430
  467TMC3    O1 6960   2.384   0.211  13.441 -0.2475 -0.3103  0.1808
  467TMC3    O2 6961   2.504   0.797  13.344  0.6398  0.7929  0.3168
  468MPD2     C 6962   1.673   3.671  10.426 -0.3349  0.0512  0.3803
  468MPD2    C1 6963   1.649   3.634  10.558  0.1875 -0.7255 -0.3893
  468MPD2    C2 6964   1.620   3.502  10.586 -0.2605 -0.1884  0.7466
  468MPD2    C3 6965   1.648   3.401  10.501 -0.0032  0.0068  0.0907
  468MPD2    C4 6966   1.697   3.438  10.373 -0.3813  0.1956 -0.1063
  468MPD2    C5 6967   1.702   3.571  10.331  0.3249 -0.3570 -0.1097
  468MPD2     H 6968   1.587   3.481  10.688  1.2392 -0.3913  1.1861
  468MPD2    H1 6969   1.720   3.358  10.304 -1.3342 -1.5275  1.5881
  468MPD2    H2 6970   1.666   3.776  10.399 -0.1571  0.0747  0.4299
  468MPD2    H3 6971   1.727   3.609  10.233  0.1883  2.3546  0.9041
  468MPD2     N 6972   1.636   3.269  10.539 -0.2316  0.0170  0.0131
  468MPD2    H5 6973   1.674   3.204  10.470 -1.5145  0.6552 -1.2807
  468MPD2    N1 6974   1.638   3.727  10.669  0.4333 -0.0091 -0.3869
  468MPD2    H7 6975   1.607   3.696  10.761 -1.6660  2.1033 -0.3802
  469TMC3    C1 6976   1.689   3.926  10.791 -0.1253 -0.9029  0.2632
  469TMC3    C2 6977   1.741   3.866  10.901  0.5318  0.3206 -0.2396
  469TMC3    C3 6978   1.777   3.933  11.010  0.0877  0.2662  0.0093
  469TMC3    C4 6979   1.674   4.056  10.791  0.3513  0.7440 -0.5870
  469TMC3    C5 6980   1.687   4.118  10.913  0.5483 -0.0251  0.8374
  469TMC3    C6 6981   1.747   4.061  11.021  0.6674 -0.5057  0.8306
  469TMC3     C 6982   1.679   3.856  10.663  0.8166 -0.0485  0.2199
  469TMC3     O 6983   1.715   3.916  10.562 -0.3023  0.2060  0.5079
  469TMC3     H 6984   1.760   3.759  10.898  2.0486  0.5205  1.9181
  469TMC3    H1 6985   1.621   4.101  10.708 -0.3886  1.6609  0.3914
  469TMC3    H2 6986   1.770   4.120  11.109  1.6555  0.5150 -0.1171
  469TMC3    C7 6987   1.626   4.252  10.920  0.2955 -0.1803 -0.4773
  469TMC3    C8 6988   1.878   3.871  11.096 -0.2454  0.5460 -0.1621
  469TMC3    O1 6989   1.573   4.296  10.817  0.1305  0.0224  0.4615
  469TMC3    O2 6990   1.951   3.789  11.048 -0.2726  0.4023 -0.6005
  470TMC3    C1 6991   4.589   0.861   1.221  0.2626  0.1499 -0.3647
  470TMC3    C2 6992   4.498   0.901   1.307  0.6706 -0.0159  0.3323
  470TMC3    C3 6993   4.457   0.816   1.410  0.4186  0.1167  0.3729
  470TMC3    C4 6994   4.665   0.747   1.240  0.1944 -0.5583  0.2162
  470TMC3    C5 6995   4.621   0.667   1.344 -0.0987  0.6268  0.1586
  470TMC3    C6 6996   4.522   0.694   1.428 -0.2731 -0.2659 -0.0370
  470TMC3     C 6997   4.609   0.937   1.099  0.0628 -0.2097 -0.5916
  470TMC3     O 6998   4.604   1.059   1.096 -0.1846  0.0163 -0.3252
  470TMC3     H 6999   4.463   1.002   1.288 -0.9804 -0.5495  0.4889
  470TMC3    H1 7000   0.024   0.721   1.171 -0.1517  0.2880 -0.4918
  470TMC3    H2 7001   4.493   0.630   1.511 -2.7778 -0.1959 -0.8514
  470TMC3    C7 7002   4.704   0.542   1.370 -0.7282 -0.7663 -0.3310
  470TMC3    C8 7003   4.345   0.828   1.492 -0.0804 -0.6998  0.0830
  470TMC3    O1 7004   0.071   0.522   1.287 -0.1686  0.4342 -0.2885
  470TMC3    O2 7005   4.355   0.774   1.602  0.1670 -0.2397  0.8980
  471MPD2     C 7006   3.782   0.509  16.572 -0.4089 -0.3581  0.5531
  471MPD2    C1 7007   3.682   0.412  16.597  0.0163  0.2708  0.1733
  471MPD2    C2 7008   3.659   0.362  16.722 -0.1184 -0.0936 -0.0542
  471MPD2    C3 7009   3.739   0.396  16.829 -0.0788 -0.6343 -0.3316
  471MPD2    C4 7010   3.832   0.501  16.811 -0.2690  0.0568  1.2922
  471MPD2    C5 7011   3.852   0.560  16.684 -0.2312 -0.3458  0.2450
  471MPD2     H 7012   3.580   0.287  16.725  1.4510 -1.7277  0.2368
  471MPD2    H1 7013   3.905   0.540  16.881  1.6427  0.7559 -1.0758
  471MPD2    H2 7014   3.812   0.546  16.475  0.2308  0.0879  0.9204
  471MPD2    H3 7015   3.926   0.637  16.667 -2.5359  1.3133 -2.2520
  471MPD2     N 7016   3.747   0.332  16.952  0.2771  0.4424 -0.3140
  471MPD2    H5 7017   3.824   0.345  17.016  0.1971 -0.0817 -0.1149
  471MPD2    N1 7018   3.616   0.344  16.488  0.3007 -0.3869  0.3901
  471MPD2    H7 7019   3.551   0.269  16.512  0.9837 -0.3353  2.4793
  472TMC3    C1 7020   3.562   0.259  16.279  0.7618 -0.4650 -0.1926
  472TMC3    C2 7021   3.446   0.291  16.211 -0.1358 -0.3022  0.2182
  472TMC3    C3 7022   3.367   0.185  16.193  0.1822 -0.5491 -0.6077
  472TMC3    C4 7023   3.593   0.133  16.326 -0.0858 -0.8953 -0.0577
  472TMC3    C5 7024   3.526   0.026  16.272  0.2143 -0.1053 -1.2443
  472TMC3    C6 7025   3.405   0.056  16.209  0.0512  0.3471 -0.9518
  472TMC3     C 7026   3.632   0.362  16.355  0.0836  0.4392 -0.2656
  472TMC3     O 7027   3.694   0.449  16.285 -0.1127  0.1403  0.4981
  472TMC3     H 7028   3.399   0.388  16.224 -0.9866 -0.7556  0.5499
  472TMC3    H1 7029   3.679   0.117  16.390 -1.9767 -1.0729  2.4233
  472TMC3    H2 7030   3.353   4.693  16.164 -2.4560  1.9190 -0.9616
  472TMC3    C7 7031   3.530   4.626  16.353  0.1263  0.4578  0.6313
  472TMC3    C8 7032   3.227   0.205  16.167  0.2474 -0.5355 -1.0211
  472TMC3    O1 7033   3.626   4.613  16.429  0.0298 -0.1333 -0.1206
  472TMC3    O2 7034   3.186   0.312  16.121 -0.1650 -0.4372  0.2792
  473MPD2     C 7035   3.327   2.620  13.825  0.3125 -0.6660  0.4644
  473MPD2    C1 7036   3.287   2.716  13.727  0.4626 -0.0922  0.3156
  473MPD2    C2 7037   3.321   2.851  13.733  0.3755 -0.0818 -0.1549
  473MPD2    C3 7038   3.408   2.891  13.838  0.6213  0.4078  0.3855
  473MPD2    C4 7039   3.434   2.801  13.934 -0.2672  0.8274  0.0284
  473MPD2    C5 7040   3.402   2.666  13.928  0.0679  0.4794 -0.0600
  473MPD2     H 7041   3.306   2.915  13.647  2.2229 -0.3406 -0.6763
  473MPD2    H1 7042   3.490   2.824  14.024 -0.0813  0.0995  0.0992
  473MPD2    H2 7043   3.310   2.513  13.830 -1.8118 -0.3899 -0.6645
  473MPD2    H3 7044   3.444   2.599  14.002  3.5393  0.1691 -2.3315
  473MPD2     N 7045   3.462   3.026  13.851 -0.9876  0.0274  0.1389
  473MPD2    H5 7046   3.521   3.033  13.933 -1.7392 -1.8408  0.8330
  473MPD2    N1 7047   3.219   2.673  13.605  0.4678 -0.1304  0.2454
  473MPD2    H7 7048   3.216   2.749  13.538 -3.0050 -1.5463 -1.1959
  474TMC3    C1 7049   3.522   3.244  13.784 -0.3302 -0.5476  0.0816
  474TMC3    C2 7050   3.562   3.308  13.666  0.1692  0.0466  0.3417
  474TMC3    C3 7051   3.673   3.391  13.669  0.0623 -0.1551  0.7733
  474TMC3    C4 7052   3.596   3.254  13.897 -0.1854 -0.2746 -0.8219
  474TMC3    C5 7053   3.704   3.344  13.891  0.2217  0.8183 -0.4191
  474TMC3    C6 7054   3.746   3.412  13.783 -0.0313 -0.1945 -0.1387
  474TMC3     C 7055   3.436   3.130  13.762 -0.5434  0.3903 -0.2193
  474TMC3     O 7056   3.363   3.139  13.667  0.3398 -0.8940  0.4217
  474TMC3     H 7057   3.523   3.286  13.567  1.6791 -0.4728 -0.1404
  474TMC3    H1 7058   3.570   3.201  13.987 -0.5931  0.8983 -0.2569
  474TMC3    H2 7059   3.843   3.460  13.793  0.2069 -0.8834  0.8977
  474TMC3    C7 7060   3.812   3.311  13.977 -0.4802 -0.2385  0.1974
  474TMC3    C8 7061   3.722   3.449  13.542  0.2330 -0.1303  0.1800
  474TMC3    O1 7062   3.919   3.304  13.915  0.3734  0.0758 -0.0383
  474TMC3    O2 7063   3.672   3.403  13.439 -0.0339 -0.3146 -0.8159
  475MPD2     C 7064   2.650   1.466  10.328  0.1267 -0.4374  0.0431
  475MPD2    C1 7065   2.616   1.387  10.228  0.1864 -0.4230  1.0349
  475MPD2    C2 7066   2.482   1.352  10.225 -0.4906  0.3416 -0.2179
  475MPD2    C3 7067   2.390   1.395  10.322 -0.6633  0.7928 -0.2569
  475MPD2    C4 7068   2.431   1.468  10.432  0.2898 -0.4110 -0.6108
  475MPD2    C5 7069   2.561   1.513  10.428 -0.1537  0.0114 -0.2548
  475MPD2     H 7070   2.451   1.285  10.145 -0.5853 -1.1387  1.0728
  475MPD2    H1 7071   2.372   1.483  10.522  1.2686  1.1677 -0.2444
  475MPD2    H2 7072   2.752   1.504  10.331 -0.1035  0.2983 -1.2038
  475MPD2    H3 7073   2.596   1.577  10.509  1.0233 -0.6843 -0.2098
  475MPD2     N 7074   2.250   1.358  10.307  0.1655 -0.6606 -0.0222
  475MPD2    H5 7075   2.232   1.297  10.228  0.2692  2.9656 -2.7984
  475MPD2    N1 7076   2.708   1.347  10.131  0.4762 -0.4826 -0.2505
  475MPD2    H7 7077   2.793   1.403  10.130  0.4001 -0.3488  0.6768
  476TMC3    C1 7078   2.800   1.256   9.937  0.5880  0.4243 -0.0981
  476TMC3    C2 7079   2.787   1.255   9.801 -0.5428 -0.2077  0.4313
  476TMC3    C3 7080   2.888   1.207   9.721 -0.3377  0.4262  0.7142
  476TMC3    C4 7081   2.918   1.237   9.999  0.2968  0.2334  0.0516
  476TMC3    C5 7082   3.028   1.212   9.915  0.2560  0.5564  0.4404
  476TMC3    C6 7083   3.008   1.192   9.780  0.6630 -0.8981  0.4931
  476TMC3     C 7084   2.682   1.287  10.010  0.0069  0.2119 -0.0572
  476TMC3     O 7085   2.581   1.236   9.965  0.1022 -0.0462 -0.2277
  476TMC3     H 7086   2.688   1.270   9.760 -0.8586 -2.6952  0.2458
  476TMC3    H1 7087   2.941   1.237  10.106 -1.3483  3.9050  0.4138
  476TMC3    H2 7088   3.092   1.161   9.719  2.5717  2.2182  1.5323
  476TMC3    C7 7089   3.160   1.264   9.946  0.1219 -0.2221 -0.2207
  476TMC3    C8 7090   2.894   1.267   9.588  0.2333 -1.0273 -0.2810
  476TMC3    O1 7091   3.246   1.237   9.864  0.7299 -0.0987  0.1280
  476TMC3    O2 7092   2.820   1.366   9.576 -0.3889 -0.0395  0.8706
  477MPD2     C 7093   0.189   2.910  11.538  0.3050 -0.0247 -0.4662
  477MPD2    C1 7094   0.076   2.899  11.621  0.2685  0.0433  0.1635
  477MPD2    C2 7095   0.079   2.809  11.731 -0.7368 -0.5952 -0.0283
  477MPD2    C3 7096   0.193   2.749  11.760  0.1130 -0.5464  0.1445
  477MPD2    C4 7097   0.305   2.774  11.680 -0.2435 -0.2552 -0.2258
  477MPD2    C5 7098   0.306   2.842  11.570 -0.7392 -0.4452  0.2907
  477MPD2     H 7099   4.718   2.808  11.803  0.0737 -3.3648  0.8620
  477MPD2    H1 7100   0.396   2.724  11.712 -0.1363 -0.0685 -0.2366
  477MPD2    H2 7101   0.198   2.983  11.458 -2.2819 -1.4893 -2.1017
  477MPD2    H3 7102   0.394   2.841  11.506 -0.4672 -0.2932  0.6562
  477MPD2     N 7103   0.223   2.669  11.873 -0.3180 -0.2905  0.0133
  477MPD2    H5 7104   0.318   2.645  11.901  0.2489 -0.5316 -2.1751
  477MPD2    N1 7105   4.677   2.971  11.572 -0.4015  0.0315 -0.0184
  477MPD2    H7 7106   4.689   3.016  11.482  0.2547  2.4430  1.2564
  478TMC3    C1 7107   4.450   3.022  11.564 -0.8385 -0.0512 -0.0005
  478TMC3    C2 7108   4.342   3.094  11.619  0.3151 -0.0448  0.2760
  478TMC3    C3 7109   4.251   3.149  11.535  0.6179  0.3323 -0.4085
  478TMC3    C4 7110   4.446   2.994  11.428  0.0371 -0.4523 -0.4509
  478TMC3    C5 7111   4.350   3.049  11.350 -0.0659 -0.1890  0.1772
  478TMC3    C6 7112   4.252   3.134  11.398 -0.7187  0.0940 -0.3977
  478TMC3     C 7113   4.558   2.972  11.647 -0.0208 -0.1267  1.2079
  478TMC3     O 7114   4.534   2.948  11.764 -0.0588  0.1853  0.3491
  478TMC3     H 7115   4.329   3.104  11.726  0.4163 -3.3291  0.5804
  478TMC3    H1 7116   4.509   2.913  11.393  1.1810 -0.7240  2.2127
  478TMC3    H2 7117   4.184   3.188  11.333  0.1741  0.6366 -0.8809
  478TMC3    C7 7118   4.371   3.042  11.204 -0.5646 -0.3618  0.4631
  478TMC3    C8 7119   4.179   3.271  11.572 -0.0682 -0.2538 -0.0821
  478TMC3    O1 7120   4.437   2.947  11.162 -0.4618 -0.3255  0.1952
  478TMC3    O2 7121   4.170   3.367  11.493  0.1865  0.0083 -0.1245
  479MPD2     C 7122   3.504   4.696  14.989  1.1896  0.3443 -1.1016
  479MPD2    C1 7123   3.439   4.611  15.070  0.8890 -0.0225  0.3009
  479MPD2    C2 7124   3.484   4.603  15.200 -0.1915 -0.4826  0.4884
  479MPD2    C3 7125   3.581   4.688  15.249 -0.2613  0.1845  0.1102
  479MPD2    C4 7126   3.649   0.051  15.162 -1.2221 -0.1663  0.8300
  479MPD2    C5 7127   3.614   0.049  15.028 -0.0329 -0.1198  0.3148
  479MPD2     H 7128   3.434   4.538  15.272 -3.3849  1.4954  0.0876
  479MPD2    H1 7129   3.739   0.102  15.195 -0.3388 -1.1864  0.0117
  479MPD2    H2 7130   3.471   4.704  14.886  0.1537  0.8889 -0.7224
  479MPD2    H3 7131   3.660   0.120  14.960 -2.4910 -0.2957 -1.5167
  479MPD2     N 7132   3.622   4.702  15.384 -0.5522  0.5348  0.5179
  479MPD2    H5 7133   3.715   0.023  15.392  0.3395 -1.5089  0.5846
  479MPD2    N1 7134   3.326   4.539  15.026 -0.0735 -0.1568  0.3139
  479MPD2    H7 7135   3.293   4.543  14.930 -2.5689 -0.6936  1.1564
  480TMC3    C1 7136   3.279   4.465  15.617  0.3402  0.0836 -0.4227
  480TMC3    C2 7137   3.174   4.541  15.558 -0.1012 -0.0716 -0.4193
  480TMC3    C3 7138   3.202   4.643  15.472 -0.0028 -0.6431  0.2785
  480TMC3    C4 7139   3.408   4.491  15.585 -0.2211 -0.5711 -0.3625
  480TMC3    C5 7140   3.434   4.600  15.505  1.1899  0.5488  0.3299
  480TMC3    C6 7141   3.337   4.677  15.449 -0.6554  0.2288 -0.3918
  480TMC3     C 7142   3.256   4.381  15.734 -0.1193 -0.4957  0.3074
  480TMC3     O 7143   3.344   4.302  15.763  0.1632  0.8581 -0.1042
  480TMC3     H 7144   3.072   4.507  15.574 -0.4049  0.3431 -1.4811
  480TMC3    H1 7145   3.492   4.443  15.634  0.6372  2.2923  0.9845
  480TMC3    H2 7146   3.355   0.056  15.408  1.3111  0.5522  1.3004
  480TMC3    C7 7147   3.569   4.640  15.498  0.9283  0.7247 -0.3823
  480TMC3    C8 7148   3.094   4.685  15.376 -0.1458  0.5513  0.2548
  480TMC3    O1 7149   3.640   4.623  15.599 -0.4020 -0.1721  0.1398
  480TMC3    O2 7150   2.977   4.658  15.398 -0.0244  0.1590  0.3604
  481MPD2     C 7151   0.321   4.172  14.529  0.3222 -0.1535 -0.2285
  481MPD2    C1 7152   0.206   4.149  14.459  0.3707  0.9138  1.0167
  481MPD2    C2 7153   0.091   4.113  14.529  0.4710  0.6135  0.1766
  481MPD2    C3 7154   0.086   4.130  14.669  0.0578 -0.1077 -0.0390
  481MPD2    C4 7155   0.202   4.161  14.739  1.0900  0.2950  0.3817
  481MPD2    C5 7156   0.318   4.177  14.662 -0.4933 -0.1751  0.5654
  481MPD2     H 7157   0.005   4.086  14.467 -0.5244  0.6600  1.5455
  481MPD2    H1 7158   0.198   4.168  14.847  2.3191  0.2093  0.4414
  481MPD2    H2 7159   0.410   4.198  14.473  0.2364 -0.3746 -0.4650
  481MPD2    H3 7160   0.411   4.197  14.713  0.9429 -0.8727 -1.7895
  481MPD2     N 7161   4.686   4.106  14.744  0.1742  0.7045  0.1013
  481MPD2    H5 7162   4.696   4.118  14.844  1.5885  0.7470 -0.0440
  481MPD2    N1 7163   0.217   4.162  14.315 -0.6763  0.6905 -0.0690
  481MPD2    H7 7164   0.303   4.200  14.277 -0.7013  0.7060 -0.1105
  482TMC3    C1 7165   0.132   4.187  14.096  0.1740 -0.4293  0.1722
  482TMC3    C2 7166   0.044   4.145  13.996  0.4440  0.8444 -0.3334
  482TMC3    C3 7167   0.061   4.188  13.869 -0.4284 -0.5532 -0.1559
  482TMC3    C4 7168   0.226   4.289  14.075  0.6899  0.3796 -0.5142
  482TMC3    C5 7169   0.240   4.329  13.943 -0.3721  0.4696  0.1635
  482TMC3    C6 7170   0.151   4.290  13.844 -0.4716  0.7146  0.1440
  482TMC3     C 7171   0.116   4.126  14.226  0.0006 -0.0256  0.2389
  482TMC3     O 7172   0.008   4.076  14.251  0.0897  0.1520  0.9370
  482TMC3     H 7173   4.690   4.067  14.012 -1.3130  2.2559 -1.6073
  482TMC3    H1 7174   0.284   4.335  14.155  0.6587  0.1750 -0.3735
  482TMC3    H2 7175   0.151   4.338  13.747 -3.5129 -1.0413 -0.7317
  482TMC3    C7 7176   0.319   4.449  13.920 -0.5518 -0.2009  0.1667
  482TMC3    C8 7177   0.000   4.106  13.765 -0.4346 -0.5102  0.0284
  482TMC3    O1 7178   0.375   4.498  14.016 -0.2615 -0.4743  0.5006
  482TMC3    O2 7179   4.699   3.989  13.796  0.5407  0.1376  0.1501
  483TMC3    C1 7180   2.781   2.787   0.659  0.0851 -0.8190 -0.7165
  483TMC3    C2 7181   2.881   2.882   0.670 -0.1551 -0.5599 -0.0091
  483TMC3    C3 7182   2.944   2.903   0.786 -0.0856 -0.2110 -0.5653
  483TMC3    C4 7183   2.751   2.715   0.773 -0.6309  0.3040 -0.3443
  483TMC3    C5 7184   2.824   2.734   0.886 -0.4909  0.5627 -0.7696
  483TMC3    C6 7185   2.921   2.830   0.897 -0.0960 -0.4162 -0.0495
  483TMC3     C 7186   2.789   2.710   0.535 -0.2067 -0.2517 -0.4631
  483TMC3     O 7187   2.839   2.759   0.437  0.4768 -0.1880 -0.1890
  483TMC3     H 7188   2.917   2.926   0.578  4.4133 -1.7278  1.2073
  483TMC3    H1 7189   2.661   2.655   0.782 -0.4983 -0.4138 -3.7144
  483TMC3    H2 7190   3.001   2.839   0.970 -0.1825  1.2701 -0.1573
  483TMC3    C7 7191   2.846   2.612   0.947  0.6103 -0.3749 -0.1099
  483TMC3    C8 7192   3.055   2.993   0.774  0.7365 -0.1254 -1.1620
  483TMC3    O1 7193   2.858   2.516   0.867  0.5873 -0.4797  0.3615
  483TMC3    O2 7194   3.106   3.019   0.660  0.4596 -0.1533 -0.5249
  484MPD2     C 7195   0.476   1.584  12.102  0.5956  0.1917  0.0005
  484MPD2    C1 7196   0.509   1.460  12.153 -0.2429 -0.1550  0.3056
  484MPD2    C2 7197   0.648   1.433  12.180 -0.0894 -0.0219  0.0348
  484MPD2    C3 7198   0.745   1.535  12.151  0.2607  0.0650  0.0027
  484MPD2    C4 7199   0.704   1.660  12.118 -0.5437 -0.6298  0.2727
  484MPD2    C5 7200   0.569   1.682  12.092  0.6011  0.1318  0.1549
  484MPD2     H 7201   0.677   1.331  12.204 -1.6858 -0.5502 -0.2916
  484MPD2    H1 7202   0.765   1.746  12.093 -1.9640  0.8011  1.7048
  484MPD2    H2 7203   0.373   1.614  12.093  0.6596 -0.3178 -2.3891
  484MPD2    H3 7204   0.537   1.782  12.064  0.4500  0.0454  0.0177
  484MPD2     N 7205   0.884   1.524  12.168  0.7201  0.0980 -0.2158
  484MPD2    H5 7206   0.933   1.613  12.166  0.0979  0.4367 -0.3074
  484MPD2    N1 7207   0.406   1.374  12.197  0.2387 -0.4219  0.0489
  484MPD2    H7 7208   0.314   1.407  12.171  1.0342  0.8614 -1.1525
  485TMC3    C1 7209   1.092   1.416  12.198 -0.4186 -0.0427  0.4237
  485TMC3    C2 7210   1.180   1.323  12.260  0.1780 -0.2386 -0.3787
  485TMC3    C3 7211   1.315   1.341  12.251  0.6674  0.5836 -0.0130
  485TMC3    C4 7212   1.147   1.510  12.119  0.2490 -0.4997 -0.2496
  485TMC3    C5 7213   1.282   1.522  12.105  0.3026  0.2231 -0.4564
  485TMC3    C6 7214   1.365   1.449  12.184 -0.6761 -0.5434 -1.0091
  485TMC3     C 7215   0.943   1.401  12.195 -0.2502  0.3779  0.0771
  485TMC3     O 7216   0.907   1.287  12.192  0.0622  0.9148 -0.1346
  485TMC3     H 7217   1.134   1.248  12.325 -1.4326 -0.0897 -1.3293
  485TMC3    H1 7218   1.087   1.568  12.050  2.0597  1.5181 -0.1386
  485TMC3    H2 7219   1.472   1.463  12.183 -0.6351 -0.8252 -0.5498
  485TMC3    C7 7220   1.328   1.557  11.976  0.0389  0.2830 -0.5821
  485TMC3    C8 7221   1.388   1.222  12.200 -0.1709  0.4366 -0.1347
  485TMC3    O1 7222   1.282   1.653  11.910 -0.1648  0.4148 -0.1544
  485TMC3    O2 7223   1.460   1.244  12.105 -0.3825 -0.2783  1.3434
  486MPD2     C 7224   2.587   0.364  12.955  0.1372 -0.0744  0.0532
  486MPD2    C1 7225   2.684   0.348  12.858 -0.0590 -0.0724  0.5676
  486MPD2    C2 7226   2.680   0.434  12.748 -0.0977 -0.8713  0.2225
  486MPD2    C3 7227   2.576   0.526  12.740 -0.2005 -0.1105 -1.0619
  486MPD2    C4 7228   2.481   0.528  12.832 -0.9539  0.0776 -0.3291
  486MPD2    C5 7229   2.488   0.459  12.944  0.2237 -0.1494 -0.2682
  486MPD2     H 7230   2.753   0.438  12.668  0.5075 -1.9098  0.7327
  486MPD2    H1 7231   2.394   0.593  12.828  0.2623  1.8141  1.3167
  486MPD2    H2 7232   2.593   0.307  13.047 -2.0559  0.1781  0.3505
  486MPD2    H3 7233   2.416   0.469  13.025  0.0050 -2.0818 -0.2137
  486MPD2     N 7234   2.573   0.619  12.630 -0.1265 -0.3737 -0.3748
  486MPD2    H5 7235   2.658   0.626  12.575  1.3598 -2.2837  1.6980
  486MPD2    N1 7236   2.787   0.252  12.879 -0.2884  0.3173 -0.4592
  486MPD2    H7 7237   2.773   0.190  12.958  3.6451 -2.6455 -2.0685
  487TMC3    C1 7238   2.965   0.095  12.820 -0.1522  0.5123 -0.0732
  487TMC3    C2 7239   3.017   0.026  12.712  0.1083  0.4438 -0.0865
  487TMC3    C3 7240   3.052   4.613  12.735  0.7683 -0.4091  0.4707
  487TMC3    C4 7241   2.970   0.058  12.954 -0.4459  0.2495  0.5529
  487TMC3    C5 7242   3.023   4.652  12.972 -0.1999 -0.7511 -0.2276
  487TMC3    C6 7243   3.080   4.572  12.863  0.9074  0.7575 -0.0071
  487TMC3     C 7244   2.876   0.208  12.783 -0.2534  0.1296 -0.2183
  487TMC3     O 7245   2.892   0.246  12.670  0.1259  0.0534 -0.4983
  487TMC3     H 7246   2.983   0.056  12.614 -0.0802  0.7460  0.0691
  487TMC3    H1 7247   2.932   0.121  13.033 -1.8598  0.7550 -0.5370
  487TMC3    H2 7248   3.090   4.468  12.892 -1.8176  0.4634 -0.1505
  487TMC3    C7 7249   3.012   4.582  13.101 -0.2790  0.2749  0.4739
  487TMC3    C8 7250   2.960   4.513  12.691 -0.6044  0.0764  0.1382
  487TMC3    O1 7251   3.092   4.490  13.122 -0.9698  0.0603  0.3350
  487TMC3    O2 7252   2.843   4.553  12.680 -0.2203  0.1674 -0.6713
  488MPD2     C 7253   3.071   1.405  16.523  0.3854 -0.2483  0.2333
  488MPD2    C1 7254   3.110   1.507  16.606  0.3227 -0.0415 -0.8657
  488MPD2    C2 7255   3.088   1.489  16.741  0.8569 -0.7762  0.4951
  488MPD2    C3 7256   3.051   1.369  16.798 -0.2302  0.4282 -0.6714
  488MPD2    C4 7257   3.034   1.258  16.714  0.1269  0.0111  0.5264
  488MPD2    C5 7258   3.035   1.280  16.580 -0.7445  0.9964  0.3565
  488MPD2     H 7259   3.111   1.559  16.820 -2.3232  0.1673  0.5785
  488MPD2    H1 7260   3.025   1.156  16.749  0.6117 -0.6275 -1.2199
  488MPD2    H2 7261   3.060   1.430  16.418  0.1077 -0.4815  0.2076
  488MPD2    H3 7262   2.994   1.197  16.523  0.9882 -0.8999  1.8917
  488MPD2     N 7263   3.044   1.362  16.942  0.1675  1.0142 -0.3524
  488MPD2    H5 7264   3.070   1.447  16.991 -1.9814  1.7616 -0.5253
  488MPD2    N1 7265   3.157   1.639  16.565 -0.0277  0.4978  0.1985
  488MPD2    H7 7266   3.162   1.724  16.620 -0.1432  0.1329  0.7682
  489TMC3    C1 7267   3.080   1.266  17.155  0.1402 -0.0441  0.0696
  489TMC3    C2 7268   3.131   1.384  17.188  0.4032 -0.0102 -0.1476
  489TMC3    C3 7269   3.177   1.398  17.315 -0.2680  0.0463  0.1564
  489TMC3    C4 7270   3.061   1.168  17.254  0.3452  0.3997  0.1466
  489TMC3    C5 7271   3.105   1.189  17.384  0.0231  0.4364  0.0540
  489TMC3    C6 7272   3.158   1.312  17.420  0.5360  1.1480 -0.7443
  489TMC3     C 7273   3.039   1.243  17.019  0.6822 -0.5167 -0.3478
  489TMC3     O 7274   3.006   1.130  16.990 -0.1594  0.0613 -0.9663
  489TMC3     H 7275   3.171   1.455  17.115  1.1787  0.8155  1.0762
  489TMC3    H1 7276   3.019   1.074  17.219  1.2858  1.2633 -3.3141
  489TMC3    H2 7277   3.197   1.331  17.519 -0.7902  1.2347 -0.2383
  489TMC3    C7 7278   3.060   1.108  17.496  0.0317 -0.9125  0.5957
  489TMC3    C8 7279   3.245   1.527  17.348  0.4891 -0.2673  0.3466
  489TMC3    O1 7280   3.136   1.111  17.591  0.0087 -0.4325 -0.7627
  489TMC3    O2 7281   3.324   1.575  17.270 -0.2330  0.8250  0.4801
  490MPD2     C 7282   3.942   1.217   0.219  0.0132  0.1481  0.0273
  490MPD2    C1 7283   4.039   1.170   0.134 -0.2813 -0.1021  0.1679
  490MPD2    C2 7284   4.121   1.266   0.081  1.1158  0.6543 -0.3793
  490MPD2    C3 7285   4.111   1.403   0.102  0.1282  0.3294  0.4283
  490MPD2    C4 7286   4.006   1.449   0.187 -0.6476 -0.3158 -0.4750
  490MPD2    C5 7287   3.927   1.355   0.244 -0.6354 -0.0364 -0.0897
  490MPD2     H 7288   4.198   1.231   0.013 -0.5216 -1.4489 -1.1357
  490MPD2    H1 7289   3.987   1.553   0.208 -1.2216 -0.8683  1.6697
  490MPD2    H2 7290   3.861   1.160   0.262 -0.1209 -2.0841 -3.1751
  490MPD2    H3 7291   3.847   1.384   0.311  0.3971  2.3919  0.0812
  490MPD2     N 7292   4.205   1.501   0.061  0.0762 -0.5828  0.4249
  490MPD2    H5 7293   4.191   1.598   0.086 -1.1713 -0.8390  0.7205
  490MPD2    N1 7294   4.050   1.030   0.104  0.4757  0.1268  0.0434
  490MPD2    H7 7295   4.127   1.012   0.040  0.2526 -2.3265  0.4428
  491TMC3    C1 7296   4.014   0.800   0.115  0.6329 -0.5426 -0.3577
  491TMC3    C2 7297   3.984   0.700   0.205  0.0076 -0.4649 -0.2651
  491TMC3    C3 7298   3.988   0.567   0.169 -0.4287 -0.6574  0.7270
  491TMC3    C4 7299   4.024   0.776  17.658  0.4190 -0.2468 -0.0373
  491TMC3    C5 7300   4.016   0.640  17.624 -0.2297 -0.2598 -0.4461
  491TMC3    C6 7301   3.995   0.533   0.038 -0.6511  0.3288  0.3446
  491TMC3     C 7302   3.986   0.931   0.174  0.1055  0.4782  0.1979
  491TMC3     O 7303   3.924   0.951   0.281  0.0356  0.3268 -0.5052
  491TMC3     H 7304   3.957   0.728   0.306 -0.0515 -0.6181 -0.2386
  491TMC3    H1 7305   4.019   0.864  17.595  1.3058  1.1583  1.8505
  491TMC3    H2 7306   4.011   0.431   0.004  0.3276  0.5239  0.2343
  491TMC3    C7 7307   3.970   0.613  17.487 -0.0336 -0.0840  1.2804
  491TMC3    C8 7308   3.916   0.492   0.259 -0.1546  0.7780 -0.3353
  491TMC3    O1 7309   3.911   0.507  17.471  0.3840 -0.2612  0.0379
  491TMC3    O2 7310   3.891   0.535   0.376  0.0745  0.1821 -0.6759
  492MPD2     C 7311   4.195   1.934  11.669 -0.6279  0.8028 -0.1587
  492MPD2    C1 7312   4.258   1.834  11.603 -0.4788 -0.3522  0.0543
  492MPD2    C2 7313   4.252   1.706  11.659  0.7618  0.8097 -0.2332
  492MPD2    C3 7314   4.181   1.677  11.777 -0.1689 -0.2505 -0.6867
  492MPD2    C4 7315   4.118   1.781  11.841 -0.3088 -0.1458  0.4034
  492MPD2    C5 7316   4.123   1.908  11.782 -0.5343  0.4541 -0.1016
  492MPD2     H 7317   4.307   1.624  11.614 -1.7006  0.2676 -2.2235
  492MPD2    H1 7318   4.060   1.774  11.932  0.2570  2.0799  0.9477
  492MPD2    H2 7319   4.194   2.037  11.633  0.3203  0.8496 -0.0387
  492MPD2    H3 7320   4.068   1.985  11.834 -0.5152  1.1084 -1.0445
  492MPD2     N 7321   4.153   1.542  11.822 -0.3021  0.2716  0.3192
  492MPD2    H5 7322   4.097   1.526  11.905 -1.4583 -2.3438 -0.9597
  492MPD2    N1 7323   4.345   1.870  11.496  0.1042  0.2751  0.5954
  492MPD2    H7 7324   4.340   1.968  11.469 -2.7002  0.7692  2.9462
  493TMC3    C1 7325   4.518   1.859  11.348  0.0492  0.4100 -0.5285
  493TMC3    C2 7326   4.533   1.992  11.378 -0.5946 -0.3329 -0.7261
  493TMC3    C3 7327   4.582   2.084  11.285  0.0788 -0.0311 -0.1548
  493TMC3    C4 7328   4.554   1.809  11.230  0.3833  0.0524  0.3663
  493TMC3    C5 7329   4.609   1.893  11.140 -0.3715  0.4646  0.2176
  493TMC3    C6 7330   4.612   2.032  11.162 -0.2306  0.1417  0.0494
  493TMC3     C 7331   4.428   1.783  11.427 -0.5155 -0.3006  0.2231
  493TMC3     O 7332   4.419   1.662  11.418 -0.0606 -0.2046  0.0535
  493TMC3     H 7333   4.522   2.030  11.479 -1.2433 -0.2343 -0.8356
  493TMC3    H1 7334   4.538   1.704  11.208 -0.4013 -0.0584  1.4684
  493TMC3    H2 7335   4.610   2.094  11.074 -1.1112 -0.5221 -0.4008
  493TMC3    C7 7336   4.599   1.850  11.003 -0.5447  0.6407 -0.2797
  493TMC3    C8 7337   4.570   2.232  11.305  0.2555 -0.8375  0.0858
  493TMC3    O1 7338   4.521   1.759  10.980  0.0245  0.5210  0.6533
  493TMC3    O2 7339   4.494   2.258  11.397  0.2160  0.4597 -0.7335
  494TMC3    C1 7340   0.597   2.746   0.621  0.0396 -0.0031  0.1010
  494TMC3    C2 7341   0.653   2.620   0.611  0.4293 -0.2739 -0.2656
  494TMC3    C3 7342   0.636   2.558   0.490  0.3492  0.5343 -0.3500
  494TMC3    C4 7343   0.521   2.800   0.521 -0.1670 -0.2462 -0.1813
  494TMC3    C5 7344   0.499   2.731   0.401 -0.0250  0.0262 -0.3736
  494TMC3    C6 7345   0.556   2.607   0.389 -0.8554  0.3442  0.6989
  494TMC3     C 7346   0.657   2.829   0.719  0.6422  0.3091  0.1773
  494TMC3     O 7347   0.684   2.944   0.695 -0.3984  0.2082  0.0334
  494TMC3     H 7348   0.719   2.578   0.686 -0.4270  1.0882  1.2338
  494TMC3    H1 7349   0.492   2.905   0.525 -0.1553 -0.2802  0.9754
  494TMC3    H2 7350   0.545   2.548   0.299  2.6590 -0.6728  0.9272
  494TMC3    C7 7351   0.444   2.781   0.279  0.8065  0.5045  0.7238
  494TMC3    C8 7352   0.729   2.447   0.471 -0.0852 -0.7691 -0.4374
  494TMC3    O1 7353   0.425   2.704   0.189 -0.4847  0.3539 -0.1854
  494TMC3    O2 7354   0.762   2.392   0.577 -0.4756 -0.0276  0.1316
  495TMC3    C1 7355   3.563   0.276  14.567 -0.3807  0.3222  0.2872
  495TMC3    C2 7356   3.484   0.313  14.452  0.6817 -0.3331  1.4350
  495TMC3    C3 7357   3.347   0.327  14.474 -0.4831  0.2674 -0.3812
  495TMC3    C4 7358   3.502   0.266  14.688  0.1816  0.1768  0.1055
  495TMC3    C5 7359   3.371   0.297  14.703 -0.6322  0.1864  0.3359
  495TMC3    C6 7360   3.289   0.322  14.601 -0.0827 -0.0857  0.1504
  495TMC3     C 7361   3.675   0.188  14.548  0.1005 -0.2150 -0.2073
  495TMC3     O 7362   3.681   0.092  14.623 -0.3870 -0.4708 -0.3413
  495TMC3     H 7363   3.536   0.304  14.358  0.1564  1.0438  1.0098
  495TMC3    H1 7364   3.561   0.242  14.776 -0.0338 -1.8452 -0.3200
  495TMC3    H2 7365   3.181   0.321  14.610 -0.0155 -0.3067  0.8801
  495TMC3    C7 7366   3.318   0.269  14.834 -0.6190 -0.8367 -0.2584
  495TMC3    C8 7367   3.255   0.332  14.360 -0.3358  0.6337  0.0104
  495TMC3    O1 7368   3.389   0.296  14.927  0.3541 -0.2353 -0.0276
  495TMC3    O2 7369   3.143   0.380  14.376  0.6478  0.4158 -0.6692
  496MPD2     C 7370   1.070   0.115  15.296 -0.0195 -0.6011  0.2439
  496MPD2    C1 7371   0.962   0.093  15.221 -0.6060 -0.3160 -0.1654
  496MPD2    C2 7372   0.829   0.109  15.273  0.3151  0.1081 -0.2152
  496MPD2    C3 7373   0.821   0.146  15.411 -0.0643  0.5094  0.3568
  496MPD2    C4 7374   0.939   0.161  15.482 -0.4637 -0.2383 -0.4103
  496MPD2    C5 7375   1.064   0.150  15.429 -0.3113  0.0139  0.3693
  496MPD2     H 7376   0.740   0.091  15.213  1.4510 -1.6019 -1.3972
  496MPD2    H1 7377   0.929   0.181  15.588 -1.6127 -1.0478 -0.3661
  496MPD2    H2 7378   1.166   0.091  15.251  0.5168 -0.3946  1.2794
  496MPD2    H3 7379   1.153   0.155  15.491 -0.5191  4.4242  0.3030
  496MPD2     N 7380   0.702   0.162  15.479 -0.2631 -0.4399 -0.2518
  496MPD2    H5 7381   0.697   0.176  15.580  1.7802 -1.4699 -0.0118
  496MPD2    N1 7382   0.992   0.034  15.090  0.1358 -0.2461 -0.0638
  496MPD2    H7 7383   1.091   0.030  15.066  0.3885 -2.3981  1.3348
  497TMC3    C1 7384   0.459   0.150  15.504 -0.0202  0.2794 -0.8307
  497TMC3    C2 7385   0.353   0.235  15.481  0.1786  0.4523  0.3406
  497TMC3    C3 7386   0.252   0.238  15.574 -0.3314 -0.4237  0.3610
  497TMC3    C4 7387   0.473   0.092  15.624  0.2647  0.0448 -0.1236
  497TMC3    C5 7388   0.365   0.100  15.716 -0.6912  0.3909 -0.1229
  497TMC3    C6 7389   0.240   0.160  15.683 -0.3760  0.0097  0.0316
  497TMC3     C 7390   0.582   0.164  15.417 -0.1840 -0.1276  0.5349
  497TMC3     O 7391   0.547   0.178  15.295 -0.4652  0.1932 -0.2374
  497TMC3     H 7392   0.358   0.304  15.398 -3.1134  1.0480  0.6154
  497TMC3    H1 7393   0.568   0.051  15.657  0.2490  1.1447  1.3191
  497TMC3    H2 7394   0.166   0.176  15.761 -0.1587  0.8639  0.0562
  497TMC3    C7 7395   0.370   0.057  15.857  0.1647  0.0948 -0.8254
  497TMC3    C8 7396   0.198   0.371  15.600  0.0618 -0.2529  0.6053
  497TMC3    O1 7397   0.262   0.034  15.908 -0.1363 -0.6147 -0.4155
  497TMC3    O2 7398   0.099   0.382  15.672  0.4249 -0.6499  0.6403
  498MPD2     C 7399   2.428   1.443   9.713  0.1705  0.3153 -0.4674
  498MPD2    C1 7400   2.414   1.325   9.645 -0.5114  0.0032  0.7363
  498MPD2    C2 7401   2.333   1.225   9.699  0.1811  0.2792 -0.4122
  498MPD2    C3 7402   2.281   1.234   9.827 -0.8359 -0.0879 -0.3092
  498MPD2    C4 7403   2.301   1.353   9.897  0.3137 -0.3722  0.2116
  498MPD2    C5 7404   2.374   1.454   9.837  0.4551  0.2257 -0.4168
  498MPD2     H 7405   2.322   1.128   9.651  1.0793 -0.8781  1.6960
  498MPD2    H1 7406   2.272   1.372  10.000  1.4766  1.5968  0.1754
  498MPD2    H2 7407   2.486   1.530   9.684 -1.4195  0.9630 -1.7182
  498MPD2    H3 7408   2.408   1.540   9.894  0.6108  0.3785 -0.7415
  498MPD2     N 7409   2.216   1.118   9.879  0.0043 -0.0042 -0.0894
  498MPD2    H5 7410   2.209   1.031   9.828  0.2784  0.2836 -0.6189
  498MPD2    N1 7411   2.472   1.300   9.516  0.3059  0.0947  0.4138
  498MPD2    H7 7412   2.457   1.205   9.484  0.3955 -0.1013  0.9535
  499TMC3    C1 7413   2.598   1.352   9.319 -1.5130  0.9737  0.3940
  499TMC3    C2 7414   2.612   1.216   9.290 -0.1292  0.3948 -0.0334
  499TMC3    C3 7415   2.640   1.178   9.159  0.1434  0.0430 -0.0668
  499TMC3    C4 7416   2.610   1.447   9.217  0.4585 -0.4187  0.5916
  499TMC3    C5 7417   2.631   1.404   9.089  0.1782 -0.2475 -0.3530
  499TMC3    C6 7418   2.650   1.269   9.057 -0.0073 -0.2252  0.0051
  499TMC3     C 7419   2.536   1.398   9.445  0.0364 -0.3616  0.2858
  499TMC3     O 7420   2.532   1.522   9.467  0.2111  0.1763  0.2686
  499TMC3     H 7421   2.625   1.143   9.368  2.6316  0.9643  0.0382
  499TMC3    H1 7422   2.597   1.553   9.232 -1.1561 -0.7371  1.4310
  499TMC3    H2 7423   2.679   1.250   8.955 -0.9420 -0.6773 -0.1756
  499TMC3    C7 7424   2.682   1.509   9.001 -0.4088 -0.7449 -0.0178
  499TMC3    C8 7425   2.689   1.043   9.122 -0.1573 -0.1331 -0.2330
  499TMC3    O1 7426   2.749   1.598   9.050 -0.1124 -0.3192 -0.3215
  499TMC3    O2 7427   2.677   1.025   8.997 -0.0919  0.3239  1.1171
  500MPD2     C 7428   3.190   2.750  10.404  0.0228  0.2197  0.6271
  500MPD2    C1 7429   3.249   2.798  10.294 -0.1866  0.4605 -0.2415
  500MPD2    C2 7430   3.167   2.809  10.176  0.8323 -0.3636 -0.4078
  500MPD2    C3 7431   3.031   2.788  10.174 -0.0223 -1.1104 -0.6125
  500MPD2    C4 7432   2.977   2.736  10.284 -0.2541  0.1168 -1.0474
  500MPD2    C5 7433   3.050   2.722  10.400  0.0683  0.1377  0.1673
  500MPD2     H 7434   3.222   2.839  10.088  2.3667 -1.0121  0.3267
  500MPD2    H1 7435   2.871   2.720  10.298  0.1694 -2.7176 -1.1014
  500MPD2    H2 7436   3.245   2.725  10.495  0.1212  0.2441  0.5740
  500MPD2    H3 7437   2.997   2.690  10.489 -0.1388 -1.0075 -0.3673
  500MPD2     N 7438   2.941   2.829  10.068  0.5867  0.2858  1.0121
  500MPD2    H5 7439   2.842   2.809  10.081  0.6024 -0.3529  0.1537
  500MPD2    N1 7440   3.388   2.818  10.291 -0.1518  0.2050 -0.2882
  500MPD2    H7 7441   3.446   2.828  10.208  0.5096  0.7943  0.2434
  501TMC3    C1 7442   3.608   2.801  10.366  0.2228 -0.1715 -0.6399
  501TMC3    C2 7443   3.655   2.894  10.280 -0.9036 -0.5132 -0.3620
  501TMC3    C3 7444   3.785   2.917  10.281  0.1262 -0.1185 -0.7218
  501TMC3    C4 7445   3.689   2.732  10.458  0.2559 -0.3188 -0.0700
  501TMC3    C5 7446   3.824   2.753  10.454  0.5888 -0.0519 -0.7184
  501TMC3    C6 7447   3.870   2.843  10.363  0.5065  0.3467  0.8717
  501TMC3     C 7448   3.473   2.805  10.403 -0.0391  0.2624  0.0219
  501TMC3     O 7449   3.448   2.772  10.514  0.0297  0.0823 -0.0787
  501TMC3     H 7450   3.581   2.959  10.235 -3.8608 -0.8224  3.9809
  501TMC3    H1 7451   3.651   2.667  10.536 -1.4929 -0.1397 -0.7795
  501TMC3    H2 7452   3.977   2.859  10.369  0.0996  2.2886  2.7613
  501TMC3    C7 7453   3.859   2.774  10.592  0.2414 -0.1320 -0.2907
  501TMC3    C8 7454   3.821   3.054  10.277  0.1772  0.3733  0.0027
  501TMC3    O1 7455   3.825   2.688  10.674  0.4370 -0.7566 -0.6984
  501TMC3    O2 7456   3.871   3.086  10.381 -0.0825 -0.0772 -0.0426
  502TMC3    C1 7457   2.828   0.857  15.152 -0.7037  0.4267  0.4824
  502TMC3    C2 7458   2.806   0.986  15.107 -0.0883  0.9610 -1.1329
  502TMC3    C3 7459   2.672   1.030  15.090  0.1384 -0.4504 -0.3331
  502TMC3    C4 7460   2.729   0.778  15.202 -0.2253  0.5042 -0.2697
  502TMC3    C5 7461   2.600   0.827  15.194  0.0532  0.2734 -0.1031
  502TMC3    C6 7462   2.573   0.956  15.143 -0.2247 -0.9820  0.3168
  502TMC3     C 7463   2.949   0.833  15.221 -0.1116  0.8164 -0.4455
  502TMC3     O 7464   3.046   0.840  15.154  0.4306  0.6045 -0.5707
  502TMC3     H 7465   2.888   1.056  15.098 -1.9070  3.0944 -1.1700
  502TMC3    H1 7466   2.757   0.678  15.233  3.5955  2.0123  1.0710
  502TMC3    H2 7467   2.471   0.988  15.124 -0.1922 -1.4169 -0.6293
  502TMC3    C7 7468   2.499   0.738  15.242 -0.5680 -0.3195 -0.7689
  502TMC3    C8 7469   2.660   1.170  15.064 -0.3474 -0.0763  0.0760
  502TMC3    O1 7470   2.531   0.623  15.257 -0.2417 -0.2056  0.1305
  502TMC3    O2 7471   2.750   1.219  14.994 -0.1078  0.0302  0.0873
  503MPD2     C 7472   0.181   1.638  16.798  0.1298  0.5500 -0.1014
  503MPD2    C1 7473   0.240   1.683  16.920  0.2874  0.1779  0.8889
  503MPD2    C2 7474   0.281   1.587  17.010  0.2533  0.2522 -0.2477
  503MPD2    C3 7475   0.271   1.451  16.983  0.0657  0.3069 -0.2260
  503MPD2    C4 7476   0.205   1.408  16.869  0.3892 -0.5801  0.1376
  503MPD2    C5 7477   0.168   1.503  16.772  0.9307  0.5075 -0.0926
  503MPD2     H 7478   0.337   1.620  17.097  2.5001 -3.5318 -0.2816
  503MPD2    H1 7479   0.178   1.307  16.843 -0.5411  0.0839 -1.4871
  503MPD2    H2 7480   0.136   1.712  16.733  0.2525  2.2670  1.7730
  503MPD2    H3 7481   0.110   1.483  16.683  1.3093 -0.7886 -0.0403
  503MPD2     N 7482   0.335   1.361  17.070 -0.2141  0.4099 -0.3914
  503MPD2    H5 7483   0.366   1.403  17.157  0.4460 -0.8955 -0.0036
  503MPD2    N1 7484   0.250   1.817  16.956  0.1668 -0.3110  0.1315
  503MPD2    H7 7485   0.286   1.848  17.046 -1.1143 -0.1952  0.6008
  504TMC3    C1 7486   0.412   1.168  17.174 -0.6093 -0.5987  0.2961
  504TMC3    C2 7487   0.382   1.035  17.210  0.4956 -0.1287 -0.1414
  504TMC3    C3 7488   0.430   0.991  17.329 -0.0098 -0.4619  0.4128
  504TMC3    C4 7489   0.508   1.239  17.242  0.5859 -0.5049  0.1187
  504TMC3    C5 7490   0.566   1.187  17.353  0.7665 -0.4584 -0.1010
  504TMC3    C6 7491   0.521   1.070  17.399 -0.2894  0.4064 -0.4221
  504TMC3     C 7492   0.332   1.228  17.066  0.0714 -0.3418  0.0188
  504TMC3     O 7493   0.269   1.154  16.989 -0.1597 -0.1220  0.5224
  504TMC3     H 7494   0.307   0.983  17.152  2.2715 -1.3394 -1.3378
  504TMC3    H1 7495   0.539   1.338  17.211  0.2183 -0.7647 -1.0825
  504TMC3    H2 7496   0.562   1.034  17.492 -1.2216 -0.3853 -0.3242
  504TMC3    C7 7497   0.705   1.200  17.340  0.0833 -0.8290 -0.0606
  504TMC3    C8 7498   0.411   0.848  17.358  0.1123  0.0679 -0.1802
  504TMC3    O1 7499   0.741   1.255  17.234 -0.6039  0.2529 -0.1016
  504TMC3    O2 7500   0.352   0.784  17.275 -0.1583  0.3956  0.3584
  505MPD2     C 7501   1.339   0.554   9.639 -0.2462 -0.2799 -0.1170
  505MPD2    C1 7502   1.290   0.473   9.739  0.4780 -0.8449  0.3197
  505MPD2    C2 7503   1.226   0.536   9.843  0.1688 -0.7562  0.3661
  505MPD2    C3 7504   1.195   0.669   9.829 -0.0362 -0.0201  0.5130
  505MPD2    C4 7505   1.234   0.745   9.720  0.7099  0.1429  0.5809
  505MPD2    C5 7506   1.312   0.686   9.622 -0.1164 -0.2540  0.1606
  505MPD2     H 7507   1.190   0.476   9.926  0.7519 -0.5484  0.7684
  505MPD2    H1 7508   1.205   0.848   9.702 -0.2139 -0.2728 -0.2980
  505MPD2    H2 7509   1.391   0.508   9.556  1.1046 -1.0053  1.1117
  505MPD2    H3 7510   1.364   0.750   9.552 -1.7851  0.1221 -0.7377
  505MPD2     N 7511   1.117   0.726   9.933  0.0871 -0.0062  0.2559
  505MPD2    H5 7512   1.107   0.671  10.018  1.2393 -0.4192  0.1225
  505MPD2    N1 7513   1.323   0.329   9.735  0.0595 -0.4605  0.1413
  505MPD2    H7 7514   1.388   0.303   9.661  0.5120  1.6208 -0.1963
  506TMC3    C1 7515   1.319   0.105   9.817 -0.4131 -0.0642  0.5155
  506TMC3    C2 7516   1.454   0.098   9.791 -0.8838 -0.0087 -0.0172
  506TMC3    C3 7517   1.524   0.014   9.870  0.0277  0.0153 -0.2322
  506TMC3    C4 7518   1.260   0.027   9.913 -0.1343  0.2594 -0.5105
  506TMC3    C5 7519   1.340   4.675   9.991  0.7592  0.1916  0.9219
  506TMC3    C6 7520   1.472   4.661   9.970  0.1796 -0.0210  0.0419
  506TMC3     C 7521   1.265   0.234   9.817  0.2440  1.0538 -0.1837
  506TMC3     O 7522   1.180   0.252   9.905 -0.4372 -0.1510  0.3036
  506TMC3     H 7523   1.502   0.159   9.716 -1.7612 -0.0279 -0.5987
  506TMC3    H1 7524   1.156   0.033   9.943  1.0426  2.1289  3.1331
  506TMC3    H2 7525   1.545   4.616  10.037 -0.7019 -0.0575  0.9716
  506TMC3    C7 7526   1.313   4.695  10.132 -0.3357  0.0943 -0.6118
  506TMC3    C8 7527   1.669   0.040   9.881  0.1486 -0.0866 -0.2232
  506TMC3    O1 7528   1.381   4.642  10.221 -0.5647  0.1828 -0.2772
  506TMC3    O2 7529   1.748   4.667   9.893 -0.5844  0.2356  0.0297
  507TMC3    C1 7530   1.323   1.146  14.812  0.2220  0.3041 -0.2002
  507TMC3    C2 7531   1.287   1.074  14.701 -0.2171  0.2792  0.5975
  507TMC3    C3 7532   1.327   1.114  14.574  0.2278 -0.1801 -1.0411
  507TMC3    C4 7533   1.405   1.255  14.804 -0.3271 -0.9729 -0.1031
  507TMC3    C5 7534   1.445   1.288  14.677 -0.1731  0.7038  0.8932
  507TMC3    C6 7535   1.410   1.221  14.561  0.2547 -0.1639 -0.0969
  507TMC3     C 7536   1.242   1.140  14.930  0.2825  0.5910  0.0164
  507TMC3     O 7537   1.274   1.208  15.027  0.1997  0.4623 -0.5031
  507TMC3     H 7538   1.228   0.983  14.711  0.9551 -0.4296  1.0313
  507TMC3    H1 7539   1.438   1.308  14.892  0.8904 -2.3723  0.2837
  507TMC3    H2 7540   1.459   1.236  14.465 -1.0750 -1.1486 -0.9334
  507TMC3    C7 7541   1.425   1.428  14.643  0.1990 -0.2895 -0.0343
  507TMC3    C8 7542   1.229   1.117  14.467  0.0889 -0.0401 -0.1770
  507TMC3    O1 7543   1.391   1.445  14.525 -0.2323  0.0212 -0.4658
  507TMC3    O2 7544   1.162   1.022  14.432  0.0777  0.0532 -0.0981
  508MPD2     C 7545   2.137   3.122  15.792  0.1003  0.5493 -0.0091
  508MPD2    C1 7546   2.076   3.221  15.861 -0.1940  0.1344 -0.5487
  508MPD2    C2 7547   2.026   3.330  15.797 -0.0632  0.0768 -0.1328
  508MPD2    C3 7548   2.025   3.326  15.660 -0.5976 -0.4462 -0.5443
  508MPD2    C4 7549   2.081   3.226  15.585  0.9257 -0.2120  0.5924
  508MPD2    C5 7550   2.148   3.128  15.656  0.0592  0.0606 -0.4621
  508MPD2     H 7551   1.977   3.413  15.848 -0.3121  0.1869 -0.5491
  508MPD2    H1 7552   2.090   3.221  15.477  1.6841 -1.1981  0.6969
  508MPD2    H2 7553   2.174   3.029  15.835  0.4815  1.0139  0.6665
  508MPD2    H3 7554   2.191   3.054  15.590 -1.5999 -1.1391 -0.2035
  508MPD2     N 7555   1.977   3.434  15.582  0.8967 -0.0447 -0.0410
  508MPD2    H5 7556   1.970   3.427  15.481  0.0339 -4.4025  0.3254
  508MPD2    N1 7557   2.095   3.203  15.997  0.3831  0.0730  0.2824
  508MPD2    H7 7558   2.139   3.114  16.021 -0.5989 -0.8610 -1.3707
  509TMC3    C1 7559   1.911   3.891  15.457  0.0650  0.4015 -0.6901
  509TMC3    C2 7560   2.021   3.892  15.369 -0.0669 -0.3096 -0.2316
  509TMC3    C3 7561   2.094   3.777  15.361  0.2377 -0.1065  0.1916
  509TMC3    C4 7562   1.872   3.781  15.525  0.4144  0.8430  0.0442
  509TMC3    C5 7563   1.948   3.667  15.514 -0.1807  0.5499 -0.0782
  509TMC3    C6 7564   2.054   3.667  15.426 -0.6512 -0.2669 -0.1013
  509TMC3     C 7565   1.819   3.998  15.457  0.2679 -0.3101  0.0667
  509TMC3     O 7566   1.730   4.000  15.540  0.6417 -0.1212 -0.7952
  509TMC3     H 7567   2.062   3.979  15.319  0.5188  0.4931  1.6575
  509TMC3    H1 7568   1.787   3.791  15.591 -0.4538  1.1723 -1.1244
  509TMC3    H2 7569   2.109   3.573  15.417  1.5846  1.0584 -0.3365
  509TMC3    C7 7570   1.957   3.567  15.626  0.4013  0.2575 -0.3326
  509TMC3    C8 7571   2.237   3.797  15.354 -0.0659  0.0066  0.2307
  509TMC3    O1 7572   1.956   3.613  15.740  0.3171  0.6193  0.0192
  509TMC3    O2 7573   2.306   3.694  15.339  0.5596 -0.8825  0.4312
  510MPD2     C 7574   4.572   0.832  14.542 -0.0024  0.0507  0.1437
  510MPD2    C1 7575   4.608   0.707  14.594  0.2513 -0.4267  0.0549
  510MPD2    C2 7576   0.004   0.649  14.539 -0.0863  0.1728 -0.4825
  510MPD2    C3 7577   0.090   0.722  14.458 -0.5746 -0.2777  0.6466
  510MPD2    C4 7578   0.053   0.849  14.415  0.3979  0.2007  0.8986
  510MPD2    C5 7579   4.650   0.899  14.454  0.3933  0.4975  0.2143
  510MPD2     H 7580   0.040   0.549  14.561 -0.4942  0.1284 -0.0277
  510MPD2    H1 7581   0.114   0.909  14.348 -0.4051 -1.1294 -1.0418
  510MPD2    H2 7582   4.479   0.883  14.569 -0.1231 -0.2923  0.3718
  510MPD2    H3 7583   4.620   0.993  14.409 -2.8279  0.1161  1.6292
  510MPD2     N 7584   0.209   0.650  14.424 -0.4100  0.0484  0.2203
  510MPD2    H5 7585   0.213   0.553  14.453 -0.9038 -0.6995 -2.1998
  510MPD2    N1 7586   4.530   0.646  14.696  0.2145  0.0608 -0.1472
  510MPD2    H7 7587   4.444   0.692  14.726 -0.5344 -1.9037  0.6900
  511TMC3    C1 7588   4.473   0.458  14.829 -0.2685  0.5343 -0.7059
  511TMC3    C2 7589   4.421   0.509  14.950  0.3104  0.4486 -0.2380
  511TMC3    C3 7590   4.343   0.421  15.026  0.6125 -0.0469 -0.5060
  511TMC3    C4 7591   4.477   0.329  14.809  0.3562 -0.1128 -0.1579
  511TMC3    C5 7592   4.405   0.244  14.884  0.1120 -0.2609  0.3203
  511TMC3    C6 7593   4.331   0.288  14.997  0.0319  0.6775  0.8146
  511TMC3     C 7594   4.575   0.529  14.750 -0.3155  1.4929  0.1481
  511TMC3     O 7595   4.685   0.481  14.748  0.2882 -0.0998  0.4226
  511TMC3     H 7596   4.438   0.614  14.970 -1.9028  0.2893  2.5109
  511TMC3    H1 7597   4.527   0.290  14.722 -1.1012 -0.7691 -0.7071
  511TMC3    H2 7598   4.261   0.225  15.051  0.3138  0.2244  0.6545
  511TMC3    C7 7599   4.386   0.103  14.831 -0.9053 -0.7187 -0.5594
  511TMC3    C8 7600   4.272   0.481  15.145 -1.2515 -0.2085  0.3470
  511TMC3    O1 7601   4.410   0.084  14.714  0.3265 -0.3203 -0.5121
  511TMC3    O2 7602   4.264   0.603  15.159 -0.4859 -0.1877  0.0774
  512TMC3    C1 7603   3.751   0.156  12.820  0.1725  0.4922 -0.2019
  512TMC3    C2 7604   3.833   0.101  12.913 -0.2186 -0.7616  0.0865
  512TMC3    C3 7605   3.855   4.683  12.902  0.7859 -0.6702 -0.1898
  512TMC3    C4 7606   3.717   0.090  12.704 -0.2306  0.0303  0.2817
  512TMC3    C5 7607   3.759   4.679  12.688 -0.2648 -0.5803  0.9159
  512TMC3    C6 7608   3.824   4.615  12.793 -0.7600  0.8408 -0.5547
  512TMC3     C 7609   3.719   0.299  12.830  0.7802  0.0072 -0.3987
  512TMC3     O 7610   3.790   0.375  12.895  0.6869  0.0402  0.1171
  512TMC3     H 7611   3.883   0.168  12.982  0.2975 -1.7012  0.6190
  512TMC3    H1 7612   3.686   0.141  12.613  0.1159 -0.7535 -0.2791
  512TMC3    H2 7613   3.851   4.510  12.797  0.8560  1.0782 -4.4834
  512TMC3    C7 7614   3.799   4.642  12.551 -0.1217  0.2942  0.1524
  512TMC3    C8 7615   3.973   4.637  12.971 -0.0163  0.0547 -0.1741
  512TMC3    O1 7616   3.801   0.011  12.467 -1.3199  0.0515 -0.0667
  512TMC3    O2 7617   4.049   4.566  12.904  0.3798 -0.2034  0.5149
  513MPD2     C 7618   0.562   0.476  12.735 -0.2552  0.1089 -0.9246
  513MPD2    C1 7619   0.615   0.378  12.649 -0.1048 -0.6099 -0.1367
  513MPD2    C2 7620   0.704   0.283  12.709  0.8686  0.3212  0.2814
  513MPD2    C3 7621   0.741   0.290  12.838 -0.7945  0.1116  0.2566
  513MPD2    C4 7622   0.681   0.378  12.926  0.2855  0.2190  1.1227
  513MPD2    C5 7623   0.597   0.471  12.865  0.0223 -0.2900  0.7604
  513MPD2     H 7624   0.751   0.204  12.651  2.8408  0.3421  1.8574
  513MPD2    H1 7625   0.700   0.372  13.033 -1.2891  0.0681  1.3817
  513MPD2    H2 7626   0.495   0.555  12.702 -1.7578 -0.5486  0.4948
  513MPD2    H3 7627   0.555   0.549  12.929  2.9587  0.1117  2.2007
  513MPD2     N 7628   0.835   0.191  12.878 -0.1996  0.2868 -0.2299
  513MPD2    H5 7629   0.865   0.128  12.804 -0.7520 -1.2221  0.8322
  513MPD2    N1 7630   0.585   0.374  12.512  0.1563  0.0689 -1.0363
  513MPD2    H7 7631   0.520   0.446  12.481  0.5151  0.5998 -0.5619
  514TMC3    C1 7632   0.614   0.309  12.284 -0.4626  0.2279 -0.9846
  514TMC3    C2 7633   0.673   0.427  12.237  0.2719  0.0342 -0.1004
  514TMC3    C3 7634   0.755   0.420  12.126  0.6730  0.5455 -0.2682
  514TMC3    C4 7635   0.639   0.193  12.217  0.3380  0.8505  0.8887
  514TMC3    C5 7636   0.730   0.186  12.119  0.0614  0.0392  0.1299
  514TMC3    C6 7637   0.803   0.295  12.075 -0.5968 -0.1809 -0.7073
  514TMC3     C 7638   0.631   0.281  12.424 -0.5563  0.3737 -0.6497
  514TMC3     O 7639   0.692   0.179  12.446  0.9275  0.0108  0.7025
  514TMC3     H 7640   0.646   0.524  12.278  2.5571  1.0922 -1.0662
  514TMC3    H1 7641   0.584   0.104  12.246  1.9414 -0.4737 -0.1391
  514TMC3    H2 7642   0.888   0.289  12.009  0.9495 -0.6417  1.3124
  514TMC3    C7 7643   0.808   0.069  12.116 -0.8762  0.6676  0.1034
  514TMC3    C8 7644   0.708   0.510  12.025 -0.2574 -0.2039 -0.0831
  514TMC3    O1 7645   0.868   0.048  12.013  0.1473  0.0431  0.8914
  514TMC3    O2 7646   0.598   0.558  12.025  0.4028 -0.1026  0.2802
  515MPD2     C 7647   3.027   1.642  15.073  0.2298  0.7315  0.0933
  515MPD2    C1 7648   3.112   1.601  14.971  0.1221 -0.5195 -0.1429
  515MPD2    C2 7649   3.252   1.630  14.988  0.0636 -0.5310 -0.4018
  515MPD2    C3 7650   3.294   1.675  15.117  0.3365  0.1949  0.6651
  515MPD2    C4 7651   3.206   1.691  15.219 -0.0818 -0.2055  0.2066
  515MPD2    C5 7652   3.072   1.681  15.195  0.3306  0.1988  0.2303
  515MPD2     H 7653   3.318   1.616  14.904  1.5960  0.3292  0.6559
  515MPD2    H1 7654   3.237   1.721  15.319 -0.1107  1.9039 -0.4095
  515MPD2    H2 7655   2.919   1.637  15.066  0.0479  3.5435  0.6869
  515MPD2    H3 7656   2.993   1.706  15.266 -1.1700  0.9236 -1.6971
  515MPD2     N 7657   3.420   1.720  15.147 -0.1797  0.2732 -0.3388
  515MPD2    H5 7658   3.432   1.766  15.236  0.4530  2.0673 -1.3373
  515MPD2    N1 7659   3.070   1.537  14.855  0.2859  0.0245  0.0534
  515MPD2    H7 7660   3.144   1.499  14.796 -1.3996  0.5461 -2.3650
  516TMC3    C1 7661   2.923   1.404  14.716 -0.1911 -0.4634  0.1394
  516TMC3    C2 7662   2.837   1.434  14.621  0.2507  0.5256  0.3644
  516TMC3    C3 7663   2.765   1.332  14.555  0.6722 -0.1146  0.3402
  516TMC3    C4 7664   2.960   1.275  14.744  1.0160  0.8857  0.1871
  516TMC3    C5 7665   2.896   1.174  14.677 -0.2729 -0.5722 -0.3102
  516TMC3    C6 7666   2.799   1.202  14.583 -0.6544 -0.3185  0.1269
  516TMC3     C 7667   2.943   1.503  14.814 -0.2290  0.0117  0.3089
  516TMC3     O 7668   2.836   1.550  14.860  0.3253  0.3683  0.4543
  516TMC3     H 7669   2.828   1.540  14.604 -2.9715  0.1651 -0.0699
  516TMC3    H1 7670   3.027   1.261  14.828 -0.4945  2.1317  1.6078
  516TMC3    H2 7671   2.773   1.128  14.508  0.8683  0.7075 -1.3976
  516TMC3    C7 7672   2.913   1.038  14.731 -0.4514  0.3658  0.3054
  516TMC3    C8 7673   2.727   1.348  14.421 -0.7270  0.0310  0.2667
  516TMC3    O1 7674   2.987   1.030  14.830 -1.3364  0.6350  0.2450
  516TMC3    O2 7675   2.643   1.271  14.386 -0.2559  0.8123 -0.5571
  517MPD2     C 7676   3.349   2.825   0.179 -0.3775  0.1610 -0.2349
  517MPD2    C1 7677   3.486   2.826   0.189  0.2147 -0.4174 -0.0406
  517MPD2    C2 7678   3.555   2.929   0.247 -0.0485  0.5677 -0.0700
  517MPD2    C3 7679   3.494   3.039   0.295  0.8417  0.0225 -0.3089
  517MPD2    C4 7680   3.363   3.051   0.265 -0.1721 -0.1558  0.7129
  517MPD2    C5 7681   3.295   2.944   0.222 -0.1839 -0.9662  0.3413
  517MPD2     H 7682   3.660   2.907   0.263  0.2185  0.8165 -1.5196
  517MPD2    H1 7683   3.301   3.133   0.300 -2.0254 -1.3443  0.2711
  517MPD2    H2 7684   3.285   2.746   0.142 -1.2582 -0.0307  1.6784
  517MPD2    H3 7685   3.187   2.936   0.226 -0.1573 -1.0180  1.1005
  517MPD2     N 7686   3.560   3.146   0.357 -0.9379 -0.1432  0.4747
  517MPD2    H5 7687   3.507   3.231   0.374 -0.4312  0.3592 -0.4905
  517MPD2    N1 7688   3.568   2.709   0.161 -0.0882 -0.2245 -0.3619
  517MPD2    H7 7689   3.668   2.718   0.150 -0.0297 -1.5190 -0.8183
  518TMC3    C1 7690   3.626   2.515   0.045  0.0163  0.3865  0.3659
  518TMC3    C2 7691   3.619   2.375   0.059  0.1500  0.4671  0.0369
  518TMC3    C3 7692   3.718   2.304   0.007  0.7024  0.5034  1.1406
  518TMC3    C4 7693   3.732   2.577  17.671 -0.3537 -0.1181  0.8533
  518TMC3    C5 7694   3.842   2.504  17.645 -0.6035 -0.7052 -0.6028
  518TMC3    C6 7695   3.834   2.360  17.646 -0.4411 -0.4422 -0.1034
  518TMC3     C 7696   3.517   2.595   0.105  0.3603 -0.3378  0.4910
  518TMC3     O 7697   3.411   2.543   0.130 -0.7362  0.5168  0.3158
  518TMC3     H 7698   3.533   2.330   0.107 -0.3383  0.6224 -0.6907
  518TMC3    H1 7699   3.724   2.684  17.658 -0.8296 -0.0857  1.4214
  518TMC3    H2 7700   3.913   2.298  17.605 -1.9142 -0.8355 -2.3201
  518TMC3    C7 7701   3.948   2.557  17.546  0.7728 -0.1317 -0.1948
  518TMC3    C8 7702   3.719   2.160  17.663  0.0444  1.0643  0.2505
  518TMC3    O1 7703   3.932   2.662  17.486  0.0810  0.5216  0.0282
  518TMC3    O2 7704   3.800   2.117  17.581  0.0382 -0.4513 -0.4827
  519MPD2     C 7705   0.077   1.635  14.496  0.5622 -0.6469  0.4022
  519MPD2    C1 7706   0.053   1.660  14.357  0.2035  0.3783  1.0976
  519MPD2    C2 7707   0.101   1.578  14.259 -0.2863 -0.3228  0.0127
  519MPD2    C3 7708   0.182   1.474  14.298  0.1755  0.3179 -0.3975
  519MPD2    C4 7709   0.212   1.445  14.433 -0.1695  0.1819  0.3472
  519MPD2    C5 7710   0.153   1.524  14.531  0.0134 -0.0411  0.1689
  519MPD2     H 7711   0.077   1.589  14.154 -0.7461 -2.0660 -0.0599
  519MPD2    H1 7712   0.272   1.362  14.467 -2.5721 -1.8642 -0.4415
  519MPD2    H2 7713   0.032   1.692  14.577  3.3067  1.5216  0.4213
  519MPD2    H3 7714   0.163   1.499  14.636 -0.6214  0.8213  0.4327
  519MPD2     N 7715   0.243   1.390  14.207 -0.4641  0.0325  1.0321
  519MPD2    H5 7716   0.273   1.297  14.234 -2.9767 -0.8317  0.8507
  519MPD2    N1 7717   4.682   1.763  14.327 -0.1201 -0.2482  0.8433
  519MPD2    H7 7718   4.637   1.823  14.395 -1.8393 -0.3256 -0.2222
  520TMC3    C1 7719   0.275   1.280  14.009  0.3062  0.5617  0.3026
  520TMC3    C2 7720   0.232   1.278  13.882 -0.0378 -0.1052  0.5789
  520TMC3    C3 7721   0.303   1.203  13.795 -0.1604 -0.6199  0.1800
  520TMC3    C4 7722   0.385   1.210  14.054 -0.5691 -0.2620  0.3771
  520TMC3    C5 7723   0.459   1.144  13.957  1.0129 -0.0777  0.4762
  520TMC3    C6 7724   0.424   1.136  13.824 -0.0230 -0.5070 -0.1544
  520TMC3     C 7725   0.235   1.402  14.073 -0.3763  0.2047  0.2743
  520TMC3     O 7726   0.216   1.502  14.003 -0.6381  0.2681  0.0101
  520TMC3     H 7727   0.148   1.339  13.849  0.5453  0.7502  0.6756
  520TMC3    H1 7728   0.431   1.222  14.151 -0.2361  1.9798 -0.0524
  520TMC3    H2 7729   0.483   1.087  13.747 -1.8133 -2.3681 -0.3315
  520TMC3    C7 7730   0.589   1.102  13.997  0.3450  0.2211 -0.5877
  520TMC3    C8 7731   0.240   1.177  13.665 -0.0927  0.3171  0.3430
  520TMC3    O1 7732   0.606   1.064  14.113 -0.1832  0.3400 -0.7790
  520TMC3    O2 7733   0.311   1.108  13.587  0.2238 -0.6906  0.0006
  521MPD2     C 7734   1.089   4.127  17.442  0.1887 -1.5832  0.5885
  521MPD2    C1 7735   1.044   4.078  17.324  0.4221  0.1852 -0.7497
  521MPD2    C2 7736   1.130   4.093  17.217  0.4848 -0.3915  0.4431
  521MPD2    C3 7737   1.266   4.126  17.231 -0.0649 -0.0953 -0.2757
  521MPD2    C4 7738   1.309   4.163  17.358  0.2669  0.0713 -1.1668
  521MPD2    C5 7739   1.219   4.167  17.462 -0.2811 -0.1376  0.3887
  521MPD2     H 7740   1.092   4.077  17.117 -0.2022  3.6764  0.0247
  521MPD2    H1 7741   1.409   4.189  17.390 -0.1625  0.4842 -0.1404
  521MPD2    H2 7742   1.025   4.143  17.528 -2.7737 -1.4140 -1.6485
  521MPD2    H3 7743   1.250   4.195  17.563 -1.6807  0.9027  0.5395
  521MPD2     N 7744   1.355   4.120  17.119 -0.2625 -0.4260 -0.1739
  521MPD2    H5 7745   1.316   4.086  17.032 -0.9681 -1.8289  0.6930
  521MPD2    N1 7746   0.909   4.042  17.302  0.7496  0.3370 -0.3150
  521MPD2    H7 7747   0.853   4.032  17.386 -0.4114 -1.9879 -1.3743
  522TMC3    C1 7748   1.562   4.099  17.003  0.8739 -1.0597  0.5203
  522TMC3    C2 7749   1.696   4.076  17.003 -0.3031 -0.0636  1.0369
  522TMC3    C3 7750   1.766   4.043  16.892  0.0078 -0.6566 -0.6005
  522TMC3    C4 7751   1.493   4.083  16.886  0.3498  0.1257  0.1363
  522TMC3    C5 7752   1.560   4.043  16.772  0.0415 -0.0681 -0.5111
  522TMC3    C6 7753   1.696   4.020  16.775  0.3226 -0.1708  0.3779
  522TMC3     C 7754   1.493   4.131  17.127  0.1892 -0.5689 -0.0257
  522TMC3     O 7755   1.562   4.157  17.225  0.3119 -0.2275  0.1481
  522TMC3     H 7756   1.752   4.077  17.096  0.0712 -0.5180  0.8170
  522TMC3    H1 7757   1.387   4.063  16.877  0.2521  0.9708 -0.6522
  522TMC3    H2 7758   1.742   3.974  16.688 -2.6195 -1.2790 -0.6080
  522TMC3    C7 7759   1.491   3.981  16.667  0.0668  0.1889  0.6217
  522TMC3    C8 7760   1.896   3.977  16.918  0.0406  0.0256  0.2987
  522TMC3    O1 7761   1.557   3.900  16.599  0.0467 -0.0380 -0.0119
  522TMC3    O2 7762   1.965   4.030  17.009  0.5111  0.0245 -0.3783
  523MPD2     C 7763   4.406   4.178  10.043  0.4650 -0.1384 -0.1630
  523MPD2    C1 7764   4.337   4.099   9.948 -0.3890 -0.4352 -0.9264
  523MPD2    C2 7765   4.284   4.172   9.842 -0.2326  0.6339 -0.2371
  523MPD2    C3 7766   4.302   4.304   9.822  0.2072  0.2491 -0.2909
  523MPD2    C4 7767   4.377   4.375   9.912 -0.3225  1.0268  0.5845
  523MPD2    C5 7768   4.425   4.315  10.025 -0.2302  0.0379  0.0570
  523MPD2     H 7769   4.216   4.128   9.770 -0.4031  1.8371 -0.8206
  523MPD2    H1 7770   4.397   4.481   9.906  1.0581  0.7983  1.0091
  523MPD2    H2 7771   4.438   4.124  10.131 -2.7389 -0.7563  0.6145
  523MPD2    H3 7772   4.475   4.374  10.101  0.0330 -0.7930  0.5250
  523MPD2     N 7773   4.243   4.381   9.715 -0.2130  0.2606  0.3491
  523MPD2    H5 7774   4.254   4.482   9.720  1.3734 -0.0862  4.2192
  523MPD2    N1 7775   4.324   3.960   9.975  0.1105 -0.3874  0.3844
  523MPD2    H7 7776   4.363   3.916  10.058  1.2499  0.6394  0.3920
  524TMC3    C1 7777   4.146   4.432   9.510  0.5150 -0.0530  0.1679
  524TMC3    C2 7778   4.189   4.407   9.386 -0.2137  0.1020  0.1838
  524TMC3    C3 7779   4.175   4.505   9.294  0.3562 -0.7553  0.2900
  524TMC3    C4 7780   4.097   4.548   9.543 -0.0308 -0.3107 -0.0774
  524TMC3    C5 7781   4.093   4.650   9.461  0.0725  0.7367 -0.6107
  524TMC3    C6 7782   4.133   4.637   9.333  0.4051  0.6634 -0.3268
  524TMC3     C 7783   4.180   4.325   9.609 -0.2148 -0.7518  0.0305
  524TMC3     O 7784   4.168   4.207   9.575  0.0406  0.2233  0.7504
  524TMC3     H 7785   4.215   4.306   9.357 -2.1831 -0.2592 -0.3642
  524TMC3    H1 7786   4.070   4.570   9.646  1.2824  3.2941 -0.4879
  524TMC3    H2 7787   4.134   0.001   9.265 -0.3652  2.5107  1.9301
  524TMC3    C7 7788   3.979   0.021   9.485 -0.1653  0.2636  0.0117
  524TMC3    C8 7789   4.248   4.495   9.168  1.2417 -0.0395  0.4481
  524TMC3    O1 7790   3.928   0.004   9.590  0.2049 -0.1148  0.2123
  524TMC3    O2 7791   4.330   4.585   9.160  0.0720  0.0295  0.1960
  525MPD2     C 7792   1.523   0.921  14.353  0.0539 -0.4123 -0.1597
  525MPD2    C1 7793   1.651   0.932  14.405 -0.0751  0.0984  0.1364
  525MPD2    C2 7794   1.741   1.030  14.366 -0.0939 -0.0818  0.3125
  525MPD2    C3 7795   1.698   1.122  14.275  0.3081 -0.4454  0.1068
  525MPD2    C4 7796   1.575   1.113  14.215 -0.8518 -0.2486  0.3748
  525MPD2    C5 7797   1.483   1.019  14.259  0.2181 -0.2165 -0.2169
  525MPD2     H 7798   1.843   1.032  14.404 -0.0354 -0.2654  0.1686
  525MPD2    H1 7799   1.547   1.187  14.140  1.5175 -0.4152 -0.6667
  525MPD2    H2 7800   1.449   0.850  14.388 -1.6409  0.4259 -1.9790
  525MPD2    H3 7801   1.389   1.008  14.208 -0.4073  0.3033  0.8230
  525MPD2     N 7802   1.771   1.239  14.250  0.3782 -0.0350  0.1353
  525MPD2    H5 7803   1.722   1.323  14.220  0.2822 -0.6739 -1.4818
  525MPD2    N1 7804   1.698   0.825  14.487 -0.1606  0.4978 -0.1230
  525MPD2    H7 7805   1.794   0.833  14.518 -0.2771 -1.4104  0.7337
  526TMC3    C1 7806   1.707   0.644  14.625 -0.2270 -0.5205 -0.2185
  526TMC3    C2 7807   1.672   0.592  14.745  0.2479  0.1053 -0.5395
  526TMC3    C3 7808   1.764   0.523  14.810 -0.1614  0.1100 -0.7574
  526TMC3    C4 7809   1.831   0.622  14.578  0.1762 -0.8783  0.2784
  526TMC3    C5 7810   1.925   0.557  14.651 -0.2602  0.2588 -0.2958
  526TMC3    C6 7811   1.895   0.508  14.774 -0.2637  1.2180 -0.5070
  526TMC3     C 7812   1.619   0.742  14.561  0.0031 -0.2550  0.4234
  526TMC3     O 7813   1.502   0.747  14.595 -0.0270  0.0995 -0.3151
  526TMC3     H 7814   1.573   0.611  14.786  0.1356 -0.1738 -0.6861
  526TMC3    H1 7815   1.856   0.654  14.477  0.6637  1.5350  1.1649
  526TMC3    H2 7816   1.952   0.438  14.834  1.4182  1.1200 -2.2293
  526TMC3    C7 7817   2.050   0.531  14.588  0.5810  0.2199  0.7132
  526TMC3    C8 7818   1.725   0.481  14.943 -0.2466  0.0847 -0.8562
  526TMC3    O1 7819   2.076   0.567  14.472  0.2382  0.3899  0.2909
  526TMC3    O2 7820   1.808   0.496  15.034  0.1471 -0.2074 -0.1885
  527MPD2     C 7821   0.182   2.768   1.504  0.3692  0.2639  0.1845
  527MPD2    C1 7822   0.261   2.857   1.580 -0.0108 -0.2678  0.2186
  527MPD2    C2 7823   0.355   2.941   1.515 -0.5229  0.8323  0.1609
  527MPD2    C3 7824   0.385   2.931   1.377  0.3226  0.7165  1.0908
  527MPD2    C4 7825   0.294   2.851   1.310 -0.4779  0.1326  0.0676
  527MPD2    C5 7826   0.199   2.768   1.368 -0.0524 -0.7852 -0.4214
  527MPD2     H 7827   0.413   2.998   1.586 -0.8860  1.0648  0.2737
  527MPD2    H1 7828   0.289   2.844   1.202 -1.4944  0.4661  0.0965
  527MPD2    H2 7829   0.109   2.706   1.554 -0.8734  2.5964  1.2499
  527MPD2    H3 7830   0.143   2.707   1.298 -1.1625  1.6341 -1.6277
  527MPD2     N 7831   0.473   3.015   1.312  0.2484 -0.3818 -0.3012
  527MPD2    H5 7832   0.536   3.075   1.365 -1.0290 -0.5673  1.4197
  527MPD2    N1 7833   0.251   2.866   1.723  0.0471  0.9606  0.6650
  527MPD2    H7 7834   0.305   2.927   1.784 -1.6993  0.0798  3.0857
  528TMC3    C1 7835   0.138   2.848   1.932 -0.1015 -0.2261 -0.4034
  528TMC3    C2 7836   0.167   2.981   1.948 -0.1063  0.3596  0.8284
  528TMC3    C3 7837   0.126   3.043   2.062  0.6304  0.2030 -0.2716
  528TMC3    C4 7838   0.044   2.785   2.007 -0.2068  0.0024  0.1902
  528TMC3    C5 7839   4.715   2.857   2.119  1.1379 -0.1433  0.4207
  528TMC3    C6 7840   0.036   2.985   2.148 -0.0790  0.0878  0.6142
  528TMC3     C 7841   0.175   2.785   1.804  0.1304 -0.1884 -0.1193
  528TMC3     O 7842   0.116   2.678   1.779  0.4653 -0.5705  0.2299
  528TMC3     H 7843   0.261   3.020   1.909 -0.1350  0.4418  0.8420
  528TMC3    H1 7844   0.025   2.682   1.979 -0.5159 -0.6668  2.8996
  528TMC3    H2 7845   0.010   3.044   2.235  1.4803  2.3147 -0.4173
  528TMC3    C7 7846   4.588   2.805   2.173 -0.2965 -0.5338 -0.1925
  528TMC3    C8 7847   0.187   3.160   2.117  0.4826  0.1862 -0.6430
  528TMC3    O1 7848   4.570   2.687   2.149 -0.1410  0.3311 -0.1672
  528TMC3    O2 7849   0.180   3.186   2.236  0.0905  0.2002 -0.0490
  529MPD2     C 7850   2.439   2.115   0.613  0.8560  0.3939 -0.0973
  529MPD2    C1 7851   2.498   1.991   0.629  0.2807  0.5263  0.0297
  529MPD2    C2 7852   2.573   1.946   0.526 -0.2888  0.6014  0.2116
  529MPD2    C3 7853   2.585   2.019   0.415  0.0637  0.2637 -0.4178
  529MPD2    C4 7854   2.539   2.148   0.410  0.4988  0.3613  0.4078
  529MPD2    C5 7855   2.466   2.201   0.517 -0.5729 -0.2279 -0.2028
  529MPD2     H 7856   2.617   1.848   0.536 -0.8331  0.3618  0.2125
  529MPD2    H1 7857   2.567   2.214   0.329 -1.0447  0.5837  0.0557
  529MPD2    H2 7858   2.370   2.159   0.683 -0.1495  0.2213 -0.9881
  529MPD2    H3 7859   2.423   2.300   0.522  2.4498  1.0591  0.6126
  529MPD2     N 7860   2.642   1.963   0.294 -0.0155  0.4488  0.4448
  529MPD2    H5 7861   2.660   2.033   0.224  0.5660  0.6830  0.8302
  529MPD2    N1 7862   2.490   1.919   0.754  0.8898 -1.1654 -0.3487
  529MPD2    H7 7863   2.540   1.831   0.756  1.7957 -0.6742 -0.8998
  530TMC3    C1 7864   2.410   1.857   0.965 -0.0711  0.5657  0.3946
  530TMC3    C2 7865   2.370   1.899   1.088 -0.6334  0.3677 -0.4368
  530TMC3    C3 7866   2.350   1.819   1.194  0.1646 -0.5177 -0.9737
  530TMC3    C4 7867   2.430   1.722   0.945 -1.0815  0.3945  0.5237
  530TMC3    C5 7868   2.401   1.638   1.055 -0.5884 -0.1285 -0.3309
  530TMC3    C6 7869   2.367   1.687   1.177  0.4137  0.0879  0.1642
  530TMC3     C 7870   2.411   1.959   0.859 -0.2796  0.0170  0.2530
  530TMC3     O 7871   2.356   2.065   0.885  0.2208 -0.0146  0.3907
  530TMC3     H 7872   2.357   2.007   1.088  2.9971  0.8125 -2.4059
  530TMC3    H1 7873   2.435   1.670   0.850  0.7099  1.3654  0.0897
  530TMC3    H2 7874   2.351   1.620   1.261  0.4994  0.5668  0.5651
  530TMC3    C7 7875   2.392   1.497   1.026  0.0993  0.1630 -0.3110
  530TMC3    C8 7876   2.300   1.871   1.318  0.3899  0.7174  0.4875
  530TMC3    O1 7877   2.364   1.453   0.913 -0.4945 -0.3363 -0.0976
  530TMC3    O2 7878   2.248   1.976   1.327  0.1810  0.0830 -0.0375
  531MPD2     C 7879   1.106   4.479  12.383  0.5805  0.4972  0.6818
  531MPD2    C1 7880   1.030   4.556  12.471  0.0154  0.5419 -0.5481
  531MPD2    C2 7881   0.932   4.638  12.417 -0.5753 -0.1989 -0.3264
  531MPD2    C3 7882   0.904   4.636  12.284  0.6679  0.0598 -0.4308
  531MPD2    C4 7883   0.962   4.553  12.192  0.3071  0.0437  0.2810
  531MPD2    C5 7884   1.068   4.477  12.247  0.2861 -0.4919 -0.2180
  531MPD2     H 7885   0.888   4.715  12.480  2.8750  0.3324  1.4586
  531MPD2    H1 7886   0.938   4.558  12.087 -1.9956 -0.3015  0.8046
  531MPD2    H2 7887   1.184   4.414  12.422 -0.6605 -2.0694 -1.1232
  531MPD2    H3 7888   1.123   4.404  12.189 -1.8453 -2.1658 -0.1300
  531MPD2     N 7889   0.816   0.019  12.241  0.1501  0.0291  0.3426
  531MPD2    H5 7890   0.776   0.081  12.312 -0.9311  0.6185 -0.7835
  531MPD2    N1 7891   1.061   4.560  12.610  0.3821 -0.3737 -0.0244
  531MPD2    H7 7892   1.143   4.509  12.639 -0.0800  0.3488  2.6150
  532TMC3    C1 7893   1.034   4.630  12.841 -0.4246 -0.1736 -0.4868
  532TMC3    C2 7894   0.951   4.683  12.930 -0.4288  0.7091  0.5247
  532TMC3    C3 7895   0.993   0.069  13.008 -0.1534  0.4848 -0.3579
  532TMC3    C4 7896   1.168   4.657  12.851  0.2302 -0.1524  0.0008
  532TMC3    C5 7897   1.210   0.035  12.934  0.4595  0.0307 -0.2481
  532TMC3    C6 7898   1.124   0.098  13.017 -0.2405  0.5331 -0.3400
  532TMC3     C 7899   0.985   4.627  12.707 -0.5185 -0.5846 -0.0500
  532TMC3     O 7900   0.871   4.668  12.690  0.4365  0.4274 -0.0669
  532TMC3     H 7901   0.847   4.655  12.930 -0.0314 -0.7514 -0.0936
  532TMC3    H1 7902   1.242   4.610  12.787  0.1855 -1.3565  0.8212
  532TMC3    H2 7903   1.168   0.167  13.088 -0.7345 -2.0306  2.4771
  532TMC3    C7 7904   1.349   0.023  12.992 -0.3904  0.1572 -0.5375
  532TMC3    C8 7905   0.896   0.179  13.005  0.0565  0.3332  0.2479
  532TMC3    O1 7906   1.382   0.123  13.051  0.5331  0.1206  0.4972
  532TMC3    O2 7907   0.882   0.254  13.103 -0.0408  0.0550  0.1554
  533TMC3    C1 7908   1.936   1.379  14.340  0.7414 -0.2277 -0.2636
  533TMC3    C2 7909   2.070   1.408  14.351 -0.6335  0.2652 -0.5337
  533TMC3    C3 7910   2.106   1.470  14.464 -0.0631 -0.4672 -0.4923
  533TMC3    C4 7911   1.841   1.415  14.427  0.1621  0.0371  0.7734
  533TMC3    C5 7912   1.891   1.460  14.549  0.1591 -0.0684 -0.1282
  533TMC3    C6 7913   2.019   1.493  14.566 -0.2737 -0.0332  0.3769
  533TMC3     C 7914   1.908   1.255  14.278  0.2465 -0.4196  0.6597
  533TMC3     O 7915   1.997   1.172  14.289 -0.0303  1.2184  0.2618
  533TMC3     H 7916   2.135   1.378  14.270  1.3263 -0.4085  1.2916
  533TMC3    H1 7917   1.738   1.382  14.431 -0.0903  0.5152 -1.8421
  533TMC3    H2 7918   2.049   1.539  14.659  0.6733 -0.9548  0.5297
  533TMC3    C7 7919   1.813   1.428  14.666  0.4495  0.3247 -0.3715
  533TMC3    C8 7920   2.245   1.492  14.494  0.3634 -0.0836 -0.4257
  533TMC3    O1 7921   1.744   1.328  14.661 -0.3315  0.0365 -0.3491
  533TMC3    O2 7922   2.273   1.489  14.611 -0.4335  0.1582 -0.1725
  534MPD2     C 7923   4.138   2.225   2.547 -0.5275 -0.4726  0.3560
  534MPD2    C1 7924   4.201   2.241   2.432 -0.3226  0.1968 -0.2640
  534MPD2    C2 7925   4.171   2.155   2.328 -0.1227  0.0811 -0.3529
  534MPD2    C3 7926   4.090   2.046   2.351  0.4743  0.1122  0.1288
  534MPD2    C4 7927   4.041   2.021   2.475  0.2033 -1.0804 -0.2574
  534MPD2    C5 7928   4.058   2.113   2.580  0.1519 -0.1618 -0.3310
  534MPD2     H 7929   4.212   2.171   2.229 -0.9984  0.9051 -0.5808
  534MPD2    H1 7930   3.980   1.934   2.493 -2.0650  0.4307 -0.6592
  534MPD2    H2 7931   4.148   2.299   2.626  2.7526  0.1553 -0.6336
  534MPD2    H3 7932   4.023   2.092   2.680  2.3346  0.3877  0.5512
  534MPD2     N 7933   4.040   1.961   2.251  0.5338  0.0337 -0.1119
  534MPD2    H5 7934   3.986   1.879   2.279  0.6190 -0.0919 -0.3159
  534MPD2    N1 7935   4.278   2.357   2.398 -0.6442  0.6258 -0.1028
  534MPD2    H7 7936   4.317   2.354   2.304 -0.2018  3.6120 -0.0113
  535TMC3    C1 7937   3.972   1.905   2.027 -0.3721  0.0702  0.4893
  535TMC3    C2 7938   3.843   1.866   2.067  0.0581 -0.3582 -0.8297
  535TMC3    C3 7939   3.764   1.797   1.980  0.3178  0.0270  0.3240
  535TMC3    C4 7940   4.016   1.873   1.904  1.2197  0.1463 -0.8788
  535TMC3    C5 7941   3.940   1.803   1.821 -0.2850  0.2418  0.4384
  535TMC3    C6 7942   3.815   1.758   1.856 -0.1448  0.3834  0.5001
  535TMC3     C 7943   4.063   1.978   2.114 -0.5421 -0.1978  0.3161
  535TMC3     O 7944   4.138   2.058   2.057  0.2886 -0.4162  0.1852
  535TMC3     H 7945   3.806   1.886   2.167  0.9685 -1.4031 -0.2903
  535TMC3    H1 7946   4.110   1.921   1.881  0.3686  1.8036 -0.8507
  535TMC3    H2 7947   3.752   1.695   1.795 -1.1006  1.3228  0.5023
  535TMC3    C7 7948   4.004   1.763   1.698 -0.3263 -0.1227 -0.1137
  535TMC3    C8 7949   3.619   1.777   2.000  0.4575  0.0041 -0.1668
  535TMC3    O1 7950   4.124   1.757   1.703 -0.0367 -0.5110 -0.3764
  535TMC3    O2 7951   3.565   1.708   1.912  0.1763  0.6136  0.4107
  536MPD2     C 7952   3.473   0.687  16.522 -0.1192  0.9928  0.1044
  536MPD2    C1 7953   3.373   0.603  16.562  0.0056 -0.3802  0.0084
  536MPD2    C2 7954   3.276   0.576  16.473  0.5753  0.2415 -0.6328
  536MPD2    C3 7955   3.273   0.624  16.349 -0.0373  0.1782 -0.0239
  536MPD2    C4 7956   3.381   0.703  16.307 -0.5171 -0.4891 -0.2056
  536MPD2    C5 7957   3.491   0.735  16.391  0.8272 -0.1192 -0.9809
  536MPD2     H 7958   3.197   0.504  16.495  1.5016 -0.3563  0.7245
  536MPD2    H1 7959   3.386   0.732  16.203 -1.3299  1.2974  0.2480
  536MPD2    H2 7960   3.544   0.720  16.597  1.1988  3.6334 -2.3346
  536MPD2    H3 7961   3.577   0.796  16.365  1.3483 -0.2790  0.3882
  536MPD2     N 7962   3.166   0.603  16.260  0.0862 -0.0168  0.4357
  536MPD2    H5 7963   3.182   0.645  16.169  0.0563 -2.2810 -0.6234
  536MPD2    N1 7964   3.374   0.570  16.702 -0.3188  0.5992  0.4642
  536MPD2    H7 7965   3.434   0.618  16.768  0.1866 -0.5978  0.8713
  537TMC3    C1 7966   3.296   0.486  16.899  0.2709  0.1775  0.2248
  537TMC3    C2 7967   3.407   0.523  16.963  0.1248 -0.2806 -0.4746
  537TMC3    C3 7968   3.428   0.504  17.092 -0.3655  0.1639  0.5472
  537TMC3    C4 7969   3.197   0.426  16.972 -0.8017  0.1616 -0.2687
  537TMC3    C5 7970   3.218   0.405  17.106  0.2886 -0.4197 -0.1489
  537TMC3    C6 7971   3.337   0.439  17.169  0.1797  0.3582  0.3411
  537TMC3     C 7972   3.287   0.481  16.758  0.2038 -0.2916  0.0957
  537TMC3     O 7973   3.194   0.415  16.710 -0.4654 -0.4156  0.2298
  537TMC3     H 7974   3.497   0.552  16.910  0.2538  0.2395  0.0249
  537TMC3    H1 7975   3.105   0.389  16.926 -1.3715  0.6697  0.4780
  537TMC3    H2 7976   3.348   0.445  17.277  1.0067 -2.2246  0.3942
  537TMC3    C7 7977   3.125   0.332  17.192  0.7082  0.2458 -0.4964
  537TMC3    C8 7978   3.551   0.550  17.160 -0.0130  0.2741  0.2439
  537TMC3    O1 7979   3.004   0.334  17.165 -0.0162  0.2918 -0.0819
  537TMC3    O2 7980   3.575   0.498  17.267  0.0927  0.3258 -0.2583
  538TMC3    C1 7981   4.562   4.237  11.104  0.3417  0.1462 -0.1804
  538TMC3    C2 7982   4.623   4.129  11.043 -0.7609 -0.8819 -0.5782
  538TMC3    C3 7983   4.661   4.135  10.908  0.0401 -0.0075  0.3676
  538TMC3    C4 7984   4.536   4.347  11.033 -0.3540 -0.0096 -0.1860
  538TMC3    C5 7985   4.587   4.357  10.908  0.3400 -0.1904  0.7761
  538TMC3    C6 7986   4.654   4.257  10.846 -0.3225  0.1398 -0.6273
  538TMC3     C 7987   4.458   4.211  11.202  0.4205  0.0458  0.0774
  538TMC3     O 7988   4.367   4.285  11.227  0.1492  0.5820  0.7009
  538TMC3     H 7989   4.621   4.030  11.088 -0.1179 -0.9422 -0.6817
  538TMC3    H1 7990   4.460   4.412  11.076  0.4067  1.7384 -1.4715
  538TMC3    H2 7991   0.002   4.283  10.765  0.4457 -0.7615 -0.2725
  538TMC3    C7 7992   4.502   4.430  10.828 -0.6527 -0.1153  0.2028
  538TMC3    C8 7993   0.047   4.044  10.882  0.1364  0.0505  0.4219
  538TMC3    O1 7994   4.445   4.372  10.734  0.4420  0.0783  0.2746
  538TMC3    O2 7995   0.070   3.947  10.950 -0.8979 -0.7797 -0.5102
  539MPD2     C 7996   3.932   3.254  11.847  0.0080  0.2358 -0.2720
  539MPD2    C1 7997   4.013   3.323  11.757  0.4335 -0.0680 -0.0946
  539MPD2    C2 7998   3.976   3.451  11.718  0.3568  0.3190  0.6074
  539MPD2    C3 7999   3.863   3.513  11.775 -0.2315 -1.0276 -0.2697
  539MPD2    C4 8000   3.782   3.437  11.855  0.0172  0.4334  0.3784
  539MPD2    C5 8001   3.819   3.311  11.890 -0.1687  0.4619  0.1951
  539MPD2     H 8002   4.029   3.504  11.640  2.1247 -0.8037  1.0443
  539MPD2    H1 8003   3.684   3.461  11.893 -1.0993 -1.4939 -1.2266
  539MPD2    H2 8004   3.956   3.154  11.882 -0.0321  0.3356  0.0425
  539MPD2    H3 8005   3.748   3.254  11.949 -0.3223  1.6416  1.1322
  539MPD2     N 8006   3.812   3.637  11.735 -0.6361 -0.3005  0.3001
  539MPD2    H5 8007   3.717   3.663  11.762 -0.2285  0.9752  0.5157
  539MPD2    N1 8008   4.110   3.245  11.691  0.2226  0.1048  0.2612
  539MPD2    H7 8009   4.124   3.154  11.735  1.1657  0.5113  0.7927
  540TMC3    C1 8010   3.801   3.847  11.621  0.4712  0.5554 -0.6392
  540TMC3    C2 8011   3.846   3.920  11.512  0.3059  0.1016  0.4493
  540TMC3    C3 8012   3.808   4.047  11.505 -0.3953  0.0921 -0.4362
  540TMC3    C4 8013   3.714   3.895  11.715  0.2632 -0.5280 -1.5626
  540TMC3    C5 8014   3.675   4.025  11.707  1.6155 -0.5036  0.3082
  540TMC3    C6 8015   3.721   4.104  11.597  0.4501 -0.0854  0.2872
  540TMC3     C 8016   3.881   3.727  11.654  0.7921  0.2106 -0.3944
  540TMC3     O 8017   3.999   3.749  11.628  0.2815  0.1949 -0.1502
  540TMC3     H 8018   3.931   3.881  11.457 -0.3623  0.2074 -0.6578
  540TMC3    H1 8019   3.676   3.822  11.784 -1.5591 -0.8204 -2.8743
  540TMC3    H2 8020   3.685   4.204  11.576 -0.8077 -0.2956  1.4012
  540TMC3    C7 8021   3.570   4.075  11.785 -0.5711  0.6753 -0.2715
  540TMC3    C8 8022   3.863   4.133  11.401  0.1554  0.6214  0.6514
  540TMC3    O1 8023   3.515   4.002  11.867 -0.5929  0.7230  0.3005
  540TMC3    O2 8024   3.868   4.255  11.432  0.4775 -0.2555  0.1915
  541MPD2     C 8025   2.238   0.085  12.819  0.6190 -0.2912  0.0191
  541MPD2    C1 8026   2.300   4.712  12.739 -0.4071  0.0638 -0.4837
  541MPD2    C2 8027   2.358   0.037  12.623 -0.2114  0.2049 -0.2526
  541MPD2    C3 8028   2.375   0.165  12.593  0.7578 -0.3990 -0.1664
  541MPD2    C4 8029   2.317   0.257  12.676 -0.4306  0.0143  0.1261
  541MPD2    C5 8030   2.255   0.218  12.796 -0.5299 -0.0179 -0.3055
  541MPD2     H 8031   2.403   4.685  12.555  2.9549 -0.1892  2.3148
  541MPD2    H1 8032   2.327   0.363  12.652 -0.5354 -0.5030 -2.2204
  541MPD2    H2 8033   2.180   0.066  12.908  1.4368 -1.1320  0.3798
  541MPD2    H3 8034   2.200   0.296  12.847  0.7669 -0.7296  2.2072
  541MPD2     N 8035   2.415   0.215  12.473  0.1424  0.2311  0.0287
  541MPD2    H5 8036   2.401   0.315  12.459 -3.6498 -0.1782  0.8792
  541MPD2    N1 8037   2.286   4.573  12.778 -0.4931 -0.0796  0.3319
  541MPD2    H7 8038   2.249   4.556  12.871 -0.2645 -0.7730  0.2978
  542TMC3    C1 8039   2.506   0.234  12.262  0.3920  0.3869  0.7630
  542TMC3    C2 8040   2.539   0.179  12.144 -0.4115  0.2549 -0.4423
  542TMC3    C3 8041   2.526   0.255  12.033  0.5464 -0.9627  0.3451
  542TMC3    C4 8042   2.488   0.369  12.272  0.5533  0.2275  1.0437
  542TMC3    C5 8043   2.496   0.450  12.165  0.0884 -0.3459 -0.4100
  542TMC3    C6 8044   2.522   0.390  12.045 -0.5703 -0.3211  0.1471
  542TMC3     C 8045   2.478   0.146  12.372 -1.3851  0.1032  1.1003
  542TMC3     O 8046   2.509   0.028  12.359 -0.3018  0.2955  0.3531
  542TMC3     H 8047   2.525   0.074  12.124 -2.5337  0.6027 -0.7286
  542TMC3    H1 8048   2.487   0.419  12.368 -1.5795  0.6719  0.7797
  542TMC3    H2 8049   2.523   0.460  11.962 -2.7038 -2.6201 -1.7984
  542TMC3    C7 8050   2.428   0.580  12.179 -0.0103  0.0477  1.0555
  542TMC3    C8 8051   2.556   0.203  11.899  0.0839 -0.4274 -1.5180
  542TMC3    O1 8052   2.360   0.593  12.278 -0.4496  0.2421 -0.1030
  542TMC3    O2 8053   2.597   0.283  11.813  0.2799 -0.1381  0.1076
  543TMC3    C1 8054   1.409   1.319  17.312 -0.5723 -0.8613 -0.1998
  543TMC3    C2 8055   1.471   1.205  17.369  0.8557  0.4765  0.3248
  543TMC3    C3 8056   1.405   1.138  17.466  0.0348  0.2549 -0.3468
  543TMC3    C4 8057   1.295   1.370  17.363  0.1435 -0.7393  1.2000
  543TMC3    C5 8058   1.238   1.302  17.474 -0.6429  0.2304 -0.1855
  543TMC3    C6 8059   1.280   1.175  17.518 -0.0396  0.0721  0.4401
  543TMC3     C 8060   1.436   1.368  17.177  0.5462 -0.2583 -0.4470
  543TMC3     O 8061   1.367   1.459  17.129  0.7573 -0.0080  0.2893
  543TMC3     H 8062   1.569   1.173  17.336  0.1555  0.7094 -1.9715
  543TMC3    H1 8063   1.245   1.461  17.330 -0.7472 -1.4246  0.6507
  543TMC3    H2 8064   1.235   1.128  17.604  0.2546  1.1883  1.1977
  543TMC3    C7 8065   1.106   1.357  17.522  0.0717 -0.3978  0.0639
  543TMC3    C8 8066   1.466   1.010  17.506 -0.4498 -0.9394 -0.4085
  543TMC3    O1 8067   1.056   1.446  17.458 -0.0208 -0.1731  0.1589
  543TMC3    O2 8068   1.573   0.989  17.451  0.2380 -0.6271  0.0478
  544MPD2     C 8069   1.451   0.557   0.076  0.2424  0.2904  0.1120
  544MPD2    C1 8070   1.545   0.615  17.675 -0.6988  0.0087  0.1223
  544MPD2    C2 8071   1.538   0.747  17.636 -0.5343 -0.3441  0.3779
  544MPD2    C3 8072   1.422   0.813  17.655  0.6199 -0.0061 -0.3414
  544MPD2    C4 8073   1.323   0.751   0.045  0.4322  0.0123  0.2663
  544MPD2    C5 8074   1.338   0.631   0.102 -0.1545  0.4052 -0.3753
  544MPD2     H 8075   1.620   0.792  17.580 -1.9680  0.1259 -1.3347
  544MPD2    H1 8076   1.232   0.806   0.066  0.0955  0.5309 -2.5117
  544MPD2    H2 8077   1.475   0.459   0.115  2.1870 -0.3161 -2.6926
  544MPD2    H3 8078   1.273   0.586   0.176 -0.1862 -1.7802 -1.7280
  544MPD2     N 8079   1.393   0.940  17.594 -0.1587  0.0418  0.0525
  544MPD2    H5 8080   1.304   0.985  17.614  0.4604  0.5233  1.7135
  544MPD2    N1 8081   1.662   0.543  17.645  0.6642  0.6501  0.3099
  544MPD2    H7 8082   1.664   0.448  17.680  1.3062  0.4512 -0.2922
  545TMC3    C1 8083   1.883   0.494  17.576  0.4759 -0.5853  0.0555
  545TMC3    C2 8084   1.966   0.503  17.468 -0.4538 -0.3678 -0.2330
  545TMC3    C3 8085   2.059   0.401  17.454  0.5513  0.5968  0.2818
  545TMC3    C4 8086   1.868   0.387  17.656  0.4802 -0.6658  0.8840
  545TMC3    C5 8087   1.955   0.286  17.626  0.0121  0.3865 -0.8746
  545TMC3    C6 8088   2.053   0.290  17.528  0.2315  0.0990  0.4454
  545TMC3     C 8089   1.778   0.593  17.581 -0.4490 -0.1524 -0.4561
  545TMC3     O 8090   1.804   0.698  17.520 -0.1266  0.2680  0.3767
  545TMC3     H 8091   1.963   0.584  17.396  2.4770  1.2833  1.5087
  545TMC3    H1 8092   1.808   0.390   0.064  1.1972  0.1865  1.3289
  545TMC3    H2 8093   2.114   0.205  17.502 -0.4029 -0.2408  0.0522
  545TMC3    C7 8094   1.934   0.162   0.022  0.4814  0.0213  0.2236
  545TMC3    C8 8095   2.163   0.427  17.355 -0.7567 -0.7371  0.0352
  545TMC3    O1 8096   1.837   0.149   0.096 -0.2643 -0.5787 -0.3721
  545TMC3    O2 8097   2.134   0.508  17.270  0.6314  0.8631 -0.1651
  546MPD2     C 8098   3.496   0.664  17.556  0.3144  0.2941 -0.3089
  546MPD2    C1 8099   3.407   0.723  17.470  0.2506 -0.4332 -0.0119
  546MPD2    C2 8100   3.440   0.851  17.412 -0.5958  0.1236 -0.4453
  546MPD2    C3 8101   3.563   0.906  17.447 -0.1771  0.2026  0.0793
  546MPD2    C4 8102   3.653   0.840  17.529  0.2856  0.4015 -0.0815
  546MPD2    C5 8103   3.618   0.722  17.585 -0.6602  0.5719  0.1893
  546MPD2     H 8104   3.372   0.897  17.342 -0.2670 -0.7500 -1.3278
  546MPD2    H1 8105   3.755   0.870  17.550  0.4921  0.5813 -1.3571
  546MPD2    H2 8106   3.468   0.569  17.601 -1.9675  1.2986  0.3975
  546MPD2    H3 8107   3.682   0.672  17.657  1.2498  1.2706 -1.0147
  546MPD2     N 8108   3.615   1.036  17.405 -0.1291  0.4001 -0.2965
  546MPD2    H5 8109   3.709   1.064  17.431  0.2446  1.6676 -3.0641
  546MPD2    N1 8110   3.284   0.661  17.448  0.2264  0.6053  0.2292
  546MPD2    H7 8111   3.275   0.578  17.506 -0.5636  0.2630 -0.3760
  547TMC3    C1 8112   3.055   0.658  17.403 -0.1591 -0.0642  0.6477
  547TMC3    C2 8113   2.942   0.697  17.337 -0.6886 -0.2233  0.2973
  547TMC3    C3 8114   2.819   0.644  17.374  0.1525 -0.0128 -0.0010
  547TMC3    C4 8115   3.044   0.582  17.517 -0.3613 -0.3693 -0.4773
  547TMC3    C5 8116   2.926   0.535  17.559  0.3923 -0.5113 -0.1956
  547TMC3    C6 8117   2.812   0.565  17.485 -0.2851  0.3279  0.1793
  547TMC3     C 8118   3.182   0.703  17.363 -0.1126 -0.3564  0.3745
  547TMC3     O 8119   3.183   0.768  17.263 -0.2012 -0.0089  0.2069
  547TMC3     H 8120   2.940   0.757  17.247 -0.6886 -1.6021 -0.6326
  547TMC3    H1 8121   3.132   0.551  17.572 -0.0408 -0.8465 -1.2736
  547TMC3    H2 8122   2.717   0.537  17.530  1.7898 -0.8353  3.8016
  547TMC3    C7 8123   2.902   0.463   0.002  0.7715 -0.0095  0.9753
  547TMC3    C8 8124   2.693   0.697  17.315  0.6559  0.3434 -0.2298
  547TMC3    O1 8125   2.786   0.445   0.035 -0.3304 -0.1821 -0.0389
  547TMC3    O2 8126   2.704   0.739  17.200  0.1054  0.7189 -0.2852
  548MPD2     C 8127   2.941   2.032  12.561 -0.4234  0.3637  1.3750
  548MPD2    C1 8128   2.865   1.939  12.504  0.3155 -0.1995 -0.4299
  548MPD2    C2 8129   2.911   1.859  12.394 -0.0858 -0.5224 -0.2641
  548MPD2    C3 8130   3.046   1.867  12.364  0.4880 -0.5443 -0.2094
  548MPD2    C4 8131   3.124   1.960  12.429  0.0817  0.2239  0.4441
  548MPD2    C5 8132   3.075   2.048  12.527  0.1948 -0.8321  0.5901
  548MPD2     H 8133   2.834   1.809  12.336  0.2631 -2.1484  0.6827
  548MPD2    H1 8134   3.229   1.971  12.406  0.1044  1.5371  1.1393
  548MPD2    H2 8135   2.901   2.106  12.629 -1.2523 -0.8963  2.2525
  548MPD2    H3 8136   3.143   2.117  12.576  0.8263 -1.7739  1.0377
  548MPD2     N 8137   3.091   1.781  12.263  0.3560  0.3171  0.4665
  548MPD2    H5 8138   3.026   1.715  12.222  1.8348 -1.5490  1.1260
  548MPD2    N1 8139   2.730   1.937  12.541  0.1937 -0.2346 -0.3333
  548MPD2    H7 8140   2.708   2.002  12.616 -0.8531 -0.1199 -0.7444
  549TMC3    C1 8141   2.497   1.868  12.536 -0.6562  0.7030  0.2789
  549TMC3    C2 8142   2.458   1.997  12.546 -0.2001 -0.2603  0.5747
  549TMC3    C3 8143   2.319   2.017  12.551 -0.0475  0.4377 -0.0389
  549TMC3    C4 8144   2.409   1.768  12.531  0.5505  0.5165 -0.0031
  549TMC3    C5 8145   2.273   1.802  12.543  0.2935 -0.1965 -0.3753
  549TMC3    C6 8146   2.223   1.924  12.546  0.1932  0.1680 -0.2235
  549TMC3     C 8147   2.634   1.846  12.498 -0.0811  0.6498 -0.1244
  549TMC3     O 8148   2.639   1.746  12.425 -0.2905 -0.3490 -0.6205
  549TMC3     H 8149   2.524   2.082  12.558 -0.3711  0.1534 -1.3145
  549TMC3    H1 8150   2.437   1.664  12.521 -1.2115  0.1692 -1.3655
  549TMC3    H2 8151   2.118   1.953  12.549  0.5600  1.0572  3.9592
  549TMC3    C7 8152   2.167   1.700  12.534  0.3169  0.6574 -0.0461
  549TMC3    C8 8153   2.266   2.141  12.490 -0.4181 -0.1787  1.0656
  549TMC3    O1 8154   2.048   1.723  12.527  0.0968  0.0458  0.3223
  549TMC3    O2 8155   2.168   2.138  12.419 -0.5152  0.1781 -0.0046
  550TMC3    C1 8156   2.164   4.499  11.841  0.5065 -0.2281 -0.2305
  550TMC3    C2 8157   2.057   4.498  11.926 -1.0411 -0.2300  0.2372
  550TMC3    C3 8158   1.972   4.602  11.927 -0.1098 -0.3074  0.0213
  550TMC3    C4 8159   2.177   4.595  11.750 -0.3325 -0.0522 -0.3833
  550TMC3    C5 8160   2.085   4.690  11.744  0.0971 -0.3540 -0.0656
  550TMC3    C6 8161   1.984   4.705  11.838  0.1343  0.3662  0.9620
  550TMC3     C 8162   2.216   4.368  11.802 -0.2508 -0.0408  0.0678
  550TMC3     O 8163   2.228   4.282  11.883  0.2998 -0.0593  0.1155
  550TMC3     H 8164   2.053   4.419  12.000  0.6993  1.4949  2.1939
  550TMC3    H1 8165   2.262   4.608  11.685 -0.1703  1.1237  0.0651
  550TMC3    H2 8166   1.916   0.069  11.834 -0.7477 -0.4712 -2.0941
  550TMC3    C7 8167   2.045   4.700  11.607 -0.2306 -0.0480  0.2191
  550TMC3    C8 8168   1.878   4.615  12.035  0.1631  0.0510  0.3150
  550TMC3    O1 8169   2.091   4.611  11.532 -0.5814  0.2073  0.6899
  550TMC3    O2 8170   1.848   0.010  12.071  0.1070  0.6002  0.1995
  551TMC3    C1 8171   4.020   2.517  13.414  0.2404 -0.0784  0.0552
  551TMC3    C2 8172   4.134   2.451  13.383 -0.4912 -0.9250  0.7786
  551TMC3    C3 8173   4.238   2.452  13.474 -0.4329 -0.3022  0.2480
  551TMC3    C4 8174   3.997   2.567  13.541 -0.0746 -0.4688  0.6651
  551TMC3    C5 8175   4.107   2.565  13.626  0.5062 -0.2322  0.1376
  551TMC3    C6 8176   4.221   2.489  13.599  0.3724  0.0582 -0.3651
  551TMC3     C 8177   3.909   2.498  13.319 -0.8492  0.5480  0.4943
  551TMC3     O 8178   3.943   2.460  13.205  0.1280  0.4731 -0.4873
  551TMC3     H 8179   4.150   2.406  13.285  2.7079 -1.0419  1.3496
  551TMC3    H1 8180   3.905   2.617  13.566  0.6594  1.9636 -1.4984
  551TMC3    H2 8181   4.305   2.481  13.667 -2.9118 -0.5978  3.6545
  551TMC3    C7 8182   4.090   2.606  13.770  0.6284 -0.1447  0.4435
  551TMC3    C8 8183   4.375   2.444  13.415  0.5523 -0.6592  0.1441
  551TMC3    O1 8184   4.184   2.572  13.838  0.7111  0.0372 -0.6497
  551TMC3    O2 8185   4.474   2.453  13.484  0.5720 -0.1815  0.0950
  552MPD2     C 8186   1.187   4.708  13.759 -0.1288 -0.6203 -0.3018
  552MPD2    C1 8187   1.132   4.629  13.858  0.6138 -0.1034 -0.4076
  552MPD2    C2 8188   1.207   4.575  13.958  0.1284 -0.7751 -0.6249
  552MPD2    C3 8189   1.344   4.608  13.960  0.1562  0.8165 -0.4174
  552MPD2    C4 8190   1.403   4.686  13.864  0.1730 -0.5235  0.1536
  552MPD2    C5 8191   1.319   0.017  13.767  0.4123 -0.2529  0.4407
  552MPD2     H 8192   1.159   4.503  14.023 -2.5899  0.7281 -0.9971
  552MPD2    H1 8193   1.510   4.699  13.861 -0.3632  3.9477  0.8455
  552MPD2    H2 8194   1.123   0.030  13.682  0.0972  1.3019  0.5650
  552MPD2    H3 8195   1.360   0.083  13.692 -3.7954  1.0323 -0.7659
  552MPD2     N 8196   1.429   4.539  14.055 -0.1930 -0.9308 -0.4273
  552MPD2    H5 8197   1.529   4.546  14.039 -0.3651  1.6149 -0.3628
  552MPD2    N1 8198   0.993   4.603  13.861  0.0128  0.2482 -0.5703
  552MPD2    H7 8199   0.968   4.538  13.934 -0.6943 -1.9755 -2.8096
  553TMC3    C1 8200   0.784   4.565  13.779  0.6570 -0.2001 -0.0814
  553TMC3    C2 8201   0.761   4.489  13.665  0.3233 -0.0032  0.1390
  553TMC3    C3 8202   0.741   4.356  13.678 -0.5130 -0.5974 -0.3011
  553TMC3    C4 8203   0.765   4.512  13.907 -0.0369 -0.0135  0.0068
  553TMC3    C5 8204   0.731   4.373  13.916  0.2154 -0.0842  0.7088
  553TMC3    C6 8205   0.737   4.294  13.805 -0.6695 -0.6082  0.0363
  553TMC3     C 8206   0.900   4.651  13.769 -0.2279 -0.0774 -0.2013
  553TMC3     O 8207   0.912   4.714  13.663  0.3328 -0.0616 -0.1144
  553TMC3     H 8208   0.777   4.541  13.571 -1.0812 -2.9271 -1.6985
  553TMC3    H1 8209   0.780   4.566  13.999 -2.3196  0.6349  0.0041
  553TMC3    H2 8210   0.723   4.187  13.816 -0.5461 -0.5140  1.0998
  553TMC3    C7 8211   0.809   4.309  14.014 -0.1073 -0.4571 -0.1780
  553TMC3    C8 8212   0.833   4.282  13.592 -0.2519 -0.3099  0.2333
  553TMC3    O1 8213   0.772   4.314  14.132 -0.6857  0.2800 -0.2064
  553TMC3    O2 8214   0.942   4.275  13.649 -0.3706  0.0538 -0.0217
  554TMC3    C1 8215   2.963   3.689  11.540  0.0750  0.3457  0.4751
  554TMC3    C2 8216   2.959   3.634  11.416 -0.6606 -0.3437  0.0443
  554TMC3    C3 8217   3.051   3.684  11.330  0.1473 -0.1438 -0.0070
  554TMC3    C4 8218   3.054   3.787  11.578 -0.5581  0.1018 -0.6070
  554TMC3    C5 8219   3.146   3.827  11.485  0.4626 -0.3769  0.9573
  554TMC3    C6 8220   3.141   3.783  11.358  0.2567 -0.3172  0.1404
  554TMC3     C 8221   2.876   3.633  11.642 -0.7469 -0.1005 -1.1387
  554TMC3     O 8222   2.880   3.683  11.754  0.3186  0.1094 -0.1960
  554TMC3     H 8223   2.868   3.581  11.388 -1.3814  0.7188  0.3906
  554TMC3    H1 8224   3.056   3.823  11.680  0.0483 -1.5797 -0.0177
  554TMC3    H2 8225   3.207   3.816  11.279  1.1793 -1.3504  0.4839
  554TMC3    C7 8226   3.232   3.938  11.521 -0.4699 -0.2032  0.9492
  554TMC3    C8 8227   3.040   3.643  11.194 -0.0445  0.2874  0.0822
  554TMC3    O1 8228   3.231   3.985  11.634 -0.1996 -0.0494 -0.0054
  554TMC3    O2 8229   3.100   3.715  11.112 -0.1627  0.3690  0.1000
  555TMC3    C1 8230   2.309   2.383  14.850  0.0555  0.1432  0.6005
  555TMC3    C2 8231   2.331   2.478  14.949  0.8469 -0.1561  0.6773
  555TMC3    C3 8232   2.323   2.424  15.078  0.0203 -0.0703 -0.0772
  555TMC3    C4 8233   2.297   2.250  14.882  0.3728  0.3547 -0.0915
  555TMC3    C5 8234   2.296   2.200  15.010  0.3925 -0.2685  0.3233
  555TMC3    C6 8235   2.306   2.291  15.111 -0.5246 -0.8153  0.0560
  555TMC3     C 8236   2.305   2.433  14.718  0.0540  0.1987  0.1215
  555TMC3     O 8237   2.390   2.390  14.641 -0.3081 -0.3541  0.1030
  555TMC3     H 8238   2.349   2.585  14.943 -1.1708  0.2089  1.3550
  555TMC3    H1 8239   2.264   2.191  14.797 -1.0495  2.7611 -1.1963
  555TMC3    H2 8240   2.286   2.260  15.213 -0.0748 -1.4843 -0.0621
  555TMC3    C7 8241   2.256   2.068  15.046  0.0027 -0.3700  0.2155
  555TMC3    C8 8242   2.386   2.506  15.182  0.7556  0.6151 -0.0830
  555TMC3    O1 8243   2.165   2.065  15.126  0.0005 -0.3259 -0.4328
  555TMC3    O2 8244   2.411   2.622  15.154 -0.4722 -0.5801 -0.1933
  556MPD2     C 8245   1.113   4.575  10.683 -0.1779 -0.0179  0.8190
  556MPD2    C1 8246   0.978   4.565  10.694  0.0356  0.3027 -0.4762
  556MPD2    C2 8247   0.900   4.491  10.605 -0.4212  0.1082  0.2084
  556MPD2    C3 8248   0.962   4.421  10.502  0.4686  0.5890  0.1918
  556MPD2    C4 8249   1.098   4.431  10.490  0.9080  0.6757  0.4571
  556MPD2    C5 8250   1.165   4.497  10.587  0.4132 -0.6639 -0.2077
  556MPD2     H 8251   0.794   4.477  10.618 -0.7272  1.0885 -1.1033
  556MPD2    H1 8252   1.162   4.375  10.422  0.8632 -0.4722  1.3441
  556MPD2    H2 8253   1.179   4.624  10.753 -0.2765  1.8291 -0.3768
  556MPD2    H3 8254   1.273   4.497  10.583  0.4951  3.7418  1.3396
  556MPD2     N 8255   0.880   4.353  10.412  0.6933  0.1165  0.4774
  556MPD2    H5 8256   0.784   4.350  10.444  0.5395  1.0115  0.1012
  556MPD2    N1 8257   0.916   4.633  10.798  0.1117 -0.6059  0.5045
  556MPD2    H7 8258   0.815   4.619  10.800  0.1430 -0.6979  1.4356
  557TMC3    C1 8259   0.809   4.207  10.246 -0.4737  0.2423 -0.3547
  557TMC3    C2 8260   0.791   4.219  10.112 -0.5097  0.4943  0.4731
  557TMC3    C3 8261   0.670   4.185  10.060 -0.1974  0.7940 -0.7111
  557TMC3    C4 8262   0.718   4.131  10.324 -0.4662 -0.1340  0.2392
  557TMC3    C5 8263   0.598   4.102  10.264 -0.6147 -1.0158 -0.8548
  557TMC3    C6 8264   0.571   4.133  10.130  0.9746  0.4202 -0.6583
  557TMC3     C 8265   0.922   4.274  10.309 -0.7853 -0.2248 -0.3366
  557TMC3     O 8266   1.015   4.305  10.233 -0.0888  0.0235  0.6248
  557TMC3     H 8267   0.855   4.284  10.053  0.9413 -1.0863  0.3198
  557TMC3    H1 8268   0.730   4.131  10.432  1.5916  0.0856  0.0083
  557TMC3    H2 8269   0.472   4.118  10.089  0.5653  2.4804 -0.4334
  557TMC3    C7 8270   0.491   4.102  10.360  0.3571 -0.4136  0.4254
  557TMC3    C8 8271   0.628   4.269   9.946 -0.4623 -0.1372  0.6618
  557TMC3    O1 8272   0.397   4.179  10.345 -0.2280  0.0607  0.4462
  557TMC3    O2 8273   0.690   4.371   9.925 -0.4968 -0.1255 -0.4464
  558TMC3    C1 8274   2.885   2.894   9.847  0.0155 -0.5165  0.5812
  558TMC3    C2 8275   2.770   2.820   9.881  0.1761 -0.0088  0.2402
  558TMC3    C3 8276   2.705   2.744   9.782  0.2580  1.0293 -0.3548
  558TMC3    C4 8277   2.945   2.876   9.722 -0.6645  0.7450  0.1735
  558TMC3    C5 8278   2.889   2.789   9.633 -0.4132  0.4367  0.5575
  558TMC3    C6 8279   2.769   2.724   9.658  0.6461 -0.3166 -0.4117
  558TMC3     C 8280   2.986   2.896   9.954  1.2212  0.8151  0.5350
  558TMC3     O 8281   3.092   2.945   9.923 -0.3563 -0.3451 -0.2000
  558TMC3     H 8282   2.698   2.847   9.958  0.7768 -2.2370  1.5985
  558TMC3    H1 8283   3.041   2.925   9.706  0.6282 -1.3074  1.6683
  558TMC3    H2 8284   2.736   2.634   9.607  1.9955 -0.4595 -1.0191
  558TMC3    C7 8285   2.981   2.741   9.530  0.7525 -0.0114 -0.2099
  558TMC3    C8 8286   2.648   2.616   9.827  1.2389  0.0326  0.2553
  558TMC3    O1 8287   3.092   2.791   9.527  0.1883  1.0186 -0.2811
  558TMC3    O2 8288   2.586   2.545   9.750  0.0887  0.0832  0.2546
  559MPD2     C 8289   3.298   3.180  10.233 -0.1328 -0.7004 -0.2783
  559MPD2    C1 8290   3.214   3.132  10.338  0.0130 -0.6405 -0.5863
  559MPD2    C2 8291   3.265   3.109  10.458 -0.3704  1.2121  0.7386
  559MPD2    C3 8292   3.396   3.126  10.485 -0.3844  0.6663  0.3856
  559MPD2    C4 8293   3.473   3.180  10.391 -0.6164  0.1767 -0.0019
  559MPD2    C5 8294   3.425   3.209  10.261 -0.2785  0.3520 -0.3969
  559MPD2     H 8295   3.200   3.075  10.538  0.6459 -2.0674  0.1676
  559MPD2    H1 8296   3.578   3.195  10.409 -1.1413  3.1551  0.5524
  559MPD2    H2 8297   3.256   3.191  10.134 -0.9249 -0.7075  0.0542
  559MPD2    H3 8298   3.495   3.228  10.181  2.4691  2.0215  2.3852
  559MPD2     N 8299   3.446   3.086  10.613 -0.0979 -0.3245 -0.5729
  559MPD2    H5 8300   3.384   3.031  10.671 -1.1901 -0.1070 -1.5325
  559MPD2    N1 8301   3.077   3.117  10.298  0.0684  0.1218 -0.1412
  559MPD2    H7 8302   3.051   3.146  10.205  0.8136  1.4346  0.0649
  560TMC3    C1 8303   3.589   3.069  10.799 -0.1942  1.0058 -0.6868
  560TMC3    C2 8304   3.586   2.929  10.797 -0.0398 -0.0955 -0.1721
  560TMC3    C3 8305   3.609   2.871  10.921  0.3740 -0.4236  0.1182
  560TMC3    C4 8306   3.634   3.143  10.895  0.2329  0.3356  0.4671
  560TMC3    C5 8307   3.658   3.072  11.010 -0.8915 -0.3447  0.4141
  560TMC3    C6 8308   3.644   2.940  11.028 -0.1675 -0.9072  0.0717
  560TMC3     C 8309   3.565   3.121  10.672  0.4093  0.0780 -0.3349
  560TMC3     O 8310   3.639   3.213  10.636  0.1629 -0.6110 -0.0571
  560TMC3     H 8311   3.549   2.877  10.710 -0.8158 -1.0746  0.7372
  560TMC3    H1 8312   3.628   3.251  10.887 -2.4413 -0.0601 -2.6791
  560TMC3    H2 8313   3.670   2.887  11.119 -0.5274 -0.1390  0.6249
  560TMC3    C7 8314   3.719   3.141  11.124  0.2437  0.9416  0.0056
  560TMC3    C8 8315   3.616   2.725  10.930  0.0201 -0.3712 -0.5693
  560TMC3    O1 8316   3.680   3.092  11.231  0.6158  0.2084  0.0503
  560TMC3    O2 8317   3.664   2.683  11.037  0.1026 -0.3115 -0.2062
  561TMC3    C1 8318   0.879   2.209  11.034 -0.0760  0.1523  0.7599
  561TMC3    C2 8319   0.790   2.150  11.115  0.7934 -0.6690 -0.9007
  561TMC3    C3 8320   0.745   2.208  11.226  0.2129  0.2838  0.5381
  561TMC3    C4 8321   0.908   2.340  11.058  0.3511  0.5667 -0.2819
  561TMC3    C5 8322   0.867   2.397  11.180 -0.3554 -0.4095  1.0783
  561TMC3    C6 8323   0.786   2.333  11.267 -0.7935  0.0745  0.0284
  561TMC3     C 8324   0.890   2.146  10.902  0.1791  0.0279  0.3413
  561TMC3     O 8325   0.813   2.055  10.882 -0.1492  0.2304  0.6186
  561TMC3     H 8326   0.762   2.048  11.089  1.1205 -0.8751 -0.4431
  561TMC3    H1 8327   0.953   2.406  10.985 -1.0578  0.6270 -1.0758
  561TMC3    H2 8328   0.771   2.362  11.370 -0.1742 -0.2919  0.2248
  561TMC3    C7 8329   0.921   2.532  11.209  0.3422 -0.0091 -1.1920
  561TMC3    C8 8330   0.697   2.117  11.329 -0.8551 -0.4744 -0.4290
  561TMC3    O1 8331   0.883   2.600  11.304 -0.5133  0.0261 -0.4297
  561TMC3    O2 8332   0.735   2.002  11.317  0.4513  0.1107 -0.2201
  562TMC3    C1 8333   1.637   3.128  15.938 -0.2837 -0.0569 -0.3803
  562TMC3    C2 8334   1.528   3.205  15.939 -0.0550  0.8122 -0.1350
  562TMC3    C3 8335   1.494   3.266  15.822  0.4683  0.0324 -0.7069
  562TMC3    C4 8336   1.712   3.103  15.823  0.1917  0.4049 -0.2239
  562TMC3    C5 8337   1.687   3.173  15.707 -0.1442  0.0967  0.2971
  562TMC3    C6 8338   1.565   3.244  15.709  0.8337 -0.0119  0.2175
  562TMC3     C 8339   1.665   3.030  16.043  0.5064  0.4261  0.0254
  562TMC3     O 8340   1.726   2.929  16.007  0.0654 -0.2485 -0.2546
  562TMC3     H 8341   1.490   3.232  16.037  1.4573  1.6736  0.2194
  562TMC3    H1 8342   1.804   3.047  15.830 -0.8898 -1.3670 -0.3259
  562TMC3    H2 8343   1.543   3.299  15.618 -1.2428 -0.4575  0.4530
  562TMC3    C7 8344   1.688   3.097  15.586 -0.0262 -0.4022  0.4491
  562TMC3    C8 8345   1.358   3.314  15.801  0.0947  0.1090 -0.8945
  562TMC3    O1 8346   1.609   3.125  15.500 -0.2362  0.2788  0.2698
  562TMC3    O2 8347   1.285   3.286  15.893 -0.6542 -0.6356  0.5982
  563MPD2     C 8348   3.728   3.963  15.779  0.4943  0.7549  0.4626
  563MPD2    C1 8349   3.752   4.079  15.845  0.9004  0.2967  0.0674
  563MPD2    C2 8350   3.883   4.099  15.907  0.7327  0.4323  0.1705
  563MPD2    C3 8351   3.980   4.002  15.891  0.0134 -0.4873 -0.1755
  563MPD2    C4 8352   3.953   3.895  15.804 -0.0396  0.5906  0.0253
  563MPD2    C5 8353   3.830   3.878  15.745 -0.4486 -0.7508 -0.5521
  563MPD2     H 8354   3.914   4.187  15.962  0.9291  0.1683  0.4832
  563MPD2    H1 8355   4.018   3.809  15.800  0.5120  0.8076  3.9302
  563MPD2    H2 8356   3.631   3.947  15.735  0.5801  1.1537  0.1279
  563MPD2    H3 8357   3.815   3.783  15.696 -1.1674  0.7432 -3.2054
  563MPD2     N 8358   4.095   4.024  15.972  0.6243  0.4077  0.6027
  563MPD2    H5 8359   4.096   4.105  16.034 -0.3766  0.7185  0.2201
  563MPD2    N1 8360   3.648   4.174  15.857  0.0505 -0.1484  0.8543
  563MPD2    H7 8361   3.554   4.142  15.833 -0.0463  1.0346 -0.3066
  564TMC3    C1 8362   3.596   4.262  16.057  0.1133 -0.0107 -0.1525
  564TMC3    C2 8363   3.490   4.170  16.053  0.1071 -0.2742 -0.1812
  564TMC3    C3 8364   3.485   4.070  16.150  0.0638  0.0566 -0.0164
  564TMC3    C4 8365   3.687   4.246  16.157 -0.7368  0.2485 -0.4758
  564TMC3    C5 8366   3.687   4.145  16.246 -0.7953  0.2287  0.5702
  564TMC3    C6 8367   3.580   4.062  16.246 -0.8927  0.8133  0.0111
  564TMC3     C 8368   3.667   4.286  15.934 -0.1137  0.6729 -0.6489
  564TMC3     O 8369   3.761   4.369  15.940 -0.7202  0.2768  0.0143
  564TMC3     H 8370   3.418   4.152  15.974  0.4668  0.0903 -0.5975
  564TMC3    H1 8371   3.781   4.298  16.143  0.8153 -2.5665 -0.4144
  564TMC3    H2 8372   3.582   3.981  16.319 -0.5368 -1.3125 -2.3776
  564TMC3    C7 8373   3.812   4.075  16.242 -0.1041 -0.1231  0.1113
  564TMC3    C8 8374   3.429   3.939  16.120 -0.0119 -0.3360  0.3446
  564TMC3    O1 8375   3.926   4.127  16.248 -0.2840 -0.5119 -0.2524
  564TMC3    O2 8376   3.411   3.876  16.221 -0.0006 -0.1883 -0.3931
  565TMC3    C1 8377   4.015   0.674   9.564  0.3263 -0.5388  0.0703
  565TMC3    C2 8378   4.138   0.697   9.613 -0.2606 -0.5486  0.1306
  565TMC3    C3 8379   4.164   0.640   9.731 -0.5423  0.2005 -0.1443
  565TMC3    C4 8380   3.921   0.599   9.624  0.1489 -0.8053  0.0977
  565TMC3    C5 8381   3.958   0.540   9.743 -1.0071  0.0526  0.2194
  565TMC3    C6 8382   4.078   0.558   9.802  0.0399 -0.3594  0.0309
  565TMC3     C 8383   3.975   0.778   9.471 -0.2362  1.0914  0.0355
  565TMC3     O 8384   3.880   0.853   9.493  0.1814 -0.1289  0.2015
  565TMC3     H 8385   4.200   0.776   9.573  0.7111 -1.4975 -0.2580
  565TMC3    H1 8386   3.823   0.599   9.577 -0.3785 -1.8634  1.1941
  565TMC3    H2 8387   4.114   0.501   9.887  0.5284 -1.4520 -0.9054
  565TMC3    C7 8388   3.858   0.460   9.812 -0.0316  0.5424  0.1063
  565TMC3    C8 8389   4.289   0.674   9.788  0.7564  0.1179  0.3563
  565TMC3    O1 8390   3.901   0.373   9.890 -0.1673  0.0716 -0.4386
  565TMC3    O2 8391   4.340   0.777   9.754 -0.5161 -0.4233 -0.3699
  566MPD2     C 8392   1.253   2.555  14.288 -0.2295 -0.5441 -0.1191
  566MPD2    C1 8393   1.319   2.640  14.203  0.0295 -0.1035  0.5141
  566MPD2    C2 8394   1.298   2.633  14.063  0.0942 -0.1729  0.0489
  566MPD2    C3 8395   1.219   2.533  14.010 -0.6728 -0.2275 -0.0424
  566MPD2    C4 8396   1.160   2.443  14.098 -0.6034 -0.0935  0.4572
  566MPD2    C5 8397   1.182   2.453  14.232 -0.0665  0.9115  0.1212
  566MPD2     H 8398   1.350   2.709  14.006  1.9509 -1.8054 -0.4240
  566MPD2    H1 8399   1.079   2.374  14.076 -1.4996  1.5949 -1.4937
  566MPD2    H2 8400   1.257   2.578  14.393  1.9632 -1.7456  0.0594
  566MPD2    H3 8401   1.126   2.383  14.293 -0.1095 -0.2733 -1.2827
  566MPD2     N 8402   1.191   2.517  13.872 -0.7893  0.3628 -0.6146
  566MPD2    H5 8403   1.226   2.595  13.817  1.6029  0.2310  0.7070
  566MPD2    N1 8404   1.406   2.735  14.270  0.8371  0.7815  0.2118
  566MPD2    H7 8405   1.405   2.737  14.372  1.7893  2.4611  0.1890
  567TMC3    C1 8406   1.586   2.893  14.277  0.2670  0.8376 -0.2365
  567TMC3    C2 8407   1.637   2.996  14.208 -1.0198 -0.4985 -0.2460
  567TMC3    C3 8408   1.777   3.005  14.198  0.1294  0.0042  0.1933
  567TMC3    C4 8409   1.663   2.801  14.344 -0.9868  0.4597  1.3817
  567TMC3    C5 8410   1.804   2.819  14.336 -0.2338 -0.1700  0.0918
  567TMC3    C6 8411   1.863   2.919  14.260  0.3758 -0.3723 -0.0325
  567TMC3     C 8412   1.485   2.826  14.195  0.0962  0.2479 -0.7342
  567TMC3     O 8413   1.496   2.854  14.077  0.1162 -0.3872  0.2419
  567TMC3     H 8414   1.573   3.065  14.154  0.9019 -0.5678 -2.6317
  567TMC3    H1 8415   1.620   2.710  14.385 -3.2062  0.2568 -1.3935
  567TMC3    H2 8416   1.971   2.922  14.252  0.4043 -1.9641 -0.1902
  567TMC3    C7 8417   1.887   2.710  14.372  0.0167 -0.2284 -0.2272
  567TMC3    C8 8418   1.815   3.073  14.077 -0.4115 -0.1548 -0.0831
  567TMC3    O1 8419   1.978   2.675  14.302  0.2551  0.1395  0.2455
  567TMC3    O2 8420   1.743   3.170  14.053 -0.7234  0.0958  0.8197
  568MPD2     C 8421   3.610   2.572  16.718  0.4280 -0.3520 -0.5025
  568MPD2    C1 8422   3.687   2.670  16.782  0.3994 -0.5577  0.5250
  568MPD2    C2 8423   3.690   2.798  16.724  0.0631  0.1200  0.1303
  568MPD2    C3 8424   3.610   2.831  16.615 -0.1784  0.7838  0.7273
  568MPD2    C4 8425   3.533   2.729  16.554  0.0553 -0.3633  0.1096
  568MPD2    C5 8426   3.538   2.603  16.606  0.2108 -0.9283  0.5759
  568MPD2     H 8427   3.762   2.869  16.760 -0.3072  0.6288 -0.1309
  568MPD2    H1 8428   3.473   2.748  16.465 -1.4837  1.1186  1.4841
  568MPD2    H2 8429   3.592   2.473  16.758  1.2707  0.1578  1.0978
  568MPD2    H3 8430   3.479   2.523  16.564  1.6612 -1.7255  0.0342
  568MPD2     N 8431   3.615   2.967  16.568  0.2202  0.2099 -0.2452
  568MPD2    H5 8432   3.679   3.031  16.613 -2.6843 -0.3268  4.6502
  568MPD2    N1 8433   3.758   2.628  16.893  0.1871 -0.8034 -0.0791
  568MPD2    H7 8434   3.741   2.541  16.942 -0.5686  1.4493  3.6212
  569TMC3    C1 8435   3.610   3.133  16.401  0.2217  0.1234 -0.7268
  569TMC3    C2 8436   3.639   3.236  16.489  0.0576 -0.5762  0.4974
  569TMC3    C3 8437   3.690   3.350  16.438 -0.9356  0.8093 -0.0947
  569TMC3    C4 8438   3.612   3.150  16.263 -0.5583  0.5368 -0.1138
  569TMC3    C5 8439   3.666   3.264  16.222  0.9744  0.1566 -0.1363
  569TMC3    C6 8440   3.717   3.359  16.303  0.3555 -0.6247  0.0561
  569TMC3     C 8441   3.565   3.004  16.442  0.1540  0.2479  0.2938
  569TMC3     O 8442   3.481   2.951  16.369 -0.2281  0.1073  0.6393
  569TMC3     H 8443   3.599   3.230  16.590 -0.8922  1.2505  0.2236
  569TMC3    H1 8444   3.589   3.074  16.190 -0.4248 -0.5849  1.0151
  569TMC3    H2 8445   3.754   3.446  16.250  1.8760 -1.3106 -0.0065
  569TMC3    C7 8446   3.609   3.316  16.100  0.9255 -0.0491 -0.8836
  569TMC3    C8 8447   3.683   3.465  16.516 -0.1157 -0.0224 -0.8865
  569TMC3    O1 8448   3.598   3.236  16.008  0.0688  0.3209  0.7416
  569TMC3    O2 8449   3.612   3.466  16.622  0.1647  0.0433  0.1537
  570TMC3    C1 8450   3.236   1.802  16.415 -0.4550  0.2894 -0.5529
  570TMC3    C2 8451   3.308   1.826  16.299 -0.0377  0.6171 -0.0741
  570TMC3    C3 8452   3.351   1.957  16.271  0.0069 -0.3001  0.0517
  570TMC3    C4 8453   3.178   1.906  16.481 -0.5896  0.1583 -0.7193
  570TMC3    C5 8454   3.222   2.030  16.458 -1.1203  0.5425  0.2594
  570TMC3    C6 8455   3.302   2.061  16.350 -0.3087  0.0238 -0.0093
  570TMC3     C 8456   3.196   1.663  16.437  0.1870 -0.0291 -0.3167
  570TMC3     O 8457   3.232   1.579  16.356 -0.2889 -0.2405 -0.4137
  570TMC3     H 8458   3.326   1.745  16.229  0.9273 -0.3033  1.2624
  570TMC3    H1 8459   3.108   1.887  16.562  0.0279  3.8400  0.6748
  570TMC3    H2 8460   3.335   2.163  16.333 -0.1542 -0.1319 -0.6274
  570TMC3    C7 8461   3.176   2.134  16.545  0.2069  0.3567 -0.8079
  570TMC3    C8 8462   3.474   1.982  16.195  0.5314 -0.5322 -1.2847
  570TMC3    O1 8463   3.119   2.095  16.646  0.0052  0.3965 -0.1395
  570TMC3    O2 8464   3.513   2.098  16.181 -0.0013 -0.1695 -0.0211
  571MPD2     C 8465   0.521   3.486  17.536  0.3995 -0.0823  0.0118
  571MPD2    C1 8466   0.633   3.551  17.509 -0.3679 -0.6995 -0.1855
  571MPD2    C2 8467   0.644   3.687  17.543 -1.0919 -0.3869  0.4149
  571MPD2    C3 8468   0.549   3.758  17.606  0.2887 -0.3156  0.3561
  571MPD2    C4 8469   0.436   3.685  17.647 -0.0718 -0.6413 -0.5774
  571MPD2    C5 8470   0.420   3.555  17.601  0.5773  0.2338  0.0797
  571MPD2     H 8471   0.731   3.749  17.524 -0.7898 -0.4526  1.6002
  571MPD2    H1 8472   0.359   3.744   0.013 -0.0226 -0.0702 -1.2020
  571MPD2    H2 8473   0.505   3.389  17.490  1.5082 -0.6343  0.7894
  571MPD2    H3 8474   0.322   3.510  17.615  0.6429  0.1425  0.2404
  571MPD2     N 8475   0.556   3.893  17.640 -0.3250 -0.6434  0.3262
  571MPD2    H5 8476   0.472   3.926   0.005  0.5435 -0.1190  1.5121
  571MPD2    N1 8477   0.743   3.481  17.444 -0.2580 -0.1058 -0.6746
  571MPD2    H7 8478   0.736   3.379  17.440  0.6829 -0.1789 -0.3280
  572TMC3    C1 8479   0.648   4.087   0.038 -0.3644  0.1994 -0.1839
  572TMC3    C2 8480   0.622   4.041   0.165  0.1434 -0.0179  0.4633
  572TMC3    C3 8481   0.709   4.059   0.267 -0.8067 -0.2192 -0.4224
  572TMC3    C4 8482   0.747   4.176   0.026  0.5978  0.5908  0.8361
  572TMC3    C5 8483   0.844   4.181   0.121  0.0288  0.4765  0.0709
  572TMC3    C6 8484   0.820   4.129   0.248 -1.0690  0.7258 -0.8865
  572TMC3     C 8485   0.660   3.981  17.626 -0.9540 -0.0742  0.3759
  572TMC3     O 8486   0.758   3.981  17.555  0.3424  0.1339  0.0391
  572TMC3     H 8487   0.549   3.961   0.178  1.8323 -1.6858 -0.2792
  572TMC3    H1 8488   0.756   4.220  17.609 -0.7759  0.3035  0.5815
  572TMC3    H2 8489   0.895   4.134   0.326  0.4755 -0.6972 -2.3045
  572TMC3    C7 8490   0.930   4.300   0.114 -0.4757 -0.3957  0.3829
  572TMC3    C8 8491   0.708   3.944   0.353 -0.2369  1.1514 -0.4219
  572TMC3    O1 8492   0.896   4.381   0.031  0.1846 -0.4943 -0.0933
  572TMC3    O2 8493   0.651   3.844   0.310  0.0094  0.5708 -0.3363
  573MPD2     C 8494   2.894   4.110   0.874  0.2336 -0.0242  0.4102
  573MPD2    C1 8495   2.934   4.231   0.825 -0.3666  0.1290 -0.0478
  573MPD2    C2 8496   2.911   4.264   0.692  0.0207  0.0853 -0.2761
  573MPD2    C3 8497   2.845   4.178   0.609 -0.0636  0.0217  0.2819
  573MPD2    C4 8498   2.793   4.061   0.658  0.2355  0.3742  0.2760
  573MPD2    C5 8499   2.817   4.028   0.790  0.0313  0.3734  0.2482
  573MPD2     H 8500   2.922   4.364   0.651 -0.6047  0.1895 -0.1986
  573MPD2    H1 8501   2.740   3.983   0.606  1.1878  0.2187 -0.4726
  573MPD2    H2 8502   2.917   4.082   0.976  1.2350  0.1130  0.2220
  573MPD2    H3 8503   2.777   3.937   0.833  0.0059  1.0957  1.7568
  573MPD2     N 8504   2.805   4.205   0.475  0.1316 -0.0004  0.4138
  573MPD2    H5 8505   2.734   4.145   0.433 -0.4537  1.3530 -0.5393
  573MPD2    N1 8506   2.977   4.320   0.926 -0.2053 -0.2515 -0.2273
  573MPD2    H7 8507   2.964   4.293   1.022  0.3584  3.2588  0.8445
  574TMC3    C1 8508   2.775   4.333   0.283  0.4956 -0.0264  0.6766
  574TMC3    C2 8509   2.641   4.337   0.309  0.1888  0.2973  0.3368
  574TMC3    C3 8510   2.562   4.358   0.197 -0.1277  0.4290  0.0962
  574TMC3    C4 8511   2.834   4.338   0.161 -0.3269  0.1704  0.1931
  574TMC3    C5 8512   2.754   4.367   0.056  0.6348  0.2566  0.1399
  574TMC3    C6 8513   2.618   4.381   0.071  0.0541  0.0546 -0.4475
  574TMC3     C 8514   2.858   4.310   0.398  0.5776  0.0133 -0.0285
  574TMC3     O 8515   2.955   4.383   0.411  0.4356  0.1705 -0.3670
  574TMC3     H 8516   2.602   4.344   0.410  0.2846 -1.1030  0.4791
  574TMC3    H1 8517   2.942   4.335   0.149 -0.3847 -0.1795 -0.2297
  574TMC3    H2 8518   2.553   4.398  17.668 -0.8538  1.6548  0.5589
  574TMC3    C7 8519   2.817   4.390  17.609  0.1836 -0.3832  0.2269
  574TMC3    C8 8520   2.419   4.363   0.218  1.0607 -0.2749  0.1176
  574TMC3    O1 8521   2.935   4.375  17.596 -0.2419  0.5997  0.0909
  574TMC3    O2 8522   2.369   4.293   0.306  0.4744 -0.1378 -0.4578
  575TMC3    C1 8523   0.248   1.180   9.990  0.5909 -0.6187  0.3675
  575TMC3    C2 8524   0.285   1.166  10.126 -0.1487  0.2937  0.4367
  575TMC3    C3 8525   0.276   1.046  10.186 -0.0343  0.5550 -0.0510
  575TMC3    C4 8526   0.174   1.086   9.932 -0.3725 -0.5650 -0.1863
  575TMC3    C5 8527   0.149   0.969  10.007 -0.4679  0.1410 -0.2790
  575TMC3    C6 8528   0.196   0.951  10.135 -0.5505 -0.8989  0.5037
  575TMC3     C 8529   0.204   1.313   9.950  0.1921  0.4494  0.1971
  575TMC3     O 8530   0.182   1.384  10.042  0.4050 -0.0553  0.1204
  575TMC3     H 8531   0.351   1.244  10.161  1.6483 -0.0620 -2.1368
  575TMC3    H1 8532   0.128   1.092   9.834  0.7670  2.6339 -0.5193
  575TMC3    H2 8533   0.163   0.861  10.186 -1.0202 -1.4124 -0.7227
  575TMC3    C7 8534   0.040   0.884   9.957 -0.2987 -0.4603  0.3143
  575TMC3    C8 8535   0.352   1.033  10.304 -0.2411  0.5475  0.4682
  575TMC3    O1 8536   4.679   0.928   9.877 -0.0297  0.3752 -0.3550
  575TMC3    O2 8537   0.397   1.128  10.362  0.3376 -0.0486  0.4556
  576MPD2     C 8538   4.670   2.332  12.579  0.3567 -0.1852 -0.6419
  576MPD2    C1 8539   4.620   2.384  12.467 -0.2663  0.6003 -0.3255
  576MPD2    C2 8540   4.492   2.432  12.455 -0.0443 -0.3408 -0.8185
  576MPD2    C3 8541   4.405   2.415  12.559  0.5721 -0.2403  0.2541
  576MPD2    C4 8542   4.452   2.359  12.673  0.0955  0.7240  0.1694
  576MPD2    C5 8543   4.584   2.329  12.684 -0.2030  0.0347 -0.1337
  576MPD2     H 8544   4.456   2.474  12.361 -2.2676 -0.1086  0.1350
  576MPD2    H1 8545   4.391   2.351  12.762 -0.5305  0.5571 -0.2793
  576MPD2    H2 8546   0.055   2.316  12.598 -0.1580  0.5761  2.7363
  576MPD2    H3 8547   4.621   2.299  12.781 -1.9750  0.1381  0.5854
  576MPD2     N 8548   4.277   2.458  12.533  0.3500  0.3620 -0.0263
  576MPD2    H5 8549   4.260   2.502  12.443  0.4331 -0.2101 -0.3197
  576MPD2    N1 8550   4.694   2.395  12.349 -0.2852  0.1619  0.0723
  576MPD2    H7 8551   4.651   2.427  12.263  0.8882  4.1372  0.9562
  577TMC3    C1 8552   0.147   2.365  12.198  0.1144  0.4455  0.0293
  577TMC3    C2 8553   0.228   2.273  12.142 -0.5884 -0.3811  0.9610
  577TMC3    C3 8554   0.289   2.301  12.023 -0.6841  0.0715  0.3852
  577TMC3    C4 8555   0.137   2.486  12.148  0.1850  0.1575 -0.1716
  577TMC3    C5 8556   0.198   2.515  12.035 -0.1774 -0.4290  0.5623
  577TMC3    C6 8557   0.271   2.428  11.964 -0.3518 -0.0840  0.6423
  577TMC3     C 8558   0.104   2.345  12.334  0.5089 -0.5606  0.7010
  577TMC3     O 8559   0.178   2.280  12.406  0.2717 -0.7602  0.1861
  577TMC3     H 8560   0.245   2.175  12.187  1.9822  0.1813  1.2310
  577TMC3    H1 8561   0.080   2.566  12.194 -0.4266  0.8708 -2.1636
  577TMC3    H2 8562   0.306   2.440  11.862  0.4980 -2.8582  0.6007
  577TMC3    C7 8563   0.127   2.618  11.958  0.2706  0.2605 -0.2614
  577TMC3    C8 8564   0.372   2.198  11.962  0.0574 -0.1775 -0.3182
  577TMC3    O1 8565   0.004   2.625  11.956  0.2231 -0.4720 -0.0090
  577TMC3    O2 8566   0.372   2.088  12.015  0.4711 -0.3520  0.0132
  578MPD2     C 8567   2.637   2.079   1.149  0.1311  0.1351 -0.2018
  578MPD2    C1 8568   2.707   1.955   1.140 -0.0992  0.0578 -0.0715
  578MPD2    C2 8569   2.721   1.879   1.258 -0.2902 -0.2292  0.1043
  578MPD2    C3 8570   2.665   1.921   1.375 -0.0013  0.5168  0.0404
  578MPD2    C4 8571   2.597   2.043   1.382  0.4317 -0.3698  0.3682
  578MPD2    C5 8572   2.579   2.124   1.268 -0.3297 -0.1311  0.3274
  578MPD2     H 8573   2.782   1.789   1.257  0.3847  0.2291 -0.1678
  578MPD2    H1 8574   2.551   2.082   1.472  1.3067 -0.7981  0.9871
  578MPD2    H2 8575   2.641   2.140   1.059 -2.2236  0.3744 -0.1603
  578MPD2    H3 8576   2.524   2.217   1.273 -0.7839 -0.3711 -0.2183
  578MPD2     N 8577   2.699   1.844   1.489  0.2885 -0.5663  0.1145
  578MPD2    H5 8578   2.745   1.753   1.482  0.4105 -0.5829  1.1104
  578MPD2    N1 8579   2.762   1.922   1.017  0.1236 -1.2393 -0.1825
  578MPD2    H7 8580   2.757   1.987   0.939  0.0671 -1.6174 -0.4919
  579TMC3    C1 8581   2.734   1.789   1.705 -0.4231 -0.8247 -0.7109
  579TMC3    C2 8582   2.784   1.836   1.828 -0.4088  0.1301  0.1180
  579TMC3    C3 8583   2.891   1.770   1.885  0.0081  0.3942 -0.0657
  579TMC3    C4 8584   2.778   1.666   1.651 -0.1632  0.2848  0.9388
  579TMC3    C5 8585   2.873   1.593   1.722  0.4794  0.6700 -0.6720
  579TMC3    C6 8586   2.923   1.643   1.840 -0.2643 -0.5490 -0.3700
  579TMC3     C 8587   2.675   1.881   1.617  0.9070  0.6145 -0.8151
  579TMC3     O 8588   2.663   1.997   1.659  0.4974  0.4562 -0.1726
  579TMC3     H 8589   2.748   1.932   1.863 -0.9245  0.5172 -1.4808
  579TMC3    H1 8590   2.718   1.612   1.579  2.2501 -1.7417  0.4111
  579TMC3    H2 8591   3.009   1.598   1.889 -1.1063 -0.3522  1.2779
  579TMC3    C7 8592   2.852   1.448   1.716 -0.5489  0.2351  0.8345
  579TMC3    C8 8593   2.968   1.826   1.993 -0.0160  0.1242  0.7053
  579TMC3    O1 8594   2.870   1.388   1.822  0.2693 -0.0059  0.1810
  579TMC3    O2 8595   2.909   1.911   2.058 -0.1809 -0.3666 -0.1541
  580TMC3    C1 8596   3.000   1.651  11.671 -0.5015  0.1873 -0.4650
  580TMC3    C2 8597   3.043   1.589  11.558  0.2060  0.1931  0.1847
  580TMC3    C3 8598   3.095   1.472  11.557 -0.2481  0.7797  0.2108
  580TMC3    C4 8599   3.002   1.578  11.791  0.3094  0.3301  0.2224
  580TMC3    C5 8600   3.060   1.454  11.790  0.3066 -0.0406 -0.4663
  580TMC3    C6 8601   3.118   1.404  11.672 -0.0356  0.1778 -0.3046
  580TMC3     C 8602   3.043   1.792  11.656 -0.0713 -0.3371 -0.5370
  580TMC3     O 8603   3.085   1.813  11.544 -0.1298 -0.0377 -0.0271
  580TMC3     H 8604   2.993   1.628  11.469 -1.1067  0.4344  1.0319
  580TMC3    H1 8605   2.934   1.589  11.875  0.4949  2.0943  0.1424
  580TMC3    H2 8606   3.153   1.302  11.662  0.5593  0.5121 -1.6326
  580TMC3    C7 8607   3.025   1.363  11.896  0.1988  0.1925  0.3961
  580TMC3    C8 8608   3.203   1.471  11.460 -0.0198  0.0677  0.3833
  580TMC3    O1 8609   2.934   1.386  11.976 -0.0957 -0.0629 -0.2909
  580TMC3    O2 8610   3.248   1.362  11.422  0.0567  0.0763 -0.1050
  581MPD2     C 8611   4.670   0.808  14.988  0.6673  0.0038  0.3327
  581MPD2    C1 8612   0.046   0.817  14.894 -0.2493 -0.4309 -0.5478
  581MPD2    C2 8613   0.045   0.932  14.824  0.5525  0.0965 -0.4369
  581MPD2    C3 8614   4.671   1.036  14.843  0.1750 -0.2256  0.4196
  581MPD2    C4 8615   4.581   1.026  14.944  0.1944 -0.6650 -0.3450
  581MPD2    C5 8616   4.595   0.915  15.026  0.5450  0.4319 -0.4284
  581MPD2     H 8617   0.117   0.941  14.743  0.3054 -0.9149 -0.7686
  581MPD2    H1 8618   4.511   1.104  14.972  0.5672  0.0060 -1.2926
  581MPD2    H2 8619   4.672   0.724  15.057 -0.6273  1.5297  2.2501
  581MPD2    H3 8620   4.533   0.910  15.115  1.8214  2.4464  0.5874
  581MPD2     N 8621   4.668   1.147  14.752 -0.2229 -0.1163 -0.3788
  581MPD2    H5 8622   4.718   1.147  14.664 -0.2131 -0.0606 -0.3733
  581MPD2    N1 8623   0.140   0.714  14.882  0.2062 -0.5883 -0.3915
  581MPD2    H7 8624   0.125   0.620  14.916  0.6596 -0.3227  0.5541
  582TMC3    C1 8625   0.355   0.614  14.859 -0.2625 -0.7437 -0.4391
  582TMC3    C2 8626   0.471   0.652  14.921 -0.5313 -0.1101  0.8907
  582TMC3    C3 8627   0.518   0.581  15.027  0.1888 -0.0673  0.0950
  582TMC3    C4 8628   0.290   0.513  14.920 -0.5598 -0.2616 -0.0344
  582TMC3    C5 8629   0.322   0.454  15.039 -0.3822  0.5923 -0.3027
  582TMC3    C6 8630   0.432   0.501  15.099  0.3431  0.2403  0.2585
  582TMC3     C 8631   0.264   0.726  14.827 -0.3331  1.1194  0.1876
  582TMC3     O 8632   0.322   0.830  14.801 -0.2466 -0.8081  0.2775
  582TMC3     H 8633   0.532   0.732  14.882 -0.1569 -0.3919  0.8933
  582TMC3    H1 8634   0.193   0.484  14.879 -0.5229  0.0607 -0.3479
  582TMC3    H2 8635   0.468   0.461  15.193 -0.3883  2.3717  1.4398
  582TMC3    C7 8636   0.210   0.440  15.125 -0.2909  0.2930 -0.4534
  582TMC3    C8 8637   0.608   0.654  15.116 -0.0532  0.4398 -0.3695
  582TMC3    O1 8638   0.144   0.334  15.127  0.7784  0.3368 -0.1604
  582TMC3    O2 8639   0.560   0.758  15.160  0.2810  0.6007 -0.1631
  583MPD2     C 8640   0.632   2.276  16.797 -0.4757 -0.1633 -0.6326
  583MPD2    C1 8641   0.587   2.383  16.721 -0.2321  0.2011  0.0203
  583MPD2    C2 8642   0.496   2.467  16.781  0.0743 -0.1299 -0.5106
  583MPD2    C3 8643   0.454   2.449  16.913 -0.6533  1.3069  0.6676
  583MPD2    C4 8644   0.507   2.346  16.985 -0.1387 -0.1206 -0.3942
  583MPD2    C5 8645   0.587   2.255  16.921  0.0286  0.8994  0.0472
  583MPD2     H 8646   0.466   2.552  16.720 -1.1028  1.5285  2.3744
  583MPD2    H1 8647   0.484   2.328  17.089 -0.4990 -3.0022 -0.9670
  583MPD2    H2 8648   0.713   2.209  16.769  0.4903  0.0014  1.7256
  583MPD2    H3 8649   0.624   2.168  16.974 -3.2562  0.1776  1.1250
  583MPD2     N 8650   0.381   2.550  16.973  0.4450 -0.3626 -0.0729
  583MPD2    H5 8651   0.361   2.641  16.931  0.9350  0.0092  0.5036
  583MPD2    N1 8652   0.648   2.403  16.594  0.4270  0.3650  0.4589
  583MPD2    H7 8653   0.708   2.328  16.561 -0.7472 -0.8508  1.0774
  584TMC3    C1 8654   0.268   2.676  17.139 -0.6610 -0.2161 -0.3396
  584TMC3    C2 8655   0.281   2.778  17.047 -0.6016 -0.0911  0.2167
  584TMC3    C3 8656   0.315   2.906  17.091  0.6263 -0.4815  0.7624
  584TMC3    C4 8657   0.286   2.698  17.271  0.3008 -0.1492  0.3280
  584TMC3    C5 8658   0.321   2.825  17.317 -0.4004 -0.1693 -0.3572
  584TMC3    C6 8659   0.337   2.929  17.227 -0.3400  0.5335  0.9108
  584TMC3     C 8660   0.321   2.550  17.094  0.7746  0.6714  0.3337
  584TMC3     O 8661   0.313   2.462  17.180 -0.4510  0.3143 -0.0943
  584TMC3     H 8662   0.257   2.768  16.942 -0.1937  1.4465 -0.0187
  584TMC3    H1 8663   0.277   2.626  17.351  0.2578 -2.4559 -1.7579
  584TMC3    H2 8664   0.376   3.026  17.254  0.7630  0.1488  0.6690
  584TMC3    C7 8665   0.325   2.837  17.459  0.4627 -0.4466  0.0945
  584TMC3    C8 8666   0.326   3.008  16.997  0.1061 -0.0782 -0.7935
  584TMC3    O1 8667   0.375   2.742  17.514 -0.1276  0.0778  0.0992
  584TMC3    O2 8668   0.338   2.973  16.880  0.4558 -0.2249  0.6178
  585MPD2     C 8669   0.234   1.830   0.639  0.4863  0.0790  0.5457
  585MPD2    C1 8670   0.102   1.799   0.646  0.0556 -0.0206 -0.0884
  585MPD2    C2 8671   0.028   1.757   0.533  0.1040 -0.0563 -0.5287
  585MPD2    C3 8672   0.097   1.735   0.417 -0.4655 -0.2161  0.8685
  585MPD2    C4 8673   0.232   1.764   0.414 -0.1500  0.0853 -0.2081
  585MPD2    C5 8674   0.303   1.805   0.521  0.2539 -0.5282  0.1325
  585MPD2     H 8675   4.639   1.749   0.538  0.0083  2.6617  2.1566
  585MPD2    H1 8676   0.277   1.762   0.316 -1.1264  0.6646 -0.6656
  585MPD2    H2 8677   0.285   1.878   0.722 -1.6894  0.0026  1.8998
  585MPD2    H3 8678   0.406   1.829   0.499  0.3855  0.4241  1.7945
  585MPD2     N 8679   0.032   1.700   0.298  0.2413  0.5803 -0.4880
  585MPD2    H5 8680   0.091   1.689   0.216 -0.0966  1.7597 -0.8801
  585MPD2    N1 8681   0.042   1.818   0.769 -0.5580  0.3476  0.0860
  585MPD2    H7 8682   0.089   1.860   0.849  2.0395 -0.2926 -1.1128
  586TMC3    C1 8683   4.583   1.667   0.134  0.4822 -0.4559  0.7807
  586TMC3    C2 8684   4.688   1.648   0.043  0.0537  0.2981  0.4009
  586TMC3    C3 8685   4.653   1.587  17.610 -0.1565  0.0435 -0.2476
  586TMC3    C4 8686   4.454   1.635   0.101 -0.4469  1.0566  0.3631
  586TMC3    C5 8687   4.420   1.573  17.669  0.8373 -0.4000  0.5565
  586TMC3    C6 8688   4.523   1.543  17.587  0.8405 -0.1454  1.3857
  586TMC3     C 8689   4.613   1.707   0.274  0.2394  0.1883  0.5701
  586TMC3     O 8690   4.519   1.706   0.355 -0.2429  1.0840  0.6429
  586TMC3     H 8691   0.070   1.683   0.058 -0.4882  0.9217  2.7836
  586TMC3    H1 8692   4.375   1.648   0.174 -1.1481  1.5489 -0.4784
  586TMC3    H2 8693   4.500   1.496  17.492  4.1058  0.0145  0.5014
  586TMC3    C7 8694   4.315   1.474  17.673  0.8975 -0.5103 -1.0166
  586TMC3    C8 8695   0.040   1.505  17.562 -0.2050 -0.0850  0.1894
  586TMC3    O1 8696   4.350   1.370  17.617 -0.2793 -0.3585 -0.8791
  586TMC3    O2 8697   0.121   1.464  17.645 -0.3427  0.7163  0.3267
  587TMC3    C1 8698   2.008   0.585  16.197  0.7652  0.1996  0.3242
  587TMC3    C2 8699   1.992   0.617  16.329  0.1173  0.2877  0.8063
  587TMC3    C3 8700   2.095   0.584  16.407 -0.3511 -0.6260  0.1289
  587TMC3    C4 8701   2.117   0.524  16.147 -0.4922 -0.2890 -0.1175
  587TMC3    C5 8702   2.213   0.481  16.233 -0.2871  0.3903  0.1583
  587TMC3    C6 8703   2.203   0.507  16.366 -0.4242  0.0773  0.4790
  587TMC3     C 8704   1.878   0.589  16.131 -0.3709  0.7079 -0.3837
  587TMC3     O 8705   1.872   0.642  16.020 -0.2989  0.1219  0.4309
  587TMC3     H 8706   1.905   0.675  16.358  1.3461  1.9227  1.1945
  587TMC3    H1 8707   2.119   0.492  16.043 -2.4251 -1.4887  0.2256
  587TMC3    H2 8708   2.280   0.481  16.438  0.1219  0.5160  0.0541
  587TMC3    C7 8709   2.274   0.358  16.204 -0.1541 -0.3808 -0.1273
  587TMC3    C8 8710   2.100   0.626  16.545  0.8808  0.2567 -0.1801
  587TMC3    O1 8711   2.287   0.342  16.083 -0.0928 -0.1036 -0.4875
  587TMC3    O2 8712   2.189   0.575  16.609  0.2553 -0.3273  0.3512
  588TMC3    C1 8713   0.172   3.221   9.739 -0.1861  0.5968 -0.4384
  588TMC3    C2 8714   0.184   3.093   9.769 -0.1951 -0.1573  0.4945
  588TMC3    C3 8715   0.281   3.061   9.867  0.1040  0.2468  0.2397
  588TMC3    C4 8716   0.228   3.319   9.820  0.7818 -0.0371 -0.5394
  588TMC3    C5 8717   0.327   3.280   9.913 -0.5830 -0.2211  0.1294
  588TMC3    C6 8718   0.352   3.151   9.933  0.7404 -0.1720 -0.6483
  588TMC3     C 8719   0.059   3.256   9.656 -0.4702 -0.6745 -0.5859
  588TMC3     O 8720   4.683   3.181   9.649  0.1377  0.3517 -0.4944
  588TMC3     H 8721   0.138   3.018   9.706  0.4548 -0.2710  0.1576
  588TMC3    H1 8722   0.196   3.423   9.816  0.3003 -0.1216  0.9182
  588TMC3    H2 8723   0.439   3.127   9.994  0.7880  1.6301 -0.0147
  588TMC3    C7 8724   0.361   3.382  10.006  0.3873 -0.4950  0.6791
  588TMC3    C8 8725   0.251   2.932   9.935  0.1876  0.0601 -0.1865
  588TMC3    O1 8726   0.388   3.355  10.120 -0.1016 -0.1858 -0.0739
  588TMC3    O2 8727   0.176   2.856   9.876 -0.2468  0.1395 -0.2598
  589TMC3    C1 8728   3.725   0.841   2.121 -0.1058  0.1152  1.1953
  589TMC3    C2 8729   3.792   0.775   2.221 -0.5112  0.4315 -0.6636
  589TMC3    C3 8730   3.879   0.682   2.173 -0.0440  0.4299  0.2066
  589TMC3    C4 8731   3.746   0.828   1.989  0.5755  0.8407 -0.0694
  589TMC3    C5 8732   3.837   0.731   1.953  0.1539 -0.4296  0.6386
  589TMC3    C6 8733   3.898   0.654   2.044  0.1767 -0.3144 -0.5564
  589TMC3     C 8734   3.631   0.942   2.161  1.1772 -0.1314 -0.3164
  589TMC3     O 8735   3.531   0.957   2.096 -0.1820 -0.1221 -0.4776
  589TMC3     H 8736   3.786   0.798   2.326  0.5793  1.8009 -0.9058
  589TMC3    H1 8737   3.689   0.888   1.919  1.8488  0.2041 -1.6462
  589TMC3    H2 8738   3.970   0.578   2.017 -1.2019 -1.8116 -0.0456
  589TMC3    C7 8739   3.931   0.769   1.847  0.1136 -0.3436  0.5507
  589TMC3    C8 8740   3.999   0.670   2.254 -0.0537  0.0723 -0.1819
  589TMC3    O1 8741   4.051   0.744   1.865 -0.1635  0.5349  0.7679
  589TMC3    O2 8742   3.991   0.650   2.371  0.4904  0.3754  0.0481
  590MPD2     C 8743   2.692   3.244  16.602 -0.1643  0.2264 -0.0880
  590MPD2    C1 8744   2.649   3.262  16.475  0.2066  0.3080  0.9892
  590MPD2    C2 8745   2.740   3.316  16.382 -0.5136 -0.2575 -0.1417
  590MPD2    C3 8746   2.863   3.350  16.434  0.3778  0.2245 -0.3069
  590MPD2    C4 8747   2.896   3.341  16.564  0.8061 -0.9157 -0.7140
  590MPD2    C5 8748   2.814   3.283  16.654 -0.0278 -0.3370  0.3658
  590MPD2     H 8749   2.704   3.335  16.281  2.1405 -0.5658 -1.1532
  590MPD2    H1 8750   2.990   3.381  16.600  0.3051 -0.3172 -0.0658
  590MPD2    H2 8751   2.626   3.211  16.682  2.4029  1.2005  2.4442
  590MPD2    H3 8752   2.849   3.271  16.755 -0.3117 -2.3016  0.2364
  590MPD2     N 8753   2.945   3.420  16.341 -0.4517  0.1124 -0.2312
  590MPD2    H5 8754   2.914   3.422  16.244 -1.5572 -0.0744  0.1171
  590MPD2    N1 8755   2.510   3.237  16.454  0.3987  0.3965  0.0270
  590MPD2    H7 8756   2.450   3.225  16.534 -0.6961  1.8759 -0.5680
  591TMC3    C1 8757   3.095   3.580  16.258  0.0745  0.4349 -0.0250
  591TMC3    C2 8758   3.086   3.513  16.141  0.3241  0.3399 -0.3569
  591TMC3    C3 8759   3.093   3.598  16.032  0.5931 -0.2419 -0.4288
  591TMC3    C4 8760   3.086   3.713  16.272  0.0034  0.2933  0.3258
  591TMC3    C5 8761   3.083   3.792  16.160  0.0355  0.1121  0.1015
  591TMC3    C6 8762   3.086   3.735  16.035  0.1255 -0.0950 -0.0511
  591TMC3     C 8763   3.051   3.507  16.376 -0.1460  0.1118 -0.0662
  591TMC3     O 8764   3.087   3.558  16.484  0.0537  0.1752  0.0298
  591TMC3     H 8765   3.102   3.406  16.133 -2.1654 -0.1232  0.7426
  591TMC3    H1 8766   3.088   3.753  16.373 -0.1078  1.0537  0.0262
  591TMC3    H2 8767   3.081   3.797  15.947  3.1883 -2.2935 -1.7811
  591TMC3    C7 8768   3.067   3.940  16.175 -0.1811  0.2659 -0.0910
  591TMC3    C8 8769   3.114   3.522  15.908  0.1185  0.1921  0.0658
  591TMC3    O1 8770   3.028   3.981  16.286 -0.0208  0.9788  0.0821
  591TMC3    O2 8771   3.173   3.411  15.907 -0.1697 -0.2171  0.0959
  592MPD2     C 8772   3.961   1.222  11.380 -0.0895  0.2745 -0.1695
  592MPD2    C1 8773   3.875   1.268  11.482 -0.8961 -0.5999  0.3720
  592MPD2    C2 8774   3.785   1.174  11.532  0.0066  0.2303 -0.4677
  592MPD2    C3 8775   3.780   1.046  11.481  0.1960  0.5457  0.1185
  592MPD2    C4 8776   3.862   1.010  11.378  0.0435  0.4923 -0.4134
  592MPD2    C5 8777   3.949   1.096  11.325  0.1472  0.8971  0.6767
  592MPD2     H 8778   3.731   1.196  11.623 -0.4667  1.1779 -0.9788
  592MPD2    H1 8779   3.871   0.907  11.346 -0.2098 -0.0092  1.1004
  592MPD2    H2 8780   4.030   1.294  11.337 -1.3750  1.0913 -0.8925
  592MPD2    H3 8781   4.020   1.067  11.248  0.0443  2.0723  0.1512
  592MPD2     N 8782   3.691   0.956  11.542  0.4071  0.0805  0.2358
  592MPD2    H5 8783   3.623   0.996  11.606  0.1857 -0.1038  0.1126
  592MPD2    N1 8784   3.887   1.401  11.527  0.1963 -0.1606  0.6697
  592MPD2    H7 8785   3.951   1.460  11.475 -2.2696  1.3375 -0.6583
  593TMC3    C1 8786   3.805   1.599  11.629  0.0588  0.3193  0.0010
  593TMC3    C2 8787   3.761   1.665  11.743 -0.8160  0.0158 -0.1894
  593TMC3    C3 8788   3.775   1.798  11.748  0.3118  0.5176 -0.4374
  593TMC3    C4 8789   3.852   1.666  11.517  0.0332  0.1760  0.0599
  593TMC3    C5 8790   3.850   1.801  11.539  0.2852  0.0212 -0.2049
  593TMC3    C6 8791   3.812   1.874  11.650 -0.2122  0.2237 -0.2459
  593TMC3     C 8792   3.800   1.454  11.627 -0.0476 -0.2925 -0.1357
  593TMC3     O 8793   3.759   1.406  11.729 -0.2664  0.5725  0.0061
  593TMC3     H 8794   3.728   1.612  11.831  1.4193 -0.7425  0.1879
  593TMC3    H1 8795   3.886   1.621  11.424 -0.9690 -2.2589  0.8513
  593TMC3    H2 8796   3.828   1.981  11.659  0.9905 -0.1414  1.8865
  593TMC3    C7 8797   3.905   1.884  11.435  0.2457  0.0840  0.7980
  593TMC3    C8 8798   3.784   1.853  11.881  0.7191 -0.5674 -0.2587
  593TMC3    O1 8799   3.865   2.000  11.446  0.1905 -0.1950  0.3886
  593TMC3    O2 8800   3.815   1.784  11.974 -0.0938 -0.0821  0.0122
  594MPD2     C 8801   2.191   4.183  14.314  0.8278  0.4892 -0.1856
  594MPD2    C1 8802   2.103   4.283  14.271 -0.6108  0.2283  0.5838
  594MPD2    C2 8803   2.159   4.399  14.218 -0.8144  0.1501  0.5512
  594MPD2    C3 8804   2.296   4.422  14.223 -0.3368 -0.1553  0.1872
  594MPD2    C4 8805   2.379   4.323  14.277  0.6030 -0.0238 -0.7657
  594MPD2    C5 8806   2.332   4.200  14.318 -0.0037 -0.5326 -0.5212
  594MPD2     H 8807   2.108   4.479  14.167  0.6155 -0.3236 -1.6347
  594MPD2    H1 8808   2.487   4.330  14.288  0.5135  0.7038 -0.2952
  594MPD2    H2 8809   2.146   4.086  14.328  0.9870  0.2407 -1.3702
  594MPD2    H3 8810   2.410   4.126  14.331  0.6091 -0.0440 -1.3885
  594MPD2     N 8811   2.347   4.543  14.171  0.3282 -0.6116 -0.0331
  594MPD2    H5 8812   2.286   4.607  14.122 -0.0656 -0.6586  0.3953
  594MPD2    N1 8813   1.957   4.266  14.277  0.7340  0.1708  0.5995
  594MPD2    H7 8814   1.910   4.201  14.339  0.2796 -0.8436 -0.8050
  595TMC3    C1 8815   2.680   0.140  14.110  0.0061  0.4574  0.0067
  595TMC3    C2 8816   2.635   0.006  14.083 -0.7920 -0.0810  0.5342
  595TMC3    C3 8817   2.507   4.699  14.114  0.4699 -0.2770  0.1412
  595TMC3    C4 8818   2.593   0.242  14.152  0.1596 -0.3203 -0.0952
  595TMC3    C5 8819   2.460   0.210  14.164 -0.0648 -0.4994 -0.0528
  595TMC3    C6 8820   2.417   0.080  14.146  0.0624 -0.2241 -0.0658
  595TMC3     C 8821   2.817   0.168  14.126 -0.0621  0.0211 -0.0757
  595TMC3     O 8822   2.844   0.282  14.168  0.3529 -0.0975  0.0365
  595TMC3     H 8823   2.703   4.645  14.058  0.0924  0.8910 -0.2219
  595TMC3    H1 8824   2.635   0.339  14.173 -1.1368 -0.0485  1.2388
  595TMC3    H2 8825   2.309   0.066  14.151 -0.1049  0.1703 -2.2792
  595TMC3    C7 8826   2.383   0.269  14.273 -0.2140  0.9118 -0.3598
  595TMC3    C8 8827   2.484   4.565  14.160  0.3284  0.0667  0.2619
  595TMC3    O1 8828   2.260   0.250  14.277  0.0095  0.3034  0.0430
  595TMC3    O2 8829   2.592   4.507  14.181  0.2134 -0.8715  0.4001
  596MPD2     C 8830   1.497   2.482  16.563 -0.0550  0.1340  0.0828
  596MPD2    C1 8831   1.422   2.563  16.489 -0.0369  0.2389 -0.1287
  596MPD2    C2 8832   1.411   2.542  16.355  0.5169 -0.0350 -0.1646
  596MPD2    C3 8833   1.460   2.424  16.293 -0.0835 -0.0170 -0.1957
  596MPD2    C4 8834   1.537   2.345  16.377  0.4028  0.9235  0.0263
  596MPD2    C5 8835   1.544   2.367  16.507 -0.0840  0.3719 -0.4246
  596MPD2     H 8836   1.360   2.621  16.300 -1.5673 -0.8163  0.6339
  596MPD2    H1 8837   1.579   2.251  16.342 -0.0699  1.1417 -1.1189
  596MPD2    H2 8838   1.510   2.500  16.669  0.5205 -1.5094  0.2923
  596MPD2    H3 8839   1.594   2.293  16.569  0.6633  0.0794 -1.3758
  596MPD2     N 8840   1.451   2.395  16.156  0.6171 -0.1113 -0.0956
  596MPD2    H5 8841   1.487   2.304  16.126  1.5497  0.3407 -0.3517
  596MPD2    N1 8842   1.363   2.683  16.532  0.1463  0.5134 -0.3438
  596MPD2    H7 8843   1.323   2.754  16.471  0.0732  0.5472 -0.2572
  597TMC3    C1 8844   1.270   2.831  16.690  0.0075  1.3110 -0.3833
  597TMC3    C2 8845   1.306   2.941  16.615  0.2541 -0.8446  0.2536
  597TMC3    C3 8846   1.241   3.062  16.641 -0.0895  1.2328 -0.0335
  597TMC3    C4 8847   1.180   2.841  16.795 -0.3208  0.0613  0.4344
  597TMC3    C5 8848   1.124   2.963  16.820 -0.3479  0.0311 -0.7100
  597TMC3    C6 8849   1.145   3.075  16.741  0.1521  0.6125 -0.6582
  597TMC3     C 8850   1.342   2.703  16.663 -0.1216  0.3271 -0.2362
  597TMC3     O 8851   1.342   2.625  16.759  0.0714 -0.3286 -0.6537
  597TMC3     H 8852   1.381   2.931  16.536 -0.6414  1.8943 -0.9257
  597TMC3    H1 8853   1.152   2.756  16.856  1.2005 -1.2360 -0.6656
  597TMC3    H2 8854   1.108   3.174  16.765 -0.8904 -0.1044  0.7117
  597TMC3    C7 8855   1.025   2.960  16.926 -0.8298  0.3075  0.2789
  597TMC3    C8 8856   1.253   3.165  16.536  0.4432 -0.8297  0.6769
  597TMC3    O1 8857   1.026   2.869  17.009  0.0365  0.1452 -0.0913
  597TMC3    O2 8858   1.373   3.179  16.497 -0.2993 -0.3438  0.2138
  598TMC3    C1 8859   4.232   4.119  15.480  0.1603  0.2204 -0.1333
  598TMC3    C2 8860   4.132   4.034  15.510 -0.0448  0.4332  0.4649
  598TMC3    C3 8861   4.029   4.028  15.428 -0.4658  0.1868  0.1786
  598TMC3    C4 8862   4.231   4.185  15.363 -0.2369 -0.5228  0.4191
  598TMC3    C5 8863   4.120   4.179  15.281 -0.6013 -0.4125  0.9675
  598TMC3    C6 8864   4.017   4.094  15.308 -0.4607  0.9130 -0.2113
  598TMC3     C 8865   4.289   4.190  15.591  0.2774  0.5437 -0.1138
  598TMC3     O 8866   4.400   4.237  15.575 -0.6465 -0.2053 -0.2540
  598TMC3     H 8867   4.138   3.984  15.606  0.0764  0.8507  0.6772
  598TMC3    H1 8868   4.316   4.248  15.343 -2.3092  1.0651 -3.3806
  598TMC3    H2 8869   3.928   4.105  15.247 -1.2617  2.3563  1.2247
  598TMC3    C7 8870   4.109   4.246  15.159 -0.3363 -0.1392  0.0893
  598TMC3    C8 8871   3.950   3.908  15.440 -0.3598  0.2787 -0.1286
  598TMC3    O1 8872   4.038   4.195  15.071  0.5957  0.1633 -0.2402
  598TMC3    O2 8873   4.001   3.824  15.511  0.4237 -0.1139  0.2126
  599MPD2     C 8874   4.273   1.609  15.989 -0.3841 -0.9802 -0.8882
  599MPD2    C1 8875   4.224   1.482  16.012  0.2172  0.0694  0.6625
  599MPD2    C2 8876   4.125   1.457  16.110  0.3040  0.1062 -0.0046
  599MPD2    C3 8877   4.077   1.565  16.179  0.2936  0.3306  0.4099
  599MPD2    C4 8878   4.137   1.689  16.163 -0.1230 -0.3860  0.2372
  599MPD2    C5 8879   4.234   1.712  16.065  0.4428 -0.1881  0.0547
  599MPD2     H 8880   4.076   1.360  16.117 -0.5609  0.6546  1.5825
  599MPD2    H1 8881   4.110   1.777  16.219  2.8281  1.8000 -1.8208
  599MPD2    H2 8882   4.355   1.620  15.919 -0.7493  2.1381 -0.8208
  599MPD2    H3 8883   4.288   1.805  16.072  0.7219 -0.2583 -1.2362
  599MPD2     N 8884   3.989   1.557  16.281 -0.3935  0.2139  0.1586
  599MPD2    H5 8885   3.970   1.641  16.334 -0.0518 -0.6243  1.6092
  599MPD2    N1 8886   4.295   1.379  15.944 -0.2558  0.2348  0.5317
  599MPD2    H7 8887   4.354   1.419  15.871  2.0365 -1.6510  1.3640
  600TMC3    C1 8888   3.836   1.461  16.440 -0.0068  0.9434 -0.2963
  600TMC3    C2 8889   3.740   1.369  16.454 -0.0211  0.0147  0.7305
  600TMC3    C3 8890   3.675   1.377  16.575  0.0753  0.0887 -0.7642
  600TMC3    C4 8891   3.863   1.567  16.526 -0.4338  0.5114  0.3340
  600TMC3    C5 8892   3.790   1.569  16.643 -0.4986 -0.2098  0.1156
  600TMC3    C6 8893   3.701   1.474  16.667 -0.2459 -0.1283  0.1429
  600TMC3     C 8894   3.896   1.451  16.307  0.3157 -0.4177  0.7101
  600TMC3     O 8895   3.854   1.370  16.226 -0.7888 -0.0989  0.2233
  600TMC3     H 8896   3.721   1.285  16.388 -0.5135 -0.6578  1.7303
  600TMC3    H1 8897   3.939   1.642  16.508  0.8526 -0.5388  1.3723
  600TMC3    H2 8898   3.654   1.475  16.765 -1.7808  3.3232 -0.6459
  600TMC3    C7 8899   3.762   1.695  16.718 -0.3261 -0.5429  0.4209
  600TMC3    C8 8900   3.588   1.268  16.620  0.0892 -0.2981 -0.5859
  600TMC3    O1 8901   3.648   1.711  16.761  0.3572  0.1907 -0.2474
  600TMC3    O2 8902   3.545   1.258  16.734  0.1605 -0.4456 -0.2723
  601MPD2     C 8903   1.315   4.594   0.284 -0.2367  0.7911  0.4038
  601MPD2    C1 8904   1.225   4.614   0.180  0.5463  0.0346 -0.3872
  601MPD2    C2 8905   1.129   4.519   0.161 -0.5618  0.0945 -0.1737
  601MPD2    C3 8906   1.122   4.405   0.235 -0.8379  0.3874 -0.1388
  601MPD2    C4 8907   1.211   4.385   0.337  0.4319 -0.8347 -0.3299
  601MPD2    C5 8908   1.307   4.478   0.365 -0.6215 -0.7508 -0.2218
  601MPD2     H 8909   1.065   4.531   0.075 -1.7268  2.1452  0.9722
  601MPD2    H1 8910   1.225   4.297   0.398  0.1473  0.0149  0.9779
  601MPD2    H2 8911   1.394   4.666   0.302  0.5433  0.9821 -3.8748
  601MPD2    H3 8912   1.382   4.447   0.436  1.6643  1.1521 -1.8127
  601MPD2     N 8913   1.029   4.301   0.213  0.3467 -0.1895 -0.0938
  601MPD2    H5 8914   1.044   4.212   0.260 -0.9225 -0.7425 -0.7155
  601MPD2    N1 8915   1.246   0.003   0.095 -0.0838 -0.2989 -0.1368
  601MPD2    H7 8916   1.172   0.016   0.026  1.1275 -0.3052 -1.4225
  602TMC3    C1 8917   1.354   0.177  17.662 -0.0822 -0.8417 -0.2458
  602TMC3    C2 8918   1.464   0.217  17.587 -0.3775 -0.2920 -0.2659
  602TMC3    C3 8919   1.449   0.326  17.503 -0.2473  0.7362 -0.5952
  602TMC3    C4 8920   1.232   0.247  17.653 -0.1733 -0.1894 -0.2000
  602TMC3    C5 8921   1.221   0.352  17.561  0.2650  0.6361  0.0333
  602TMC3    C6 8922   1.331   0.397  17.489  0.4684  0.4285  0.3321
  602TMC3     C 8923   1.367   0.073   0.078 -0.1005  0.2825 -0.1938
  602TMC3     O 8924   1.484   0.055   0.115 -0.1240  0.0681 -0.5101
  602TMC3     H 8925   1.548   0.149  17.593  1.6093  2.1780 -0.2023
  602TMC3    H1 8926   1.140   0.225   0.024  0.6233 -0.2410  1.1885
  602TMC3    H2 8927   1.342   0.493  17.441  4.0343 -0.3817 -0.4768
  602TMC3    C7 8928   1.088   0.412  17.542 -0.5147 -0.1565  0.4590
  602TMC3    C8 8929   1.549   0.335  17.397 -0.5524 -0.5447  0.0017
  602TMC3    O1 8930   0.995   0.396  17.621  0.1179 -0.1687 -0.5560
  602TMC3    O2 8931   1.666   0.300  17.420  0.5238 -0.0916  0.3956
  603TMC3    C1 8932   0.323   0.588  10.953  0.0923  0.2455 -0.4131
  603TMC3    C2 8933   0.318   0.556  11.087 -0.3294  0.5082  0.6377
  603TMC3    C3 8934   0.271   0.653  11.173  0.5107 -1.0172 -0.1965
  603TMC3    C4 8935   0.291   0.717  10.915  0.1206  0.0325 -0.7057
  603TMC3    C5 8936   0.255   0.809  11.005 -0.8307  0.2721  0.1053
  603TMC3    C6 8937   0.242   0.779  11.138 -0.9221 -0.1767  0.4676
  603TMC3     C 8938   0.336   0.482  10.858  0.1169 -0.8375  0.5073
  603TMC3     O 8939   0.423   0.395  10.882 -0.0531  0.3066 -0.5102
  603TMC3     H 8940   0.324   0.452  11.117 -0.8834 -0.3739 -2.2605
  603TMC3    H1 8941   0.311   0.746  10.812  0.3025  2.3706 -0.0043
  603TMC3    H2 8942   0.201   0.853  11.206 -2.1957 -0.7650  0.3428
  603TMC3    C7 8943   0.249   0.953  10.962 -0.2000  0.5739  0.1353
  603TMC3    C8 8944   0.210   0.593  11.287 -0.3626  0.4414 -0.0561
  603TMC3    O1 8945   0.260   1.043  11.047 -0.1829  0.0566 -0.2985
  603TMC3    O2 8946   0.232   0.471  11.310  0.9600  0.5431  0.5098
  604MPD2     C 8947   0.281   3.816  15.922 -0.5388  0.3538  0.1356
  604MPD2    C1 8948   0.183   3.717  15.932 -0.8438 -0.7715 -0.9198
  604MPD2    C2 8949   0.191   3.603  15.845  0.0015  0.3460 -0.4583
  604MPD2    C3 8950   0.289   3.592  15.749  0.3962 -0.1014 -0.5871
  604MPD2    C4 8951   0.390   3.686  15.752  0.0528 -0.8307 -0.7436
  604MPD2    C5 8952   0.382   3.792  15.838  0.4564  0.6206  0.1698
  604MPD2     H 8953   0.121   3.522  15.863  0.4799  0.3446  1.4162
  604MPD2    H1 8954   0.474   3.681  15.684 -1.1795  1.9948 -2.4758
  604MPD2    H2 8955   0.297   3.897  15.993  1.1937  0.4069 -0.3122
  604MPD2    H3 8956   0.469   3.858  15.834 -0.5988  1.9623 -0.7189
  604MPD2     N 8957   0.280   3.476  15.670  0.5575 -0.2460 -0.0484
  604MPD2    H5 8958   0.192   3.426  15.669  0.1678  0.4012  2.2290
  604MPD2    N1 8959   0.084   3.727  16.029 -0.1499 -0.0847 -0.2622
  604MPD2    H7 8960   0.097   3.800  16.100 -1.3374  1.8724 -2.0534
  605TMC3    C1 8961   4.619   3.680  16.168 -0.2938 -0.2612 -0.2588
  605TMC3    C2 8962   4.697   3.721  16.273  0.7425  0.1374  0.1470
  605TMC3    C3 8963   4.635   3.756  16.392 -0.6402 -0.4834  0.3553
  605TMC3    C4 8964   4.479   3.694  16.170  0.3434  0.3118  0.2111
  605TMC3    C5 8965   4.420   3.745  16.288 -0.2888 -0.3160 -0.1596
  605TMC3    C6 8966   4.501   3.777  16.392 -0.0536 -0.5524 -0.0327
  605TMC3     C 8967   4.685   3.659  16.035  0.1214 -0.2070 -0.3108
  605TMC3     O 8968   4.630   3.594  15.946  0.0090 -0.7028  0.2288
  605TMC3     H 8969   0.085   3.733  16.268  0.8909 -0.5528  1.4606
  605TMC3    H1 8970   4.426   3.672  16.079  1.6150 -1.3034 -0.1537
  605TMC3    H2 8971   4.448   3.807  16.481  0.2562  0.9351 -0.3471
  605TMC3    C7 8972   4.278   3.777  16.305  0.3469  0.0780  1.4035
  605TMC3    C8 8973   0.004   3.839  16.481  0.1807 -0.0421  0.2826
  605TMC3    O1 8974   4.245   3.851  16.395  0.3594 -0.1072 -0.2585
  605TMC3    O2 8975   0.125   3.815  16.481 -0.5678 -0.5224 -0.1425
  606TMC3    C1 8976   2.153   2.341  16.968 -0.4920 -0.5621 -0.0581
  606TMC3    C2 8977   2.226   2.234  17.022  0.6320  0.0509  0.2784
  606TMC3    C3 8978   2.164   2.108  17.036  0.4648 -0.4834 -0.2521
  606TMC3    C4 8979   2.029   2.314  16.916  0.0856 -0.1910 -0.0459
  606TMC3    C5 8980   1.967   2.195  16.937  0.8214 -0.8380 -0.2774
  606TMC3    C6 8981   2.034   2.090  16.991 -0.4223  0.2379  0.5424
  606TMC3     C 8982   2.213   2.470  16.973 -0.5241  1.2684  0.0884
  606TMC3     O 8983   2.174   2.554  16.897  0.0978 -0.0663  0.2211
  606TMC3     H 8984   2.330   2.238  17.050  0.8896  0.4097 -0.7505
  606TMC3    H1 8985   1.974   2.399  16.878  1.7427  0.9588  0.1233
  606TMC3    H2 8986   1.990   1.991  16.995  0.7492 -0.2242  2.1933
  606TMC3    C7 8987   1.832   2.182  16.892 -0.4390 -0.4703  0.3421
  606TMC3    C8 8988   2.229   2.016  17.135  0.6400  0.3067 -0.2454
  606TMC3    O1 8989   1.795   2.262  16.810 -0.6772  1.0456 -0.0605
  606TMC3    O2 8990   2.340   2.049  17.173  0.0688 -0.5110  0.3226
  607MPD2     C 8991   3.963   0.685  11.677 -0.2952 -0.1178 -0.4380
  607MPD2    C1 8992   3.929   0.751  11.786  0.4742  0.1910 -1.0308
  607MPD2    C2 8993   3.851   0.697  11.885  0.5806  0.2675  0.3252
  607MPD2    C3 8994   3.798   0.571  11.863 -0.0497 -0.0473 -0.3232
  607MPD2    C4 8995   3.829   0.510  11.745  0.5295  0.2389 -0.2159
  607MPD2    C5 8996   3.915   0.561  11.655  0.2929 -0.1405  0.0629
  607MPD2     H 8997   3.841   0.747  11.981  1.9831 -0.5233  0.8927
  607MPD2    H1 8998   3.803   0.408  11.718 -1.4758 -0.4388  4.3520
  607MPD2    H2 8999   4.015   0.735  11.596 -0.3002  2.3591  1.0939
  607MPD2    H3 9000   3.938   0.517  11.558  0.9799  0.2295  0.0547
  607MPD2     N 9001   3.741   0.514  11.978  0.1323  0.1273  0.1601
  607MPD2    H5 9002   3.747   0.563  12.067  0.7961  0.4966 -0.0854
  607MPD2    N1 9003   3.977   0.881  11.809  0.2110 -0.0777  0.1165
  607MPD2    H7 9004   3.946   0.933  11.891  0.9717  1.9090 -0.8350
  608TMC3    C1 9005   4.104   1.076  11.806  0.4794 -0.3183  0.3039
  608TMC3    C2 9006   4.110   1.064  11.941  0.5948 -0.2562  0.5119
  608TMC3    C3 9007   4.122   1.180  12.017  0.1152  0.5074 -0.1904
  608TMC3    C4 9008   4.124   1.200  11.751 -0.3185 -0.1587 -0.5685
  608TMC3    C5 9009   4.142   1.309  11.828 -0.1537 -0.3686  0.7375
  608TMC3    C6 9010   4.134   1.307  11.963 -0.5278 -0.1793  0.5763
  608TMC3     C 9011   4.066   0.961  11.730 -0.3215  0.0768  0.3687
  608TMC3     O 9012   4.099   0.957  11.610  0.3822 -0.2300 -0.6019
  608TMC3     H 9013   4.122   0.964  11.981  0.2686 -0.3831  0.2929
  608TMC3    H1 9014   4.120   1.217  11.644  2.8020 -1.5344 -0.8947
  608TMC3    H2 9015   4.145   1.394  12.026 -0.2698 -0.5194  0.9950
  608TMC3    C7 9016   4.193   1.433  11.759 -1.0531 -0.0704  0.4181
  608TMC3    C8 9017   4.109   1.167  12.165  0.2108 -0.1245 -0.0392
  608TMC3    O1 9018   4.237   1.414  11.646  0.2992 -0.0793  0.2236
  608TMC3    O2 9019   4.162   1.249  12.241  0.3589 -0.7495 -0.0253
  609TMC3    C1 9020   3.091   4.135   8.986  0.0505  0.2384 -0.8633
  609TMC3    C2 9021   3.184   4.203   8.903 -0.1925 -0.5053  0.4638
  609TMC3    C3 9022   3.313   4.163   8.906  0.6117  0.5188  0.1014
  609TMC3    C4 9023   3.124   4.032   9.075  0.5600 -0.4319 -0.0033
  609TMC3    C5 9024   3.258   4.011   9.078 -0.2569  0.0172  0.8241
  609TMC3    C6 9025   3.354   4.064   8.997  0.0452 -0.6901  0.0796
  609TMC3     C 9026   2.951   4.180   8.977  0.5719 -0.7106 -0.3394
  609TMC3     O 9027   2.919   4.242   8.880  0.5458 -0.0973  0.2497
  609TMC3     H 9028   3.153   4.279   8.833  2.4551  1.9099  1.8615
  609TMC3    H1 9029   3.056   3.979   9.141  0.9682 -1.0100 -0.0460
  609TMC3    H2 9030   3.458   4.035   9.006 -0.5799 -2.7021  0.9058
  609TMC3    C7 9031   3.315   3.928   9.184 -0.3545 -1.6523 -0.0301
  609TMC3    C8 9032   3.417   4.260   8.873  0.0721 -0.1691  0.1288
  609TMC3    O1 9033   3.426   3.957   9.221  0.0425 -0.7787 -0.4391
  609TMC3    O2 9034   3.534   4.236   8.913  0.0456  0.3391 -0.0806
  610TMC3    C1 9035   4.555   0.587  12.531  0.1641  0.0958 -0.1933
  610TMC3    C2 9036   4.577   0.676  12.434  0.1310 -0.2860  0.6514
  610TMC3    C3 9037   4.696   0.753  12.435 -0.8961 -0.5547  0.1513
  610TMC3    C4 9038   4.647   0.561  12.627  0.6845 -0.0620 -0.7127
  610TMC3    C5 9039   0.039   0.637  12.629  0.3056  0.0673 -0.9652
  610TMC3    C6 9040   0.064   0.738  12.539  0.3849  0.3195  0.3836
  610TMC3     C 9041   4.424   0.529  12.547  0.2353  0.0497  0.4533
  610TMC3     O 9042   4.347   0.527  12.453 -0.0983  0.1385  0.0694
  610TMC3     H 9043   4.502   0.694  12.358  1.4067  0.9998 -0.2903
  610TMC3    H1 9044   4.646   0.476  12.694 -0.6631  0.4940 -0.0213
  610TMC3    H2 9045   0.149   0.803  12.556  0.2053  0.2624  1.4790
  610TMC3    C7 9046   0.111   0.636  12.749 -0.6369 -0.8942  0.2938
  610TMC3    C8 9047   0.016   0.843  12.331  0.4450  0.6453 -0.4649
  610TMC3    O1 9048   0.126   0.741  12.807 -0.5854  0.3848  0.9025
  610TMC3    O2 9049   0.136   0.871  12.321 -0.0492  0.5752  0.6367
  611MPD2     C 9050   4.202   0.515  10.240  0.0116 -0.7642  0.1864
  611MPD2    C1 9051   4.146   0.618  10.173 -0.3062  0.1498 -0.4953
  611MPD2    C2 9052   4.221   0.735  10.161 -0.3837  0.0897  1.0936
  611MPD2    C3 9053   4.349   0.741  10.202 -0.7333 -1.1522  0.7870
  611MPD2    C4 9054   4.406   0.630  10.261 -0.2842 -0.6537  0.3735
  611MPD2    C5 9055   4.335   0.515  10.275 -0.1142  0.2274 -0.2367
  611MPD2     H 9056   4.165   0.819  10.121  0.7062  0.6121  0.6815
  611MPD2    H1 9057   4.506   0.627  10.302 -0.2148  0.7658  0.3049
  611MPD2    H2 9058   4.134   0.433  10.260  0.5206 -1.5350 -1.2408
  611MPD2    H3 9059   4.381   0.427  10.319  1.3604  0.9709 -0.2977
  611MPD2     N 9060   4.427   0.858  10.180  0.1567 -0.5983 -0.5093
  611MPD2    H5 9061   4.519   0.862  10.223 -0.6353 -0.5777  1.1799
  611MPD2    N1 9062   4.004   0.628  10.163 -0.2576 -0.6891  0.3834
  611MPD2    H7 9063   3.957   0.573  10.234 -3.6013 -0.3856 -1.5992
  612TMC3    C1 9064   4.502   1.065  10.094 -0.1081  0.0814 -0.3519
  612TMC3    C2 9065   4.587   1.077  10.200  0.7387  0.5165 -0.2009
  612TMC3    C3 9066   4.640   1.201  10.221 -0.0948  0.3498 -0.2358
  612TMC3    C4 9067   4.474   1.164  10.007  0.0981 -0.6057  0.7436
  612TMC3    C5 9068   4.529   1.287  10.020  0.3275 -0.1592  0.2226
  612TMC3    C6 9069   4.610   1.308  10.126 -1.0021 -0.3296 -0.1641
  612TMC3     C 9070   4.397   0.959  10.093 -1.1177 -0.1203  0.1972
  612TMC3     O 9071   4.293   0.983  10.034  0.3068 -0.2592  0.6457
  612TMC3     H 9072   4.591   0.999  10.275 -1.2896  0.5738 -0.0472
  612TMC3    H1 9073   4.420   1.140   9.916 -2.0053  0.2479  1.7587
  612TMC3    H2 9074   4.647   1.408  10.146  1.0062 -1.0223 -0.4694
  612TMC3    C7 9075   4.487   1.391   9.924  0.2084  0.3354  0.2317
  612TMC3    C8 9076   0.006   1.233  10.334  0.5223 -0.4806  0.1843
  612TMC3    O1 9077   4.409   1.349   9.841 -0.1146 -0.1054 -0.4019
  612TMC3    O2 9078   0.019   1.355  10.351  1.0988 -0.7418 -0.4211
  613MPD2     C 9079   2.536   2.479  16.114 -0.3262  0.0848 -0.1844
  613MPD2    C1 9080   2.535   2.349  16.068  0.3312  0.2695 -0.5299
  613MPD2    C2 9081   2.422   2.315  15.991 -0.2427  0.1491 -0.1628
  613MPD2    C3 9082   2.322   2.411  15.967  0.2062  0.2788  0.4165
  613MPD2    C4 9083   2.323   2.532  16.026  0.2919 -0.6512 -0.3816
  613MPD2    C5 9084   2.430   2.569  16.098  0.5516  0.6783 -0.2653
  613MPD2     H 9085   2.416   2.213  15.955 -2.1146  0.3384 -0.4373
  613MPD2    H1 9086   2.251   2.608  15.999  0.6859  0.9012  3.0774
  613MPD2    H2 9087   2.609   2.516  16.185  0.9905 -0.1257 -1.4264
  613MPD2    H3 9088   2.444   2.669  16.136  2.5146  0.0866  0.5763
  613MPD2     N 9089   2.225   2.384  15.864  0.1192 -0.0278  0.0981
  613MPD2    H5 9090   2.175   2.466  15.831 -1.3955 -1.0379 -0.1312
  613MPD2    N1 9091   2.655   2.275  16.085  0.4165  0.5829 -0.7175
  613MPD2    H7 9092   2.735   2.336  16.100 -0.7033  1.8200  0.1642
  614TMC3    C1 9093   2.792   2.130  15.962  0.0905 -0.5916 -0.0345
  614TMC3    C2 9094   2.775   2.017  15.878  0.7023 -0.1340 -0.4191
  614TMC3    C3 9095   2.814   2.027  15.746 -0.3458 -0.2087  0.5002
  614TMC3    C4 9096   2.864   2.236  15.921 -0.0196  0.4304  0.4709
  614TMC3    C5 9097   2.886   2.253  15.790  0.5665  0.2707 -0.0956
  614TMC3    C6 9098   2.858   2.148  15.706  0.4329 -0.2254  0.8099
  614TMC3     C 9099   2.671   2.144  16.035 -0.6882  0.2355  0.0878
  614TMC3     O 9100   2.580   2.058  16.030  0.1632 -0.3938  0.3010
  614TMC3     H 9101   2.704   1.939  15.905  0.3816  0.4509  0.4253
  614TMC3    H1 9102   2.863   2.332  15.971  2.1751  0.6529  0.0946
  614TMC3    H2 9103   2.889   2.159  15.603 -2.0400 -0.2727  0.0653
  614TMC3    C7 9104   2.832   2.380  15.743 -1.0712 -0.5104 -0.1063
  614TMC3    C8 9105   2.703   1.981  15.660  0.0963 -0.4304 -0.4507
  614TMC3    O1 9106   2.844   2.477  15.821 -0.1910  0.3582  0.4244
  614TMC3    O2 9107   2.667   2.076  15.591  0.5558  0.5432 -0.4718
  615MPD2     C 9108   1.716   3.647  16.034  0.0068 -0.4761  0.5279
  615MPD2    C1 9109   1.624   3.748  16.006 -0.0849 -0.5149  0.0051
  615MPD2    C2 9110   1.559   3.755  15.881  0.3645 -0.6956 -0.3035
  615MPD2    C3 9111   1.576   3.656  15.782  0.3151  0.3277 -0.2606
  615MPD2    C4 9112   1.667   3.554  15.807  0.5100  0.6885  0.2748
  615MPD2    C5 9113   1.744   3.563  15.926  0.0726 -0.1264  0.1499
  615MPD2     H 9114   1.494   3.841  15.866 -0.1999 -0.7785  1.6259
  615MPD2    H1 9115   1.688   3.478  15.733 -0.6658 -0.3633  1.0319
  615MPD2    H2 9116   1.771   3.633  16.126  2.6156 -1.2099 -1.1412
  615MPD2    H3 9117   1.823   3.489  15.938 -1.4410 -1.7304  0.2273
  615MPD2     N 9118   1.517   3.664  15.659 -0.3690 -0.6941 -0.5936
  615MPD2    H5 9119   1.556   3.616  15.578  0.9938 -0.2203 -0.2161
  615MPD2    N1 9120   1.589   3.849  16.098  0.2497 -0.6525  0.8143
  615MPD2    H7 9121   1.516   3.914  16.071 -0.1213 -2.0495 -1.5811
  616TMC3    C1 9122   1.622   4.013  16.272  0.4060  0.6799 -0.0829
  616TMC3    C2 9123   1.719   4.064  16.352 -0.4970 -0.3264 -0.2632
  616TMC3    C3 9124   1.692   4.184  16.416  0.1677  0.2994 -0.0801
  616TMC3    C4 9125   1.511   4.084  16.240 -1.1346 -0.0417 -0.3336
  616TMC3    C5 9126   1.489   4.202  16.308 -0.3480  0.3825 -0.1027
  616TMC3    C6 9127   1.573   4.250  16.401  0.2657  0.1583  0.4130
  616TMC3     C 9128   1.655   3.878  16.213  0.1833  0.2210 -0.0128
  616TMC3     O 9129   1.744   3.816  16.267 -0.3796  0.0584 -0.1357
  616TMC3     H 9130   1.805   4.008  16.388 -1.5520 -0.8293  1.4801
  616TMC3    H1 9131   1.432   4.049  16.174  1.0347 -1.8106 -1.9966
  616TMC3    H2 9132   1.558   4.349  16.443  2.8937  0.1791  1.3065
  616TMC3    C7 9133   1.386   4.297  16.251  0.7166 -0.1948 -0.2816
  616TMC3    C8 9134   1.774   4.224  16.528  1.3427  0.6694 -0.4114
  616TMC3    O1 9135   1.419   4.412  16.276 -0.5057  0.1506 -0.5811
  616TMC3    O2 9136   1.709   4.303  16.602  0.1986  0.0264  0.2995
  617MPD2     C 9137   0.085   2.384  14.206 -0.0013 -0.1033  0.4187
  617MPD2    C1 9138   0.036   2.308  14.102  0.8878 -0.1320 -0.1693
  617MPD2    C2 9139   4.623   2.307  14.070 -0.0903 -0.6477  0.1997
  617MPD2    C3 9140   4.538   2.398  14.131 -0.1896  0.3548 -0.5991
  617MPD2    C4 9141   4.585   2.475  14.223  0.1124  0.1311  0.7711
  617MPD2    C5 9142   0.002   2.476  14.258 -0.1266  0.9162  0.3643
  617MPD2     H 9143   4.581   2.235  14.002  0.6552 -0.9354  0.0460
  617MPD2    H1 9144   4.526   2.558  14.260  0.2732  0.0905  1.1282
  617MPD2    H2 9145   0.192   2.394  14.210  0.0197 -0.6041  1.2154
  617MPD2    H3 9146   0.037   2.551  14.328  0.9368 -0.0384  0.8529
  617MPD2     N 9147   4.393   2.386  14.108 -0.6237  0.3578 -0.5167
  617MPD2    H5 9148   4.332   2.443  14.166  0.0965 -0.9872  1.5661
  617MPD2    N1 9149   0.125   2.215  14.038  0.0472  0.0631 -0.2246
  617MPD2    H7 9150   0.220   2.221  14.072 -0.3504  1.2095  0.7049
  618TMC3    C1 9151   0.218   2.094  13.857  0.1374 -0.2285  0.1082
  618TMC3    C2 9152   0.191   2.013  13.746 -0.2268 -0.0504 -0.3405
  618TMC3    C3 9153   0.298   1.966  13.673  0.2437 -0.5320 -0.0509
  618TMC3    C4 9154   0.346   2.136  13.889 -0.5652 -0.0967 -0.0676
  618TMC3    C5 9155   0.450   2.093  13.809  0.0937 -0.1315  0.1832
  618TMC3    C6 9156   0.429   2.008  13.700  0.0613  0.0115  0.5320
  618TMC3     C 9157   0.097   2.143  13.923 -0.3882  0.1683 -0.0333
  618TMC3     O 9158   4.712   2.105  13.876  0.1422  0.0921 -0.2510
  618TMC3     H 9159   0.096   1.970  13.715 -0.5787  0.7151 -0.3108
  618TMC3    H1 9160   0.366   2.204  13.971  2.3701 -0.0752 -0.8083
  618TMC3    H2 9161   0.513   1.978  13.638 -0.6017 -1.5443  0.3980
  618TMC3    C7 9162   0.582   2.122  13.864  1.0284  0.2855 -0.1879
  618TMC3    C8 9163   0.268   1.920  13.537 -0.9678  0.3589 -0.0195
  618TMC3    O1 9164   0.585   2.126  13.993  0.0781  0.1770  0.7453
  618TMC3    O2 9165   0.157   1.876  13.514 -0.3394  0.2949  0.2443
  619MPD2     C 9166   1.642   3.531  13.693  0.1873 -0.2840 -0.0830
  619MPD2    C1 9167   1.543   3.609  13.629  0.8023  0.4720 -0.1291
  619MPD2    C2 9168   1.418   3.565  13.631 -0.5739  0.2400  0.1284
  619MPD2    C3 9169   1.378   3.450  13.691  0.3230 -0.9426  0.3019
  619MPD2    C4 9170   1.470   3.366  13.749 -0.1572 -0.8994 -0.1503
  619MPD2    C5 9171   1.599   3.419  13.764 -1.0049 -0.3944 -0.3166
  619MPD2     H 9172   1.347   3.628  13.577 -0.3882  1.0371  0.8101
  619MPD2    H1 9173   1.442   3.267  13.784  1.5551 -1.3912 -0.2096
  619MPD2    H2 9174   1.748   3.555  13.701 -0.0016  0.6211 -0.2964
  619MPD2    H3 9175   1.676   3.371  13.822  0.6548  1.0054 -1.3646
  619MPD2     N 9176   1.242   3.410  13.705 -0.1755 -0.0692 -0.1020
  619MPD2    H5 9177   1.217   3.323  13.751  0.2922  1.0891  2.3313
  619MPD2    N1 9178   1.554   3.735  13.574 -0.5474  0.4370  0.3759
  619MPD2    H7 9179   1.466   3.783  13.564 -0.2803  1.1006  1.1322
  620TMC3    C1 9180   1.615   3.941  13.496  0.2503 -1.7435  0.6935
  620TMC3    C2 9181   1.484   3.960  13.511 -0.1676  0.1624  0.2363
  620TMC3    C3 9182   1.422   4.043  13.423 -0.4981  0.2841  0.4156
  620TMC3    C4 9183   1.681   3.980  13.386 -0.0752 -0.2445 -0.0075
  620TMC3    C5 9184   1.622   4.065  13.300 -0.6496 -0.3581 -0.4343
  620TMC3    C6 9185   1.484   4.098  13.318 -0.0561  0.0607 -0.1899
  620TMC3     C 9186   1.665   3.813  13.551 -0.1923 -0.5208  0.1168
  620TMC3     O 9187   1.790   3.793  13.555 -0.3678  0.7277 -0.5130
  620TMC3     H 9188   1.430   3.940  13.603 -1.6701 -0.7485 -0.8535
  620TMC3    H1 9189   1.784   3.947  13.374 -0.8954 -1.6691 -3.0922
  620TMC3    H2 9190   1.428   4.168  13.258 -1.5110 -0.3070  0.7413
  620TMC3    C7 9191   1.702   4.174  13.262 -0.3929 -0.3586  0.2119
  620TMC3    C8 9192   1.275   4.051  13.437 -0.1442  0.1482  0.1498
  620TMC3    O1 9193   1.794   4.194  13.339  0.0091 -0.1503  0.2597
  620TMC3    O2 9194   1.222   4.016  13.542 -0.2915  0.7449 -0.3993
  621MPD2     C 9195   2.078   4.454   9.326 -0.7188 -0.8342 -0.0102
  621MPD2    C1 9196   2.204   4.398   9.353 -0.2478 -0.3807  0.3842
  621MPD2    C2 9197   2.308   4.436   9.278  0.0188 -0.3111  0.2803
  621MPD2    C3 9198   2.297   4.518   9.171 -0.4193 -0.2646 -0.0059
  621MPD2    C4 9199   2.174   4.575   9.140  1.0191 -1.1144 -0.7870
  621MPD2    C5 9200   2.065   4.545   9.223  0.4358 -0.7642 -0.0831
  621MPD2     H 9201   2.403   4.386   9.294 -0.9409 -2.3260 -0.3107
  621MPD2    H1 9202   2.160   4.641   9.055  0.9300 -0.4616 -0.2667
  621MPD2    H2 9203   1.992   4.432   9.388 -0.3645  0.1111  0.8187
  621MPD2    H3 9204   1.967   4.582   9.194  0.5337 -0.0149  0.5355
  621MPD2     N 9205   2.414   4.538   9.091 -0.0984  0.5686 -0.2125
  621MPD2    H5 9206   2.485   4.470   9.113 -0.6228 -1.2940 -4.3227
  621MPD2    N1 9207   2.216   4.297   9.453 -0.1399  0.0500  0.4441
  621MPD2    H7 9208   2.308   4.254   9.454  0.6391  1.6953  0.0373
  622TMC3    C1 9209   2.175   4.166   9.639  0.8200 -0.0145  0.2093
  622TMC3    C2 9210   2.100   4.172   9.754 -0.1780 -0.0150  0.0698
  622TMC3    C3 9211   2.068   4.051   9.818 -0.7177  0.5508  0.1127
  622TMC3    C4 9212   2.209   4.035   9.589  0.0033  0.2325 -0.4080
  622TMC3    C5 9213   2.157   3.923   9.649  0.8992  0.2970  0.1677
  622TMC3    C6 9214   2.087   3.926   9.767  0.1330 -0.2034 -0.4311
  622TMC3     C 9215   2.122   4.270   9.550 -0.0307 -0.7192 -0.0675
  622TMC3     O 9216   2.019   4.323   9.583 -0.4865 -0.6159  0.2990
  622TMC3     H 9217   2.083   4.266   9.805  0.6457 -0.3847  1.0124
  622TMC3    H1 9218   2.244   4.035   9.486  0.6185  2.6741 -0.2097
  622TMC3    H2 9219   2.025   3.849   9.810  1.2247 -2.1611 -2.4207
  622TMC3    C7 9220   2.191   3.798   9.591 -0.5943 -0.1260  1.1558
  622TMC3    C8 9221   1.934   4.054   9.874 -0.8428 -0.1507 -0.0985
  622TMC3    O1 9222   2.306   3.782   9.548 -0.0218  0.5610 -0.0430
  622TMC3    O2 9223   1.901   3.978   9.963  0.2445 -0.3325 -0.7915
  623MPD2     C 9224   0.204   4.123  15.802 -0.2186  0.1835 -0.2078
  623MPD2    C1 9225   0.148   4.120  15.926 -1.1233 -0.3261 -0.1241
  623MPD2    C2 9226   0.225   4.154  16.035 -0.4113  0.7831 -0.1025
  623MPD2    C3 9227   0.363   4.181  16.022 -0.1050  0.3492 -0.2774
  623MPD2    C4 9228   0.422   4.170  15.899 -0.5448 -0.2497 -0.3521
  623MPD2    C5 9229   0.343   4.133  15.794 -0.4171  1.2421  0.1246
  623MPD2     H 9230   0.180   4.159  16.134 -1.4849 -0.2727 -0.5488
  623MPD2    H1 9231   0.524   4.194  15.871 -1.3238  1.4095 -1.7478
  623MPD2    H2 9232   0.156   4.094  15.710 -0.6360  0.9111 -0.2199
  623MPD2    H3 9233   0.383   4.125  15.693  2.4727  0.3666  1.3447
  623MPD2     N 9234   0.426   4.225  16.133 -0.0291  0.2080  0.2247
  623MPD2    H5 9235   0.366   4.240  16.214  0.1032 -0.1645  0.3927
  623MPD2    N1 9236   0.017   4.084  15.939  0.4950  0.3344  0.1635
  623MPD2    H7 9237   4.678   4.082  15.857 -0.9457 -2.0516  1.2407
  624TMC3    C1 9238   0.749   4.204  16.466 -0.0362 -0.1069  0.0678
  624TMC3    C2 9239   0.658   4.175  16.557  0.0459  0.8911 -0.5184
  624TMC3    C3 9240   0.525   4.207  16.519 -0.1836 -0.5067  0.2270
  624TMC3    C4 9241   0.723   4.252  16.337 -0.6464 -0.5949 -0.0163
  624TMC3    C5 9242   0.590   4.267  16.295 -0.1594  0.3123  0.0398
  624TMC3    C6 9243   0.490   4.247  16.393  0.2227  0.9591 -0.3420
  624TMC3     C 9244   0.882   4.192  16.507  0.8124  0.8942 -0.3835
  624TMC3     O 9245   0.911   4.209  16.623 -0.6789 -0.3097 -0.2651
  624TMC3     H 9246   0.683   4.130  16.652 -0.5379 -0.3867 -0.9697
  624TMC3    H1 9247   0.795   4.292  16.267  1.5336 -1.1742  1.9058
  624TMC3    H2 9248   0.388   4.219  16.370 -0.3380  1.5784  1.3836
  624TMC3    C7 9249   0.560   4.246  16.155 -0.2057  0.4151 -0.0317
  624TMC3    C8 9250   0.426   4.146  16.599  0.0794 -0.8199 -0.2800
  624TMC3    O1 9251   0.655   4.235  16.081 -0.4456 -0.1414 -0.0375
  624TMC3    O2 9252   0.427   4.025  16.604 -0.5750 -0.5106 -0.4776
  625MPD2     C 9253   0.852   0.136   0.766  0.2576 -0.5959 -0.6388
  625MPD2    C1 9254   0.907   0.260   0.750  0.7634 -0.0295  0.6996
  625MPD2    C2 9255   1.045   0.275   0.790  0.5343 -0.8999  0.2959
  625MPD2    C3 9256   1.106   0.175   0.856  0.0218  0.3135  0.6331
  625MPD2    C4 9257   1.044   0.059   0.889  0.5353 -0.2717  0.7672
  625MPD2    C5 9258   0.912   0.038   0.842  0.9271  0.3412  0.6678
  625MPD2     H 9259   1.102   0.363   0.764  0.4775 -1.5461 -2.0241
  625MPD2    H1 9260   1.087   4.696   0.945  0.5671 -1.3987 -0.9366
  625MPD2    H2 9261   0.752   0.117   0.728 -1.1712  1.8801  1.8740
  625MPD2    H3 9262   0.856   4.666   0.853  0.3811  0.8917  2.4557
  625MPD2     N 9263   1.232   0.207   0.908 -0.6006  0.0480 -0.2743
  625MPD2    H5 9264   1.267   0.300   0.887  1.3900 -1.0755 -1.8138
  625MPD2    N1 9265   0.848   0.370   0.685 -0.2019 -0.3661  1.0577
  625MPD2    H7 9266   0.896   0.459   0.686  0.3949 -0.6728 -0.3506
  626TMC3    C1 9267   0.684   0.504   0.591  0.0457 -0.5500  0.3896
  626TMC3    C2 9268   0.645   0.520   0.458 -0.1850 -0.2109  0.4659
  626TMC3    C3 9269   0.627   0.653   0.418  0.2881 -0.1094  0.4913
  626TMC3    C4 9270   0.713   0.606   0.676  1.1760 -0.3064 -0.1838
  626TMC3    C5 9271   0.693   0.737   0.631  0.9687  0.0520  0.3216
  626TMC3    C6 9272   0.660   0.758   0.499  0.0827 -0.3914 -0.0832
  626TMC3     C 9273   0.724   0.369   0.622  0.0517 -0.1227 -0.7382
  626TMC3     O 9274   0.651   0.278   0.588  0.3420  0.4547 -0.0977
  626TMC3     H 9275   0.603   0.432   0.410  1.8111 -1.0022  0.1484
  626TMC3    H1 9276   0.740   0.585   0.778 -0.6698  2.4969  0.8939
  626TMC3    H2 9277   0.642   0.859   0.463 -1.4889 -0.3997  0.6903
  626TMC3    C7 9278   0.687   0.851   0.729  0.1368  0.4079  0.4523
  626TMC3    C8 9279   0.576   0.684   0.286  0.1826  0.2799 -0.0379
  626TMC3    O1 9280   0.687   0.808   0.841 -0.4556 -0.2708 -0.0309
  626TMC3    O2 9281   0.571   0.804   0.264 -0.0575  0.3129  0.1350
  627MPD2     C 9282   4.438   1.184  14.090 -0.5359  0.4074 -0.4939
  627MPD2    C1 9283   4.415   1.133  14.211 -0.2625  0.3813  0.0117
  627MPD2    C2 9284   4.356   1.015  14.217 -0.9942  0.0442  0.1832
  627MPD2    C3 9285   4.324   0.932  14.108  0.0042 -0.3527 -0.7773
  627MPD2    C4 9286   4.352   0.983  13.988  0.7229 -0.0877  0.6458
  627MPD2    C5 9287   4.405   1.114  13.980  0.3063 -0.2418  0.1286
  627MPD2     H 9288   4.331   0.977  14.316  1.0974 -0.6854  0.4408
  627MPD2    H1 9289   4.323   0.935  13.895 -3.2246  1.6269  1.0059
  627MPD2    H2 9290   4.480   1.283  14.071  1.3415 -0.1949  0.5685
  627MPD2    H3 9291   4.380   1.169  13.890 -0.8297 -2.2669 -0.8002
  627MPD2     N 9292   4.264   0.808  14.127 -0.0023 -0.6226 -0.4827
  627MPD2    H5 9293   4.240   0.775  14.220 -0.1682  1.0932  0.0689
  627MPD2    N1 9294   4.452   1.201  14.324  0.4222  0.4045  0.0521
  627MPD2    H7 9295   4.443   1.155  14.414 -1.5777  0.3059 -0.1981
  628TMC3    C1 9296   4.510   1.381  14.461  0.0667  0.7795  0.2123
  628TMC3    C2 9297   4.587   1.316  14.543  0.2258  0.1532  0.9190
  628TMC3    C3 9298   4.600   1.365  14.671 -0.8776  0.1349  0.4052
  628TMC3    C4 9299   4.456   1.504  14.496 -0.2485 -0.0178 -0.0834
  628TMC3    C5 9300   4.463   1.553  14.624  0.6444  0.8278  0.1841
  628TMC3    C6 9301   4.538   1.483  14.715 -0.4925 -0.4428 -0.8593
  628TMC3     C 9302   4.489   1.333  14.327 -0.0986  0.5706 -0.3396
  628TMC3     O 9303   4.499   1.415  14.238 -0.2241 -0.1672 -0.3671
  628TMC3     H 9304   4.633   1.223  14.509  0.7040 -0.4285  3.1684
  628TMC3    H1 9305   4.410   1.552  14.410 -2.7126  0.2465  1.3943
  628TMC3    H2 9306   4.533   1.521  14.816  1.3903  1.6000 -1.5262
  628TMC3    C7 9307   4.439   1.688  14.652  0.6800 -0.3736  0.1705
  628TMC3    C8 9308   4.607   1.268  14.775  0.0154  0.1588 -0.6583
  628TMC3    O1 9309   4.527   1.742  14.721  0.0739  0.5344 -0.1844
  628TMC3    O2 9310   4.589   1.309  14.890  0.0215  0.6072 -0.2614
  629MPD2     C 9311   2.183   4.328  16.813 -0.3281 -0.2635 -1.0535
  629MPD2    C1 9312   2.230   4.272  16.691 -0.3558  0.1371  0.4217
  629MPD2    C2 9313   2.138   4.234  16.601  0.1948  0.2029 -0.0945
  629MPD2    C3 9314   2.002   4.246  16.626 -0.1876 -0.0985  0.1738
  629MPD2    C4 9315   1.958   4.293  16.746  0.0855 -0.1082  0.0321
  629MPD2    C5 9316   2.051   4.334  16.841  0.5006  0.4931  0.1487
  629MPD2     H 9317   2.172   4.183  16.512  0.8169 -0.7823  0.7180
  629MPD2    H1 9318   1.851   4.286  16.766 -0.0538 -2.6585 -1.5739
  629MPD2    H2 9319   2.252   4.363  16.888 -2.4347 -0.0569  0.7748
  629MPD2    H3 9320   2.021   4.376  16.936 -0.7171 -1.7146  0.7568
  629MPD2     N 9321   1.907   4.199  16.526  0.0242  0.4083 -0.2781
  629MPD2    H5 9322   1.945   4.149  16.446  1.8076  1.7029 -0.2320
  629MPD2    N1 9323   2.374   4.273  16.674  0.4487  0.3817 -0.4767
  629MPD2    H7 9324   2.424   4.286  16.761  1.5488  0.2580 -1.0931
  630TMC3    C1 9325   2.590   4.266  16.581  0.5310  0.4209 -0.6470
  630TMC3    C2 9326   2.656   4.361  16.505  0.0785  0.3412  0.8354
  630TMC3    C3 9327   2.780   4.399  16.542 -0.2418 -0.1086  0.1738
  630TMC3    C4 9328   2.645   4.210  16.692 -0.0587  0.2890  0.5447
  630TMC3    C5 9329   2.784   4.230  16.706 -0.0096 -0.2767  0.6800
  630TMC3    C6 9330   2.842   4.326  16.637  0.4097 -0.1544 -0.2625
  630TMC3     C 9331   2.449   4.252  16.558  0.7516 -1.2027  0.9957
  630TMC3     O 9332   2.414   4.241  16.439  0.0170  0.1312 -0.3191
  630TMC3     H 9333   2.603   4.415  16.427  1.5712 -0.5770 -0.8121
  630TMC3    H1 9334   2.602   4.121  16.738 -0.4086 -0.8343 -1.9694
  630TMC3    H2 9335   2.949   4.345  16.645  0.3113 -0.2035  1.1502
  630TMC3    C7 9336   2.853   4.183  16.818 -0.4659 -0.3084 -0.3907
  630TMC3    C8 9337   2.859   4.480  16.454 -0.1632 -0.0144  0.1032
  630TMC3    O1 9338   2.957   4.239  16.850 -0.0156  0.2859 -0.4400
  630TMC3    O2 9339   2.985   4.471  16.455  0.5489 -0.6371 -0.7933
  631MPD2     C 9340   0.748   4.104  15.020  0.6077  0.2041 -0.7798
  631MPD2    C1 9341   0.878   4.125  14.982  0.4152 -0.1976 -0.5938
  631MPD2    C2 9342   0.976   4.052  15.038  0.3211 -0.1564 -0.0671
  631MPD2    C3 9343   0.958   3.959  15.135  0.0548 -0.7357 -0.3086
  631MPD2    C4 9344   0.825   3.926  15.172 -0.9286 -0.1087  0.6785
  631MPD2    C5 9345   0.726   3.991  15.102  0.6608 -0.1956  0.1915
  631MPD2     H 9346   1.080   4.074  15.018  0.5667 -1.5411 -0.3324
  631MPD2    H1 9347   0.781   3.860  15.246 -1.3527  0.2176  0.7176
  631MPD2    H2 9348   0.663   4.150  14.971  0.9996 -1.1672 -2.7705
  631MPD2    H3 9349   0.622   3.963  15.109  0.2029  1.2076 -0.7699
  631MPD2     N 9350   1.074   3.907  15.198  0.1661  0.0337 -0.0498
  631MPD2    H5 9351   1.160   3.957  15.176 -0.2396  0.1664 -1.3503
  631MPD2    N1 9352   0.901   4.235  14.901  0.0043  0.5839  0.0955
  631MPD2    H7 9353   0.824   4.293  14.870 -1.1831 -2.0626 -1.9999
  632TMC3    C1 9354   1.021   4.423  14.813  0.4504  0.0338 -0.5831
  632TMC3    C2 9355   0.932   4.506  14.868  0.2706 -0.0759 -0.1612
  632TMC3    C3 9356   0.958   4.639  14.883  0.7997 -0.5416 -0.2782
  632TMC3    C4 9357   1.134   4.475  14.748  0.6484 -0.4186 -0.5745
  632TMC3    C5 9358   1.162   4.608  14.769 -0.2882  0.0189 -0.8103
  632TMC3    C6 9359   1.070   4.696  14.823 -0.4450 -0.5861 -0.0209
  632TMC3     C 9360   1.024   4.282  14.858 -0.2614 -0.1260 -0.1403
  632TMC3     O 9361   1.131   4.227  14.857 -0.2109 -0.3368 -0.7273
  632TMC3     H 9362   0.835   4.474  14.904 -0.6568  0.2334 -2.3850
  632TMC3    H1 9363   1.186   4.406  14.684  0.4140 -1.2326  0.1131
  632TMC3    H2 9364   1.097   0.081  14.835  2.4802 -1.0734 -2.2930
  632TMC3    C7 9365   1.266   4.668  14.690 -0.2922  0.1000 -0.0948
  632TMC3    C8 9366   0.900   4.706  15.001 -0.0140 -0.4246 -0.4192
  632TMC3    O1 9367   1.270   0.071  14.679  0.3661 -0.0140  0.0504
  632TMC3    O2 9368   0.782   4.701  15.020  0.3733  0.2035  0.1632
  633MPD2     C 9369   0.786   2.638  17.276 -0.9188  0.0059  0.3345
  633MPD2    C1 9370   0.757   2.545  17.177 -0.1930  0.1393 -0.3095
  633MPD2    C2 9371   0.810   2.421  17.198  0.0916 -0.4414  0.1276
  633MPD2    C3 9372   0.876   2.387  17.309  1.1806 -0.0871 -0.1545
  633MPD2    C4 9373   0.907   2.474  17.402 -0.0549 -0.0497 -0.3487
  633MPD2    C5 9374   0.860   2.603  17.381  0.3767  0.3326  0.1171
  633MPD2     H 9375   0.797   2.347  17.120  2.3294  2.2549 -2.8092
  633MPD2    H1 9376   0.971   2.443  17.484 -0.4658  0.2480  0.0856
  633MPD2    H2 9377   0.743   2.736  17.258 -2.1387 -0.4985  0.5162
  633MPD2    H3 9378   0.872   2.683  17.454 -0.4564 -0.1234  0.7561
  633MPD2     N 9379   0.915   2.255  17.315  0.3887  0.3706  0.5765
  633MPD2    H5 9380   0.894   2.198  17.233  1.5236 -0.0772  0.5965
  633MPD2    N1 9381   0.712   2.577  17.046 -0.0705  0.6815 -0.5938
  633MPD2    H7 9382   0.734   2.506  16.977  0.9703  0.8429 -0.4305
  634TMC3    C1 9383   0.707   2.736  16.866 -0.1050  0.1227  0.1125
  634TMC3    C2 9384   0.827   2.684  16.820 -0.2006  0.4778 -0.0728
  634TMC3    C3 9385   0.870   2.736  16.698  0.0671  0.3337 -0.4543
  634TMC3    C4 9386   0.647   2.841  16.810 -0.1009  0.1524  0.2787
  634TMC3    C5 9387   0.689   2.898  16.691  0.6510  0.1985  0.4765
  634TMC3    C6 9388   0.806   2.841  16.634 -0.2165 -0.2789 -0.4298
  634TMC3     C 9389   0.672   2.703  17.004 -0.4902  0.4298 -0.3374
  634TMC3     O 9390   0.631   2.799  17.069 -0.3992 -0.0241 -0.3468
  634TMC3     H 9391   0.894   2.613  16.867 -2.2604 -2.1856 -1.1437
  634TMC3    H1 9392   0.566   2.887  16.867  0.2469 -0.6238  1.4015
  634TMC3    H2 9393   0.844   2.869  16.536 -1.1107 -1.3190 -1.0860
  634TMC3    C7 9394   0.594   2.949  16.592  0.3266 -1.2174  0.6160
  634TMC3    C8 9395   0.952   2.640  16.624  0.3360 -0.0827  0.2169
  634TMC3    O1 9396   0.653   2.958  16.484  0.1816  0.0388  0.5100
  634TMC3    O2 9397   0.998   2.543  16.675 -0.2503 -0.5305 -0.1359
  635TMC3    C1 9398   0.939   3.436  17.333 -0.2939  0.4494 -0.3675
  635TMC3    C2 9399   0.983   3.453  17.206  0.3047  0.0031  0.0124
  635TMC3    C3 9400   1.063   3.349  17.161  0.2089  0.4620 -0.4299
  635TMC3    C4 9401   0.955   3.320  17.414  0.0884  0.4896  0.7562
  635TMC3    C5 9402   1.041   3.225  17.365 -0.5097  0.1934 -0.4475
  635TMC3    C6 9403   1.087   3.233  17.237 -0.3249 -0.4592 -0.4078
  635TMC3     C 9404   0.852   3.537  17.385 -0.4970  0.7110 -1.1449
  635TMC3     O 9405   0.881   3.652  17.373  0.3572  0.3869  0.0004
  635TMC3     H 9406   0.955   3.536  17.143  1.6791 -0.0864 -0.7131
  635TMC3    H1 9407   0.917   3.304  17.514 -2.2226  0.2555 -0.1512
  635TMC3    H2 9408   1.160   3.159  17.208 -1.1330 -0.7685 -1.6176
  635TMC3    C7 9409   1.070   3.120  17.456 -0.2924 -0.4325  0.3732
  635TMC3    C8 9410   1.131   3.353  17.033 -0.1075 -0.2451  0.4447
  635TMC3    O1 9411   1.045   3.138  17.574  0.2131 -0.1259 -0.3753
  635TMC3    O2 9412   1.201   3.259  16.998  0.1573 -0.3720  0.5359
  636MPD2     C 9413   1.731   2.883  15.383  0.2176 -0.3508 -0.1083
  636MPD2    C1 9414   1.797   2.886  15.505  0.0787  0.5520 -0.1024
  636MPD2    C2 9415   1.880   2.785  15.533  1.1411  0.9985 -0.4954
  636MPD2    C3 9416   1.900   2.673  15.448 -0.0316  0.6454 -0.6439
  636MPD2    C4 9417   1.828   2.667  15.331 -0.3035 -0.1127 -0.0780
  636MPD2    C5 9418   1.735   2.769  15.305 -0.0891  0.0925 -0.6855
  636MPD2     H 9419   1.933   2.799  15.627  0.6477  0.7854 -0.1875
  636MPD2    H1 9420   1.834   2.583  15.263  0.0614  1.1766 -1.6543
  636MPD2    H2 9421   1.661   2.961  15.354  0.8650  0.4105  0.3727
  636MPD2    H3 9422   1.663   2.761  15.225  0.9762  0.8252 -1.7284
  636MPD2     N 9423   1.983   2.570  15.488 -0.0453 -0.4231  0.2284
  636MPD2    H5 9424   2.016   2.573  15.584  0.8836 -0.2630 -0.0956
  636MPD2    N1 9425   1.771   2.986  15.596 -0.4624 -0.0050  0.3407
  636MPD2    H7 9426   1.814   2.968  15.686  1.8370  2.8008 -0.1819
  637TMC3    C1 9427   2.059   2.347  15.498  0.0543  0.4366 -0.1086
  637TMC3    C2 9428   2.083   2.367  15.633 -0.4208  0.1698  0.4962
  637TMC3    C3 9429   2.109   2.250  15.707  0.1394  0.5748  0.3363
  637TMC3    C4 9430   2.081   2.227  15.435 -0.1746  0.4885  0.4707
  637TMC3    C5 9431   2.116   2.116  15.514 -0.2736 -0.5524  0.0462
  637TMC3    C6 9432   2.122   2.125  15.651  0.7259 -0.4595 -0.3400
  637TMC3     C 9433   2.015   2.459  15.414  1.0679 -0.6878  0.0762
  637TMC3     O 9434   2.007   2.443  15.291 -0.3300  0.1006 -0.3754
  637TMC3     H 9435   2.022   2.440  15.684 -0.5555  1.2312 -1.1772
  637TMC3    H1 9436   2.083   2.210  15.328  0.9414  0.9809  0.4032
  637TMC3    H2 9437   2.147   2.039  15.711  2.6843  0.2231 -0.1818
  637TMC3    C7 9438   2.219   2.034  15.468 -0.1762  0.2074 -0.9229
  637TMC3    C8 9439   2.186   2.257  15.825  0.0805 -0.0542 -0.5837
  637TMC3    O1 9440   2.320   2.073  15.409 -0.3246  0.5236 -0.1020
  637TMC3    O2 9441   2.219   2.152  15.880 -0.6074  0.1373  0.2148
  638MPD2     C 9442   1.791   1.603  14.992 -0.4587  0.6604 -0.6384
  638MPD2    C1 9443   1.794   1.497  14.904  0.8680  0.3128 -0.6699
  638MPD2    C2 9444   1.740   1.378  14.956 -0.0336 -0.4307  0.3327
  638MPD2    C3 9445   1.690   1.363  15.083 -0.4421  0.4325  0.0680
  638MPD2    C4 9446   1.707   1.468  15.167  0.6930 -0.2171  0.5800
  638MPD2    C5 9447   1.747   1.591  15.116 -0.1063 -0.4479  0.4948
  638MPD2     H 9448   1.728   1.298  14.883 -1.8689  0.4905 -0.3837
  638MPD2    H1 9449   1.682   1.468  15.273 -3.4549  0.2534 -0.4186
  638MPD2    H2 9450   1.821   1.702  14.957  2.1820  0.0271 -0.1458
  638MPD2    H3 9451   1.754   1.680  15.178  0.6976 -0.5271  0.5123
  638MPD2     N 9452   1.657   1.234  15.131 -0.2351 -0.5225  0.4077
  638MPD2    H5 9453   1.650   1.156  15.066 -2.2946 -0.4364  0.5533
  638MPD2    N1 9454   1.832   1.518  14.769 -0.6986  0.5607 -0.5685
  638MPD2    H7 9455   1.884   1.602  14.745  1.0316 -0.8030 -1.5595
  639TMC3    C1 9456   1.625   1.049  15.273  0.5008 -0.3378 -0.2420
  639TMC3    C2 9457   1.510   1.004  15.211 -0.1850 -0.5600  0.6755
  639TMC3    C3 9458   1.477   0.872  15.230 -0.0902  0.3167  0.2171
  639TMC3    C4 9459   1.701   0.978  15.364  0.0138  0.0393  0.4582
  639TMC3    C5 9460   1.673   0.851  15.372  0.1524 -0.6196 -0.6212
  639TMC3    C6 9461   1.568   0.798  15.295  0.1626 -0.2121 -0.1517
  639TMC3     C 9462   1.658   1.196  15.262 -0.6149 -1.2886 -0.3078
  639TMC3     O 9463   1.689   1.256  15.364 -0.8327 -0.1071 -0.1572
  639TMC3     H 9464   1.449   1.067  15.148 -0.8404 -1.8946 -0.0337
  639TMC3    H1 9465   1.790   1.029  15.401 -0.1830 -0.1597  1.2063
  639TMC3    H2 9466   1.573   0.690  15.283 -1.1329 -0.4404  1.4425
  639TMC3    C7 9467   1.780   0.752  15.387 -0.4409  0.3584  0.1008
  639TMC3    C8 9468   1.433   0.815  15.104  0.1291 -0.0679  0.5242
  639TMC3    O1 9469   1.744   0.642  15.426  0.2266  0.2758  0.0987
  639TMC3    O2 9470   1.509   0.816  15.010  0.3735 -0.3913  0.2256
  640MPD2     C 9471   3.330   0.283   9.426  0.9198 -0.1525 -0.3133
  640MPD2    C1 9472   3.402   0.267   9.313 -0.6889 -0.0406 -0.1725
  640MPD2    C2 9473   3.406   0.373   9.225  0.6843 -0.2483 -0.1332
  640MPD2    C3 9474   3.342   0.493   9.249 -0.7551  0.2051 -0.4798
  640MPD2    C4 9475   3.280   0.518   9.366 -0.7811 -0.1951 -0.3677
  640MPD2    C5 9476   3.271   0.411   9.449 -0.7635 -0.6171  0.5578
  640MPD2     H 9477   3.478   0.366   9.144  1.0854 -1.2212  0.3079
  640MPD2    H1 9478   3.224   0.607   9.392 -1.5996 -0.1476 -2.2715
  640MPD2    H2 9479   3.304   0.200   9.491 -2.5793  0.7830 -0.5218
  640MPD2    H3 9480   3.206   0.422   9.536 -0.7738 -0.6468  0.5541
  640MPD2     N 9481   3.348   0.603   9.153  0.0972  0.2024  0.0072
  640MPD2    H5 9482   3.291   0.686   9.170 -2.5936 -2.2270  2.9385
  640MPD2    N1 9483   3.479   0.144   9.302 -0.3732 -0.0155  0.4983
  640MPD2    H7 9484   3.470   0.076   9.376 -1.7596  0.3468  0.6704
  641TMC3    C1 9485   3.641   4.715   9.208  0.2363 -0.3308 -0.1975
  641TMC3    C2 9486   3.613   4.629   9.311  0.2149  0.3612 -0.1390
  641TMC3    C3 9487   3.683   4.513   9.318 -0.8624  1.2906 -0.7267
  641TMC3    C4 9488   3.744   4.705   9.117  1.0661  0.2983  0.1012
  641TMC3    C5 9489   3.810   4.585   9.138 -0.0024  0.5180  0.5269
  641TMC3    C6 9490   3.778   4.482   9.225  0.1229 -0.6699  0.2163
  641TMC3     C 9491   3.566   0.116   9.196 -0.2912  0.0638 -0.2747
  641TMC3     O 9492   3.580   0.181   9.097 -0.9413  0.8681  0.3958
  641TMC3     H 9493   3.532   4.644   9.382  0.5165 -1.8383  0.6686
  641TMC3    H1 9494   3.750   0.060   9.038 -0.1104 -0.4496 -0.7064
  641TMC3    H2 9495   3.838   4.394   9.248 -1.7398 -1.8339  0.5952
  641TMC3    C7 9496   3.916   4.562   9.044 -0.1552 -0.1159 -0.8337
  641TMC3    C8 9497   3.690   4.432   9.435  0.0390 -0.3350 -0.2233
  641TMC3    O1 9498   3.962   4.656   8.987  0.9300  0.0156  0.6439
  641TMC3    O2 9499   3.731   4.320   9.418  0.3151 -0.5276  0.4401
  642TMC3    C1 9500   3.229   1.700  12.097 -0.5494 -0.6162 -0.6574
  642TMC3    C2 9501   3.252   1.784  11.990  0.9067  0.1613 -0.0766
  642TMC3    C3 9502   3.333   1.736  11.892  0.6481 -0.0686  0.5226
  642TMC3    C4 9503   3.280   1.576  12.112  0.0987  0.0470 -0.2272
  642TMC3    C5 9504   3.360   1.532  12.008 -0.2329  0.5919 -0.2985
  642TMC3    C6 9505   3.373   1.605  11.894 -0.0052  0.4361 -0.4505
  642TMC3     C 9506   3.217   1.773  12.223  0.2322 -0.1679 -0.0494
  642TMC3     O 9507   3.323   1.821  12.258 -0.5581 -0.1556 -0.0357
  642TMC3     H 9508   3.214   1.886  11.990  1.7866  0.4988 -3.5042
  642TMC3    H1 9509   3.257   1.511  12.197 -0.9605 -0.6326 -1.0413
  642TMC3    H2 9510   3.434   1.572  11.811 -4.1194 -1.1702 -2.8533
  642TMC3    C7 9511   3.408   1.399  11.994 -0.4767  0.1662 -0.6266
  642TMC3    C8 9512   3.402   1.827  11.801  0.4416  0.3164  0.3475
  642TMC3    O1 9513   3.420   1.354  11.881 -0.1539 -0.2786  0.0660
  642TMC3    O2 9514   3.482   1.779  11.718  0.0725  0.1758 -0.8798
  643TMC3    C1 9515   2.735   0.407   0.817 -0.0061 -0.0065 -0.5921
  643TMC3    C2 9516   2.606   0.453   0.818 -0.0321  0.2214 -0.3934
  643TMC3    C3 9517   2.521   0.420   0.724 -0.1930 -0.3344  0.2926
  643TMC3    C4 9518   2.773   0.313   0.726  0.7224 -0.1345 -0.0056
  643TMC3    C5 9519   2.685   0.280   0.627  0.3102 -0.2400 -0.5915
  643TMC3    C6 9520   2.552   0.320   0.639  0.6275  0.2391  0.5435
  643TMC3     C 9521   2.820   0.521   0.808  0.0521 -0.2707 -0.1412
  643TMC3     O 9522   2.833   0.557   0.690  0.1179 -0.0127 -0.4905
  643TMC3     H 9523   2.579   0.526   0.894 -0.7930  0.4257 -0.8562
  643TMC3    H1 9524   2.879   0.297   0.715  0.6783  1.5592 -3.1884
  643TMC3    H2 9525   2.482   0.301   0.558 -1.5892  1.4730  2.1618
  643TMC3    C7 9526   2.738   0.289   0.491  0.6787  0.1181 -0.2861
  643TMC3    C8 9527   2.445   0.513   0.644 -0.2954  0.2975 -0.1142
  643TMC3    O1 9528   2.677   0.358   0.407 -0.2257 -0.0201 -0.4189
  643TMC3    O2 9529   2.327   0.490   0.633 -0.2997  0.1244  0.1516
  644MPD2     C 9530   3.528   1.333   9.363 -0.5074 -0.9091 -0.5296
  644MPD2    C1 9531   3.508   1.259   9.250 -0.1016 -0.4066 -0.3739
  644MPD2    C2 9532   3.426   1.316   9.150 -0.0936  0.4454  0.1917
  644MPD2    C3 9533   3.363   1.434   9.173  0.1620 -0.1208 -0.1614
  644MPD2    C4 9534   3.381   1.508   9.290 -0.0677  0.6057 -0.7117
  644MPD2    C5 9535   3.456   1.446   9.387  0.8386 -0.0270 -0.1437
  644MPD2     H 9536   3.401   1.262   9.060  0.6731  1.3567 -0.5699
  644MPD2    H1 9537   3.330   1.600   9.314 -2.1911 -0.7256 -0.0916
  644MPD2    H2 9538   3.603   1.301   9.434  0.4244  1.5426 -0.4116
  644MPD2    H3 9539   3.464   1.483   9.488  0.3967 -0.7873  0.1728
  644MPD2     N 9540   3.276   1.476   9.071  0.2687  0.2780  0.1610
  644MPD2    H5 9541   3.250   1.403   9.005 -0.9888  2.4309 -1.7390
  644MPD2    N1 9542   3.587   1.147   9.224 -0.7697  0.1834  0.0876
  644MPD2    H7 9543   3.637   1.109   9.303  0.2232 -0.5244 -0.8867
  645TMC3    C1 9544   3.163   1.628   8.929  0.4135 -0.5914 -0.2029
  645TMC3    C2 9545   3.159   1.755   8.881  0.4960  0.4597  0.1526
  645TMC3    C3 9546   3.086   1.769   8.761 -0.0538  0.5318 -0.6518
  645TMC3    C4 9547   3.096   1.526   8.873 -0.6058  0.1851 -0.1133
  645TMC3    C5 9548   3.033   1.543   8.755 -0.1227 -0.6086  0.3263
  645TMC3    C6 9549   3.024   1.667   8.693  0.5543 -0.2373 -0.3904
  645TMC3     C 9550   3.230   1.607   9.057 -0.0898 -0.2162 -0.2928
  645TMC3     O 9551   3.242   1.703   9.132  0.2613  0.4704 -0.3073
  645TMC3     H 9552   3.212   1.835   8.930 -2.6480  2.0467  0.9677
  645TMC3    H1 9553   3.090   1.426   8.914 -1.7724  1.0823  1.9122
  645TMC3    H2 9554   2.959   1.693   8.609  0.4732  1.4942  0.1979
  645TMC3    C7 9555   2.971   1.431   8.690 -0.3510  0.8439  0.0456
  645TMC3    C8 9556   3.072   1.909   8.718  0.2616  0.4063 -0.8286
  645TMC3    O1 9557   2.949   1.338   8.762 -0.2749 -0.2415 -0.2053
  645TMC3    O2 9558   3.117   1.986   8.799  0.2558  0.2582 -0.3259
  646MPD2     C 9559   1.916   0.294  14.400  0.1101  0.1760  0.2312
  646MPD2    C1 9560   1.822   0.257  14.490 -0.8232 -0.0238 -0.0453
  646MPD2    C2 9561   1.689   0.299  14.482  0.9489 -0.1521  0.3441
  646MPD2    C3 9562   1.655   0.393  14.387  0.1137 -0.1745  0.0667
  646MPD2    C4 9563   1.753   0.437  14.291 -0.5139 -0.8325  0.3355
  646MPD2    C5 9564   1.877   0.377  14.296  0.1113  0.2847 -0.0102
  646MPD2     H 9565   1.612   0.259  14.546 -0.4977  1.0845 -0.6358
  646MPD2    H1 9566   1.742   0.516  14.218 -0.7724  0.9245  2.2664
  646MPD2    H2 9567   2.020   0.266  14.410 -0.4400 -2.3712 -1.0223
  646MPD2    H3 9568   1.944   0.415  14.219 -0.0884  0.7577  0.0496
  646MPD2     N 9569   1.523   0.442  14.377  0.4482 -0.0823 -0.0469
  646MPD2    H5 9570   1.448   0.408  14.436  1.8165  0.5786  2.0795
  646MPD2    N1 9571   1.863   0.168  14.586  0.2146 -0.1350  0.3117
  646MPD2    H7 9572   1.955   0.126  14.580  0.6765  0.7278  1.3920
  647TMC3    C1 9573   1.895   0.036  14.773  0.2736  0.0026 -0.5812
  647TMC3    C2 9574   1.844   4.657  14.851  0.4396 -0.0872  0.5732
  647TMC3    C3 9575   1.926   4.553  14.886  0.6859 -0.2041  0.5283
  647TMC3    C4 9576   2.030   0.034  14.739 -0.5119 -0.1411 -0.6853
  647TMC3    C5 9577   2.107   4.651  14.765  0.1189 -0.2548  0.0474
  647TMC3    C6 9578   2.053   4.546  14.833  0.1713  0.5388 -0.3059
  647TMC3     C 9579   1.811   0.130  14.710  0.3470  0.2794  0.4232
  647TMC3     O 9580   1.695   0.142  14.742  0.3222  0.5380  0.0797
  647TMC3     H 9581   1.742   4.652  14.888 -0.1933 -0.3446 -1.2410
  647TMC3    H1 9582   2.079   0.124  14.704 -1.3312  0.1202 -1.1649
  647TMC3    H2 9583   2.115   4.459  14.851 -1.9066 -0.1950  3.1511
  647TMC3    C7 9584   2.251   4.656  14.786  0.1852  0.7293 -0.2813
  647TMC3    C8 9585   1.875   4.442  14.958 -0.0218 -0.1132 -0.4972
  647TMC3    O1 9586   2.295   4.596  14.884  0.5035  0.2640  0.3718
  647TMC3    O2 9587   1.918   4.332  14.917  0.0900  0.2115 -0.2371
  648TMC3    C1 9588   1.362   2.407  15.935  0.9132  0.1331 -0.6375
  648TMC3    C2 9589   1.404   2.277  15.914 -0.0772 -0.7500 -0.0310
  648TMC3    C3 9590   1.388   2.230  15.787 -0.0421 -0.7228 -0.0383
  648TMC3    C4 9591   1.296   2.484  15.843 -0.5892 -0.6214  0.2773
  648TMC3    C5 9592   1.281   2.437  15.716 -0.3079 -0.7092 -0.3147
  648TMC3    C6 9593   1.332   2.314  15.684  0.3119  0.2450 -0.1927
  648TMC3     C 9594   1.398   2.477  16.060  0.0676 -0.3028 -0.0275
  648TMC3     O 9595   1.376   2.598  16.064  0.1303  0.9413 -0.0522
  648TMC3     H 9596   1.450   2.220  15.994  1.5250  0.6247  0.0093
  648TMC3    H1 9597   1.270   2.586  15.871  0.4796 -0.2779 -0.0022
  648TMC3    H2 9598   1.320   2.281  15.581  0.6460 -1.4690  0.3169
  648TMC3    C7 9599   1.193   2.503  15.620  0.3821 -0.3646  0.6250
  648TMC3    C8 9600   1.443   2.099  15.755  0.1131  0.5244 -0.2694
  648TMC3    O1 9601   1.218   2.492  15.501  0.6848 -0.3230 -0.1689
  648TMC3    O2 9602   1.461   2.073  15.636  0.0762 -0.5658 -0.0143
  649TMC3    C1 9603   0.229   3.414  12.699  0.1680  0.1405  0.4330
  649TMC3    C2 9604   0.325   3.393  12.802  0.1403  0.3358  0.2930
  649TMC3    C3 9605   0.293   3.298  12.898 -0.4643 -0.2888  0.3731
  649TMC3    C4 9606   0.112   3.347  12.687  0.7583  0.7892 -0.4588
  649TMC3    C5 9607   0.088   3.247  12.780  0.1322 -0.3072 -0.6744
  649TMC3    C6 9608   0.175   3.221  12.878  0.1631 -0.1601  0.6019
  649TMC3     C 9609   0.259   3.507  12.597 -0.5104 -0.2319  0.0835
  649TMC3     O 9610   0.165   3.566  12.545  0.2987 -0.4537 -0.1509
  649TMC3     H 9611   0.409   3.459  12.823 -0.6558  1.6806 -0.7701
  649TMC3    H1 9612   0.041   3.387  12.615 -2.2417  1.0327  2.6126
  649TMC3    H2 9613   0.148   3.137  12.940 -0.6229 -0.7369 -0.5303
  649TMC3    C7 9614   4.668   3.227  12.806  0.8020 -0.4658 -0.5110
  649TMC3    C8 9615   0.392   3.235  12.985  0.3826 -0.3536  0.0698
  649TMC3    O1 9616   4.599   3.316  12.759 -0.0847  0.2876  0.0229
  649TMC3    O2 9617   0.511   3.261  12.960 -0.5329 -0.6700  0.2991
  650TMC3    C1 9618   2.512   0.797  12.488 -0.0502  0.8970 -0.3208
  650TMC3    C2 9619   2.416   0.890  12.457  0.6730 -0.4416 -0.3849
  650TMC3    C3 9620   2.460   0.972  12.354 -0.0562 -0.5105  0.1246
  650TMC3    C4 9621   2.643   0.795  12.441 -0.1714  0.1086 -0.4543
  650TMC3    C5 9622   2.683   0.883  12.344  0.1821  0.1128  0.1069
  650TMC3    C6 9623   2.587   0.968  12.298 -0.0656  0.1498 -0.0929
  650TMC3     C 9624   2.481   0.711  12.603  0.4296 -0.3162 -0.2086
  650TMC3     O 9625   2.378   0.737  12.663  0.3671  0.4611  0.9856
  650TMC3     H 9626   2.321   0.906  12.507  2.8878  0.8071  3.4072
  650TMC3    H1 9627   2.714   0.721  12.477 -0.3483  0.4675  0.6234
  650TMC3    H2 9628   2.605   1.038  12.218 -1.9819  0.6888 -0.0372
  650TMC3    C7 9629   2.799   0.858  12.260 -0.5653  0.5423  0.2323
  650TMC3    C8 9630   2.395   1.101  12.346  0.2826 -0.3727  0.2870
  650TMC3    O1 9631   2.835   0.744  12.251  0.7533 -0.1907  0.0421
  650TMC3    O2 9632   2.440   1.201  12.296 -0.4087 -0.0878  0.1537
  651MPD2     C 9633   2.109   2.702  10.606  0.2151  0.2320  0.3872
  651MPD2    C1 9634   2.074   2.838  10.583  0.1463 -0.0614  0.0505
  651MPD2    C2 9635   2.167   2.929  10.538  0.2586  0.4497  0.0286
  651MPD2    C3 9636   2.299   2.882  10.520 -0.1974  0.0505  0.0146
  651MPD2    C4 9637   2.329   2.751  10.535  0.2163 -0.0618 -0.0251
  651MPD2    C5 9638   2.234   2.663  10.584 -0.0316 -0.1329 -0.4144
  651MPD2     H 9639   2.135   3.027  10.506 -1.4617 -0.0868  0.1476
  651MPD2    H1 9640   2.426   2.706  10.520  0.3577 -0.4686  2.1602
  651MPD2    H2 9641   2.034   2.624  10.613  1.4024 -0.8686  0.7957
  651MPD2    H3 9642   2.249   2.557  10.593 -1.0649 -0.2556 -0.0877
  651MPD2     N 9643   2.393   2.960  10.447  0.2746 -0.8396 -0.0239
  651MPD2    H5 9644   2.350   3.034  10.393  0.4306  0.9497  2.2812
  651MPD2    N1 9645   1.943   2.890  10.597  0.7737  0.8792  0.1092
  651MPD2    H7 9646   1.931   2.986  10.566 -0.7798  1.3587  2.2212
  652TMC3    C1 9647   2.848   3.064  10.325 -0.1042  0.2104  0.8008
  652TMC3    C2 9648   2.758   2.993  10.401 -0.6493  1.4155 -0.6729
  652TMC3    C3 9649   2.630   3.017  10.372  0.1354 -0.1103  0.6225
  652TMC3    C4 9650   2.808   3.154  10.227 -0.5163 -0.7577 -0.4182
  652TMC3    C5 9651   2.674   3.154  10.190 -0.0784  0.0764 -0.1438
  652TMC3    C6 9652   2.586   3.079  10.258  0.9403 -0.1567  0.5533
  652TMC3     C 9653   2.978   3.073  10.385 -0.0104  0.2043 -0.5725
  652TMC3     O 9654   2.977   3.049  10.507  0.2254  0.0105  0.1315
  652TMC3     H 9655   2.794   2.942  10.489 -1.1305  0.4374 -1.0524
  652TMC3    H1 9656   2.880   3.214  10.172  0.3901 -0.7374  0.7824
  652TMC3    H2 9657   2.483   3.072  10.226  2.6089 -0.4786 -4.6798
  652TMC3    C7 9658   2.624   3.217  10.069  0.1326 -0.3987  0.0923
  652TMC3    C8 9659   2.533   2.942  10.456  0.2533  0.3671 -0.2211
  652TMC3    O1 9660   2.535   3.161  10.020 -0.4446  0.5113 -0.2244
  652TMC3    O2 9661   2.584   2.868  10.538  0.2720 -0.0578  0.3047
  653MPD2     C 9662   0.603   2.354  17.644  0.0034  0.6263  0.3167
  653MPD2    C1 9663   0.548   2.452  17.567 -0.4267 -0.0439 -0.1395
  653MPD2    C2 9664   0.459   2.412  17.473 -0.3230 -0.9343  0.0190
  653MPD2    C3 9665   0.431   2.275  17.451  0.0323 -0.3417  0.0629
  653MPD2    C4 9666   0.486   2.178  17.528 -0.4806  0.3665  0.1461
  653MPD2    C5 9667   0.577   2.223  17.621  0.1414 -0.0441 -0.7477
  653MPD2     H 9668   0.411   2.487  17.412  1.6740 -0.8393 -1.4212
  653MPD2    H1 9669   0.462   2.072  17.528 -0.4439  0.3566  0.5533
  653MPD2    H2 9670   0.672   2.380   0.041  2.2209  0.2904 -1.4993
  653MPD2    H3 9671   0.616   2.148   0.008  1.3425  2.5033  1.3654
  653MPD2     N 9672   0.351   2.242  17.336 -0.3145  0.0159  0.7269
  653MPD2    H5 9673   0.326   2.327  17.286  1.6378  1.1313  1.6142
  653MPD2    N1 9674   0.583   2.596  17.586 -0.3731 -0.0889  0.0300
  653MPD2    H7 9675   0.522   2.666  17.545  0.4510  1.4564  1.4340
  654TMC3    C1 9676   0.257   2.124  17.155  0.2284  0.7049  0.0210
  654TMC3    C2 9677   0.147   2.203  17.161  0.2358  0.4017 -0.9329
  654TMC3    C3 9678   0.066   2.201  17.046 -0.5246  0.1924  0.5866
  654TMC3    C4 9679   0.290   2.043  17.053  0.2860 -0.1794  0.1152
  654TMC3    C5 9680   0.210   2.044  16.946  0.0297  0.3781  0.2458
  654TMC3    C6 9681   0.090   2.113  16.950 -0.0401 -0.5590  0.3558
  654TMC3     C 9682   0.339   2.122  17.279 -0.3710  0.1115 -0.1341
  654TMC3     O 9683   0.420   2.034  17.285 -0.2880 -0.9553 -0.5722
  654TMC3     H 9684   0.132   2.262  17.251 -0.6346 -0.6038 -0.4008
  654TMC3    H1 9685   0.390   2.002  17.047  0.2341 -0.2880 -0.0054
  654TMC3    H2 9686   0.029   2.114  16.860  0.6664  1.3771 -0.1026
  654TMC3    C7 9687   0.207   1.917  16.873  0.3124 -0.1716  0.1253
  654TMC3    C8 9688   4.650   2.209  17.076  0.4783 -0.2333  0.2781
  654TMC3    O1 9689   0.160   1.917  16.762 -0.2279 -0.1254 -0.5536
  654TMC3    O2 9690   4.621   2.301  17.154 -0.2136  0.3214  0.4138
  655MPD2     C 9691   1.672   2.451  15.624  0.4707 -0.6631  0.7597
  655MPD2    C1 9692   1.578   2.515  15.543 -0.2665  0.3853 -0.0726
  655MPD2    C2 9693   1.544   2.461  15.422  0.1074  0.2367  0.2031
  655MPD2    C3 9694   1.597   2.347  15.377 -0.1402  0.1888 -0.4335
  655MPD2    C4 9695   1.699   2.289  15.455 -0.4730  0.2379 -0.0644
  655MPD2    C5 9696   1.727   2.335  15.583 -0.2576 -0.6522  0.1465
  655MPD2     H 9697   1.477   2.520  15.361 -0.7682 -3.9436 -2.7865
  655MPD2    H1 9698   1.738   2.195  15.418  0.4581  0.6724 -0.2010
  655MPD2    H2 9699   1.711   2.485  15.719 -1.5357  2.0473  0.5943
  655MPD2    H3 9700   1.808   2.294  15.642 -1.3494 -0.5400  1.7273
  655MPD2     N 9701   1.553   2.305  15.248 -0.5242  0.2934 -0.2397
  655MPD2    H5 9702   1.477   2.356  15.204  0.2843  0.9283 -0.9144
  655MPD2    N1 9703   1.518   2.641  15.573 -0.5152 -0.1090  0.4730
  655MPD2    H7 9704   1.455   2.671  15.499 -0.5753  0.4088  0.7327
  656TMC3    C1 9705   1.451   2.830  15.675 -0.0806 -0.3460 -0.3050
  656TMC3    C2 9706   1.377   2.848  15.787 -0.5920 -0.2356 -0.1982
  656TMC3    C3 9707   1.287   2.944  15.790 -0.4545 -0.2505  0.0772
  656TMC3    C4 9708   1.425   2.892  15.561  0.2111  0.1292  0.7900
  656TMC3    C5 9709   1.326   2.982  15.566 -0.4863  0.1754 -0.0852
  656TMC3    C6 9710   1.256   3.013  15.679 -1.0978 -0.4363  0.4577
  656TMC3     C 9711   1.532   2.709  15.690  0.9857  0.3337  0.1841
  656TMC3     O 9712   1.577   2.685  15.801  0.2477  0.5180  0.4167
  656TMC3     H 9713   1.402   2.793  15.877  1.3104 -0.3021 -0.7537
  656TMC3    H1 9714   1.481   2.869  15.472 -1.9711 -0.7631 -0.3698
  656TMC3    H2 9715   1.186   3.095  15.674  0.1254  0.3927 -3.0046
  656TMC3    C7 9716   1.267   3.037  15.445 -0.0524  0.1182  1.1328
  656TMC3    C8 9717   1.179   2.927  15.878  0.3350  0.8903  0.0083
  656TMC3    O1 9718   1.343   3.047  15.351  0.4789  0.0804 -0.7329
  656TMC3    O2 9719   1.153   2.813  15.899  0.1798  0.2286  0.8707
  657TMC3    C1 9720   0.766   2.023  14.745  0.0755 -0.2650 -0.1577
  657TMC3    C2 9721   0.729   2.030  14.875 -0.7157  0.7831  0.5385
  657TMC3    C3 9722   0.702   2.160  14.920 -0.6667  0.0258 -0.2546
  657TMC3    C4 9723   0.766   2.133  14.660  0.3045  0.6541 -0.1762
  657TMC3    C5 9724   0.737   2.251  14.716  0.8242 -0.5149 -0.0494
  657TMC3    C6 9725   0.702   2.269  14.844  0.1013 -0.1877  0.4550
  657TMC3     C 9726   0.840   1.911  14.705 -0.4201 -0.9648  1.3358
  657TMC3     O 9727   0.846   1.868  14.592 -0.1999 -0.6135  0.2137
  657TMC3     H 9728   0.714   1.940  14.934  0.3995 -0.5679 -1.2304
  657TMC3    H1 9729   0.794   2.136  14.555 -1.0155  1.0458 -0.5144
  657TMC3    H2 9730   0.676   2.370  14.874  0.3718 -0.8773  3.0440
  657TMC3    C7 9731   0.724   2.358  14.626 -0.7089  0.2358 -0.7208
  657TMC3    C8 9732   0.656   2.175  15.061  0.1775  0.0262 -0.1091
  657TMC3    O1 9733   0.813   2.356  14.545 -0.2944  0.4334 -0.2146
  657TMC3    O2 9734   0.580   2.268  15.074 -0.2465  1.0625 -0.3486
  658MPD2     C 9735   1.951   2.247  14.597 -0.2558  0.0568 -0.0656
  658MPD2    C1 9736   1.821   2.293  14.617  0.7683 -0.1790  0.2868
  658MPD2    C2 9737   1.778   2.411  14.559 -0.1289  0.0490 -0.0526
  658MPD2    C3 9738   1.871   2.498  14.502 -0.3429 -0.0402 -0.2613
  658MPD2    C4 9739   1.999   2.456  14.476 -0.4552 -0.2335  0.3279
  658MPD2    C5 9740   2.032   2.324  14.516 -0.0014  0.3523 -0.2461
  658MPD2     H 9741   1.675   2.446  14.561 -0.6300 -1.4274 -0.1922
  658MPD2    H1 9742   2.076   2.517  14.430 -2.2390  1.4744 -0.3853
  658MPD2    H2 9743   1.990   2.152  14.631  1.5148  0.3073 -1.3397
  658MPD2    H3 9744   2.131   2.284  14.501 -0.5166 -0.8189 -0.5368
  658MPD2     N 9745   1.826   2.625  14.462 -0.2565  0.5812 -0.1203
  658MPD2    H5 9746   1.734   2.652  14.497 -0.2023 -0.0633  0.5368
  658MPD2    N1 9747   1.732   2.213  14.699 -0.8371  0.4335  0.3897
  658MPD2    H7 9748   1.768   2.143  14.762  0.0252  1.8626  1.4999
  659TMC3    C1 9749   1.541   2.202  14.832  0.1667 -0.1212 -0.0590
  659TMC3    C2 9750   1.618   2.193  14.943 -0.2260 -0.6499  0.7633
  659TMC3    C3 9751   1.549   2.175  15.057 -0.6047 -0.0273 -0.2967
  659TMC3    C4 9752   1.406   2.193  14.831 -0.2521 -0.3301 -0.3387
  659TMC3    C5 9753   1.340   2.174  14.948 -0.0222 -0.5000  0.0517
  659TMC3    C6 9754   1.414   2.163  15.064  0.7067 -0.5185  0.6349
  659TMC3     C 9755   1.598   2.233  14.698  0.5049 -0.1122  0.5822
  659TMC3     O 9756   1.529   2.285  14.614 -0.3518  0.5144 -0.0506
  659TMC3     H 9757   1.724   2.214  14.941 -0.4123  0.2338  0.0001
  659TMC3    H1 9758   1.357   2.184  14.735  0.0121  1.5131 -0.6460
  659TMC3    H2 9759   1.359   2.137  15.154 -0.2367 -1.5055 -0.2074
  659TMC3    C7 9760   1.202   2.213  14.978 -0.1563 -0.1603  0.6496
  659TMC3    C8 9761   1.615   2.202  15.179  0.4007 -0.2464 -0.3277
  659TMC3    O1 9762   1.150   2.160  15.077 -0.1946  0.1318  0.0648
  659TMC3    O2 9763   1.734   2.170  15.189  0.0348  0.1948  0.2976
  660MPD2     C 9764   4.707   1.630  12.544  0.2273 -0.2967  0.2843
  660MPD2    C1 9765   4.578   1.684  12.549 -0.1795  0.2860  0.6147
  660MPD2    C2 9766   4.481   1.621  12.626 -0.0251  0.1167  0.3410
  660MPD2    C3 9767   4.508   1.497  12.689 -0.3550 -1.3141  0.4650
  660MPD2    C4 9768   4.642   1.454  12.689 -0.7926  0.0997 -0.1668
  660MPD2    C5 9769   0.018   1.519  12.613 -0.3941 -0.2682 -0.0685
  660MPD2     H 9770   4.380   1.661  12.623  0.3322  1.0172  0.0777
  660MPD2    H1 9771   4.673   1.359  12.732  0.5823 -0.0940 -1.5823
  660MPD2    H2 9772   0.068   1.682  12.493 -0.5136 -1.6440 -2.2598
  660MPD2    H3 9773   0.114   1.470  12.603 -0.1293  0.1350  0.5173
  660MPD2     N 9774   4.417   1.423  12.764 -0.5002  0.2810  0.2367
  660MPD2    H5 9775   4.458   1.347  12.817  1.0692  1.4940  0.7664
  660MPD2    N1 9776   4.553   1.788  12.459 -0.1081  0.1365 -0.6764
  660MPD2    H7 9777   4.636   1.813  12.406 -1.4024  0.3629 -2.6096
  661TMC3    C1 9778   4.429   1.953  12.335 -0.1550  0.0484  0.1406
  661TMC3    C2 9779   4.530   1.958  12.241  0.4391 -0.4481 -0.2179
  661TMC3    C3 9780   4.522   2.062  12.146 -0.6547  0.4921  0.3779
  661TMC3    C4 9781   4.322   2.043  12.341  0.3939 -0.4946  0.6270
  661TMC3    C5 9782   4.329   2.153  12.259  0.6392  0.6074 -0.4681
  661TMC3    C6 9783   4.425   2.161  12.162  0.2482 -0.1813 -0.5502
  661TMC3     C 9784   4.438   1.859  12.443  0.2722  0.1092  0.4505
  661TMC3     O 9785   4.345   1.852  12.521 -0.4659 -0.9284  0.2147
  661TMC3     H 9786   4.595   1.872  12.229  3.5282  1.8705 -0.1009
  661TMC3    H1 9787   4.248   2.035  12.420 -0.4371  1.5419  0.0527
  661TMC3    H2 9788   4.431   2.256  12.110  0.3812  1.3565  2.2721
  661TMC3    C7 9789   4.203   2.221  12.241 -0.6874  0.7618 -0.0921
  661TMC3    C8 9790   4.623   2.077  12.038 -0.5445  0.6034 -0.8822
  661TMC3    O1 9791   4.208   2.345  12.235 -0.4951 -0.0952  0.2054
  661TMC3    O2 9792   4.695   1.979  12.019 -0.5913 -0.1116  0.1173
  662MPD2     C 9793   0.071   1.100  17.263 -0.2239 -0.2744  0.0408
  662MPD2    C1 9794   0.092   1.111  17.399 -0.3238 -0.0849  0.5538
  662MPD2    C2 9795   0.084   1.239  17.452 -0.2813  0.9472 -0.0140
  662MPD2    C3 9796   0.043   1.346  17.375 -0.0956  0.0294  0.2251
  662MPD2    C4 9797   0.019   1.328  17.242 -0.1289 -0.8541 -0.7273
  662MPD2    C5 9798   0.025   1.201  17.189  0.2315  0.0927 -0.0913
  662MPD2     H 9799   0.100   1.260  17.558  0.9882 -3.1218  0.5910
  662MPD2    H1 9800   4.713   1.408  17.174  2.0904 -1.5347 -2.3528
  662MPD2    H2 9801   0.074   1.005  17.209  1.7061  0.4378 -1.1041
  662MPD2    H3 9802   4.702   1.184  17.091  1.9638 -0.5986 -0.7219
  662MPD2     N 9803   0.021   1.471  17.428  0.6671 -0.3725  0.3033
  662MPD2    H5 9804   4.691   1.539  17.371  1.2762 -0.2028 -0.0237
  662MPD2    N1 9805   0.098   0.997  17.476  0.8496 -0.1638  0.2935
  662MPD2    H7 9806   0.076   0.908  17.432  0.9689 -0.9145  1.7660
  663TMC3    C1 9807   0.093   0.871  17.676 -0.2434 -0.2571 -0.4269
  663TMC3    C2 9808   0.171   0.834   0.099  0.0363 -0.6247 -0.5910
  663TMC3    C3 9809   0.163   0.700   0.131  0.9015  0.4326  0.3667
  663TMC3    C4 9810   4.709   0.803  17.624 -0.0442  0.7258 -0.0333
  663TMC3    C5 9811   4.693   0.675  17.664 -0.1617 -0.7183 -0.6628
  663TMC3    C6 9812   0.065   0.625   0.072 -0.1462  0.1102 -0.2295
  663TMC3     C 9813   0.128   0.994  17.611 -0.3017 -0.0411 -0.6532
  663TMC3     O 9814   0.178   1.086  17.673  0.0965 -0.3447  0.5438
  663TMC3     H 9815   0.261   0.891   0.122 -0.8192 -0.9689  3.7227
  663TMC3    H1 9816   4.646   0.840  17.544 -0.1994 -0.0395 -0.2624
  663TMC3    H2 9817   0.056   0.524   0.110  0.0932  0.0475 -0.3459
  663TMC3    C7 9818   4.567   0.614  17.611  0.3876  0.8595 -0.5803
  663TMC3    C8 9819   0.204   0.661   0.263 -0.6842 -0.4729  0.4039
  663TMC3    O1 9820   4.463   0.682  17.598 -0.2638  0.0354  0.4902
  663TMC3    O2 9821   0.195   0.544   0.293  0.3262  0.2438  0.3630
  664MPD2     C 9822   3.136   4.037   0.349  1.1442 -0.5663 -0.4716
  664MPD2    C1 9823   3.188   4.157   0.307  0.4946 -0.1614  0.6194
  664MPD2    C2 9824   3.235   4.252   0.404 -0.1056  0.5079 -0.2573
  664MPD2    C3 9825   3.245   4.210   0.538  0.3257 -0.4393  0.0990
  664MPD2    C4 9826   3.190   4.085   0.578  0.7191  0.7473  0.0554
  664MPD2    C5 9827   3.143   4.006   0.479  0.2378 -0.1288  0.7070
  664MPD2     H 9828   3.266   4.351   0.374 -0.9002  0.7799 -0.1954
  664MPD2    H1 9829   3.185   4.037   0.675 -0.2546 -0.4499 -0.5818
  664MPD2    H2 9830   3.091   3.961   0.287  0.2055  1.9815 -2.9282
  664MPD2    H3 9831   3.100   3.909   0.503 -2.0455  0.5799 -0.5687
  664MPD2     N 9832   3.287   4.307   0.635 -0.2876  0.0668 -0.3030
  664MPD2    H5 9833   3.307   4.402   0.606 -0.7908  0.9314  2.1495
  664MPD2    N1 9834   3.194   4.195   0.170 -0.3490  0.2426  0.3427
  664MPD2    H7 9835   3.231   4.288   0.150  1.0481 -0.4170 -0.1394
  665TMC3    C1 9836   3.348   4.393   0.853 -0.6904 -0.2121  0.2361
  665TMC3    C2 9837   3.400   4.360   0.977 -0.1222 -0.3970 -0.7448
  665TMC3    C3 9838   3.499   4.435   1.029 -0.0371 -0.1501  0.4435
  665TMC3    C4 9839   3.394   4.505   0.785 -0.3551 -0.5312 -0.6317
  665TMC3    C5 9840   3.494   4.573   0.845  0.0900  0.1116 -0.2673
  665TMC3    C6 9841   3.545   4.549   0.969 -1.0238 -0.1031  0.0833
  665TMC3     C 9842   3.283   4.283   0.780 -1.0107  0.6745  1.1268
  665TMC3     O 9843   3.293   4.182   0.847  0.4009  0.4434  0.9194
  665TMC3     H 9844   3.365   4.277   1.037 -0.5824  1.9520  2.2237
  665TMC3    H1 9845   3.371   4.533   0.683  0.7438  0.1013 -0.7101
  665TMC3    H2 9846   3.619   4.619   1.006 -1.6311  0.1081  0.8899
  665TMC3    C7 9847   3.537   4.701   0.790 -0.2602  0.3046  0.4505
  665TMC3    C8 9848   3.558   4.400   1.155  1.0376  0.3272  0.3818
  665TMC3    O1 9849   3.601   4.705   0.686  0.5971  0.5164  0.0977
  665TMC3    O2 9850   3.498   4.330   1.234  0.0326  0.6067  0.3809
  666TMC3    C1 9851   2.592   4.659   9.013 -0.5891 -0.2602  1.1572
  666TMC3    C2 9852   2.673   4.558   9.065 -0.8033 -1.2561  0.3785
  666TMC3    C3 9853   2.798   4.604   9.107 -0.0299 -0.7006  0.1268
  666TMC3    C4 9854   2.637   0.072   9.014  0.5689 -0.2875  0.4316
  666TMC3    C5 9855   2.758   0.101   9.068 -0.1972 -0.2949  0.5518
  666TMC3    C6 9856   2.846   0.011   9.098  0.5585 -0.0598 -0.5716
  666TMC3     C 9857   2.451   4.649   9.017 -0.0856  0.4860  0.2072
  666TMC3     O 9858   2.381   0.029   9.004 -0.1175  0.4491  0.0071
  666TMC3     H 9859   2.650   4.452   9.070  0.3233 -1.4775  0.7947
  666TMC3    H1 9860   2.567   0.154   9.004  2.8635  1.7067  0.8510
  666TMC3    H2 9861   2.942   0.039   9.141 -0.3495 -0.6736  1.8841
  666TMC3    C7 9862   2.743   0.197   9.166 -0.3418 -0.4919  0.9001
  666TMC3    C8 9863   2.892   4.502   9.163 -0.3978  0.4782  0.6642
  666TMC3    O1 9864   2.785   0.181   9.279  0.4155  0.4280  0.0043
  666TMC3    O2 9865   2.836   4.415   9.229  0.2620  0.3293  0.1805
  667MPD2     C 9866   4.008   4.128  14.522  0.6707  0.3202 -0.8567
  667MPD2    C1 9867   3.891   4.159  14.589 -0.5737  0.1002  0.3863
  667MPD2    C2 9868   3.791   4.067  14.598 -0.0130 -0.0206  0.1280
  667MPD2    C3 9869   3.805   3.944  14.534 -0.2483 -0.0148 -0.4244
  667MPD2    C4 9870   3.920   3.913  14.461 -0.1025  0.1891  0.0378
  667MPD2    C5 9871   4.017   4.004  14.454 -0.1270 -0.5459  0.0381
  667MPD2     H 9872   3.703   4.085  14.658 -1.5747 -0.0039 -2.2129
  667MPD2    H1 9873   3.943   3.823  14.405 -0.6880 -0.2409  0.4860
  667MPD2    H2 9874   4.096   4.190  14.527 -0.4257  1.9282 -1.5658
  667MPD2    H3 9875   4.106   3.970  14.402 -1.1108 -0.7669 -1.5080
  667MPD2     N 9876   3.696   3.849  14.528 -0.7716 -0.1146  0.4693
  667MPD2    H5 9877   3.717   3.753  14.501  1.2233  0.1566  1.0335
  667MPD2    N1 9878   3.866   4.283  14.651  0.3931  0.1485 -0.3492
  667MPD2    H7 9879   3.788   4.283  14.715 -0.1110  1.9128 -0.9603
  668TMC3    C1 9880   3.887   4.500  14.747  0.0963  0.8779  0.1415
  668TMC3    C2 9881   3.931   4.627  14.726 -0.5217  0.0219 -1.2061
  668TMC3    C3 9882   3.951   4.706  14.837  0.1644 -0.8410 -0.3983
  668TMC3    C4 9883   3.875   4.447  14.876  0.2652 -0.1525  0.1619
  668TMC3    C5 9884   3.889   4.527  14.981 -0.3225  0.0602  0.0611
  668TMC3    C6 9885   3.927   4.657  14.964  0.4435  0.1672 -0.4571
  668TMC3     C 9886   3.928   4.408  14.640  0.1773 -0.5445 -0.7442
  668TMC3     O 9887   4.015   4.451  14.566 -0.3569  0.0342 -0.3411
  668TMC3     H 9888   3.935   4.662  14.624  0.8350 -0.2525 -1.2479
  668TMC3    H1 9889   3.853   4.343  14.896  1.7686 -1.0660 -3.0399
  668TMC3    H2 9890   3.938   0.000  15.052 -0.4615 -1.6741  0.9601
  668TMC3    C7 9891   3.845   4.481  15.112 -0.0334 -0.1249  0.4452
  668TMC3    C8 9892   3.976   0.128  14.823  0.4750  0.2115  0.4515
  668TMC3    O1 9893   3.893   4.535  15.209  0.2830 -0.0130  0.7532
  668TMC3    O2 9894   3.975   0.199  14.928  0.3718 -0.2757 -0.1828
  669TMC3    C1 9895   1.554   4.209  14.368 -0.1297  0.3157 -0.4801
  669TMC3    C2 9896   1.468   4.299  14.318 -0.4269 -0.8101  0.4860
  669TMC3    C3 9897   1.502   4.391  14.221  0.1724  0.3133  0.3970
  669TMC3    C4 9898   1.687   4.227  14.333  0.0198  0.5067  0.4953
  669TMC3    C5 9899   1.721   4.317  14.236 -0.2586  0.0418 -0.4085
  669TMC3    C6 9900   1.631   4.395  14.175 -0.2798 -0.9482  0.0636
  669TMC3     C 9901   1.520   4.114  14.468  0.7932  0.3157 -0.2438
  669TMC3     O 9902   1.401   4.109  14.492  0.5853  0.2841 -0.8203
  669TMC3     H 9903   1.364   4.285  14.347 -0.1321 -1.2506  1.3555
  669TMC3    H1 9904   1.757   4.161  14.383 -1.4582  0.8372  3.0263
  669TMC3    H2 9905   1.657   4.454  14.087 -1.0160 -1.1108 -0.2683
  669TMC3    C7 9906   1.863   4.355  14.213 -0.2482  0.1139  0.5007
  669TMC3    C8 9907   1.390   4.478  14.166 -0.1492 -0.0050 -0.1091
  669TMC3    O1 9908   1.887   4.438  14.129 -0.0153 -0.0895 -0.1610
  669TMC3    O2 9909   1.278   4.470  14.222  0.5815  0.2798 -0.1327
  670MPD2     C 9910   4.434   2.040  13.363 -0.5181  0.6724 -0.1965
  670MPD2    C1 9911   4.552   2.070  13.429 -0.6502 -0.4768  0.6410
  670MPD2    C2 9912   4.553   2.069  13.565  0.7474  0.0931 -0.8361
  670MPD2    C3 9913   4.450   2.016  13.640  0.4303 -0.2618  1.0698
  670MPD2    C4 9914   4.334   1.987  13.574 -0.1663 -0.5163 -0.1609
  670MPD2    C5 9915   4.321   2.014  13.439  0.4244  0.0787 -0.1130
  670MPD2     H 9916   4.648   2.097  13.610  2.2571 -0.6506 -3.5404
  670MPD2    H1 9917   4.243   1.947  13.616  0.2026 -1.8659 -0.6426
  670MPD2    H2 9918   4.425   2.042  13.255  1.0741 -1.5407 -0.3895
  670MPD2    H3 9919   4.227   1.997  13.388  0.9590 -0.7596 -0.8285
  670MPD2     N 9920   4.459   1.994  13.782 -0.0091 -0.3993 -0.7406
  670MPD2    H5 9921   4.547   2.027  13.821 -0.4553  1.1128 -1.0474
  670MPD2    N1 9922   4.673   2.096  13.360 -0.2740  0.0210  0.0078
  670MPD2    H7 9923   0.032   2.134  13.413 -0.7685 -0.0551  0.7900
  671TMC3    C1 9924   4.392   1.947  14.010  0.0327 -0.1910  0.8255
  671TMC3    C2 9925   4.520   1.937  14.062 -0.6040 -0.7218  0.0147
  671TMC3    C3 9926   4.537   1.870  14.180 -0.0254 -0.0943 -0.5205
  671TMC3    C4 9927   4.282   1.900  14.076 -0.6956  0.0778 -0.1647
  671TMC3    C5 9928   4.304   1.836  14.192  0.0308 -0.3044 -0.3179
  671TMC3    C6 9929   4.427   1.825  14.254 -0.6372  0.0393  0.1018
  671TMC3     C 9930   4.364   1.931  13.866  0.1221 -0.1163  0.2718
  671TMC3     O 9931   4.274   1.856  13.837 -0.0435  0.1528  0.2261
  671TMC3     H 9932   4.606   1.954  13.998 -3.1587  0.1970 -3.2254
  671TMC3    H1 9933   4.182   1.923  14.042 -1.4492 -1.1064  1.1924
  671TMC3    H2 9934   4.430   1.763  14.343  0.4957  1.5328  1.1214
  671TMC3    C7 9935   4.211   1.725  14.217 -0.0690  0.0545 -0.1496
  671TMC3    C8 9936   4.655   1.793  14.193 -0.5554 -0.0735 -0.5238
  671TMC3    O1 9937   4.208   1.670  14.324  0.3231 -0.2052 -0.2291
  671TMC3    O2 9938   0.021   1.803  14.105  0.7553 -0.0894 -0.1970
  672MPD2     C 9939   1.050   2.424   0.877  0.3097  0.1478 -0.0381
  672MPD2    C1 9940   1.107   2.317   0.953 -1.0951  0.6196 -0.5673
  672MPD2    C2 9941   1.119   2.329   1.091  0.5105  0.3130 -0.2882
  672MPD2    C3 9942   1.088   2.453   1.152 -0.1075  0.0897 -0.3583
  672MPD2    C4 9943   1.023   2.552   1.074 -0.0060  0.5180  0.0570
  672MPD2    C5 9944   1.000   2.531   0.940  0.0234 -0.2469 -0.2022
  672MPD2     H 9945   1.160   2.248   1.151  3.6028  2.0094 -0.0636
  672MPD2    H1 9946   0.987   2.645   1.117  1.2062  1.0193 -0.0199
  672MPD2    H2 9947   1.042   2.421   0.769  2.1557  0.3034 -0.1870
  672MPD2    H3 9948   0.957   2.607   0.875  0.1599 -0.1245 -0.1488
  672MPD2     N 9949   1.108   2.473   1.293  0.0855  0.6802  0.1698
  672MPD2    H5 9950   1.074   2.560   1.333  2.2813 -0.7064  5.0609
  672MPD2    N1 9951   1.160   2.201   0.903 -0.2113 -0.1298 -0.3626
  672MPD2    H7 9952   1.198   2.130   0.965  0.5431 -0.2611 -0.9808
  673TMC3    C1 9953   1.199   2.035   0.739 -0.3005  0.0840 -0.4240
  673TMC3    C2 9954   1.336   2.033   0.751 -0.2646  1.4030  0.4535
  673TMC3    C3 9955   1.409   1.976   0.645 -0.1881 -0.7645  0.3685
  673TMC3    C4 9956   1.145   1.980   0.627  0.2046 -0.2100 -0.0007
  673TMC3    C5 9957   1.218   1.936   0.526 -0.1428 -0.9139  0.0830
  673TMC3    C6 9958   1.354   1.932   0.532  0.2798 -0.4176 -0.1062
  673TMC3     C 9959   1.152   2.170   0.765  0.3121 -0.1144 -0.0044
  673TMC3     O 9960   1.090   2.221   0.674  0.2442  0.5129 -0.1061
  673TMC3     H 9961   1.381   2.096   0.826  1.0065  0.2756  0.6448
  673TMC3    H1 9962   1.036   1.980   0.631  0.1713  0.2943 -1.0554
  673TMC3    H2 9963   1.412   1.881   0.455  2.3488  0.5336  0.8184
  673TMC3    C7 9964   1.164   1.973   0.399  0.4962 -1.0733 -0.0387
  673TMC3    C8 9965   1.555   1.984   0.656  0.1757  0.0728  0.5619
  673TMC3    O1 9966   1.201   1.926   0.296 -0.2376  0.1977  0.7971
  673TMC3    O2 9967   1.617   1.964   0.551  0.1435 -0.1762  0.1887
  674MPD2     C 9968   0.233   2.443   1.249 -0.3521 -0.3488 -0.3660
  674MPD2    C1 9969   0.279   2.361   1.155 -0.3597  0.7424  0.7599
  674MPD2    C2 9970   0.184   2.271   1.109 -0.3050 -0.1016  0.1875
  674MPD2    C3 9971   0.053   2.271   1.139 -0.7744  0.3982  0.3166
  674MPD2    C4 9972   0.006   2.355   1.240  0.0615 -0.2105 -0.2869
  674MPD2    C5 9973   0.103   2.441   1.294 -0.1496  0.6186 -0.0775
  674MPD2     H 9974   0.214   2.204   1.029 -1.1326  0.0543 -0.2522
  674MPD2    H1 9975   4.627   2.361   1.283  0.7257 -2.0583  1.4955
  674MPD2    H2 9976   0.302   2.510   1.299 -1.1123 -0.9151  1.4604
  674MPD2    H3 9977   0.066   2.506   1.373  0.9948  2.3618 -0.9946
  674MPD2     N 9978   4.698   2.167   1.084  0.6085  0.7074 -0.2610
  674MPD2    H5 9979   0.029   2.105   1.022  1.1767 -0.0543  0.9582
  674MPD2    N1 9980   0.413   2.363   1.127  0.1355 -0.3881 -0.3352
  674MPD2    H7 9981   0.464   2.433   1.179 -0.1108 -2.4308  2.6835
  675TMC3    C1 9982   0.627   2.278   1.040 -0.2332 -0.1824  0.5118
  675TMC3    C2 9983   0.693   2.256   1.166 -0.2484  0.3868 -1.0389
  675TMC3    C3 9984   0.809   2.194   1.174  0.2615  0.5491 -0.0672
  675TMC3    C4 9985   0.680   2.232   0.926  0.0983 -0.2098  0.2283
  675TMC3    C5 9986   0.792   2.153   0.939 -0.2018 -0.1681  0.0985
  675TMC3    C6 9987   0.856   2.127   1.063 -0.4229  0.2146  0.1180
  675TMC3     C 9988   0.483   2.278   1.040  0.1442  0.2915  0.1264
  675TMC3     O 9989   0.441   2.198   0.961  0.3945 -0.1311  0.9535
  675TMC3     H 9990   0.651   2.296   1.258  0.1684  0.3636 -0.8413
  675TMC3    H1 9991   0.623   2.252   0.837  1.8764  0.3635 -0.7813
  675TMC3    H2 9992   0.930   2.049   1.076  0.0236  0.3947 -1.3798
  675TMC3    C7 9993   0.821   2.051   0.835  0.2054 -0.5452 -0.3755
  675TMC3    C8 9994   0.856   2.150   1.305 -0.9073  0.1140  0.4311
  675TMC3    O1 9995   0.901   1.960   0.854  0.5523  0.1587  0.2321
  675TMC3    O2 9996   0.882   2.233   1.389  0.3687 -0.0075 -0.1330
  676MPD2     C 9997   3.021   0.749  10.509  0.9848  0.1594 -0.1854
  676MPD2    C1 9998   2.966   0.694  10.619  0.0848  0.5025 -0.2444
  676MPD2    C2 9999   2.956   0.555  10.632  0.6114  0.6555  0.2695
  676MPD2    C310000   3.022   0.473  10.539  0.6271 -0.1684 -0.5578
  676MPD2    C410001   3.076   0.521  10.429 -0.1578 -0.2600  0.1203
  676MPD2    C510002   3.074   0.662  10.415  0.0898  0.2243 -0.1217
  676MPD2     H10003   2.890   0.510  10.705  2.0791  0.2622  1.3632
  676MPD2    H110004   3.122   0.459  10.353 -0.2978 -1.1438  0.7624
  676MPD2    H210005   3.027   0.854  10.483 -2.2034 -0.5324 -3.8061
  676MPD2    H310006   3.126   0.708  10.332  0.8822  1.6183  1.1548
  676MPD2     N10007   3.035   0.336  10.552 -0.1541  0.3839  0.2005
  676MPD2    H510008   3.081   0.287  10.476  0.7404  0.4131  0.7296
  676MPD2    N110009   2.889   0.771  10.715 -0.0433  0.1579  0.5381
  676MPD2    H710010   2.854   0.717  10.793 -0.3821  1.1248  1.0655
  677TMC3    C110011   2.877   0.952  10.864 -0.2497  0.3075 -0.3741
  677TMC3    C210012   2.875   0.864  10.967 -0.5653 -0.4827 -0.1935
  677TMC3    C310013   2.881   0.918  11.094  0.4879 -0.0569 -0.0949
  677TMC3    C410014   2.883   1.096  10.878  0.5340  1.0500 -0.5128
  677TMC3    C510015   2.877   1.142  11.006 -0.2754 -0.0851 -0.0164
  677TMC3    C610016   2.864   1.058  11.115 -0.1347  0.4743  0.0957
  677TMC3     C10017   2.908   0.907  10.729 -0.1590  0.0064  0.0671
  677TMC3     O10018   2.931   0.992  10.645  0.8396  0.1465  0.3561
  677TMC3     H10019   2.878   0.756  10.958 -0.5109 -0.5471  0.5376
  677TMC3    H110020   2.885   1.166  10.796 -0.8051 -0.7026 -2.0510
  677TMC3    H210021   2.865   1.111  11.209  0.8603  0.8877 -0.1445
  677TMC3    C710022   2.953   1.262  11.032  0.4290  0.1068  0.5905
  677TMC3    C810023   2.912   0.839  11.203  0.1383  0.1483  0.0089
  677TMC3    O110024   2.903   1.340  11.113 -0.1994  0.1825 -0.0529
  677TMC3    O210025   2.927   0.904  11.305  0.1970  0.4133  0.4790
  678MPD2     C10026   4.503   0.653   2.321 -0.1615 -0.2163  0.0751
  678MPD2    C110027   4.481   0.683   2.189  0.5158  0.6473  0.2968
  678MPD2    C210028   4.351   0.706   2.148  0.0551 -0.0847 -0.1061
  678MPD2    C310029   4.243   0.693   2.234  0.0119 -0.2785  0.8073
  678MPD2    C410030   4.270   0.654   2.366 -0.1729  0.1252 -0.3584
  678MPD2    C510031   4.399   0.636   2.402  0.0740  0.6341  0.0576
  678MPD2     H10032   4.327   0.719   2.043 -1.1376 -0.3069  0.1491
  678MPD2    H110033   4.196   0.627   2.441  0.2152  0.4596  0.1405
  678MPD2    H210034   4.605   0.641   2.356 -0.3297  2.4686  1.4900
  678MPD2    H310035   4.416   0.602   2.504  1.8647  3.1273  0.5811
  678MPD2     N10036   4.113   0.691   2.181 -0.1079  0.0628  0.0892
  678MPD2    H510037   4.093   0.715   2.085 -0.3556  1.4920  0.5105
  678MPD2    N110038   4.578   0.671   2.092  0.2110  0.0450  0.4477
  678MPD2    H710039   4.545   0.701   2.001 -0.6423 -1.8187  0.1415
  679TMC3    C110040   0.218   0.500   1.852 -0.6995 -0.1141  0.5032
  679TMC3    C210041   0.139   0.500   1.966  0.3170  0.3982 -0.2585
  679TMC3    C310042   0.050   0.601   1.979 -0.0386  0.7404 -0.3041
  679TMC3    C410043   0.210   0.597   1.753  0.3519 -0.4080  0.0357
  679TMC3    C510044   0.107   0.695   1.770  0.7858 -0.6388  0.1702
  679TMC3    C610045   0.030   0.699   1.879  0.9520 -0.4786 -0.1534
  679TMC3     C10046   0.311   0.389   1.835 -0.1396  0.2161 -0.7634
  679TMC3     O10047   0.307   0.298   1.918 -0.0242 -0.3883 -0.5258
  679TMC3     H10048   0.134   0.415   2.033 -0.9377 -1.2702 -2.4808
  679TMC3    H110049   0.259   0.591   1.657  0.5845  1.5660  0.0224
  679TMC3    H210050   4.686   0.783   1.904  0.6009 -1.0187  0.7762
  679TMC3    C710051   0.083   0.782   1.652  0.7177  0.6887 -0.1840
  679TMC3    C810052   4.706   0.623   2.112 -0.2052  0.4173 -0.4818
  679TMC3    O110053   0.156   0.767   1.556  0.1013  0.3344 -0.5435
  679TMC3    O210054   0.028   0.560   2.204  0.2732  0.4377  0.6129
  680MPD2     C10055   4.454   4.060  13.321  0.0333 -0.3430  0.2733
  680MPD2    C110056   4.485   3.964  13.412  0.3094  0.3206  0.0763
  680MPD2    C210057   4.570   4.003  13.521 -0.0076  1.2347  0.4155
  680MPD2    C310058   4.608   4.134  13.541 -0.1354  0.0966 -0.1030
  680MPD2    C410059   4.553   4.225  13.451  0.0401  0.0868  0.3604
  680MPD2    C510060   4.486   4.189  13.341  0.9035 -0.0910  0.4749
  680MPD2     H10061   4.605   3.924  13.587  0.1741 -0.4953 -1.7303
  680MPD2    H110062   4.573   4.331  13.457 -2.7742  0.6127  0.4986
  680MPD2    H210063   4.389   4.051  13.234  1.0377 -1.4583 -0.3631
  680MPD2    H310064   4.450   4.264  13.272  4.1367  1.3314  0.3776
  680MPD2     N10065   4.683   4.181  13.652  0.1583  0.3223  0.1582
  680MPD2    H510066   4.709   4.279  13.653  1.1617  0.0460  0.5532
  680MPD2    N110067   4.430   3.836  13.412  0.0246  0.2302  0.9219
  680MPD2    H710068   4.457   3.774  13.488  0.8951  0.3904  0.7359
  681TMC3    C110069   4.304   3.648  13.360 -0.3191 -0.1557 -0.0096
  681TMC3    C210070   4.283   3.635  13.495 -0.3714  0.8978  0.0912
  681TMC3    C310071   4.217   3.522  13.536  0.7207 -0.0766 -0.2288
  681TMC3    C410072   4.265   3.558  13.264 -0.8837 -0.2894 -0.3404
  681TMC3    C510073   4.205   3.443  13.312  0.2022 -0.3638  1.1414
  681TMC3    C610074   4.175   3.431  13.445 -0.0694  0.2384 -0.2362
  681TMC3     C10075   4.351   3.776  13.314 -0.1348 -0.5546  0.1950
  681TMC3     O10076   4.330   3.807  13.199  0.1011  0.5507 -0.4123
  681TMC3     H10077   4.310   3.710  13.568  1.4286  0.1593  0.1664
  681TMC3    H110078   4.287   3.574  13.159 -0.2810 -1.1717 -0.3415
  681TMC3    H210079   4.117   3.346  13.479  2.3231 -0.5802  1.7842
  681TMC3    C710080   4.192   3.317  13.241  0.1412 -0.1971  0.3602
  681TMC3    C810081   4.174   3.509  13.673 -0.7944  0.0208  1.0166
  681TMC3    O110082   4.123   3.228  13.290 -0.2893  0.2958  0.0335
  681TMC3    O210083   4.084   3.429  13.702 -1.0018  0.6863  0.8464
  682MPD2     C10084   2.374   0.932  10.282 -0.3666 -0.9001 -0.5378
  682MPD2    C110085   2.314   0.806  10.259  0.2594  0.5375 -0.8500
  682MPD2    C210086   2.198   0.778  10.335  0.0541 -0.9533 -0.3426
  682MPD2    C310087   2.163   0.856  10.437 -0.2814  0.4405 -0.0969
  682MPD2    C410088   2.237   0.966  10.472 -0.3579  0.6607  0.8257
  682MPD2    C510089   2.326   1.014  10.378 -0.5473 -0.1043  0.1918
  682MPD2     H10090   2.145   0.687  10.311  2.2018 -1.8660 -1.6768
  682MPD2    H110091   2.200   1.032  10.550 -0.7443 -0.6573  1.7388
  682MPD2    H210092   2.452   0.967  10.215 -1.5735  0.6868 -1.1165
  682MPD2    H310093   2.361   1.115  10.395 -1.0442  0.3447 -1.4879
  682MPD2     N10094   2.054   0.824  10.520  0.0783 -0.2103  0.2671
  682MPD2    H510095   2.049   0.868  10.611  2.0612  3.3495 -1.3371
  682MPD2    N110096   2.355   0.716  10.161  0.6308 -0.0477 -1.0691
  682MPD2    H710097   2.301   0.633  10.142 -2.1913  1.8968 -1.4532
  683TMC3    C110098   1.907   0.599  10.803  0.0587 -0.0429 -0.2994
  683TMC3    C210099   1.804   0.511  10.775 -0.0584 -0.3120  0.5984
  683TMC3    C310100   1.746   0.528  10.656 -0.0057 -0.3786 -0.2692
  683TMC3    C410101   1.954   0.696  10.721  0.8265  0.0289  0.2044
  683TMC3    C510102   1.878   0.715  10.605  0.3412  0.3049  0.1917
  683TMC3    C610103   1.774   0.633  10.569 -0.3970  0.5221 -0.0221
  683TMC3     C10104   1.938   0.618  10.945  1.0098 -0.1305 -1.4391
  683TMC3     O10105   1.953   0.734  10.991  0.4827  0.9787  0.4266
  683TMC3     H10106   1.776   0.437  10.848 -1.6887  0.7094  1.0183
  683TMC3    H110107   2.027   0.769  10.752  1.5495  0.5230 -2.7030
  683TMC3    H210108   1.733   0.632  10.469 -1.7687  3.4486  0.5109
  683TMC3    C710109   1.961   0.732  10.495  0.4107  0.0593 -0.4826
  683TMC3    C810110   1.694   0.413  10.591 -0.0240 -0.4626  0.0137
  683TMC3    O110111   1.932   0.679  10.388  0.2167 -0.3564 -0.3948
  683TMC3    O210112   1.610   0.427  10.499  0.1206  0.2973 -0.3830
  684MPD2     C10113   4.323   4.538  16.451 -0.1393 -0.3327  0.3063
  684MPD2    C110114   4.435   4.488  16.381 -0.1861  0.6044  0.0150
  684MPD2    C210115   4.552   4.566  16.363  0.4157  0.0736  0.2032
  684MPD2    C310116   4.561   4.693  16.411  0.1830  0.3839  0.4198
  684MPD2    C410117   4.456   0.021  16.476  0.1787 -0.0717 -0.2073
  684MPD2    C510118   4.335   4.670  16.502  0.1638  0.4211 -0.2649
  684MPD2     H10119   4.630   4.524  16.301 -0.1492  0.7096 -0.9363
  684MPD2    H110120   4.457   0.123  16.511 -0.6350 -0.1386  0.0005
  684MPD2    H210121   4.229   4.486  16.463 -0.7831  0.9368  0.7955
  684MPD2    H310122   4.251   4.716  16.553  2.9714  1.5250  3.3673
  684MPD2     N10123   4.671   0.059  16.390 -1.3424  0.1567  0.3551
  684MPD2    H510124   4.667   0.159  16.405  1.6559  0.1426  1.3440
  684MPD2    N110125   4.439   4.366  16.316 -0.6897 -0.2453  0.3225
  684MPD2    H710126   4.516   4.357  16.251 -3.4262 -2.4041 -2.6308
  685TMC3    C110127   4.381   4.161  16.219  0.4805  0.0012  0.5100
  685TMC3    C210128   4.283   4.097  16.145 -0.4115 -0.5592  0.2415
  685TMC3    C310129   4.320   4.016  16.043  0.6875 -0.9692  0.1444
  685TMC3    C410130   4.512   4.144  16.182 -1.3566  0.7706  0.4112
  685TMC3    C510131   4.542   4.073  16.073 -0.7368  0.6434  0.4467
  685TMC3    C610132   4.449   4.004  15.998  0.0830  0.0368  0.9328
  685TMC3     C10133   4.344   4.263  16.314  0.0800  0.4404  0.5486
  685TMC3     O10134   4.237   4.253  16.362 -0.5466  0.6134  0.7592
  685TMC3     H10135   4.182   4.100  16.182  0.4550 -0.5530  2.6164
  685TMC3    H110136   4.593   4.186  16.240 -0.3358  1.2695 -1.3791
  685TMC3    H210137   4.476   3.938  15.916  4.6981  2.0693  0.7811
  685TMC3    C710138   4.681   4.047  16.059 -0.4069  0.5712  0.1278
  685TMC3    C810139   4.212   3.956  15.960  0.3687 -0.3549 -0.8582
  685TMC3    O110140   0.015   4.011  16.164  0.4151  0.4993 -0.2384
  685TMC3    O210141   4.251   3.877  15.878 -0.5913  0.1064 -0.3757
  686MPD2     C10142   1.298   4.325  15.151 -0.2278 -0.2519 -0.1747
  686MPD2    C110143   1.305   4.241  15.258  0.1658  0.2129  0.2258
  686MPD2    C210144   1.402   4.144  15.255 -0.0822 -0.8245 -0.0124
  686MPD2    C310145   1.465   4.108  15.139 -0.2796 -0.8564  0.0720
  686MPD2    C410146   1.456   4.190  15.034 -0.9542  0.4867  0.3126
  686MPD2    C510147   1.375   4.299  15.041  0.1640  0.7186 -0.2327
  686MPD2     H10148   1.427   4.084  15.342 -1.1181 -1.9342 -0.4905
  686MPD2    H110149   1.509   4.176  14.940 -0.6711 -1.9017  0.8501
  686MPD2    H210150   1.220   4.400  15.145 -2.1067 -2.1103  0.5188
  686MPD2    H310151   1.365   4.362  14.952 -1.9705 -2.1548 -2.0064
  686MPD2     N10152   1.543   3.993  15.133 -0.3907  0.3250  0.3250
  686MPD2    H510153   1.616   3.994  15.063 -0.5676  2.0099  0.1674
  686MPD2    N110154   1.210   4.255  15.364 -0.4176  0.1459  0.1038
  686MPD2    H710155   1.139   4.327  15.356  0.7861  1.1829 -1.3586
  687TMC3    C110156   1.442   3.847  15.308 -0.3352  0.3131  0.6994
  687TMC3    C210157   1.312   3.866  15.267 -0.2606 -0.0723  0.0899
  687TMC3    C310158   1.213   3.828  15.351  0.3674 -0.1796  0.6609
  687TMC3    C410159   1.478   3.784  15.421 -0.1848  0.2923  0.1015
  687TMC3    C510160   1.371   3.741  15.498 -0.3276  0.1225  0.6785
  687TMC3    C610161   1.242   3.760  15.471 -0.1058  0.5716 -1.2279
  687TMC3     C10162   1.557   3.892  15.227 -0.3538  0.1442  0.1798
  687TMC3     O10163   1.658   3.821  15.235  0.4815 -0.3456  0.1815
  687TMC3     H10164   1.302   3.912  15.169 -2.5192  1.6416  1.1348
  687TMC3    H110165   1.579   3.753  15.446 -0.2237 -0.7330 -1.0201
  687TMC3    H210166   1.159   3.739  15.538  2.4430 -1.4617  1.2476
  687TMC3    C710167   1.400   3.732  15.637  0.3037  0.7200 -0.6547
  687TMC3    C810168   1.077   3.847  15.313  0.3340  0.1439 -0.0857
  687TMC3    O110169   1.315   3.766  15.716  0.0457  0.4135  0.5039
  687TMC3    O210170   0.986   3.793  15.378 -0.2600  0.1116 -0.1762
  688MPD2     C10171   0.655   3.215  17.193 -0.3504 -0.1881  0.0711
  688MPD2    C110172   0.716   3.099  17.220 -0.4827  0.7838 -0.2843
  688MPD2    C210173   0.808   3.038  17.130 -0.4518  0.4428 -0.3601
  688MPD2    C310174   0.819   3.098  17.005 -0.0407 -0.5952  0.2886
  688MPD2    C410175   0.749   3.210  16.974 -0.4364  0.6158 -0.4824
  688MPD2    C510176   0.666   3.267  17.066 -0.4205  0.0781  0.0399
  688MPD2     H10177   0.861   2.949  17.161 -0.8125  0.9038  1.6078
  688MPD2    H110178   0.757   3.251  16.874 -1.4418 -0.1461 -0.8734
  688MPD2    H210179   0.590   3.261  17.267  0.5006 -0.0798  0.7517
  688MPD2    H310180   0.618   3.362  17.045 -1.2671 -0.5299 -0.7778
  688MPD2     N10181   0.917   3.047  16.907 -0.1655 -0.1540 -0.3950
  688MPD2    H510182   0.923   3.116  16.833 -1.4089  0.5149  0.1316
  688MPD2    N110183   0.703   3.035  17.343  0.4515  0.5675 -0.2237
  688MPD2    H710184   0.747   2.945  17.361 -0.5300  0.3791  1.2493
  689TMC3    C110185   0.650   2.998  17.569 -0.0015  0.0001  0.5352
  689TMC3    C210186   0.663   3.055   0.007 -0.3899  0.4182  0.8362
  689TMC3    C310187   0.708   2.981   0.117  0.5280  0.9445 -0.4741
  689TMC3    C410188   0.661   2.859  17.557  0.0702  0.4946 -0.6799
  689TMC3    C510189   0.687   2.790  17.672 -0.1811 -0.0208  0.3894
  689TMC3    C610190   0.722   2.849   0.111 -0.6712 -0.4207  0.4794
  689TMC3     C10191   0.663   3.096  17.459 -0.0160  0.1187 -0.1118
  689TMC3     O10192   0.653   3.217  17.478 -0.2001 -0.2154  0.2303
  689TMC3     H10193   0.647   3.162   0.005  2.2807  0.8309  2.5626
  689TMC3    H110194   0.639   2.819  17.459  0.4861 -0.9638 -0.1720
  689TMC3    H210195   0.744   2.790   0.199 -0.1120  1.0125  1.3005
  689TMC3    C710196   0.668   2.646  17.677 -0.7461 -0.0747  0.0413
  689TMC3    C810197   0.713   3.050   0.244 -0.1079  0.3894  0.3048
  689TMC3    O110198   0.718   2.590   0.088 -0.3975  0.3832 -0.1135
  689TMC3    O210199   0.742   2.987   0.344 -0.3108  0.2938  0.1991
  690MPD2     C10200   2.850   0.209  15.858  0.4448 -0.0995 -0.7444
  690MPD2    C110201   2.812   0.134  15.751  0.0457 -1.0128 -0.5722
  690MPD2    C210202   2.870   0.153  15.627  0.0852 -0.1418 -0.4522
  690MPD2    C310203   2.965   0.255  15.617  0.6032 -0.4261 -0.3589
  690MPD2    C410204   3.010   0.327  15.723 -0.3647 -0.4769  0.2413
  690MPD2    C510205   2.946   0.306  15.844 -0.2970 -0.0262 -0.2120
  690MPD2     H10206   2.829   0.090  15.549  0.8086 -2.0704  0.7198
  690MPD2    H110207   3.068   0.418  15.718 -1.6290  0.3522  0.8279
  690MPD2    H210208   2.812   0.179  15.955 -0.6163 -0.1652 -1.1808
  690MPD2    H310209   2.986   0.359  15.930 -1.0765  1.6068 -0.8513
  690MPD2     N10210   3.006   0.291  15.487 -0.2985 -1.0371  0.3312
  690MPD2    H510211   2.951   0.254  15.411 -0.6395  0.4443 -0.1503
  690MPD2    N110212   2.727   0.018  15.775  0.2922 -0.0625  0.2902
  690MPD2    H710213   2.717   4.671  15.698 -0.0120  0.6853 -0.3231
  691TMC3    C110214   2.568   4.597  15.867 -0.1887  0.4060 -0.0745
  691TMC3    C210215   2.433   4.584  15.906  0.0962 -0.0836  0.5554
  691TMC3    C310216   2.375   4.457  15.905 -0.1114 -0.1005  1.0462
  691TMC3    C410217   2.641   4.486  15.833 -0.2953 -0.1029  0.1309
  691TMC3    C510218   2.583   4.360  15.844  0.1473 -0.4783 -0.5202
  691TMC3    C610219   2.451   4.350  15.882 -0.1926  0.4314 -0.3141
  691TMC3     C10220   2.631   0.007  15.871  0.2144  0.1168  0.2837
  691TMC3     O10221   2.569   0.089  15.940 -0.2660 -0.4670 -0.0920
  691TMC3     H10222   2.376   4.675  15.922  0.0482 -0.4805  2.6491
  691TMC3    H110223   2.746   4.502  15.809  0.5935 -3.8326  1.5641
  691TMC3    H210224   2.396   4.257  15.894  1.0609  0.0204  2.2327
  691TMC3    C710225   2.629   4.256  15.756  0.0068  0.3764 -0.9761
  691TMC3    C810226   2.236   4.444  15.868 -0.1758  0.3336  0.0302
  691TMC3    O110227   2.752   4.246  15.742  0.5887  0.4690  0.1645
  691TMC3    O210228   2.226   4.355  15.780  0.3734  0.0648  0.1660
  692TMC3    C110229   4.359   1.173  15.872  0.5356  0.1272  0.6660
  692TMC3    C210230   4.496   1.209  15.876  0.0478  0.2045  0.0360
  692TMC3    C310231   4.589   1.131  15.813 -0.0213 -0.1819 -0.0249
  692TMC3    C410232   4.325   1.041  15.850  0.1178 -0.6138  0.5904
  692TMC3    C510233   4.422   0.967  15.795  1.1753 -0.4912 -0.5127
  692TMC3    C610234   4.544   1.012  15.759 -0.7405  0.2651 -0.2001
  692TMC3     C10235   4.281   1.248  15.960  0.1950  0.3955  0.4358
  692TMC3     O10236   4.220   1.186  16.045 -0.1409  0.2800  0.3311
  692TMC3     H10237   4.532   1.311  15.887 -0.3452  0.0781  2.4942
  692TMC3    H110238   4.228   0.994  15.863 -0.4164  1.1114  2.8143
  692TMC3    H210239   4.632   0.949  15.748  0.9839  2.6927 -0.4369
  692TMC3    C710240   4.394   0.825  15.786  0.0322  0.5126 -0.0766
  692TMC3    C810241   4.691   1.102  15.915  0.1183  0.1970  0.0912
  692TMC3    O110242   4.281   0.799  15.744 -0.2985 -0.1457 -0.2849
  692TMC3    O210243   0.041   1.006  15.911  0.3448  0.4188  0.2443
  693MPD2     C10244   4.115   0.043  10.875  0.2957 -0.1804  0.2700
  693MPD2    C110245   4.119   4.635  10.823  0.1613  0.3023 -0.3294
  693MPD2    C210246   4.236   4.564  10.820 -0.7875  0.1250 -0.6816
  693MPD2    C310247   4.352   4.623  10.876 -0.4865 -0.8231 -0.6785
  693MPD2    C410248   4.345   0.032  10.912  0.4842 -0.0760  0.0074
  693MPD2    C510249   4.234   0.108  10.898 -0.2366  0.5067 -0.1363
  693MPD2     H10250   4.232   4.460  10.788 -0.7427  0.4292 -1.6790
  693MPD2    H110251   4.433   0.085  10.947 -0.0526  1.6133 -1.1815
  693MPD2    H210252   4.023   0.100  10.870 -0.6532 -1.7959 -0.8409
  693MPD2    H310253   4.232   0.214  10.918 -0.6289  0.2977  0.8977
  693MPD2     N10254   4.474   4.559  10.878  0.2011 -0.1901 -0.3296
  693MPD2    H510255   4.534   4.606  10.945  0.7879  3.8459 -3.6676
  693MPD2    N110256   3.996   4.580  10.800  0.5828  0.0269 -0.3681
  693MPD2    H710257   3.916   4.623  10.845 -0.5867 -0.0508 -2.3879
  694TMC3    C110258   3.848   4.398  10.769  0.6963  0.0422 -0.8077
  694TMC3    C210259   3.803   4.309  10.675  0.2518  0.1711  0.3174
  694TMC3    C310260   3.702   4.226  10.717 -0.1081  0.4958  0.0002
  694TMC3    C410261   3.804   4.408  10.896  0.5410  0.0257  0.3279
  694TMC3    C510262   3.703   4.322  10.930 -0.2518  0.4861  0.6808
  694TMC3    C610263   3.641   4.230  10.842  0.0969  0.0243  0.2792
  694TMC3     C10264   3.980   4.456  10.745 -0.3220  0.3814  0.2551
  694TMC3     O10265   4.049   4.404  10.660 -0.2951  0.0051  0.3171
  694TMC3     H10266   3.861   4.277  10.588  0.8370 -0.2450  0.8572
  694TMC3    H110267   3.846   4.478  10.967  0.2865  0.0570  0.4497
  694TMC3    H210268   3.555   4.172  10.874  0.9031 -1.2294  0.1878
  694TMC3    C710269   3.664   4.327  11.068  0.1826  0.1365  0.2487
  694TMC3    C810270   3.642   4.138  10.622  0.2606  0.1401  0.2365
  694TMC3    O110271   3.682   4.438  11.125  0.1378 -0.2475  0.2772
  694TMC3    O210272   3.578   4.044  10.668  0.0564 -0.7106 -0.1483
  695MPD2     C10273   0.100   1.226  13.407 -0.6567 -0.6930 -0.0055
  695MPD2    C110274   0.034   1.225  13.527  0.1853  0.6786  0.3816
  695MPD2    C210275   4.620   1.253  13.531 -0.1045 -0.4907  0.2473
  695MPD2    C310276   4.549   1.285  13.413 -0.4732  0.4380  0.1422
  695MPD2    C410277   4.611   1.280  13.291  0.3308  0.5439  0.2483
  695MPD2    C510278   0.028   1.248  13.290 -1.2583  0.0304  0.4591
  695MPD2     H10279   4.568   1.260  13.626  0.3831 -1.4137  0.5804
  695MPD2    H110280   4.557   1.280  13.197  1.8521 -0.1540 -0.6192
  695MPD2    H210281   0.204   1.199  13.392 -0.4938  0.1872 -0.4540
  695MPD2    H310282   0.068   1.245  13.189 -1.6117 -1.5165  0.3711
  695MPD2     N10283   4.418   1.333  13.420 -0.1007  0.3394 -0.3677
  695MPD2    H510284   4.377   1.350  13.512  1.2322  2.3954 -0.1366
  695MPD2    N110285   0.108   1.215  13.648 -0.3479 -0.3041 -0.3572
  695MPD2    H710286   0.050   1.222  13.731 -1.0907  0.1640 -0.9147
  696TMC3    C110287   4.218   1.443  13.368  0.0546  0.4139 -0.3917
  696TMC3    C210288   4.155   1.393  13.485 -0.0587 -0.0216  0.1210
  696TMC3    C310289   4.030   1.437  13.512  0.0149  0.5895  0.6181
  696TMC3    C410290   4.167   1.532  13.284  0.1437 -1.1269  0.1256
  696TMC3    C510291   4.044   1.576  13.318  0.4367 -0.1732 -1.2566
  696TMC3    C610292   3.970   1.525  13.429 -0.3003  0.4188  0.3237
  696TMC3     C10293   4.343   1.386  13.320 -0.2065 -0.4017 -0.6546
  696TMC3     O10294   4.369   1.410  13.203 -0.4486  0.6823 -0.4713
  696TMC3     H10295   4.207   1.337  13.562  1.0552 -0.2440 -0.8062
  696TMC3    H110296   4.226   1.590  13.214 -1.5474  2.1756  1.4662
  696TMC3    H210297   3.873   1.571  13.443 -0.8318 -1.1241  1.6855
  696TMC3    C710298   4.032   1.719  13.307  0.4000  0.3722  0.7006
  696TMC3    C810299   4.006   1.476  13.649 -0.4353 -0.7178  0.2706
  696TMC3    O110300   4.070   1.771  13.202 -0.7994 -0.2249  0.3199
  696TMC3    O210301   3.960   1.587  13.665  0.1877  0.4498 -0.0140
  697MPD2     C10302   3.935   2.912  15.550 -0.6643  0.3157  0.0337
  697MPD2    C110303   3.893   2.824  15.449 -0.2296 -0.3527  1.0892
  697MPD2    C210304   3.852   2.880  15.330  0.6272  0.3375 -0.2704
  697MPD2    C310305   3.839   3.019  15.309  0.5326  0.2267  0.1314
  697MPD2    C410306   3.879   3.100  15.418  0.5402 -1.1743  0.2279
  697MPD2    C510307   3.928   3.045  15.531  0.4465  0.0780 -0.6820
  697MPD2     H10308   3.811   2.812  15.256  0.7394 -0.3043  0.2564
  697MPD2    H110309   3.883   3.208  15.405  1.1394 -1.3265 -0.8591
  697MPD2    H210310   3.970   2.896  15.651 -0.2838  2.6927  0.2662
  697MPD2    H310311   3.946   3.114  15.612  1.5782  0.4036 -1.2003
  697MPD2     N10312   3.782   3.076  15.194  0.6203 -0.2288  0.4065
  697MPD2    H510313   3.755   3.007  15.125 -1.1149 -0.0977  0.9458
  697MPD2    N110314   3.874   2.684  15.466  0.2446 -0.2219 -0.5511
  697MPD2    H710315   3.824   2.631  15.396  0.3042 -0.4618 -0.4114
  698TMC3    C110316   3.702   3.222  15.028 -0.7605 -0.4070  0.0721
  698TMC3    C210317   3.635   3.338  15.014 -0.4102 -0.2429 -0.7808
  698TMC3    C310318   3.636   3.397  14.896 -0.8355  0.1206 -0.2442
  698TMC3    C410319   3.774   3.161  14.928 -0.0356 -0.4034 -0.1308
  698TMC3    C510320   3.768   3.220  14.805  0.7213  0.2890  0.2561
  698TMC3    C610321   3.699   3.338  14.789 -0.4903 -0.3515 -0.6318
  698TMC3     C10322   3.737   3.201  15.168  0.0981 -0.9316  0.4975
  698TMC3     O10323   3.728   3.302  15.237  0.3819  0.8417  0.5028
  698TMC3     H10324   3.576   3.383  15.093  1.3875 -1.5172  1.2777
  698TMC3    H110325   3.817   3.061  14.936  0.0604 -0.4829 -1.7732
  698TMC3    H210326   3.702   3.396  14.698  1.2568 -0.8981 -0.9184
  698TMC3    C710327   3.840   3.157  14.698  0.4887 -0.3243 -0.5072
  698TMC3    C810328   3.604   3.546  14.896 -0.2326  0.2677 -0.7962
  698TMC3    O110329   3.938   3.082  14.720  0.7688  0.1373 -0.3575
  698TMC3    O210330   3.508   3.574  14.970  0.1530 -0.3840 -0.2484
  699TMC3    C110331   4.221   1.347  12.864 -0.0968  0.8827  0.0439
  699TMC3    C210332   4.290   1.242  12.925  0.1702  0.0681  0.9113
  699TMC3    C310333   4.226   1.165  13.015 -0.2314 -0.4267 -0.1026
  699TMC3    C410334   4.095   1.377  12.901  0.2498 -0.4946  0.0863
  699TMC3    C510335   4.034   1.302  12.997 -0.0683  0.6698  0.3811
  699TMC3    C610336   4.090   1.191  13.045 -0.5600 -0.1839 -0.5287
  699TMC3     C10337   4.285   1.443  12.771 -0.4604  0.1510  0.3153
  699TMC3     O10338   4.218   1.530  12.717  0.3247 -0.3072 -0.0779
  699TMC3     H10339   4.385   1.205  12.887 -0.7698 -0.8627 -0.5189
  699TMC3    H110340   4.043   1.460  12.853  2.1450 -0.5867 -2.1218
  699TMC3    H210341   4.042   1.114  13.104  0.3641 -0.9738 -0.8223
  699TMC3    C710342   3.898   1.332  13.038  0.6988 -0.4333  0.2345
  699TMC3    C810343   4.299   1.073  13.099 -0.7773  0.6438  0.9771
  699TMC3    O110344   3.829   1.240  13.081  1.0213  0.0329  0.1448
  699TMC3    O210345   4.230   1.012  13.179  0.4923 -0.0883  0.3085
  700TMC3    C110346   3.309   3.464  17.572  0.4175 -0.4607 -0.0152
  700TMC3    C210347   3.325   3.335  17.558  0.5992 -0.7677 -0.0593
  700TMC3    C310348   3.427   3.269  17.629 -0.2677 -0.1056 -0.9990
  700TMC3    C410349   3.396   3.538  17.639 -0.4849  0.0314  0.2834
  700TMC3    C510350   3.499   3.473   0.023 -0.4477  0.4357 -0.2005
  700TMC3    C610351   3.516   3.337   0.017 -1.0952  0.0891 -0.9077
  700TMC3     C10352   3.239   3.530  17.466 -0.5142  0.8069 -0.6484
  700TMC3     O10353   3.125   3.496  17.435 -0.0287 -0.5171  0.2496
  700TMC3     H10354   3.256   3.279  17.495 -0.8589  0.4856  0.4217
  700TMC3    H110355   3.375   3.644  17.650 -2.0438 -0.5002  2.4064
  700TMC3    H210356   3.587   3.282   0.077 -3.3145 -2.0654 -0.2447
  700TMC3    C710357   3.572   3.551   0.116 -0.4714 -0.0169  0.5668
  700TMC3    C810358   3.468   3.148  17.570 -1.2504 -0.8905 -0.1248
  700TMC3    O110359   3.522   3.663   0.126 -0.5058 -0.0307 -0.0402
  700TMC3    O210360   3.589   3.132  17.554  0.0477  0.6256 -0.3426
  701TMC3    C110361   3.352   2.104  15.739  0.3525 -0.7169  0.2720
  701TMC3    C210362   3.379   2.026  15.629 -0.5089  0.2039  0.4076
  701TMC3    C310363   3.451   2.082  15.527  0.4036 -0.5230 -0.4057
  701TMC3    C410364   3.415   2.224  15.766 -0.6014 -0.2781  0.5216
  701TMC3    C510365   3.488   2.276  15.660  0.2224  0.6602 -0.8311
  701TMC3    C610366   3.509   2.206  15.537  0.2007  0.6241  0.4974
  701TMC3     C10367   3.257   2.058  15.835 -0.8016  0.0646  0.8999
  701TMC3     O10368   3.216   2.143  15.915  0.4350  0.2162 -0.5689
  701TMC3     H10369   3.334   1.928  15.613 -1.7086  0.9060 -0.5445
  701TMC3    H110370   3.396   2.277  15.859  2.0161  0.6491  0.5078
  701TMC3    H210371   3.551   2.256  15.450  1.8514  0.7267  1.3447
  701TMC3    C710372   3.518   2.415  15.650  0.0204 -0.3309  0.2000
  701TMC3    C810373   3.411   2.038  15.394 -0.4044  0.0585  0.5311
  701TMC3    O110374   3.540   2.459  15.538  0.0854  0.1755  0.4888
  701TMC3    O210375   3.342   1.936  15.385 -0.2083  0.6294  0.5101
  702MPD2     C10376   3.505   4.644  10.304 -0.3164 -0.1428 -0.3942
  702MPD2    C110377   3.432   0.033  10.345 -0.1828 -0.1672  0.1707
  702MPD2    C210378   3.475   0.160  10.308 -0.2376  0.3868 -0.2684
  702MPD2    C310379   3.591   0.177  10.237  0.2433 -0.3408 -0.6055
  702MPD2    C410380   3.671   0.063  10.208 -0.2757  0.0367  0.1905
  702MPD2    C510381   3.621   4.662  10.238  0.9869 -0.0909 -0.1875
  702MPD2     H10382   3.409   0.241  10.336  0.8952  0.7337  1.3469
  702MPD2    H110383   3.755   0.069  10.140  0.1147  1.3864  0.7887
  702MPD2    H210384   3.474   4.544  10.334 -4.2246  1.1146 -0.1761
  702MPD2    H310385   3.682   4.580  10.202 -0.9025 -1.0169 -1.2626
  702MPD2     N10386   3.634   0.309  10.195  0.5901 -0.1754  0.3621
  702MPD2    H510387   3.730   0.319  10.165 -0.0627 -2.2568 -2.4393
  702MPD2    N110388   3.316   0.019  10.422 -0.5302 -0.1131  0.0893
  702MPD2    H710389   3.260   0.102  10.439 -1.5159 -0.4085 -1.7384
  703TMC3    C110390   3.607   0.546  10.150  0.2905  0.0437  0.7799
  703TMC3    C210391   3.514   0.634  10.094  0.3455 -0.3380 -0.5725
  703TMC3    C310392   3.570   0.751  10.035 -0.1388  0.5478 -0.9896
  703TMC3    C410393   3.739   0.570  10.155 -0.1621  0.1879 -0.0804
  703TMC3    C510394   3.783   0.682  10.090 -0.1254  0.2027 -0.1264
  703TMC3    C610395   3.705   0.771  10.025  0.0521 -0.2812 -0.1678
  703TMC3     C10396   3.545   0.416  10.190 -0.1339 -0.0269 -0.2973
  703TMC3     O10397   3.424   0.412  10.187 -0.5510 -0.4526 -0.0633
  703TMC3     H10398   3.407   0.624  10.106  0.3350 -0.4814 -0.7807
  703TMC3    H110399   3.813   0.499  10.190 -0.4079 -0.6781 -1.3003
  703TMC3    H210400   3.744   0.860   9.977 -2.1817  0.6714 -0.2055
  703TMC3    C710401   3.927   0.706  10.080 -0.2902 -0.0012 -0.1847
  703TMC3    C810402   3.520   0.876  10.087 -0.3178  0.3709 -0.9911
  703TMC3    O110403   3.965   0.772   9.985  0.1476  0.9502 -0.0779
  703TMC3    O210404   3.604   0.969  10.111  0.2828  0.4119 -0.3219
  704TMC3    C110405   0.956   2.715  12.690 -0.3803 -0.2784  0.6539
  704TMC3    C210406   1.043   2.760  12.592 -0.5103 -0.3610 -0.2610
  704TMC3    C310407   1.173   2.745  12.608  0.3875  0.3185 -0.4008
  704TMC3    C410408   1.007   2.658  12.802 -0.4939  0.2340 -0.2290
  704TMC3    C510409   1.141   2.629  12.813 -0.1719  0.0599  0.3954
  704TMC3    C610410   1.224   2.677  12.710  0.2947  0.9841  0.2323
  704TMC3     C10411   0.844   2.647  12.631  0.6075  0.1738  0.2417
  704TMC3     O10412   0.754   2.590  12.698  0.4074  0.1042 -0.0619
  704TMC3     H10413   1.009   2.822  12.510 -1.4084  2.0219  1.9210
  704TMC3    H110414   0.947   2.636  12.890  0.4202 -0.9465  0.1032
  704TMC3    H210415   1.332   2.666  12.715  0.1719  0.3655  1.7525
  704TMC3    C710416   1.202   2.545  12.924  0.1408 -0.0836 -0.4188
  704TMC3    C810417   1.236   2.743  12.481 -0.6083 -0.7947 -0.6003
  704TMC3    O110418   1.323   2.535  12.927  0.0847  0.2803  0.5903
  704TMC3    O210419   1.168   2.713  12.386 -0.5260  0.6688 -0.1835
  705MPD2     C10420   0.469   0.670  16.447 -0.3942  0.5361 -0.3965
  705MPD2    C110421   0.381   0.713  16.351  0.5188 -0.3023  0.3575
  705MPD2    C210422   0.251   0.751  16.381 -0.6132  0.2770  1.0579
  705MPD2    C310423   0.208   0.746  16.516  0.2132  0.2780  0.5482
  705MPD2    C410424   0.301   0.710  16.611  0.2028  0.2076  0.7855
  705MPD2    C510425   0.431   0.671  16.578 -0.6731 -0.4443 -0.7123
  705MPD2     H10426   0.184   0.785  16.303  2.0991  1.6784 -0.6390
  705MPD2    H110427   0.274   0.698  16.715  1.9525  1.3928  1.3671
  705MPD2    H210428   0.569   0.633  16.428  0.2096  1.2632  1.3693
  705MPD2    H310429   0.494   0.624  16.653 -1.4617 -0.1380  0.1480
  705MPD2     N10430   0.079   0.787  16.560 -0.0265 -0.0029 -0.7166
  705MPD2    H510431   0.074   0.796  16.661  2.0293  0.4996 -0.6534
  705MPD2    N110432   0.430   0.726  16.217 -0.1698  0.0205  0.6040
  705MPD2    H710433   0.358   0.756  16.152 -1.1818  1.5561  2.4573
  706TMC3    C110434   0.680   0.797  15.823 -0.3192  0.1635 -0.1509
  706TMC3    C210435   0.592   0.886  15.776 -0.2646  0.7196  0.7513
  706TMC3    C310436   0.491   0.916  15.861  0.4475 -0.0413  0.0004
  706TMC3    C410437   0.662   0.726  15.946 -0.1482 -0.3421  0.5845
  706TMC3    C510438   0.554   0.755  16.025  0.7877  0.2473 -0.4916
  706TMC3    C610439   0.476   0.858  15.990 -0.3302 -0.3760 -0.2573
  706TMC3     C10440   0.786   0.739  15.741 -0.5864  1.3522 -0.0806
  706TMC3     O10441   0.876   0.672  15.791  0.2309  1.2806 -0.4250
  706TMC3     H10442   0.603   0.953  15.692 -0.6358  2.2611  1.9425
  706TMC3    H110443   0.748   0.671  15.982 -1.8825 -2.7498  0.9872
  706TMC3    H210444   0.401   0.891  16.062  0.1728  1.4495 -0.6012
  706TMC3    C710445   0.555   0.708  16.168  0.0659 -0.8638 -0.2641
  706TMC3    C810446   0.437   1.053  15.854 -0.2431 -0.0920 -0.7257
  706TMC3    O110447   0.659   0.683  16.228 -0.2608  0.0398 -0.6029
  706TMC3    O210448   0.458   1.121  15.751 -0.0902 -0.1214 -0.0847
  707TMC3    C110449   2.597   0.015   1.948 -0.3706  0.3464  0.6215
  707TMC3    C210450   2.692   0.087   2.011  0.4652  0.6539  0.0506
  707TMC3    C310451   2.674   0.111   2.145  1.1381  0.3142  0.0984
  707TMC3    C410452   2.491   4.678   2.017 -0.5268  0.0147  0.5898
  707TMC3    C510453   2.465   0.011   2.139  0.2144 -0.1593  0.4662
  707TMC3    C610454   2.553   0.093   2.207 -0.6665 -0.4059 -0.3091
  707TMC3     C10455   2.623   4.700   1.804  0.1554 -0.2489  0.4243
  707TMC3     O10456   2.727   0.025   1.756 -0.3818  0.1971  0.0094
  707TMC3     H10457   2.781   0.117   1.956  0.8749  0.2699  0.5082
  707TMC3    H110458   2.425   4.600   1.979 -1.4190  2.1781 -2.2787
  707TMC3    H210459   2.536   0.122   2.310 -0.3091 -2.5572  0.3507
  707TMC3    C710460   2.383   4.654   2.234 -0.0961 -0.2707 -0.2326
  707TMC3    C810461   2.791   0.164   2.212  0.2263 -0.2119 -0.4410
  707TMC3    O110462   2.432   4.652   2.345  0.0931 -0.1095  0.0386
  707TMC3    O210463   2.780   0.223   2.321 -0.2062 -0.0191  0.6021
  708MPD2     C10464   3.577   4.062  13.519 -0.6837 -0.3617 -0.4152
  708MPD2    C110465   3.492   4.041  13.625 -0.2221 -0.5037  0.2819
  708MPD2    C210466   3.544   4.056  13.753  0.8557 -0.3907 -0.5317
  708MPD2    C310467   3.670   4.115  13.769 -0.1885  0.3504 -0.2524
  708MPD2    C410468   3.742   4.154  13.663 -0.0863 -0.0603 -0.9338
  708MPD2    C510469   3.696   4.117  13.540  0.4243  0.0285  0.1816
  708MPD2     H10470   3.498   4.026  13.846  0.6503  2.5873  0.3301
  708MPD2    H110471   3.841   4.200  13.664 -0.9914  1.7647  3.1947
  708MPD2    H210472   3.536   4.045  13.420 -0.7978 -1.0601 -0.2508
  708MPD2    H310473   3.758   4.131  13.452  0.8661  0.8790  0.6261
  708MPD2     N10474   3.712   4.123  13.903  0.4388 -0.3132 -0.1067
  708MPD2    H510475   3.643   4.091  13.970 -0.8318 -1.0889 -1.7834
  708MPD2    N110476   3.363   4.000  13.600 -0.8724 -0.1305  0.0583
  708MPD2    H710477   3.326   4.009  13.506 -2.2813  1.5447  0.7847
  709TMC3    C110478   3.144   3.931  13.637 -0.3543  0.0747 -0.2024
  709TMC3    C210479   3.073   4.036  13.582 -0.2030 -0.3768  0.4342
  709TMC3    C310480   2.951   4.068  13.645 -0.3779 -0.1359  0.8587
  709TMC3    C410481   3.088   3.861  13.742 -0.2835 -0.0115  0.5750
  709TMC3    C510482   2.967   3.887  13.793 -0.9378  0.4395  0.9979
  709TMC3    C610483   2.898   3.992  13.741 -0.6682 -1.0083 -1.0054
  709TMC3     C10484   3.272   3.957  13.694 -0.2474  0.4307  0.0211
  709TMC3     O10485   3.291   3.945  13.814  0.7404  0.1839 -0.4284
  709TMC3     H10486   3.110   4.097  13.501  0.7948 -0.9472  0.4633
  709TMC3    H110487   3.140   3.777  13.786  1.4494  0.2711 -0.9484
  709TMC3    H210488   2.811   4.025  13.797  0.1681 -2.2212  0.9862
  709TMC3    C710489   2.960   3.893  13.943 -0.4945 -0.2224  0.6287
  709TMC3    C810490   2.851   4.134  13.566 -0.2553 -0.1016  0.0226
  709TMC3    O110491   2.846   3.904  13.989  0.7702  0.5232  0.0607
  709TMC3    O210492   2.734   4.102  13.583 -0.3968  0.0082 -0.5905
  710TMC3    C110493   0.262   1.373   0.982  0.0231  0.3650  0.2960
  710TMC3    C210494   0.312   1.300   0.874 -0.2536  0.1093  0.1064
  710TMC3    C310495   0.306   1.167   0.887  0.7049  0.3359  0.5655
  710TMC3    C410496   0.229   1.317   1.103 -0.0391  0.2702 -0.5673
  710TMC3    C510497   0.222   1.182   1.110 -0.3410  0.6078  0.3022
  710TMC3    C610498   0.258   1.106   1.002  0.6356  0.4917 -0.1078
  710TMC3     C10499   0.261   1.515   0.978 -0.2931  0.7640 -0.2203
  710TMC3     O10500   0.358   1.558   0.916 -0.4520  0.8686 -0.0964
  710TMC3     H10501   0.348   1.359   0.790 -0.8101  0.0697 -0.1627
  710TMC3    H110502   0.224   1.379   1.192 -2.3166  0.7635 -1.0399
  710TMC3    H210503   0.240   1.000   1.013  0.2415  0.3924 -1.6199
  710TMC3    C710504   0.169   1.112   1.229  0.1377  0.1981  0.4267
  710TMC3    C810505   0.308   1.093   0.761  0.2355  0.1869  0.0469
  710TMC3    O110506   0.200   0.994   1.247  0.3624  0.1797  0.3550
  710TMC3    O210507   0.307   1.151   0.655 -0.7290 -0.2971 -0.0946
  711TMC3    C110508   3.639   1.774  15.128  0.1308 -0.4920  0.2707
  711TMC3    C210509   3.632   1.820  15.263 -0.2873  0.3893  0.4825
  711TMC3    C310510   3.745   1.878  15.311  0.4493 -0.6452 -0.0352
  711TMC3    C410511   3.751   1.760  15.060  0.1658 -0.0240 -0.1172
  711TMC3    C510512   3.864   1.816  15.110 -0.1171 -0.0311 -0.1696
  711TMC3    C610513   3.855   1.886  15.226  0.1093  0.4203 -0.2282
  711TMC3     C10514   3.527   1.695  15.069 -0.0110  0.2535 -0.0860
  711TMC3     O10515   3.550   1.631  14.969  0.2868 -0.4453  0.4854
  711TMC3     H10516   3.545   1.813  15.328 -2.0985  0.8784 -1.9015
  711TMC3    H110517   3.745   1.714  14.962 -0.9824 -0.9580  0.3857
  711TMC3    H210518   3.947   1.933  15.259 -0.8781  1.3107  1.2484
  711TMC3    C710519   3.990   1.742  15.104  0.3881  0.0563  0.8396
  711TMC3    C810520   3.776   1.821  15.444  0.5569 -0.1985 -0.1827
  711TMC3    O110521   4.055   1.747  15.211  0.1577  0.5484  0.4399
  711TMC3    O210522   3.682   1.769  15.506  0.0290  0.0094 -0.5304
  712MPD2     C10523   0.897   2.678  13.979 -0.0452 -0.2990  0.3781
  712MPD2    C110524   0.821   2.706  13.871 -0.6180  0.1545 -0.2523
  712MPD2    C210525   0.836   2.832  13.818  0.5688  0.0173  0.6043
  712MPD2    C310526   0.928   2.929  13.861 -0.5120 -0.7025 -0.4425
  712MPD2    C410527   1.016   2.880  13.956  0.2022  0.2992 -0.2378
  712MPD2    C510528   0.997   2.765  14.020 -1.1454  0.4679  0.3240
  712MPD2     H10529   0.764   2.860  13.742  0.3051 -0.3566  0.7131
  712MPD2    H110530   1.096   2.946  13.989 -0.3249  1.0383 -0.4160
  712MPD2    H210531   0.904   2.580  14.025 -0.0804 -0.5806 -0.2247
  712MPD2    H310532   1.059   2.748  14.107  0.1546 -2.6665 -1.2331
  712MPD2     N10533   0.939   3.064  13.819 -0.3166 -0.0374  0.6684
  712MPD2    H510534   1.019   3.119  13.849  0.3654 -1.6575  1.7744
  712MPD2    N110535   0.724   2.603  13.840  0.5475 -0.0777 -0.0203
  712MPD2    H710536   0.722   2.517  13.894  0.7922 -0.3035 -0.3695
  713TMC3    C110537   0.872   3.254  13.705  0.2959 -0.2828  0.3510
  713TMC3    C210538   1.001   3.300  13.707  0.4098  0.6732 -0.4282
  713TMC3    C310539   1.015   3.436  13.710  0.1976  0.6659  0.4351
  713TMC3    C410540   0.766   3.342  13.696 -0.4797  0.8358 -0.1982
  713TMC3    C510541   0.794   3.475  13.724 -0.3075 -0.4770 -0.1761
  713TMC3    C610542   0.918   3.530  13.717  0.0694  0.7480 -0.5430
  713TMC3     C10543   0.840   3.118  13.734 -0.0952  0.0981  0.5966
  713TMC3     O10544   0.732   3.077  13.695  0.1853  0.2581  0.1942
  713TMC3     H10545   1.080   3.229  13.688 -0.7514 -0.6531 -0.2926
  713TMC3    H110546   0.668   3.298  13.699  0.0743 -0.3290  1.1777
  713TMC3    H210547   0.939   3.635  13.734 -0.5090  0.6412  0.8198
  713TMC3    C710548   0.686   3.567  13.719 -0.4061  0.3120  0.1799
  713TMC3    C810549   1.136   3.490  13.662 -0.4409 -0.0227 -0.1665
  713TMC3    O110550   0.585   3.523  13.671 -0.2723 -1.3930 -0.6397
  713TMC3    O210551   1.125   3.593  13.598 -0.5575 -0.8516  0.0779
  714MPD2     C10552   2.345   1.884   1.826 -0.5152  0.0782  0.0414
  714MPD2    C110553   2.392   1.768   1.781  0.2624 -0.0471 -0.1204
  714MPD2    C210554   2.383   1.735   1.648  0.0253  0.3378  0.3209
  714MPD2    C310555   2.329   1.824   1.559 -0.4942 -0.2399  0.2018
  714MPD2    C410556   2.273   1.938   1.610  0.5004  1.5706 -0.4822
  714MPD2    C510557   2.282   1.974   1.740  0.2599 -0.1259  0.5791
  714MPD2     H10558   2.426   1.643   1.610  0.6987  1.0436 -0.6549
  714MPD2    H110559   2.214   2.005   1.549 -0.8989  1.3390  0.6340
  714MPD2    H210560   2.347   1.903   1.933  0.3126  0.2705 -0.0041
  714MPD2    H310561   2.220   2.053   1.780  1.7912  0.8890  0.9307
  714MPD2     N10562   2.345   1.796   1.425  0.1318 -0.1914  0.0695
  714MPD2    H510563   2.410   1.720   1.409  0.9119  0.3865  0.4987
  714MPD2    N110564   2.451   1.681   1.880 -0.0053 -0.2877  0.6880
  714MPD2    H710565   2.451   1.704   1.979 -0.3107 -0.9642  0.8460
  715TMC3    C110566   2.570   1.505   1.984 -0.1822  0.0474 -0.3802
  715TMC3    C210567   2.568   1.370   1.997 -0.3318 -0.0590  0.8554
  715TMC3    C310568   2.650   1.311   2.094  0.6880  0.1997  0.7483
  715TMC3    C410569   2.643   1.583   2.069  0.1295  0.6476 -0.3794
  715TMC3    C510570   2.723   1.526   2.161 -0.6094 -0.5983  0.0378
  715TMC3    C610571   2.733   1.385   2.175 -0.1848 -0.3631 -0.4630
  715TMC3     C10572   2.525   1.565   1.859 -0.2049 -0.1283 -0.1337
  715TMC3     O10573   2.531   1.493   1.760 -0.0611 -0.7023 -0.2553
  715TMC3     H10574   2.532   1.305   1.918 -0.7261  0.6422  0.4513
  715TMC3    H110575   2.646   1.691   2.057  2.0975  0.8765  2.2261
  715TMC3    H210576   2.786   1.344   2.260 -1.3688  1.1507  0.9998
  715TMC3    C710577   2.777   1.607   2.267 -0.2948  0.0230  0.4294
  715TMC3    C810578   2.685   1.175   2.064  0.1942  0.4446  0.1408
  715TMC3    O110579   2.712   1.699   2.309  0.0157  0.1145 -0.5027
  715TMC3    O210580   2.635   1.113   1.972 -0.3904  0.5169 -0.1115
  716MPD2     C10581   3.718   4.533   9.788 -0.2300  0.3045  0.1690
  716MPD2    C110582   3.709   4.441   9.685 -0.2427  0.1715  0.8153
  716MPD2    C210583   3.720   4.307   9.709  0.5418  0.0571  0.3534
  716MPD2    C310584   3.754   4.259   9.834  0.2991  0.5147  0.4665
  716MPD2    C410585   3.761   4.347   9.939  0.6704  0.2385  0.3261
  716MPD2    C510586   3.747   4.483   9.914 -1.0067  0.6588 -0.0674
  716MPD2     H10587   3.701   4.234   9.631  2.2059  0.7174 -0.6832
  716MPD2    H110588   3.772   4.314  10.041  0.5147 -0.6174  0.0647
  716MPD2    H210589   3.715   4.639   9.766 -0.7273 -0.2523 -2.4424
  716MPD2    H310590   3.783   4.557   9.985  0.7021  0.3436 -0.6219
  716MPD2     N10591   3.757   4.120   9.845 -0.6041  0.1561  1.1660
  716MPD2    H510592   3.744   4.070   9.758 -0.1126  1.8104  0.1485
  716MPD2    N110593   3.675   4.495   9.557  0.3252  0.2439 -0.3920
  716MPD2    H710594   3.650   4.593   9.559  0.7514  0.2955  1.7698
  717TMC3    C110595   3.734   3.923   9.942  0.6810  0.4934  0.3091
  717TMC3    C210596   3.680   3.896   9.817  0.2585 -0.6618 -0.4057
  717TMC3    C310597   3.579   3.805   9.800 -0.2871 -0.0456 -0.2153
  717TMC3    C410598   3.689   3.855  10.055 -0.3120  0.0380 -0.1834
  717TMC3    C510599   3.588   3.763  10.031  0.8186 -0.1707 -0.1594
  717TMC3    C610600   3.530   3.738   9.906 -0.2102  0.1399 -0.2009
  717TMC3     C10601   3.784   4.053   9.963  0.0617  0.7446  0.5453
  717TMC3     O10602   3.835   4.097  10.062  0.2121 -0.0592  0.5568
  717TMC3     H10603   3.733   3.919   9.724  0.9696  0.8198  0.3568
  717TMC3    H110604   3.734   3.882  10.150  0.3276  1.3847 -0.8787
  717TMC3    H210605   3.449   3.668   9.889 -0.3133  0.3741 -0.6537
  717TMC3    C710606   3.541   3.675  10.139  0.3930 -0.3399 -0.2547
  717TMC3    C810607   3.522   3.795   9.669 -0.3509 -0.2227  0.2232
  717TMC3    O110608   3.452   3.595  10.110  0.5107  0.2901 -0.0274
  717TMC3    O210609   3.556   3.885   9.591  0.3139 -0.0852 -0.1417
  718MPD2     C10610   2.418   3.389  13.044  0.7428 -0.7847  0.2244
  718MPD2    C110611   2.395   3.320  12.921  0.3775 -0.4757  0.0709
  718MPD2    C210612   2.268   3.299  12.890  0.1042 -0.1913  0.0247
  718MPD2    C310613   2.163   3.344  12.965 -0.0591 -0.0025 -0.0718
  718MPD2    C410614   2.180   3.402  13.086  0.0282 -0.2207  0.1422
  718MPD2    C510615   2.313   3.420  13.123 -0.0820  0.2154 -0.0004
  718MPD2     H10616   2.238   3.261  12.793 -0.0985 -1.3556  0.5547
  718MPD2    H110617   2.091   3.422  13.145 -2.3794 -2.7165 -2.6847
  718MPD2    H210618   2.517   3.418  13.077  0.7184 -0.6304  0.1622
  718MPD2    H310619   2.327   3.459  13.223  1.0393  0.6975 -0.3503
  718MPD2     N10620   2.038   3.313  12.918 -0.0349  0.0476  0.6787
  718MPD2    H510621   2.027   3.248  12.841 -1.9585 -2.4348  3.0278
  718MPD2    N110622   2.501   3.283  12.830 -0.1720  0.1423  0.1907
  718MPD2    H710623   2.594   3.301  12.867 -0.7112 -3.3925  3.3728
  719TMC3    C110624   2.604   3.222  12.623  0.0577 -0.4116 -0.0096
  719TMC3    C210625   2.578   3.123  12.537  0.4316 -0.2286 -0.1722
  719TMC3    C310626   2.580   3.135  12.402  0.0860 -0.9392 -0.0308
  719TMC3    C410627   2.640   3.346  12.571  0.0558  0.9467 -0.0809
  719TMC3    C510628   2.641   3.359  12.437  0.1532 -0.3629  0.2381
  719TMC3    C610629   2.615   3.251  12.350  0.1259 -0.2433 -0.1912
  719TMC3     C10630   2.487   3.227  12.707  0.4017 -0.4024 -0.5335
  719TMC3     O10631   2.386   3.185  12.654 -1.1545  0.6250 -0.7242
  719TMC3     H10632   2.530   3.034  12.576 -0.7611 -0.6700 -2.6605
  719TMC3    H110633   2.656   3.432  12.636  2.5897  0.8998 -0.6323
  719TMC3    H210634   2.611   3.268  12.243  1.8082  1.0688 -0.0378
  719TMC3    C710635   2.681   3.484  12.371  0.0526  0.2746 -0.1707
  719TMC3    C810636   2.462   3.086  12.329 -0.0172  0.3786 -0.0504
  719TMC3    O110637   2.628   3.502  12.264  0.1921  0.0654 -0.1253
  719TMC3    O210638   2.460   3.089  12.209  0.6003  0.0225 -1.1336
  720MPD2     C10639   0.793   0.352  13.771 -0.0866  0.2202 -0.3483
  720MPD2    C110640   0.888   0.372  13.680 -0.1397 -0.0717  0.2089
  720MPD2    C210641   1.028   0.352  13.702  0.7408  0.2753  0.1037
  720MPD2    C310642   1.068   0.321  13.828  0.2625 -0.4157  0.3522
  720MPD2    C410643   0.968   0.306  13.921  0.1125  0.4166 -0.1657
  720MPD2    C510644   0.830   0.309  13.896 -0.1140 -0.5100  0.7930
  720MPD2     H10645   1.103   0.378  13.628  1.2938  0.4926  0.7428
  720MPD2    H110646   0.997   0.286  14.023 -0.3514 -0.4481 -0.2039
  720MPD2    H210647   0.690   0.354  13.736 -0.5372  1.2149  1.0379
  720MPD2    H310648   0.756   0.285  13.971  0.1589 -2.9098  0.2888
  720MPD2     N10649   1.205   0.324  13.865  0.6127  0.2845 -0.0401
  720MPD2    H510650   1.277   0.338  13.795 -1.2965  1.7146 -1.7353
  720MPD2    N110651   0.865   0.420  13.548  0.0258  0.1913 -0.2202
  720MPD2    H710652   0.952   0.430  13.497 -0.3930 -0.7976 -1.1213
  721TMC3    C110653   1.404   0.298  13.992  0.8187 -0.4766  0.4559
  721TMC3    C210654   1.462   0.241  14.105 -0.3011 -0.4064 -0.3901
  721TMC3    C310655   1.592   0.188  14.098 -0.5804  0.7010  0.5821
  721TMC3    C410656   1.482   0.312  13.880  0.3903 -0.2146  0.2936
  721TMC3    C510657   1.611   0.275  13.886  0.1736 -0.4457  0.2712
  721TMC3    C610658   1.674   0.217  13.993 -0.4658  0.0012  0.4430
  721TMC3     C10659   1.256   0.299  13.995  0.6031 -0.2801  0.9229
  721TMC3     O10660   1.198   0.278  14.098 -0.3189  0.2365  0.2436
  721TMC3     H10661   1.406   0.234  14.198  0.5157 -0.6559  0.0796
  721TMC3    H110662   1.451   0.349  13.783 -1.2858  2.1178  1.7420
  721TMC3    H210663   1.777   0.183  13.993  0.0716  1.6035 -0.4649
  721TMC3    C710664   1.675   0.257  13.756 -0.0352 -0.1649 -0.1772
  721TMC3    C810665   1.645   0.096  14.195  0.3627 -0.4787 -0.0116
  721TMC3    O110666   1.609   0.203  13.668 -0.2125  0.1978 -0.1160
  721TMC3    O210667   1.749   0.041  14.160  0.1187 -0.1831 -0.3244
  722MPD2     C10668   4.681   3.646  13.052 -0.0097  0.8621 -0.9515
  722MPD2    C110669   4.650   3.776  13.044 -0.2202  0.3248  0.5248
  722MPD2    C210670   4.547   3.813  12.952  0.5231  0.2033  0.3408
  722MPD2    C310671   4.486   3.721  12.867  0.1303 -0.1294 -0.5139
  722MPD2    C410672   4.522   3.588  12.884  0.1810 -0.7871 -0.4451
  722MPD2    C510673   4.620   3.554  12.975  0.5397 -0.0418 -0.3072
  722MPD2     H10674   4.517   3.917  12.944  2.2632  0.7540  1.0488
  722MPD2    H110675   4.480   3.507  12.826 -1.7820 -0.4021  0.4594
  722MPD2    H210676   0.023   3.607  13.132 -1.3555  1.0533  0.1706
  722MPD2    H310677   4.656   3.454  12.993  1.5355  0.2928 -0.4794
  722MPD2     N10678   4.400   3.767  12.767  0.3584  0.0197 -0.7577
  722MPD2    H510679   4.390   3.866  12.747  0.1307 -0.0479 -0.9849
  722MPD2    N110680   4.706   3.887  13.123  0.2239  0.1719  0.0550
  722MPD2    H710681   4.674   3.978  13.092 -1.1840 -0.4205 -0.2402
  723TMC3    C110682   4.219   3.730  12.604  0.5279 -0.2017  0.4173
  723TMC3    C210683   4.091   3.684  12.606 -0.5446 -0.4496  0.0473
  723TMC3    C310684   3.990   3.746  12.545  1.1079  0.6509 -0.3679
  723TMC3    C410685   4.258   3.838  12.531  0.0716 -0.0498 -0.1071
  723TMC3    C510686   4.157   3.896  12.460  0.0418 -0.0136  0.0058
  723TMC3    C610687   4.022   3.861  12.472  0.2394 -0.4482  0.0376
  723TMC3     C10688   4.315   3.681  12.703 -1.0063 -0.1728  0.1482
  723TMC3     O10689   4.294   3.571  12.750 -0.1707 -0.1545 -0.2971
  723TMC3     H10690   4.073   3.596  12.667 -2.2954  0.0483  0.2403
  723TMC3    H110691   4.360   3.876  12.529 -1.2602  3.5936  0.8070
  723TMC3    H210692   3.946   3.901  12.407 -0.0603 -0.0053  0.6562
  723TMC3    C710693   4.174   4.028  12.408 -0.5167  0.2185  0.1509
  723TMC3    C810694   3.848   3.728  12.565 -0.1645 -0.5751  0.3580
  723TMC3    O110695   4.271   4.051  12.333 -0.1846  0.0089 -0.0723
  723TMC3    O210696   3.767   3.817  12.551  0.0688  0.2083  0.6515
  724TMC3    C110697   3.946   2.748   8.969  0.0901 -0.7021 -0.2440
  724TMC3    C210698   3.965   2.873   8.914  0.0210 -0.3088 -0.3788
  724TMC3    C310699   3.868   2.917   8.826  0.2495 -0.6392 -0.1424
  724TMC3    C410700   3.833   2.669   8.942 -0.2517 -0.8339  0.4102
  724TMC3    C510701   3.742   2.720   8.855 -0.1086 -0.1431 -0.4744
  724TMC3    C610702   3.760   2.840   8.794  0.0354 -0.5999 -0.6907
  724TMC3     C10703   4.058   2.681   9.033 -0.8270  0.0060  0.4312
  724TMC3     O10704   4.036   2.569   9.082  0.1340  0.1762 -0.0694
  724TMC3     H10705   4.032   2.943   8.963  1.3384  0.4046 -3.1755
  724TMC3    H110706   3.822   2.573   8.992  2.1595 -1.2564  0.1318
  724TMC3    H210707   3.695   2.879   8.716 -0.4992  0.8382  0.4861
  724TMC3    C710708   3.666   2.625   8.784 -0.5179 -0.4052  0.1144
  724TMC3    C810709   3.861   3.059   8.792 -0.4685 -0.6262  0.1454
  724TMC3    O110710   3.686   2.508   8.814 -0.1324  0.0004  0.0506
  724TMC3    O210711   3.758   3.093   8.732 -0.2826 -0.1100 -0.1027
  725TMC3    C110712   1.555   0.336  12.615 -1.0228  0.7202  0.3181
  725TMC3    C210713   1.425   0.367  12.585 -0.2121 -0.2755  0.3557
  725TMC3    C310714   1.328   0.269  12.582 -1.1054 -0.3881  0.0905
  725TMC3    C410715   1.589   0.201  12.626  0.3558  0.2657 -0.0782
  725TMC3    C510716   1.492   0.107  12.625  0.4121 -0.0200  0.1419
  725TMC3    C610717   1.364   0.140  12.600 -0.2606  0.0513  0.6339
  725TMC3     C10718   1.649   0.447  12.653 -0.3871 -0.6254  0.4811
  725TMC3     O10719   1.622   0.560  12.614  0.6828  0.5289 -0.1774
  725TMC3     H10720   1.401   0.473  12.594 -0.1430 -0.4231  2.2421
  725TMC3    H110721   1.688   0.178  12.665 -0.0095  1.3158  1.4474
  725TMC3    H210722   1.286   0.066  12.607 -1.7723  1.5810 -0.0423
  725TMC3    C710723   1.521   4.697  12.570  0.2206 -0.0093  0.6520
  725TMC3    C810724   1.219   0.296  12.495 -0.2679 -0.5514 -0.5216
  725TMC3    O110725   1.447   4.606  12.604 -0.7289  0.2527 -0.1088
  725TMC3    O210726   1.114   0.248  12.528  0.3541 -0.5232 -0.2422
  726MPD2     C10727   4.388   2.733  10.584  0.7340  0.6874 -0.1266
  726MPD2    C110728   4.355   2.685  10.458 -0.3915  0.6720  0.0616
  726MPD2    C210729   4.241   2.610  10.446  0.0818  0.2345  0.4973
  726MPD2    C310730   4.160   2.568  10.548  0.1952  0.0515  0.1431
  726MPD2    C410731   4.192   2.622  10.670  0.1180 -0.1929  0.5672
  726MPD2    C510732   4.298   2.700  10.681  0.2489  0.2923  0.3599
  726MPD2     H10733   4.220   2.586  10.342  0.7029  2.5089 -0.1704
  726MPD2    H110734   4.138   2.596  10.761  0.9741  2.0039  1.6875
  726MPD2    H210735   4.474   2.794  10.609 -0.0329  1.2225  1.2291
  726MPD2    H310736   4.336   2.726  10.779 -0.0481  0.1652  0.5086
  726MPD2     N10737   4.048   2.486  10.527 -0.0581 -0.8550 -0.3156
  726MPD2    H510738   3.992   2.463  10.609 -2.5681  0.5640 -1.6625
  726MPD2    N110739   4.430   2.710  10.337 -0.6130  0.4615 -0.3569
  726MPD2    H710740   4.380   2.693  10.250 -0.8076  0.4963 -0.2516
  727TMC3    C110741   4.594   2.791  10.188 -0.4815  0.5101 -0.3601
  727TMC3    C210742   4.649   2.915  10.168  0.4795 -0.6222 -0.4651
  727TMC3    C310743   4.626   2.973  10.050  0.5225 -0.9122  0.2930
  727TMC3    C410744   4.511   2.734  10.094  0.2020  0.1778  1.0604
  727TMC3    C510745   4.486   2.805   9.980  0.5482  0.8204 -0.0946
  727TMC3    C610746   4.553   2.915   9.952  0.7343  0.7027  0.0789
  727TMC3     C10747   4.562   2.758  10.330  0.1839  1.4026  0.9914
  727TMC3     O10748   4.632   2.804  10.417 -0.1967 -0.5157 -0.0408
  727TMC3     H10749   4.699   2.967  10.249  0.5563  1.9943 -2.1636
  727TMC3    H110750   4.487   2.628  10.104  0.1010  0.3013  2.1144
  727TMC3    H210751   4.539   2.950   9.851  0.0880 -0.7107 -0.3252
  727TMC3    C710752   4.390   2.739   9.888  0.2576 -0.1030 -0.1061
  727TMC3    C810753   4.653   3.118  10.045 -0.5080  0.2769 -0.4497
  727TMC3    O110754   4.357   2.622   9.910 -0.0384  0.1641  0.1715
  727TMC3    O210755   0.006   3.165  10.130 -0.4957 -0.6532 -0.0103
  728TMC3    C110756   3.140   0.399  15.320  0.8808  0.2695 -0.4425
  728TMC3    C210757   3.257   0.447  15.281  0.0079 -0.1070  0.4936
  728TMC3    C310758   3.260   0.499  15.152 -0.0514  0.0400 -0.7059
  728TMC3    C410759   3.027   0.423  15.258 -0.5059 -0.2941  0.2000
  728TMC3    C510760   3.031   0.459  15.130  0.4320 -0.8472  0.4137
  728TMC3    C610761   3.149   0.491  15.071  1.1152 -0.4120  0.3185
  728TMC3     C10762   3.129   0.347  15.454  0.5505 -0.4597 -0.1830
  728TMC3     O10763   3.229   0.356  15.524  0.1994  0.2501  0.2086
  728TMC3     H10764   3.335   0.446  15.355  0.6815  2.3169 -0.1715
  728TMC3    H110765   2.929   0.390  15.291 -0.9029  1.1425  0.4295
  728TMC3    H210766   3.148   0.512  14.964  1.9726 -0.4516  0.3046
  728TMC3    C710767   2.903   0.493  15.063 -0.5385 -0.0412  0.3463
  728TMC3    C810768   3.366   0.591  15.118 -0.5808 -0.1648  0.4046
  728TMC3    O110769   2.798   0.451  15.114  0.2425  0.3700 -0.2436
  728TMC3    O210770   3.336   0.666  15.025 -0.1317 -0.0091  0.2719
  729MPD2     C10771   0.675   1.909  16.685  0.4563  0.4877 -0.2107
  729MPD2    C110772   0.812   1.890  16.698  0.1922 -0.3085 -0.0127
  729MPD2    C210773   0.861   1.859  16.818  0.1287  0.1063  0.3026
  729MPD2    C310774   0.786   1.851  16.932  1.3959  1.0128  0.5795
  729MPD2    C410775   0.651   1.877  16.933 -0.4369 -0.0422 -0.2783
  729MPD2    C510776   0.599   1.897  16.802 -0.6703 -0.0820  0.0821
  729MPD2     H10777   0.966   1.868  16.842  0.0620 -0.0344  0.6447
  729MPD2    H110778   0.594   1.876  17.025  0.0322 -0.2499  0.0075
  729MPD2    H210779   0.628   1.940  16.593  1.6222 -0.1712 -1.0224
  729MPD2    H310780   0.492   1.897  16.787 -0.7890 -0.5378  0.9087
  729MPD2     N10781   0.838   1.853  17.059  0.1434 -0.1260  0.0503
  729MPD2    H510782   0.781   1.880  17.138 -2.0522  0.4716 -1.7398
  729MPD2    N110783   0.900   1.885  16.589  0.1284  0.4763  0.4341
  729MPD2    H710784   0.854   1.899  16.500 -0.7080  1.1396  0.9845
  730TMC3    C110785   1.013   1.870  17.221  0.1362  0.5930 -0.1823
  730TMC3    C210786   1.142   1.833  17.245 -0.0158  0.5654 -0.1156
  730TMC3    C310787   1.216   1.899  17.331 -1.0432  0.0763  0.4707
  730TMC3    C410788   0.954   1.981  17.281  0.7166  0.2297  0.7383
  730TMC3    C510789   1.037   2.057  17.368 -0.1364  0.9687 -0.1233
  730TMC3    C610790   1.161   2.009  17.402  0.5987  0.0794 -0.0337
  730TMC3     C10791   0.968   1.823  17.091 -1.0576  0.1951  0.6166
  730TMC3     O10792   1.044   1.754  17.023  0.2979  0.2110 -0.1128
  730TMC3     H10793   1.175   1.740  17.201  1.7402  0.9927  0.3275
  730TMC3    H110794   0.861   2.024  17.244  0.3665 -0.3613  0.9379
  730TMC3    H210795   1.232   2.072  17.456  0.4677  1.4638 -1.4856
  730TMC3    C710796   1.008   2.198  17.400 -0.1185 -0.4413  0.0463
  730TMC3    C810797   1.340   1.947  17.255 -0.0403 -1.4944 -0.4586
  730TMC3    O110798   1.082   2.249  17.479 -0.2875 -0.0996 -0.6024
  730TMC3    O210799   1.435   1.989  17.320 -0.6546 -0.0270  0.1021
  731MPD2     C10800   0.788   0.700  11.549  0.0018 -0.5881 -0.6700
  731MPD2    C110801   0.901   0.636  11.594 -0.5010 -0.0031  0.1390
  731MPD2    C210802   0.905   0.598  11.727  0.4509 -0.0923  0.5603
  731MPD2    C310803   0.792   0.597  11.805  0.7673  0.0533  0.7594
  731MPD2    C410804   0.674   0.641  11.754  0.0358 -0.1901  0.3307
  731MPD2    C510805   0.672   0.705  11.631  0.3805  0.1137  0.8726
  731MPD2     H10806   0.997   0.570  11.778  0.7074 -0.3868 -0.0721
  731MPD2    H110807   0.581   0.648  11.809 -1.1261 -1.7656 -1.4226
  731MPD2    H210808   0.793   0.739  11.448  2.0256 -0.9042 -0.6909
  731MPD2    H310809   0.576   0.744  11.598  0.3445 -1.7971 -1.3447
  731MPD2     N10810   0.808   0.535  11.931 -0.2670  0.4975 -0.1689
  731MPD2    H510811   0.903   0.506  11.951 -0.7093 -0.4466  0.5681
  731MPD2    N110812   1.012   0.609  11.511 -0.1433 -0.3950 -0.4190
  731MPD2    H710813   0.998   0.624  11.411 -0.5314  2.5010  0.0818
  732TMC3    C110814   1.200   0.495  11.431 -0.5977  0.3607 -0.1794
  732TMC3    C210815   1.129   0.416  11.345  0.3145  0.0214  0.2557
  732TMC3    C310816   1.203   0.333  11.268  0.1892 -0.2540  0.4702
  732TMC3    C410817   1.333   0.482  11.443 -0.0471 -0.2996  0.1554
  732TMC3    C510818   1.404   0.392  11.366 -0.4625 -0.3432 -0.9439
  732TMC3    C610819   1.341   0.319  11.278 -0.4665  0.3353  0.6522
  732TMC3     C10820   1.135   0.557  11.547 -0.5921  0.7772  0.0780
  732TMC3     O10821   1.180   0.540  11.662 -0.3853 -0.7005  0.1630
  732TMC3     H10822   1.025   0.436  11.324  0.5919 -0.2819 -1.4619
  732TMC3    H110823   1.389   0.544  11.513 -1.0973 -0.5317  1.2090
  732TMC3    H210824   1.391   0.234  11.233 -3.3172 -0.8571 -0.2480
  732TMC3    C710825   1.530   0.341  11.416  0.1634  0.8605  0.2251
  732TMC3    C810826   1.133   0.219  11.215 -0.2931  0.3068 -0.4073
  732TMC3    O110827   1.547   0.347  11.539 -0.3658 -0.9301 -0.6017
  732TMC3    O210828   1.204   0.139  11.153  0.6933  0.4997  0.3944
  733TMC3    C110829   1.594   3.302  12.820 -0.0802  0.3362  1.0253
  733TMC3    C210830   1.696   3.306  12.913 -0.1846 -0.6417 -0.0249
  733TMC3    C310831   1.817   3.331  12.859  0.4320 -0.7679 -0.0619
  733TMC3    C410832   1.615   3.291  12.688 -0.3599  0.2668 -0.1973
  733TMC3    C510833   1.742   3.310  12.635  0.4374  0.0546  0.5990
  733TMC3    C610834   1.847   3.344  12.720 -0.5445 -0.7062 -0.7055
  733TMC3     C10835   1.462   3.249  12.864 -0.5149  1.0172  0.2851
  733TMC3     O10836   1.359   3.266  12.795 -0.2840 -0.3305  0.0297
  733TMC3     H10837   1.680   3.313  13.020 -1.7103  0.0745 -0.2953
  733TMC3    H110838   1.547   3.252  12.613  1.3040  2.6496 -2.9676
  733TMC3    H210839   1.947   3.370  12.690 -0.8332 -0.6653 -1.6283
  733TMC3    C710840   1.776   3.243  12.511  0.3149 -0.4278  0.2652
  733TMC3    C810841   1.919   3.375  12.952  0.3445 -0.3180 -0.5333
  733TMC3    O110842   1.697   3.210  12.422  0.6031 -0.7950 -0.4341
  733TMC3    O210843   1.884   3.458  13.034  0.4324  0.5799 -0.4246
  734MPD2     C10844   4.009   0.813  12.546  0.5891  0.3666  0.2368
  734MPD2    C110845   3.951   0.783  12.423 -0.2331  0.3174 -0.7031
  734MPD2    C210846   3.961   0.868  12.313  0.8088  0.5228  0.0538
  734MPD2    C310847   4.021   0.993  12.326  0.3954 -0.1794  0.4967
  734MPD2    C410848   4.072   1.031  12.447 -0.6357 -0.0004 -0.1389
  734MPD2    C510849   4.074   0.936  12.547  0.0905  0.7858  0.1368
  734MPD2     H10850   3.923   0.844  12.214 -0.3485 -0.7603  0.8137
  734MPD2    H110851   4.126   1.122  12.468 -0.9625  0.1510  0.0412
  734MPD2    H210852   4.007   0.746  12.631  0.1138  0.7569  0.5384
  734MPD2    H310853   4.132   0.962  12.635 -0.0371  0.0015  0.4549
  734MPD2     N10854   4.034   1.056  12.199  0.2351  0.0108  0.5040
  734MPD2    H510855   3.990   1.011  12.119  0.0081 -2.5540  2.0977
  734MPD2    N110856   3.878   0.661  12.406 -0.1898 -0.2461 -0.2771
  734MPD2    H710857   3.879   0.599  12.486  0.1133 -1.5591 -1.3100
  735TMC3    C110858   3.741   0.486  12.318 -1.1002 -0.6514 -0.1473
  735TMC3    C210859   3.661   0.458  12.214 -0.2969 -0.5004 -0.4370
  735TMC3    C310860   3.680   0.348  12.138 -0.2755 -0.4820 -0.1686
  735TMC3    C410861   3.825   0.394  12.372  0.1332 -0.6394 -0.4011
  735TMC3    C510862   3.842   0.281  12.305 -0.1876 -0.6078 -0.0942
  735TMC3    C610863   3.772   0.259  12.187 -0.1003  0.2911 -0.1311
  735TMC3     C10864   3.791   0.622  12.305  0.4251 -0.5248  0.6871
  735TMC3     O10865   3.765   0.684  12.201  0.2574  0.2708  0.5174
  735TMC3     H10866   3.594   0.535  12.177 -0.7122 -0.8175 -0.3529
  735TMC3    H110867   3.888   0.414  12.457 -0.3420  3.3995 -0.9876
  735TMC3    H210868   3.807   0.188  12.112  0.9283  0.2006  0.4382
  735TMC3    C710869   3.982   0.247  12.301 -0.6440 -0.5495  0.4828
  735TMC3    C810870   3.706   0.384  11.999 -0.2394  0.8098 -0.0441
  735TMC3    O110871   4.045   0.311  12.221  0.1371 -0.7452 -0.0484
  735TMC3    O210872   3.702   0.296  11.914 -0.0524 -0.1397  0.3201
  736MPD2     C10873   4.163   4.691  12.470 -0.2833  0.1199 -0.1347
  736MPD2    C110874   4.140   0.069  12.375  0.0588 -1.0498 -0.5465
  736MPD2    C210875   4.232   0.083  12.270  0.0493  0.8755 -0.4745
  736MPD2    C310876   4.354   0.018  12.260  0.4529 -0.6159 -0.2967
  736MPD2    C410877   4.374   4.637  12.354 -0.1467  0.4371 -0.2422
  736MPD2    C510878   4.282   4.612  12.453  1.0429 -0.7117  0.1821
  736MPD2     H10879   4.204   0.140  12.183 -0.8847  0.2380 -0.5842
  736MPD2    H110880   4.460   4.571  12.358 -1.4593 -1.1830  1.0004
  736MPD2    H210881   4.104   4.682  12.561  0.4727  2.6995  0.6279
  736MPD2    H310882   4.300   4.533  12.526 -1.0012 -0.4893  0.9156
  736MPD2     N10883   4.441   0.049  12.146  0.5363  0.0228  0.4369
  736MPD2    H510884   4.414   0.121  12.079  0.9848 -1.0282 -0.8654
  736MPD2    N110885   4.018   0.143  12.380  0.4251  0.2622 -0.1590
  736MPD2    H710886   3.942   0.097  12.428  1.4741  0.3687  1.6102
  737TMC3    C110887   4.629   0.035  12.004 -0.1068  0.2642 -0.6044
  737TMC3    C210888   4.648   0.168  11.990  0.5371  0.0269  0.3052
  737TMC3    C310889   4.697   0.214  11.878 -0.4535  0.0457 -0.6458
  737TMC3    C410890   4.697   4.671  11.923 -0.3494  0.3801  0.2005
  737TMC3    C510891   0.039   0.001  11.813  0.8757  0.7505 -0.0718
  737TMC3    C610892   0.033   0.136  11.785  0.1875  0.0611  0.3621
  737TMC3     C10893   4.563   4.696  12.123 -0.2737 -0.1056  0.3345
  737TMC3     O10894   4.604   4.594  12.178 -0.3336 -0.3788  0.3694
  737TMC3     H10895   4.605   0.230  12.067 -1.4618 -2.0312  0.8444
  737TMC3    H110896   4.694   4.565  11.948  0.3804  0.3247  0.0610
  737TMC3    H210897   0.050   0.180  11.687 -1.2034  1.1907  0.6315
  737TMC3    C710898   0.110   4.625  11.730 -0.6297  0.3515  0.4069
  737TMC3    C810899   4.687   0.356  11.862 -0.3869 -0.1625 -0.3615
  737TMC3    O110900   0.082   4.509  11.752 -0.2320 -0.5060  0.3966
  737TMC3    O210901   4.611   0.418  11.933  0.0447 -0.1080 -0.0523
  738MPD2     C10902   3.634   3.838  14.943  0.1578 -0.8656 -0.2273
  738MPD2    C110903   3.730   3.762  14.877 -0.2123 -0.0587 -0.1992
  738MPD2    C210904   3.855   3.807  14.865  0.8073 -0.4955 -0.4385
  738MPD2    C310905   3.890   3.934  14.902  0.1157  0.4381  0.2610
  738MPD2    C410906   3.793   4.017  14.949  0.1378  0.0598 -0.1384
  738MPD2    C510907   3.669   3.972  14.973 -0.9134 -0.0477  0.1133
  738MPD2     H10908   3.935   3.741  14.832  1.5161  0.7017 -1.1643
  738MPD2    H110909   3.811   4.119  14.982  2.3759 -0.7662  1.1672
  738MPD2    H210910   3.534   3.806  14.969  0.4911 -2.6882 -1.2019
  738MPD2    H310911   3.594   4.037  15.015  0.9994  1.5085  1.1483
  738MPD2     N10912   4.023   3.980  14.905  0.6287 -0.1952  0.0020
  738MPD2    H510913   4.047   4.060  14.963  2.3501 -0.5317 -0.2534
  738MPD2    N110914   3.710   3.622  14.861  0.5171  0.5967  0.1477
  738MPD2    H710915   3.784   3.567  14.819  1.6499  1.4516  1.0093
  739TMC3    C110916   4.257   3.979  14.865  0.3735  0.4693 -0.6020
  739TMC3    C210917   4.330   4.024  14.764 -0.4564  0.1948  0.0008
  739TMC3    C310918   4.458   4.061  14.795 -0.2264  0.4338  0.3784
  739TMC3    C410919   4.290   3.977  14.994 -0.7010  0.0421 -0.7272
  739TMC3    C510920   4.417   4.012  15.025  0.0124 -0.0281  0.8398
  739TMC3    C610921   4.507   4.051  14.928  0.8016  0.4999 -1.0521
  739TMC3     C10922   4.126   3.923  14.837 -0.3374 -0.2115  0.0902
  739TMC3     O10923   4.119   3.852  14.735 -0.1929 -0.1597 -0.2663
  739TMC3     H10924   4.300   4.014  14.660  0.0811 -0.6390 -0.0708
  739TMC3    H110925   4.222   3.930  15.065 -1.2621  2.1546  0.1217
  739TMC3    H210926   4.612   4.044  14.957  1.0939 -0.7640 -2.4109
  739TMC3    C710927   4.452   3.972  15.169 -0.2876  0.0794  0.2909
  739TMC3    C810928   4.561   4.073  14.694 -0.2465 -0.7829 -0.5311
  739TMC3    O110929   4.363   3.905  15.225  0.4924 -0.0456 -0.5912
  739TMC3    O210930   4.528   4.054  14.575 -0.0332 -0.1173 -0.0491
  740TMC3    C110931   0.423   0.599  14.320 -0.3226 -0.8002  0.6615
  740TMC3    C210932   0.453   0.528  14.433 -0.1328  0.1867 -0.0008
  740TMC3    C310933   0.581   0.475  14.431  0.2404  0.5947  0.4459
  740TMC3    C410934   0.516   0.623  14.217  0.1557 -0.3663 -0.4381
  740TMC3    C510935   0.632   0.557  14.224 -0.4436 -0.1920 -0.4549
  740TMC3    C610936   0.668   0.484  14.333 -0.5440  0.3446  0.2745
  740TMC3     C10937   0.309   0.690  14.338  0.2857 -0.0887  0.0803
  740TMC3     O10938   0.326   0.804  14.295  0.2723 -0.5635 -0.0732
  740TMC3     H10939   0.377   0.502  14.505  1.7822  0.4437  2.1433
  740TMC3    H110940   0.494   0.702  14.146  1.6207 -1.6656 -2.3226
  740TMC3    H210941   0.758   0.422  14.333  0.2863  1.5671  2.0717
  740TMC3    C710942   0.731   0.601  14.135 -0.2870 -1.6362  0.1646
  740TMC3    C810943   0.630   0.429  14.560 -0.5604 -0.0964  0.0427
  740TMC3    O110944   0.847   0.581  14.181  0.5963 -0.2040  0.3268
  740TMC3    O210945   0.538   0.415  14.641  0.4824 -0.3216 -0.0781
  741TMC3    C110946   0.123   4.602  14.324 -0.3012  0.0370 -0.4882
  741TMC3    C210947   0.056   4.533  14.228 -0.6235  0.0601  0.0160
  741TMC3    C310948   4.684   4.442  14.265 -0.3688 -0.1025 -0.1750
  741TMC3    C410949   0.118   4.572  14.454 -0.3706 -0.0611  0.7973
  741TMC3    C510950   0.033   4.478  14.488  0.1649  1.1462 -0.0847
  741TMC3    C610951   4.678   4.406  14.399  0.1495 -0.3102 -0.7308
  741TMC3     C10952   0.220   4.699  14.288  0.0060  0.2577  0.6270
  741TMC3     O10953   0.316   4.694  14.368  0.0851  0.3409  0.4471
  741TMC3     H10954   0.063   4.566  14.125 -0.4227 -2.5046 -0.7829
  741TMC3    H110955   0.176   4.629  14.525  3.6775 -3.3063  0.0994
  741TMC3    H210956   4.628   4.322  14.445  0.6482 -0.1987  0.0240
  741TMC3    C710957   4.700   4.469  14.627 -0.2248  0.5059 -0.7468
  741TMC3    C810958   4.598   4.386  14.170 -0.4454  0.0365  0.0895
  741TMC3    O110959   4.579   4.448  14.646  0.2873 -0.3727  0.3036
  741TMC3    O210960   4.623   4.428  14.058 -0.4801 -0.2871  0.8400
  742TMC3    C110961   4.435   3.048  15.644  0.7706 -0.4242 -0.4410
  742TMC3    C210962   4.418   3.101  15.519 -0.2947 -0.7599 -0.5515
  742TMC3    C310963   4.532   3.091  15.434 -0.1837 -0.7635 -0.0490
  742TMC3    C410964   4.557   3.002  15.687 -0.5167 -0.4466  0.5026
  742TMC3    C510965   4.668   3.009  15.605 -0.2152  0.2731 -0.0665
  742TMC3    C610966   4.658   3.060  15.476  0.2941  0.2694 -0.0931
  742TMC3     C10967   4.328   3.077  15.739  0.2122 -0.4935 -0.1551
  742TMC3     O10968   4.333   3.024  15.852 -0.3338  0.1999  0.2356
  742TMC3     H10969   4.322   3.102  15.470 -0.3878 -2.6775 -0.4103
  742TMC3    H110970   4.562   2.952  15.783  1.3000 -0.5149  0.3702
  742TMC3    H210971   0.028   3.073  15.415  2.0239 -0.7154  2.2333
  742TMC3    C710972   0.070   2.937  15.631  0.6723  0.0092  0.0319
  742TMC3    C810973   4.514   3.092  15.285 -0.2986 -0.0401 -0.2654
  742TMC3    O110974   0.142   2.903  15.542  0.3588 -0.1377 -0.3326
  742TMC3    O210975   4.591   3.028  15.218 -0.1974  0.7046  0.4967
  743MPD2     C10976   3.972   4.671   2.426 -0.2114 -0.4243 -0.5992
  743MPD2    C110977   3.993   4.665   2.286  0.3881  0.2893  0.4178
  743MPD2    C210978   4.119   4.686   2.230 -0.2308 -0.1904  0.0096
  743MPD2    C310979   4.235   4.696   2.306 -0.4600 -0.1372  0.1545
  743MPD2    C410980   4.213   4.682   2.444  0.1573 -0.6278  0.1287
  743MPD2    C510981   4.086   4.684   2.497 -0.0045 -0.5916 -0.1083
  743MPD2     H10982   4.133   4.681   2.122  0.6418 -0.4808  0.1351
  743MPD2    H110983   4.295   4.680   2.514  2.2174 -1.2934 -2.3266
  743MPD2    H210984   3.881   4.659   2.484 -0.1016 -0.3985 -0.4224
  743MPD2    H310985   4.086   4.680   2.605  0.6827  0.8361 -0.0608
  743MPD2     N10986   4.359   4.703   2.247  0.3958 -0.1932 -0.0307
  743MPD2    H510987   4.355   4.713   2.147  1.0768  2.1105  0.1808
  743MPD2    N110988   3.880   4.625   2.209 -0.6559 -0.1923  0.1291
  743MPD2    H710989   3.794   4.594   2.253 -0.2526 -0.4291  0.7712
  744TMC3    C110990   3.750   4.584   2.021 -0.2390  0.0051  0.8486
  744TMC3    C210991   3.633   4.607   2.080 -0.5059 -0.2696  0.0398
  744TMC3    C310992   3.524   4.558   2.014 -0.4364 -0.5684 -1.2434
  744TMC3    C410993   3.760   4.534   1.892 -0.3218 -0.6346 -0.1872
  744TMC3    C510994   3.649   4.498   1.826 -0.4096  0.2167  0.4876
  744TMC3    C610995   3.524   4.499   1.886  0.3345 -0.4150 -0.4694
  744TMC3     C10996   3.877   4.630   2.074 -0.6484 -0.1796 -0.8663
  744TMC3     O10997   3.958   4.662   1.992  0.1359 -0.7516 -0.4604
  744TMC3     H10998   3.616   4.651   2.178 -0.4562 -0.1238 -0.0178
  744TMC3    H110999   3.859   4.517   1.851 -0.5077  0.8796 -1.2658
  744TMC3    H211000   3.434   4.476   1.830 -0.3955  1.0389  0.1106
  744TMC3    C711001   3.646   4.465   1.688 -0.0535 -0.0749  0.8703
  744TMC3    C811002   3.387   4.605   2.051 -0.2210 -0.6097  0.3482
  744TMC3    O111003   3.546   4.425   1.635  0.2386  0.3154 -0.3355
  744TMC3    O211004   3.301   4.572   1.974  0.1840 -0.6786 -0.4149
  745TMC3    C111005   0.525   2.531  13.729 -0.4792 -0.0385 -0.5014
  745TMC3    C211006   0.469   2.519  13.857 -0.1069 -0.1736 -0.5030
  745TMC3    C311007   0.333   2.507  13.861  0.6796 -0.2230 -0.2980
  745TMC3    C411008   0.447   2.526  13.616  0.1863  0.3410  0.9491
  745TMC3    C511009   0.309   2.515  13.630  0.0226  0.8267 -0.2896
  745TMC3    C611010   0.252   2.501  13.752  1.3865 -0.1702 -0.7438
  745TMC3     C11011   0.651   2.608  13.722  0.0797 -0.5335  0.2721
  745TMC3     O11012   0.656   2.686  13.624  0.1730 -0.4958 -0.4007
  745TMC3     H11013   0.524   2.517  13.950 -1.0031  1.1689  0.0669
  745TMC3    H111014   0.498   2.519  13.521  1.0259 -0.7233  1.4866
  745TMC3    H211015   0.144   2.497  13.757  1.2985  1.9577 -0.9733
  745TMC3    C711016   0.225   2.568  13.527 -0.1847  0.2571 -0.6829
  745TMC3    C811017   0.287   2.591  13.973  0.1996 -0.1372  0.1474
  745TMC3    O111018   0.102   2.582  13.550 -0.3964 -0.3730 -0.3714
  745TMC3    O211019   0.359   2.594  14.074  0.1692  0.8640  0.6302
  746TMC3    C111020   2.988   0.113  10.612  0.7318 -0.4250 -0.2835
  746TMC3    C211021   3.114   0.072  10.570 -0.1454  0.1674  0.2586
  746TMC3    C311022   3.135   4.657  10.543  0.0836 -0.3313 -0.4004
  746TMC3    C411023   2.882   0.026  10.600 -1.0023  0.4392 -0.4726
  746TMC3    C511024   2.913   4.609  10.591  0.2751 -0.4228  0.6522
  746TMC3    C611025   3.039   4.563  10.563 -0.3499 -0.3388  0.4626
  746TMC3     C11026   2.967   0.254  10.636 -0.2536 -0.4372 -0.0629
  746TMC3     O11027   2.881   0.275  10.721 -0.2740 -0.5795 -0.2030
  746TMC3     H11028   3.203   0.134  10.584 -1.1840  1.5611  0.6933
  746TMC3    H111029   2.783   0.062  10.625 -0.1631  1.2334  1.6699
  746TMC3    H211030   3.064   4.458  10.550  0.0575 -0.1471 -0.3362
  746TMC3    C711031   2.810   4.523  10.547  0.0317 -0.3731 -0.1835
  746TMC3    C811032   3.251   4.625  10.468 -0.4574  0.0943  0.1565
  746TMC3    O111033   2.717   4.585  10.495 -0.4288  0.1874  0.5002
  746TMC3    O211034   3.257   4.509  10.434  0.0268  0.8859  0.4925
  747TMC3    C111035   0.871   0.060  10.975 -0.2614  0.5096 -0.0191
  747TMC3    C211036   0.774   4.700  11.023  0.0853  0.6354 -0.1766
  747TMC3    C311037   0.694   0.030  11.121 -0.1192  0.4150 -0.8548
  747TMC3    C411038   0.880   0.193  11.009  0.4813  0.3587 -0.4206
  747TMC3    C511039   0.794   0.236  11.109  0.1679 -0.2561  0.3695
  747TMC3    C611040   0.696   0.160  11.162  0.4832  0.2043  0.1374
  747TMC3     C11041   0.969   0.012  10.884  0.4684 -0.3416 -0.4392
  747TMC3     O11042   1.078   0.064  10.885  0.0725  0.1522 -0.2765
  747TMC3     H11043   0.787   4.593  11.008  3.2891  1.0014  0.0203
  747TMC3    H111044   0.964   0.252  10.975  1.1974  1.4709  3.2636
  747TMC3    H211045   0.626   0.188  11.239 -0.7874  0.0258 -0.9514
  747TMC3    C711046   0.766   0.381  11.108 -0.3342 -0.0364 -0.6631
  747TMC3    C811047   0.632   4.652  11.209  0.6542  0.1324 -0.1789
  747TMC3    O111048   0.711   0.421  11.212 -0.1198  0.1178  0.1035
  747TMC3    O211049   0.674   4.539  11.189 -0.6059  0.7372  0.2502
  748MPD2     C11050   1.741   0.027   2.124  0.0923 -0.3013  0.3315
  748MPD2    C111051   1.858   0.044   2.194  0.0579  0.0034 -0.1727
  748MPD2    C211052   1.970   0.096   2.132 -0.3584  0.5465 -0.1498
  748MPD2    C311053   1.966   0.143   2.005 -0.5476 -0.1918  0.2428
  748MPD2    C411054   1.845   0.148   1.942 -0.2785  0.3682 -0.3840
  748MPD2    C511055   1.732   0.080   1.998 -0.0160 -0.9816 -0.1786
  748MPD2     H11056   2.059   0.101   2.194 -1.0862  0.5483  0.8832
  748MPD2    H111057   1.819   0.184   1.843  2.2568  1.0386 -0.7917
  748MPD2    H211058   1.651   4.697   2.158 -0.5638 -0.0499 -1.0452
  748MPD2    H311059   1.640   0.074   1.941 -0.1760 -2.3433  0.2289
  748MPD2     N11060   2.087   0.188   1.948  0.0216  0.1767  0.1157
  748MPD2    H511061   2.167   0.196   2.010  1.5093 -0.1081 -1.7634
  748MPD2    N111062   1.845   0.001   2.327 -0.0363 -0.0292  0.3072
  748MPD2    H711063   1.761   4.664   2.338 -0.0439  0.2031  1.4409
  749TMC3    C111064   2.237   0.271   1.771  0.4537 -0.2362  0.1766
  749TMC3    C211065   2.330   0.298   1.870 -0.1521  0.4606  0.3078
  749TMC3    C311066   2.449   0.361   1.825 -0.0151 -0.5082 -0.3821
  749TMC3    C411067   2.249   0.312   1.640 -0.6015 -0.2222 -0.1483
  749TMC3    C511068   2.361   0.384   1.606  0.1346  0.4784  0.2562
  749TMC3    C611069   2.464   0.403   1.691  0.3167  0.7876  0.0550
  749TMC3     C11070   2.104   0.217   1.809  0.5003 -0.0365 -0.3521
  749TMC3     O11071   2.034   0.181   1.715  0.0858  0.2796  0.2240
  749TMC3     H11072   2.331   0.263   1.973 -2.9946  0.8752  0.4766
  749TMC3    H111073   2.172   0.304   1.564  0.1407  0.6897 -0.9986
  749TMC3    H211074   2.554   0.449   1.652  2.6818 -3.1272  0.8916
  749TMC3    C711075   2.375   0.452   1.476 -0.4148 -0.2554  0.5421
  749TMC3    C811076   2.566   0.374   1.918  0.1909 -0.4139 -0.5927
  749TMC3    O111077   2.470   0.529   1.465 -0.7256 -0.0405  0.2096
  749TMC3    O211078   2.544   0.386   2.037 -0.5130 -0.4808 -0.3831
  750MPD2     C11079   3.728   2.073  11.135 -0.2995 -0.5156  0.5211
  750MPD2    C111080   3.592   2.070  11.115  0.5815 -0.2817 -0.1081
  750MPD2    C211081   3.543   1.994  11.010 -0.0826 -0.3373  0.6635
  750MPD2    C311082   3.626   1.914  10.934  0.8111  0.3191 -0.4950
  750MPD2    C411083   3.767   1.914  10.961  0.3288 -0.3473  0.3678
  750MPD2    C511084   3.816   2.000  11.057 -0.1042  0.1911 -0.0931
  750MPD2     H11085   3.442   2.007  10.972  1.3206  2.2350 -2.1780
  750MPD2    H111086   3.837   1.864  10.895  0.1664 -0.5595  0.3542
  750MPD2    H211087   3.773   2.140  11.207 -0.1512 -0.1123  0.0464
  750MPD2    H311088   3.923   2.003  11.073  0.0388 -0.0331 -0.9902
  750MPD2     N11089   3.578   1.840  10.826  0.1976  0.5102  0.1783
  750MPD2    H511090   3.650   1.780  10.788 -0.1944  0.7756 -0.9966
  750MPD2    N111091   3.515   2.166  11.184 -0.0486 -0.1658  0.2464
  750MPD2    H711092   3.573   2.221  11.248  1.0378  0.4416 -1.2515
  751TMC3    C111093   3.431   1.712  10.686 -0.0988 -0.3470 -0.2119
  751TMC3    C211094   3.308   1.655  10.683 -0.5830 -0.2687  0.1744
  751TMC3    C311095   3.291   1.543  10.601  0.0742 -0.0009 -0.8874
  751TMC3    C411096   3.542   1.662  10.621  0.0879 -0.2583  0.0294
  751TMC3    C511097   3.525   1.549  10.549  0.7244  0.0713 -0.1033
  751TMC3    C611098   3.403   1.492  10.530 -0.0184 -0.4788 -0.1226
  751TMC3     C11099   3.449   1.824  10.781  0.3197 -0.4866 -0.3900
  751TMC3     O11100   3.345   1.871  10.835 -0.6709  0.0324  0.7443
  751TMC3     H11101   3.222   1.699  10.731  0.4617  1.1525  0.7233
  751TMC3    H111102   3.640   1.706  10.636 -1.2422  2.3561  1.1478
  751TMC3    H211103   3.393   1.405  10.466 -0.4337  0.0018 -0.7126
  751TMC3    C711104   3.636   1.503  10.470 -0.0336 -0.7564 -0.6831
  751TMC3    C811105   3.166   1.467  10.600  0.2270 -0.6126  0.4693
  751TMC3    O111106   3.715   1.580  10.414  0.8518  0.4067 -0.5460
  751TMC3    O211107   3.167   1.372  10.523  0.1076  0.4762 -0.5121
  752TMC3    C111108   1.872   1.635  17.060  0.9680 -0.2950 -0.4999
  752TMC3    C211109   1.760   1.657  17.139  0.6347 -0.2765  0.7121
  752TMC3    C311110   1.740   1.567  17.243  0.5518 -0.1768 -0.4118
  752TMC3    C411111   1.950   1.524  17.071  0.4555  0.7530 -0.0160
  752TMC3    C511112   1.921   1.438  17.170  0.4408 -0.4690  0.6237
  752TMC3    C611113   1.818   1.455  17.255  0.2941 -0.8556  0.0255
  752TMC3     C11114   1.885   1.713  16.941 -0.4564  0.0010 -0.7386
  752TMC3     O11115   2.000   1.726  16.899 -0.0269  0.1539  0.3241
  752TMC3     H11116   1.696   1.742  17.120  2.1808  0.4019 -1.4206
  752TMC3    H111117   2.034   1.501  17.006  1.0975  0.9756  0.7345
  752TMC3    H211118   1.786   1.381  17.328 -0.9112  0.0291  0.3903
  752TMC3    C711119   2.028   1.348  17.205  0.2382  0.5471 -0.2003
  752TMC3    C811120   1.631   1.593  17.341  0.1396 -0.0740  0.1805
  752TMC3    O111121   2.074   1.295  17.106 -0.2611 -0.8366  0.0286
  752TMC3    O211122   1.551   1.663  17.284  0.0801 -0.1856  0.8467
  753TMC3    C111123   3.112   2.676  13.262 -0.0039 -0.1971 -0.8372
  753TMC3    C211124   3.189   2.621  13.364 -0.3078  0.1601  0.1901
  753TMC3    C311125   3.110   2.543  13.447 -0.3674  0.6013 -0.8041
  753TMC3    C411126   2.983   2.638  13.241 -0.6232 -0.1207  0.3012
  753TMC3    C511127   2.915   2.561  13.326 -0.2519 -0.7300  0.4093
  753TMC3    C611128   2.979   2.510  13.436 -0.0217  0.2043  0.5905
  753TMC3     C11129   3.177   2.762  13.158  0.2002 -0.1945  0.3555
  753TMC3     O11130   3.115   2.853  13.106  0.1491  0.3825  0.6750
  753TMC3     H11131   3.286   2.657  13.395  1.1963 -3.9209  0.2635
  753TMC3    H111132   2.940   2.670  13.147 -1.2881 -2.5709 -0.2138
  753TMC3    H211133   2.928   2.443  13.505 -1.3104  0.4155 -0.1751
  753TMC3    C711134   2.773   2.538  13.308  0.3291 -0.4838  0.8280
  753TMC3    C811135   3.161   2.552  13.584  0.1955 -0.0498  0.1978
  753TMC3    O111136   2.722   2.626  13.238  0.2281  0.0036  0.0977
  753TMC3    O211137   3.122   2.462  13.662 -0.0453 -0.0232  0.1333
  754MPD2     C11138   2.642   1.212  12.839  1.1754 -0.0386 -0.5691
  754MPD2    C111139   2.572   1.317  12.900  0.5386  0.4379  0.9797
  754MPD2    C211140   2.436   1.341  12.873  0.3611 -0.1275  0.1672
  754MPD2    C311141   2.366   1.250  12.793  1.0505  0.9296 -0.2136
  754MPD2    C411142   2.441   1.151  12.732  1.0423 -0.1306 -0.1393
  754MPD2    C511143   2.574   1.138  12.753  1.0195 -0.4381 -0.0705
  754MPD2     H11144   2.391   1.423  12.927  2.2789 -0.0064  1.5791
  754MPD2    H111145   2.388   1.080  12.670 -0.3892 -1.2216  2.3187
  754MPD2    H211146   2.747   1.186  12.843  1.0813 -0.1696  0.8161
  754MPD2    H311147   2.627   1.057  12.705 -1.5490 -1.0374 -1.9080
  754MPD2     N11148   2.222   1.243  12.784 -0.3696 -0.2722  0.0478
  754MPD2    H511149   2.186   1.169  12.724 -1.2784  0.4176 -0.2498
  754MPD2    N111150   2.640   1.394  12.998 -0.0725  0.3283 -0.0769
  754MPD2    H711151   2.581   1.463  13.044 -0.1730  0.5556 -0.5464
  755MPD2     C11152   1.492   1.680  13.244 -0.4008 -0.0104 -0.0579
  755MPD2    C111153   1.427   1.626  13.132  1.0167 -0.2004 -0.2060
  755MPD2    C211154   1.491   1.528  13.055  1.1185  0.2577 -0.5148
  755MPD2    C311155   1.618   1.494  13.095  0.0083  0.0750  0.0489
  755MPD2    C411156   1.676   1.545  13.210 -0.1664  0.8512 -0.0809
  755MPD2    C511157   1.610   1.642  13.282  0.3326 -0.5731 -0.1839
  755MPD2     H11158   1.459   1.503  12.955  0.6042  0.6037 -0.4405
  755MPD2    H111159   1.771   1.503  13.239  0.3139  2.1361  0.1931
  755MPD2    H211160   1.454   1.760  13.307  3.9699 -0.5457  3.3201
  755MPD2    H311161   1.660   1.673  13.373 -2.2856 -0.6568  1.2762
  755MPD2     N11162   1.695   1.399  13.027  0.0675  0.2911  0.2995
  755MPD2    H511163   1.787   1.373  13.062  0.0939  0.9419  0.7262
  755MPD2    N111164   1.309   1.686  13.076  0.7893 -0.6554  0.5346
  755MPD2    H711165   1.287   1.657  12.981 -1.8366  1.3332  0.5703
  756MPD2     C11166   3.118   2.549   9.372  0.1960  0.4044  0.6407
  756MPD2    C111167   2.988   2.582   9.351 -0.1827  0.1208  0.1264
  756MPD2    C211168   2.912   2.533   9.246  0.2122 -0.4447 -0.5344
  756MPD2    C311169   2.978   2.468   9.144  0.1100 -0.0035 -0.5575
  756MPD2    C411170   3.113   2.433   9.167  0.7138  0.0219  0.3052
  756MPD2    C511171   3.182   2.470   9.281 -0.5285  0.2350  0.0014
  756MPD2     H11172   2.809   2.568   9.238  0.8249  1.0554 -1.7693
  756MPD2    H111173   3.173   2.390   9.088  0.5286  0.3794 -0.0314
  756MPD2    H211174   3.170   2.575   9.463 -0.3601  1.9446  0.5213
  756MPD2    H311175   3.286   2.443   9.291 -0.5838 -0.1167 -0.3652
  756MPD2     N11176   2.907   2.433   9.028  0.1270  0.5830  0.1944
  756MPD2    H511177   2.820   2.485   9.017 -0.3152 -0.6798 -2.3141
  756MPD2    N111178   2.917   2.666   9.442 -0.1364  0.2562 -0.2420
  756MPD2    H711179   2.818   2.681   9.427 -0.3015 -0.8289 -0.2111
  757MPD2     C11180   2.618   1.551   8.635  0.0006 -0.1198 -0.9892
  757MPD2    C111181   2.663   1.581   8.764 -0.5347  0.0041  0.2072
  757MPD2    C211182   2.696   1.712   8.780  0.5269  0.5652 -0.5530
  757MPD2    C311183   2.695   1.809   8.684  0.8747 -0.4610 -0.0625
  757MPD2    C411184   2.667   1.775   8.558  0.2735 -0.5023  0.2062
  757MPD2    C511185   2.635   1.646   8.537 -0.3724 -0.3538 -0.4336
  757MPD2     H11186   2.747   1.749   8.868 -1.1655  1.5231  0.0046
  757MPD2    H111187   2.673   1.834   8.468  1.6218  1.1684  1.3853
  757MPD2    H211188   2.568   1.456   8.623  1.4067 -0.7674 -1.7636
  757MPD2    H311189   2.597   1.625   8.438 -1.8814 -2.3333  0.5559
  757MPD2     N11190   2.720   1.948   8.718  0.6018 -0.5721 -0.5783
  757MPD2    H511191   2.763   1.971   8.807 -0.5454  0.4733 -0.2946
  757MPD2    N111192   2.646   1.485   8.870  0.5053 -0.2502 -0.2975
  757MPD2    H711193   2.590   1.403   8.848  1.1772 -0.3101 -1.8435
  758MPD2     C11194   2.299   0.780  16.012  0.1327 -0.2118  0.0862
  758MPD2    C111195   2.394   0.753  16.113 -0.4286  0.2146 -0.3925
  758MPD2    C211196   2.372   0.805  16.234  0.0444 -0.4678 -0.7114
  758MPD2    C311197   2.261   0.883  16.269  0.0563 -0.1822  0.1609
  758MPD2    C411198   2.171   0.914  16.164 -0.1510  0.8218  0.9343
  758MPD2    C511199   2.190   0.865  16.042  0.1639  0.4614 -0.0014
  758MPD2     H11200   2.450   0.786  16.306 -1.6362 -0.2330  1.1922
  758MPD2    H111201   2.094   0.990  16.174 -0.1832  0.8946  0.0993
  758MPD2    H211202   2.324   0.749  15.911  1.1668  2.4351 -0.4692
  758MPD2    H311203   2.127   0.891  15.958  0.0460 -1.8623 -0.6437
  758MPD2     N11204   2.228   0.924  16.397 -0.5174 -0.5779  0.1212
  758MPD2    H511205   2.136   0.966  16.411  0.7347  2.3139 -0.2343
  758MPD2    N111206   2.513   0.679  16.088  0.7766 -0.4369  0.5389
  758MPD2    H711207   2.540   0.674  15.990  2.3157 -1.4292  1.0225
  759MPD2     C11208   1.559   0.067   8.915  1.2713 -0.3627  0.3030
  759MPD2    C111209   1.600   4.690   9.001  0.5238  0.1498  0.5633
  759MPD2    C211210   1.715   4.618   8.972 -0.2915 -0.1928 -0.3636
  759MPD2    C311211   1.791   4.642   8.855  0.1449 -0.3075  0.4986
  759MPD2    C411212   1.749   0.024   8.769  0.3366  0.2574  0.0405
  759MPD2    C511213   1.632   0.092   8.800  0.7374  0.6129  0.2688
  759MPD2     H11214   1.751   4.542   9.041 -0.9027 -0.5022 -0.3877
  759MPD2    H111215   1.802   0.051   8.679 -1.7301 -2.6571 -2.0679
  759MPD2    H211216   1.472   0.127   8.940  2.5001  0.5892  2.3136
  759MPD2    H311217   1.595   0.172   8.737  1.2077 -0.0797 -0.8907
  759MPD2     N11218   1.903   4.558   8.833 -0.0493 -0.7054  0.4628
  759MPD2    H511219   1.915   4.485   8.903 -0.5803 -0.5630  0.6998
  759MPD2    N111220   1.540   4.666   9.127 -0.4483 -0.5276 -0.1188
  759MPD2    H711221   1.594   4.608   9.190 -0.0297  0.2884  0.2783
  760MPD2     C11222   0.867   1.608  11.774  0.2096 -0.7284 -0.1324
  760MPD2    C111223   0.991   1.617  11.708  0.2223 -0.8841  0.3453
  760MPD2    C211224   1.070   1.499  11.709 -0.3785  0.0622  0.7254
  760MPD2    C311225   1.024   1.392  11.783  0.3078 -0.2606  0.5108
  760MPD2    C411226   0.897   1.385  11.844  0.2969  0.0203 -0.8291
  760MPD2    C511227   0.812   1.490  11.823  0.1629 -0.1895 -0.3511
  760MPD2     H11228   1.168   1.508  11.664 -1.5775  0.6851 -1.7747
  760MPD2    H111229   0.863   1.303  11.907  0.3905  0.0538 -0.7353
  760MPD2    H211230   0.798   1.691  11.782  0.5495 -0.3232 -1.3115
  760MPD2    H311231   0.710   1.495  11.858  0.1977  0.4037 -0.3420
  760MPD2     N11232   1.099   1.275  11.804  0.1668  0.2777  0.4656
  760MPD2    H511233   1.058   1.212  11.873  1.1288 -0.7260  0.1263
  760MPD2    N111234   1.037   1.732  11.646 -0.3411  0.2448 -0.7012
  760MPD2    H711235   1.112   1.708  11.582  1.1087 -1.3957  1.6218
  761MPD2     C11236   2.669   1.397  10.722  0.1775 -0.0803 -0.1291
  761MPD2    C111237   2.757   1.326  10.640  0.5711  0.0482  0.8270
  761MPD2    C211238   2.888   1.358  10.620 -0.1281 -0.7838  0.1876
  761MPD2    C311239   2.935   1.476  10.678 -1.1327  0.3120 -0.8354
  761MPD2    C411240   2.850   1.544  10.764 -0.0996  0.0992  0.8847
  761MPD2    C511241   2.716   1.515  10.780 -0.1864  0.5241  0.5289
  761MPD2     H11242   2.955   1.304  10.554  1.3310  0.5469  0.5854
  761MPD2    H111243   2.887   1.636  10.808  1.1230 -0.6020  1.3270
  761MPD2    H211244   2.565   1.369  10.734  0.2532 -0.3955 -0.2108
  761MPD2    H311245   2.650   1.582  10.835 -0.9242  1.8358 -1.9778
  761MPD2     N11246   3.064   1.525  10.669 -0.2907 -0.1576  0.7465
  761MPD2    H511247   3.087   1.600  10.734  1.7999  0.5871 -0.8377
  761MPD2    N111248   2.689   1.215  10.576  1.1173  0.2721  0.3032
  761MPD2    H711249   2.601   1.189  10.620  1.6006  0.6365  1.4697
  762MPD2     C11250   3.116   1.104  10.312 -0.3266  0.7593 -0.8617
  762MPD2    C111251   3.079   0.993  10.240  0.1583 -0.0146 -0.4843
  762MPD2    C211252   3.163   0.935  10.152  0.0316  0.3396  0.3273
  762MPD2    C311253   3.289   0.971  10.144  0.8475  0.7160 -0.5384
  762MPD2    C411254   3.335   1.084  10.213 -0.6757  0.7967 -0.0988
  762MPD2    C511255   3.244   1.151  10.296  0.2273 -0.1097 -0.0281
  762MPD2     H11256   3.124   0.847  10.103  0.9226  0.9535 -1.4756
  762MPD2    H111257   3.436   1.121  10.195 -1.6309  3.2054 -0.5036
  762MPD2    H211258   3.049   1.141  10.388  0.1130  0.6905 -0.4363
  762MPD2    H311259   3.282   1.226  10.364 -1.8740 -0.9911  2.1136
  762MPD2     N11260   3.383   0.881  10.078 -0.2528  0.0673  0.1165
  762MPD2    H511261   3.341   0.802  10.029  1.8254  0.5597 -2.4913
  762MPD2    N111262   2.942   0.961  10.261  0.4501  0.0216  0.4990
  762MPD2    H711263   2.887   1.022  10.321 -1.9846 -2.1111  0.4389
  763MPD2     C11264   3.874   0.921  16.408  0.1979 -0.1040  0.7625
  763MPD2    C111265   3.944   0.997  16.317  0.3285  0.2189  0.5869
  763MPD2    C211266   4.020   1.097  16.370  0.4404  0.4336 -0.1930
  763MPD2    C311267   4.023   1.126  16.506  0.0461 -0.4708 -0.9271
  763MPD2    C411268   3.939   1.055  16.590 -1.0320  0.6431  0.0636
  763MPD2    C511269   3.877   0.945  16.546 -0.2128  0.4457  0.0430
  763MPD2     H11270   4.075   1.162  16.302  1.5716 -0.1909  0.1255
  763MPD2    H111271   3.920   1.062  16.697 -0.6738  1.2691  0.0853
  763MPD2    H211272   3.826   0.827  16.380 -0.0971  0.2754 -0.0126
  763MPD2    H311273   3.819   0.892  16.621  0.8037  0.7412  1.0337
  763MPD2     N11274   4.124   1.213  16.555 -1.1366 -0.0779  0.1142
  763MPD2    H511275   4.182   1.248  16.480 -0.5613 -1.7142 -0.2032
  763MPD2    N111276   3.938   0.981  16.180 -0.2452 -0.1749  0.4834
  763MPD2    H711277   3.995   1.046  16.127 -0.6862  0.5987  0.9403
  764MPD2     C11278   3.015   2.452  17.367 -0.4030 -0.1029  0.3732
  764MPD2    C111279   2.906   2.388  17.310 -0.1841  0.0087 -0.4361
  764MPD2    C211280   2.872   2.266  17.368 -0.1495 -0.2030 -0.4875
  764MPD2    C311281   2.943   2.208  17.475  0.0127 -0.2461 -0.8349
  764MPD2    C411282   3.054   2.271  17.521  0.4913  0.3620  0.2412
  764MPD2    C511283   3.089   2.395  17.466 -0.2623 -0.6240  0.3308
  764MPD2     H11284   2.782   2.220  17.327  1.5826 -1.6467 -2.7199
  764MPD2    H111285   3.095   2.240  17.617 -0.7707 -2.1874 -0.0355
  764MPD2    H211286   3.040   2.555  17.344 -1.4022  0.6589  2.7223
  764MPD2    H311287   3.165   2.451  17.520  0.9242  0.3422 -2.3695
  764MPD2     N11288   2.897   2.088  17.528  0.4073  0.6576  0.2446
  764MPD2    H511289   2.828   2.047  17.466 -0.6846 -1.7576  3.0767
  764MPD2    N111290   2.829   2.444  17.206 -0.1308 -0.3035  0.0121
  764MPD2    H711291   2.741   2.396  17.193 -0.9214  1.2509 -0.4356
  765MPD2     C11292   1.785   4.600  15.711 -0.4875 -0.6763 -0.1521
  765MPD2    C111293   1.834   4.700  15.793 -0.4406 -0.2038  0.3271
  765MPD2    C211294   1.950   4.678  15.869  0.1479 -0.3449  0.3787
  765MPD2    C311295   2.018   4.558  15.850  0.1025  0.5540 -0.7002
  765MPD2    C411296   1.961   4.463  15.772  0.0895 -0.3030 -0.3194
  765MPD2    C511297   1.844   4.476  15.707  0.3579  0.2268  0.5249
  765MPD2     H11298   2.000   0.041  15.918 -0.3191 -0.8115  1.6210
  765MPD2    H111299   2.006   4.365  15.763  0.5471  0.1262 -2.5988
  765MPD2    H211300   1.699   4.612  15.646  0.2566  0.4260 -0.9295
  765MPD2    H311301   1.803   4.392  15.652  3.8038 -0.0934 -1.5710
  765MPD2     N11302   2.151   4.551  15.900 -0.2307 -0.0610 -0.4553
  765MPD2    H511303   2.186   4.624  15.961  1.9246 -0.0355 -1.6941
  765MPD2    N111304   1.757   0.101  15.793 -0.3467 -0.0864  0.1842
  765MPD2    H711305   1.677   0.100  15.730 -0.9895  1.5009  0.9606
  766MPD2     C11306   1.332   0.389  15.278 -0.7519  0.5120 -0.1767
  766MPD2    C111307   1.462   0.428  15.293 -0.7240 -0.2108  0.6161
  766MPD2    C211308   1.556   0.448  15.185 -0.6685 -0.4225  0.2439
  766MPD2    C311309   1.515   0.431  15.063  0.4117 -0.1526  0.1107
  766MPD2    C411310   1.376   0.415  15.044  0.3604 -0.9296  0.2399
  766MPD2    C511311   1.286   0.399  15.149  0.6956  0.3358 -0.1638
  766MPD2     H11312   1.657   0.487  15.186 -1.1789  0.9560 -2.1746
  766MPD2    H111313   1.331   0.433  14.948  2.5568 -0.8514 -0.7740
  766MPD2    H211314   1.260   0.385  15.358 -0.3693 -0.1563  0.1382
  766MPD2    H311315   1.179   0.390  15.129  0.9454 -0.2477 -1.2286
  766MPD2     N11316   1.593   0.449  14.946 -0.1596  0.4445  0.3288
  766MPD2    H511317   1.546   0.445  14.856 -1.9658 -4.6518  1.5126
  766MPD2    N111318   1.519   0.445  15.421  0.0367  0.5378 -0.3515
  766MPD2    H711319   1.592   0.515  15.429  0.2492  0.4347 -1.4636
  767MPD2     C11320   1.083   0.741  15.058  0.5518  0.1033 -0.2195
  767MPD2    C111321   1.215   0.754  15.014  0.1933 -0.1793  0.1064
  767MPD2    C211322   1.257   0.731  14.880 -0.4489  0.3256 -0.4541
  767MPD2    C311323   1.157   0.718  14.780  0.7347  0.4217  0.1772
  767MPD2    C411324   1.021   0.704  14.826  0.6239 -0.0888 -0.8325
  767MPD2    C511325   0.992   0.705  14.961 -1.2978  1.1007  0.2516
  767MPD2     H11326   1.361   0.734  14.849 -0.3126 -2.2798 -0.2869
  767MPD2    H111327   0.939   0.677  14.760 -1.0473  1.9907  0.4143
  767MPD2    H211328   1.057   0.730  15.162  0.7906  2.4971  0.0851
  767MPD2    H311329   0.888   0.690  14.989 -0.8692  0.3775  1.4694
  767MPD2     N11330   1.197   0.699  14.644  0.1038  0.4962  0.5679
  767MPD2    H511331   1.298   0.697  14.631  0.1822 -0.8615  1.4498
  767MPD2    N111332   1.301   0.789  15.119  0.2046  0.1377 -0.2997
  767MPD2    H711333   1.263   0.835  15.201  0.4424  1.3278 -0.8503
  768MPD2     C11334   2.928   4.121  10.001 -0.1640 -0.1462  0.1445
  768MPD2    C111335   2.818   4.079  10.075 -0.1921 -0.3670  0.4069
  768MPD2    C211336   2.843   4.044  10.208 -0.8347  0.0179  0.5191
  768MPD2    C311337   2.963   4.063  10.266  0.1202  0.3952 -0.0821
  768MPD2    C411338   3.068   4.114  10.195  0.1788  0.4750 -0.4257
  768MPD2    C511339   3.045   4.148  10.065  0.7529  0.2472  0.0027
  768MPD2     H11340   2.758   4.005  10.262 -0.6310 -1.8819 -0.5459
  768MPD2    H111341   3.163   4.103  10.245  1.0400  0.3992 -2.0854
  768MPD2    H211342   2.917   4.137   9.894  1.9759 -0.2849 -0.0935
  768MPD2    H311343   3.122   4.197  10.007  0.1637  1.1279 -0.0268
  768MPD2     N11344   2.997   4.029  10.405 -0.1487  0.5046 -0.5979
  768MPD2    H511345   3.088   4.064  10.435  0.5062  0.1186 -2.1288
  768MPD2    N111346   2.690   4.049  10.022 -0.3830  0.2928  0.8389
  768MPD2    H711347   2.617   4.000  10.073  0.5861 -0.1792  1.7640
  769MPD2     C11348   3.422   1.989  14.904 -0.2412 -0.4370 -0.3707
  769MPD2    C111349   3.307   2.004  14.981 -0.2297  0.7862  0.1227
  769MPD2    C211350   3.329   2.037  15.116 -0.3772 -0.5133  0.0272
  769MPD2    C311351   3.458   2.072  15.161 -0.7463  0.1258  0.1644
  769MPD2    C411352   3.561   2.081  15.073 -0.1266  0.2623 -0.3167
  769MPD2    C511353   3.548   2.025  14.948  0.0225  0.4582  0.3914
  769MPD2     H11354   3.240   2.040  15.178 -0.3878  3.7886 -0.1615
  769MPD2    H111355   3.663   2.106  15.102 -0.1406  2.0310 -1.7848
  769MPD2    H211356   3.418   1.949  14.803  0.4577  0.7651 -0.8712
  769MPD2    H311357   3.637   2.017  14.887 -0.0717  0.5691  0.2392
  769MPD2     N11358   3.481   2.103  15.294  0.4982 -0.1986  0.0441
  769MPD2    H511359   3.566   2.156  15.310  0.2105 -0.0491  1.0994
  769MPD2    N111360   3.182   1.973  14.920  0.0865  0.2481  0.5175
  769MPD2    H711361   3.180   1.933  14.827 -0.3212  1.9731 -0.2079
  770MPD2     C11362   2.460   1.402  15.265  0.1655 -0.3513  0.0020
  770MPD2    C111363   2.552   1.367  15.162  0.7442  0.6015 -0.2911
  770MPD2    C211364   2.618   1.465  15.090  0.6761  0.2638 -0.4667
  770MPD2    C311365   2.602   1.599  15.121 -0.1430  0.1549 -0.3213
  770MPD2    C411366   2.525   1.633  15.231  0.2661 -0.2257 -0.1844
  770MPD2    C511367   2.449   1.537  15.294 -0.2911  0.4186 -0.0102
  770MPD2     H11368   2.670   1.442  14.998 -0.2352  1.6412 -1.3243
  770MPD2    H111369   2.509   1.737  15.257  0.6501  0.3359 -2.1263
  770MPD2    H211370   2.405   1.330  15.324  0.2103  0.9328  1.6484
  770MPD2    H311371   2.375   1.569  15.366 -1.1503 -0.3473 -0.5495
  770MPD2     N11372   2.667   1.698  15.044  0.9015 -0.2081  0.7503
  770MPD2    H511373   2.702   1.669  14.954  0.6859 -0.7502  0.8416
  770MPD2    N111374   2.564   1.229  15.144 -0.1995  0.5050  0.0041
  770MPD2    H711375   2.511   1.173  15.210 -0.9947  0.0445 -1.0241
  771MPD2     C11376   4.324   4.644  13.347 -0.6516 -0.4825  0.3522
  771MPD2    C111377   4.245   0.036  13.354  0.1381 -0.5747  0.3815
  771MPD2    C211378   4.134   0.050  13.280 -0.0932 -0.4554  0.3715
  771MPD2    C311379   4.096   4.674  13.188  1.3766  0.7469  0.2943
  771MPD2    C411380   4.168   4.555  13.174 -0.1600  0.6275 -0.5865
  771MPD2    C511381   4.272   4.540  13.264 -0.5999 -0.0476 -0.4282
  771MPD2     H11382   4.078   0.142  13.290  1.8979  0.6313  1.4657
  771MPD2    H111383   4.138   4.471  13.113  0.0515 -0.3655  0.6545
  771MPD2    H211384   4.404   4.615  13.414  0.6129  0.9207 -0.5429
  771MPD2    H311385   4.333   4.451  13.260 -0.1072  0.2766 -0.0531
  771MPD2     N11386   3.987   4.696  13.097 -0.0516  0.0615 -0.0632
  771MPD2    H511387   3.920   0.049  13.121 -1.0580 -0.1296 -2.2676
  771MPD2    N111388   4.277   0.146  13.439  0.2733  0.3567  0.3609
  771MPD2    H711389   4.233   0.237  13.429 -0.2474  0.0724  0.0655
  772MPD2     C11390   3.822   0.585  13.532  1.0780 -0.0534  0.7292
  772MPD2    C111391   3.900   0.491  13.469  0.4772 -0.3933  0.4889
  772MPD2    C211392   3.851   0.412  13.371 -0.2065 -0.3528 -0.2822
  772MPD2    C311393   3.711   0.412  13.353  0.2161 -0.2308 -0.4625
  772MPD2    C411394   3.632   0.504  13.421  0.5452  0.4649 -0.0590
  772MPD2    C511395   3.692   0.596  13.498  0.9114 -0.4852  0.2651
  772MPD2     H11396   3.913   0.335  13.326  1.1547  0.9330 -0.6208
  772MPD2    H111397   3.527   0.519  13.403  0.1468  0.0422  1.8730
  772MPD2    H211398   3.852   0.653  13.611  0.0346 -2.7378  3.4091
  772MPD2    H311399   3.624   0.668  13.540  0.2167  0.6861 -2.8276
  772MPD2     N11400   3.645   0.315  13.274  0.4699 -0.4231  0.1957
  772MPD2    H511401   3.544   0.327  13.269  0.3436 -0.9076  1.6956
  772MPD2    N111402   4.037   0.476  13.491 -0.4494  0.7370  0.0574
  772MPD2    H711403   4.073   0.395  13.441 -0.2558 -0.4887  2.1535
  773MPD2     C11404   3.193   1.212   0.666 -1.1627  0.0667 -0.2281
  773MPD2    C111405   3.154   1.123   0.570 -0.0626 -0.0432  0.2160
  773MPD2    C211406   3.185   0.988   0.580  0.4345 -0.0322 -0.5391
  773MPD2    C311407   3.245   0.938   0.691  0.4711 -0.3762 -0.0861
  773MPD2    C411408   3.289   1.030   0.787  0.2993 -0.2882 -0.3987
  773MPD2    C511409   3.274   1.161   0.768 -0.2884  0.2947 -0.2508
  773MPD2     H11410   3.158   0.924   0.497 -2.9083  0.7033 -0.0271
  773MPD2    H111411   3.335   1.007   0.882  1.9824  1.6518 -0.7417
  773MPD2    H211412   3.163   1.316   0.672  2.0234  1.0031 -0.0570
  773MPD2    H311413   3.315   1.229   0.842  1.0469 -1.2195  0.4031
  773MPD2     N11414   3.267   0.803   0.704 -0.3970  0.2632  0.2758
  773MPD2    H511415   3.229   0.751   0.626  0.0533 -0.1475  0.3292
  773MPD2    N111416   3.065   1.155   0.459  0.1366  0.0739 -0.2089
  773MPD2    H711417   3.025   1.076   0.411 -1.7082 -0.0293  1.5318
  774MPD2     C11418   2.262   1.002  13.641 -0.3663 -0.2287  0.5772
  774MPD2    C111419   2.360   0.960  13.552  0.6861 -0.7160 -0.5512
  774MPD2    C211420   2.455   1.050  13.513  0.1584  0.3148 -0.9550
  774MPD2    C311421   2.452   1.183  13.555 -0.2927 -0.3670 -0.1782
  774MPD2    C411422   2.356   1.225  13.640  0.2804 -0.4829  0.6142
  774MPD2    C511423   2.271   1.128  13.690 -0.0545 -0.6856 -0.0088
  774MPD2     H11424   2.532   1.017  13.444  1.6619 -0.4161  1.0728
  774MPD2    H111425   2.358   1.327  13.677  1.9388  0.1867 -1.3391
  774MPD2    H211426   2.193   0.934  13.688  0.1140 -0.6132  0.7265
  774MPD2    H311427   2.195   1.160  13.760 -0.1732  0.7329 -0.7643
  774MPD2     N11428   2.553   1.264  13.493  0.2442  0.4353  0.0804
  774MPD2    H511429   2.611   1.216  13.426  2.6163  1.2353  1.5587
  774MPD2    N111430   2.368   0.816  13.531  0.4630  0.4747  0.1041
  774MPD2    H711431   2.315   0.755  13.592  0.7927 -1.4853 -1.5901
  775MPD2     C11432   3.684   1.737  16.011 -1.0225 -0.1615  0.2402
  775MPD2    C111433   3.635   1.860  16.048 -0.3612  0.7893  0.5399
  775MPD2    C211434   3.669   1.976  15.975 -0.4324 -0.1888  0.4743
  775MPD2    C311435   3.790   1.967  15.902  0.0334  0.5335  0.2829
  775MPD2    C411436   3.851   1.843  15.870 -0.1867 -0.1328  0.0141
  775MPD2    C511437   3.792   1.726  15.927  0.5401 -0.5150  0.2597
  775MPD2     H11438   3.618   2.072  15.979 -2.9630 -1.6387  3.1116
  775MPD2    H111439   3.943   1.834  15.813  0.2422 -0.0665  0.7053
  775MPD2    H211440   3.649   1.646  16.059  0.0449  0.7790  2.7419
  775MPD2    H311441   3.841   1.630  15.914 -0.9347 -1.1715 -0.3932
  775MPD2     N11442   3.855   2.071  15.833  0.5045 -0.5991  0.1137
  775MPD2    H511443   3.948   2.050  15.797 -0.2232 -1.7625 -1.0886
  775MPD2    N111444   3.537   1.866  16.151  0.2495 -0.7086 -0.5323
  775MPD2    H711445   3.512   1.779  16.197 -0.8505 -0.5909 -0.9204
  776MPD2     C11446   3.172   2.802  10.811  0.0968  0.3448 -0.3327
  776MPD2    C111447   3.238   2.816  10.931  0.2008  0.4774  0.1480
  776MPD2    C211448   3.276   2.943  10.974 -0.0458 -0.2978 -0.4593
  776MPD2    C311449   3.239   3.056  10.900 -0.6600 -0.1653  0.0828
  776MPD2    C411450   3.164   3.033  10.791  0.1722 -0.1476  0.4697
  776MPD2    C511451   3.142   2.912  10.737 -0.3057  0.1262  0.6962
  776MPD2     H11452   3.335   2.950  11.065 -0.4182  1.3261 -0.3449
  776MPD2    H111453   3.117   3.114  10.737 -0.5220 -0.1028  1.1384
  776MPD2    H211454   3.144   2.705  10.772  0.7602 -0.4708  1.2196
  776MPD2    H311455   3.079   2.889  10.651  0.2174  0.2116  0.2907
  776MPD2     N11456   3.264   3.190  10.927  0.0574 -0.7405 -0.3020
  776MPD2    H511457   3.227   3.257  10.860 -1.2254 -0.9853  0.1575
  776MPD2    N111458   3.263   2.696  11.005  0.1344  0.1729 -0.4621
  776MPD2    H711459   3.244   2.606  10.964  1.6470  0.7355 -2.4170
  777MPD2     C11460   3.670   0.459   0.943 -0.5247  0.7379 -0.2996
  777MPD2    C111461   3.561   0.406   1.021 -0.2855  0.0307 -0.0308
  777MPD2    C211462   3.501   0.292   0.975 -0.5432 -0.1917 -0.6634
  777MPD2    C311463   3.551   0.211   0.876 -0.0573  0.3902  0.6057
  777MPD2    C411464   3.661   0.258   0.806 -0.1611  0.1305  0.7219
  777MPD2    C511465   3.707   0.382   0.833 -0.1412  0.4215 -0.2335
  777MPD2     H11466   3.412   0.247   1.018 -1.3177  0.8722 -1.1628
  777MPD2    H111467   3.712   0.204   0.726  1.5237  3.6976 -0.6186
  777MPD2    H211468   3.711   0.557   0.966  1.4997 -0.1178 -0.2359
  777MPD2    H311469   3.782   0.422   0.765  1.1734  0.9542  1.5373
  777MPD2     N11470   3.494   0.079   0.874 -0.0338 -0.3244  0.2063
  777MPD2    H511471   3.432   0.043   0.946 -2.6839  1.4398 -1.2028
  777MPD2    N111472   3.517   0.464   1.148 -0.2716 -0.2079  0.2072
  777MPD2    H711473   3.587   0.527   1.187  0.7977 -0.4649 -1.3214
  778MPD2     C11474   4.057   0.396  14.733 -0.3587  0.0034  0.1920
  778MPD2    C111475   4.089   0.285  14.665  0.6937 -0.6474 -0.2343
  778MPD2    C211476   4.171   0.287  14.560  0.3631 -0.1674 -0.1350
  778MPD2    C311477   4.224   0.401  14.511 -0.1992 -0.5113 -0.1864
  778MPD2    C411478   4.184   0.523  14.573  0.6302 -0.4276  0.1871
  778MPD2    C511479   4.109   0.519  14.688 -0.3172  0.1713  0.6025
  778MPD2     H11480   4.212   0.194  14.524  0.5904  0.0951 -0.5541
  778MPD2    H111481   4.220   0.620  14.540  1.7514 -0.3501  1.6422
  778MPD2    H211482   3.988   0.392  14.817 -2.2318  0.9163 -1.3136
  778MPD2    H311483   4.081   0.606  14.745 -1.8536  0.5145 -0.6929
  778MPD2     N11484   4.324   0.400  14.411 -0.2341 -0.1402 -0.5156
  778MPD2    H511485   4.363   0.310  14.386  0.8853  0.1847  0.0803
  778MPD2    N111486   4.033   0.162  14.701  0.0066 -0.3324 -0.4652
  778MPD2    H711487   4.037   0.086  14.635  2.1278  0.0789 -0.8183
  779MPD2     C11488   3.870   3.591  13.319 -0.4769 -0.1284  0.2311
  779MPD2    C111489   3.872   3.627  13.456 -0.7783 -0.1395  0.4173
  779MPD2    C211490   3.938   3.741  13.486 -0.0926  0.6779  0.0573
  779MPD2    C311491   3.986   3.834  13.395 -0.6285 -0.1195 -0.7004
  779MPD2    C411492   3.979   3.801  13.263  0.1083  0.1564 -0.1906
  779MPD2    C511493   3.918   3.680  13.227  0.5250 -0.0973  0.3449
  779MPD2     H11494   3.949   3.767  13.591  0.2322 -0.8062  0.3907
  779MPD2    H111495   4.011   3.864  13.180  1.6679  0.8743  0.9490
  779MPD2    H211496   3.813   3.505  13.286  2.2643 -1.4309 -1.0972
  779MPD2    H311497   3.910   3.656  13.122 -1.1357 -0.6069  0.5886
  779MPD2     N11498   4.027   3.955  13.444 -0.8181  0.2858 -0.7837
  779MPD2    H511499   4.027   3.964  13.546  1.8009  0.6058 -0.8054
  779MPD2    N111500   3.807   3.558  13.559  0.4156  0.4927  0.4755
  779MPD2    H711501   3.816   3.605  13.648 -2.4297 -0.4403  1.2381
  780MPD2     C11502   3.158   3.210   1.042  0.8207  0.1811  0.0058
  780MPD2    C111503   3.170   3.146   0.922 -0.1486  0.3514 -0.3593
  780MPD2    C211504   3.278   3.163   0.838 -0.7354 -1.2493  0.6856
  780MPD2    C311505   3.379   3.244   0.876  0.2543  0.4386  0.3096
  780MPD2    C411506   3.366   3.324   0.992 -0.8488  0.4820  0.7497
  780MPD2    C511507   3.257   3.299   1.073 -1.0317  0.0545 -0.0538
  780MPD2     H11508   3.288   3.120   0.739  0.1205 -2.3449  1.2453
  780MPD2    H111509   3.432   3.408   1.013  0.3677  0.1687 -1.8652
  780MPD2    H211510   3.077   3.198   1.113  1.1777  0.3903  0.4518
  780MPD2    H311511   3.231   3.367   1.154  0.4975 -0.8975  1.2428
  780MPD2     N11512   3.485   3.251   0.790  0.1722  0.6898  0.0761
  780MPD2    H511513   3.491   3.191   0.709 -1.1613  2.4558 -1.3504
  780MPD2    N111514   3.064   3.064   0.889 -0.1430 -0.1235 -0.0221
  780MPD2    H711515   2.990   3.040   0.955 -1.0210  2.2571 -0.1491
  781MPD2     C11516   0.829   0.952  11.924  0.5445  0.6311  0.2952
  781MPD2    C111517   0.692   0.971  11.921  0.5888  0.2593 -0.1493
  781MPD2    C211518   0.632   1.021  11.808  0.0832  0.1163  0.5064
  781MPD2    C311519   0.712   1.042  11.696 -1.0885  1.2219  0.4443
  781MPD2    C411520   0.845   1.011  11.697 -0.2803 -0.6819 -0.0232
  781MPD2    C511521   0.902   0.974  11.811 -0.0772  0.8352  0.3285
  781MPD2     H11522   0.526   1.043  11.810 -0.4189 -2.4844  1.7879
  781MPD2    H111523   0.903   1.024  11.606  1.9404 -1.5589  1.2928
  781MPD2    H211524   0.883   0.900  12.002 -1.0370 -1.0907  0.2618
  781MPD2    H311525   1.005   0.943  11.815  0.0424  1.1487 -0.4422
  781MPD2     N11526   0.661   1.081  11.570 -0.1998 -0.8824  0.4493
  781MPD2    H511527   0.721   1.070  11.489  0.2302  1.2561  0.4777
  781MPD2    N111528   0.621   0.939  12.041  0.4092  0.0233 -0.0465
  781MPD2    H711529   0.679   0.936  12.125 -0.9410  0.1967  0.8926
  782MPD2     C11530   4.047   1.808   9.924 -0.0557 -0.1726 -0.2766
  782MPD2    C111531   4.095   1.813  10.052 -0.0985  0.4815  0.1517
  782MPD2    C211532   4.030   1.904  10.136  0.1882 -0.2390 -1.1422
  782MPD2    C311533   3.928   1.985  10.092 -0.0210 -0.0903 -0.0286
  782MPD2    C411534   3.881   1.973   9.963 -0.3392 -0.3145  0.1342
  782MPD2    C511535   3.941   1.879   9.884 -0.1330  0.1755 -0.5685
  782MPD2     H11536   4.060   1.927  10.238 -1.0244 -0.5484 -0.7098
  782MPD2    H111537   3.796   2.030   9.928 -1.3655 -1.5234  0.6672
  782MPD2    H211538   4.099   1.752   9.847 -1.1846  0.0158 -1.1682
  782MPD2    H311539   3.909   1.863   9.781  0.8604 -0.3159 -0.8000
  782MPD2     N11540   3.878   2.079  10.184  0.6246  0.0840 -0.7340
  782MPD2    H511541   3.896   2.060  10.282  1.0931 -1.2636 -1.0740
  782MPD2    N111542   4.196   1.719  10.092  0.2539  0.1901 -0.6823
  782MPD2    H711543   4.218   1.640  10.032  0.6580  1.2599 -1.9414
  783MPD2     C11544   3.762   1.150  10.469  0.3272 -0.6633  0.3570
  783MPD2    C111545   3.763   1.290  10.449  0.0355 -0.1350  0.0251
  783MPD2    C211546   3.888   1.346  10.429 -0.1000  0.0506  0.0067
  783MPD2    C311547   4.003   1.276  10.399  0.3824  0.8520 -0.4452
  783MPD2    C411548   3.991   1.144  10.411 -0.5148 -1.0356  0.4417
  783MPD2    C511549   3.878   1.083  10.443  0.0312 -0.5443 -0.3072
  783MPD2     H11550   3.900   1.452  10.447  0.1310  0.2232 -1.1808
  783MPD2    H111551   4.076   1.080  10.390  1.1758  1.4964 -0.3824
  783MPD2    H211552   3.673   1.093  10.491  0.3266 -1.0207 -0.5483
  783MPD2    H311553   3.876   0.975  10.451 -1.7660 -0.5100 -0.2011
  783MPD2     N11554   4.122   1.340  10.369 -0.3981  0.6136 -1.3290
  783MPD2    H511555   4.110   1.441  10.359  1.2747  0.8595 -0.7191
  783MPD2    N111556   3.648   1.366  10.476 -0.6803 -0.1567  0.0431
  783MPD2    H711557   3.566   1.316  10.509 -1.0403 -0.5021 -1.3698
  784MPD2     C11558   1.982   1.899   0.932  0.2323 -0.2147 -0.3484
  784MPD2    C111559   1.873   1.925   1.020 -0.5452  0.3645 -0.4736
  784MPD2    C211560   1.751   1.970   0.974 -0.1030  0.2618  0.3715
  784MPD2    C311561   1.731   1.978   0.834  0.2639  0.7144 -0.4633
  784MPD2    C411562   1.836   1.957   0.745  0.1999 -0.2621  0.6466
  784MPD2    C511563   1.955   1.910   0.795 -0.3249 -0.2330 -0.1600
  784MPD2     H11564   1.673   1.993   1.046  0.9054  2.4066  0.7678
  784MPD2    H111565   1.835   1.973   0.638  0.8879 -1.1788  0.5042
  784MPD2    H211566   2.082   1.869   0.960  0.5437  0.6744 -0.5074
  784MPD2    H311567   2.039   1.896   0.728 -0.0365 -0.9104  0.3477
  784MPD2     N11568   1.596   1.998   0.791 -0.2377 -0.8731  0.2096
  784MPD2    H511569   1.530   1.985   0.867 -1.7199  0.2026 -0.8795
  784MPD2    N111570   1.885   1.910   1.157 -0.6949 -0.2751  0.3884
  784MPD2    H711571   1.815   1.947   1.220 -1.0754  0.3682 -0.4027
  785MPD2     C11572   1.170   0.329  10.488 -0.3612 -0.5536 -0.4370
  785MPD2    C111573   1.149   0.379  10.359 -0.3836 -0.5324  0.2761
  785MPD2    C211574   1.193   0.301  10.252  0.1583 -0.3322  0.2446
  785MPD2    C311575   1.238   0.173  10.263  0.2525  0.0726  0.5635
  785MPD2    C411576   1.231   0.113  10.390 -0.3722 -0.1666 -0.8737
  785MPD2    C511577   1.213   0.199  10.502 -0.9570 -0.1770 -0.0204
  785MPD2     H11578   1.195   0.342  10.152  0.6052 -1.1842 -0.0963
  785MPD2    H111579   1.250   0.007  10.405 -0.5234 -0.0697 -0.0093
  785MPD2    H211580   1.160   0.396  10.572 -1.6944 -0.3977 -0.7175
  785MPD2    H311581   1.225   0.160  10.602  1.9666 -1.4110 -0.8800
  785MPD2     N11582   1.255   0.101  10.139  0.5201  0.4087 -0.2095
  785MPD2    H511583   1.229   0.138  10.048 -0.4408  0.2689  0.0098
  785MPD2    N111584   1.097   0.509  10.349  0.2962  0.7897 -0.9248
  785MPD2    H711585   1.093   0.557  10.439 -0.9757 -0.9325 -0.0707
  786MPD2     C11586   4.213   3.165  14.867 -0.1808 -0.7041  0.4695
  786MPD2    C111587   4.328   3.092  14.882 -0.4994  0.0161  0.7644
  786MPD2    C211588   4.384   3.089  15.008  0.2429  0.0263  0.0076
  786MPD2    C311589   4.341   3.165  15.116  0.3014 -0.3137 -0.8725
  786MPD2    C411590   4.223   3.239  15.095  0.5630  0.3346  0.9651
  786MPD2    C511591   4.169   3.235  14.972 -0.2415  0.5675  0.0968
  786MPD2     H11592   4.458   3.012  15.028  0.1401  0.3942  1.8253
  786MPD2    H111593   4.170   3.299  15.168  0.0610 -1.6759  2.2777
  786MPD2    H211594   4.158   3.167  14.774  0.1405  0.7801  0.3113
  786MPD2    H311595   4.069   3.273  14.957 -0.2532 -0.2496 -1.8978
  786MPD2     N11596   4.394   3.163  15.247 -0.0266 -0.1069 -0.4884
  786MPD2    H511597   4.351   3.234  15.306  0.5542  0.3988 -0.6731
  786MPD2    N111598   4.363   2.999  14.790 -0.1138  0.2014  0.2033
  786MPD2    H711599   4.428   2.926  14.817 -2.6736 -1.7958  0.9706
  787MPD2     C11600   4.462   2.424  14.995  0.0975  0.1976  0.0718
  787MPD2    C111601   4.484   2.410  14.866  0.1169 -0.2444  0.4580
  787MPD2    C211602   4.553   2.296  14.820 -0.4040 -0.0522  0.5023
  787MPD2    C311603   4.604   2.208  14.910 -0.5238  0.0862  0.3659
  787MPD2    C411604   4.582   2.229  15.041 -0.2851  0.6605  0.1059
  787MPD2    C511605   4.516   2.334  15.083 -0.2404 -0.1041  0.1937
  787MPD2     H11606   4.548   2.270  14.715  1.1299  0.3608  0.3219
  787MPD2    H111607   4.618   2.165  15.121 -0.9073 -0.0987 -0.2267
  787MPD2    H211608   4.408   2.513  15.026 -0.5676 -0.1034 -0.2429
  787MPD2    H311609   4.487   2.346  15.187  2.7449 -1.9959  1.2214
  787MPD2     N11610   4.665   2.089  14.854 -0.3262  0.1562  0.4297
  787MPD2    H511611   4.671   2.084  14.753 -0.9403  1.1519  0.3432
  787MPD2    N111612   4.438   2.513  14.778  0.6965 -0.4510  0.2287
  787MPD2    H711613   4.389   2.588  14.826  0.7984 -0.7368  0.7727
  788MPD2     C11614   1.563   0.808   1.100 -0.7580 -0.6086 -0.3777
  788MPD2    C111615   1.532   0.725   0.993  0.7767 -0.1077 -0.2569
  788MPD2    C211616   1.504   0.780   0.870 -0.0123  0.2663 -0.3699
  788MPD2    C311617   1.537   0.911   0.835 -0.0770 -0.6832 -0.0096
  788MPD2    C411618   1.587   0.982   0.936 -0.6626  1.1875 -0.7138
  788MPD2    C511619   1.595   0.936   1.066 -0.2609  0.0775 -1.2485
  788MPD2     H11620   1.471   0.715   0.790 -0.7266  0.6178 -0.3659
  788MPD2    H111621   1.608   1.087   0.918 -1.3321  1.3391 -0.6417
  788MPD2    H211622   1.588   0.768   1.197  1.8954 -0.0785 -0.8446
  788MPD2    H311623   1.629   1.001   1.146  1.6884 -1.2068 -1.0451
  788MPD2     N11624   1.512   0.980   0.715  0.6520 -0.2024  0.0864
  788MPD2    H511625   1.545   1.075   0.705  0.0293  0.0308  0.2158
  788MPD2    N111626   1.511   0.589   1.014 -0.1810 -0.7864  0.4129
  788MPD2    H711627   1.477   0.538   0.933 -1.5016  1.9409 -0.7286
  789MPD2     C11628   2.037   0.697  16.819  0.4754  0.2590 -0.1770
  789MPD2    C111629   1.973   0.744  16.710 -0.0303  0.1817 -0.4228
  789MPD2    C211630   1.868   0.832  16.720 -0.1201  0.1645  0.4843
  789MPD2    C311631   1.806   0.856  16.843 -0.1157 -0.1595  0.3329
  789MPD2    C411632   1.858   0.797  16.950 -0.1828 -1.0485  0.3878
  789MPD2    C511633   1.975   0.723  16.939  0.9597  0.2732 -0.3753
  789MPD2     H11634   1.822   0.865  16.628  1.3182  2.7511  0.6753
  789MPD2    H111635   1.803   0.789  17.043  0.0830 -0.2919  0.6109
  789MPD2    H211636   2.115   0.621  16.818  1.1041  0.9291 -1.7242
  789MPD2    H311637   2.019   0.680  17.029 -0.1501 -1.8114 -0.8092
  789MPD2     N11638   1.680   0.916  16.853 -0.2521  0.0118  0.5829
  789MPD2    H511639   1.632   0.895  16.940 -3.4038 -1.0997 -1.4363
  789MPD2    N111640   1.996   0.704  16.584 -0.0474 -0.3256 -0.1333
  789MPD2    H711641   1.951   0.758  16.511  2.2863 -0.4564 -1.6765
  790MPD2     C11642   2.425   2.844  13.664  0.2809 -0.1372  0.7327
  790MPD2    C111643   2.546   2.792  13.641  0.0296 -0.3200 -0.2400
  790MPD2    C211644   2.586   2.793  13.509 -0.0865  0.6638 -0.3940
  790MPD2    C311645   2.510   2.855  13.413 -0.2422 -0.2671 -0.1571
  790MPD2    C411646   2.391   2.912  13.446 -0.1552 -0.4470  0.1352
  790MPD2    C511647   2.348   2.896  13.567  0.5547  0.2231 -0.0114
  790MPD2     H11648   2.677   2.739  13.484 -0.4815  0.5368 -1.5716
  790MPD2    H111649   2.329   2.966  13.375  0.4894 -0.0615 -0.1291
  790MPD2    H211650   2.382   2.845  13.764  0.4479 -0.3645  0.8085
  790MPD2    H311651   2.246   2.924  13.589 -0.4428 -2.0843 -1.7415
  790MPD2     N11652   2.560   2.866  13.275 -0.1927  0.0825 -0.6796
  790MPD2    H511653   2.634   2.800  13.255  1.0686  0.8319  1.6057
  790MPD2    N111654   2.612   2.738  13.758  0.1198  0.7124  0.3430
  790MPD2    H711655   2.571   2.743  13.851  0.7738  2.2812  0.5431
  791MPD2     C11656   2.079   2.767  12.562  0.2565 -0.3443 -0.3212
  791MPD2    C111657   2.131   2.662  12.639  0.1631 -0.4659  0.1160
  791MPD2    C211658   2.088   2.539  12.620 -0.1854  0.1957  0.0290
  791MPD2    C311659   1.990   2.504  12.534  0.7751  0.2387  0.6552
  791MPD2    C411660   1.930   2.607  12.462  0.0270 -0.3959  0.2888
  791MPD2    C511661   1.978   2.735  12.474  0.1184 -0.2934 -0.0731
  791MPD2     H11662   2.140   2.452  12.660 -1.1242  0.7806  2.4816
  791MPD2    H111663   1.840   2.593  12.404  0.5676  0.1698 -0.6968
  791MPD2    H211664   2.114   2.868  12.582  3.3461 -1.2788 -1.0060
  791MPD2    H311665   1.926   2.817  12.424 -1.0049  0.2312  1.9587
  791MPD2     N11666   1.950   2.370  12.543 -0.4094 -0.8524  0.1043
  791MPD2    H511667   1.987   2.316  12.620 -0.3198  1.6922  1.8829
  791MPD2    N111668   2.229   2.676  12.746 -1.0952 -0.1800 -0.5309
  791MPD2    H711669   2.273   2.588  12.774 -0.2628  0.2248 -0.5608
  792MPD2     C11670   3.640   2.433  10.878  0.4604  0.1042 -0.7574
  792MPD2    C111671   3.567   2.516  10.798  0.2152 -0.0065  0.7109
  792MPD2    C211672   3.495   2.463  10.687 -0.5268  0.4204  0.1668
  792MPD2    C311673   3.500   2.323  10.671 -0.7506  0.2622 -0.3968
  792MPD2    C411674   3.579   2.244  10.755  0.5693 -0.6777 -0.5003
  792MPD2    C511675   3.640   2.297  10.857 -0.3993  0.1777 -0.0592
  792MPD2     H11676   3.447   2.535  10.621 -0.9941 -0.2757 -0.2506
  792MPD2    H111677   3.587   2.136  10.743 -0.1834 -0.9912  1.8143
  792MPD2    H211678   3.692   2.470  10.966 -0.5640 -3.4286  1.3531
  792MPD2    H311679   3.702   2.233  10.920 -0.2835  0.1272 -0.2230
  792MPD2     N11680   3.421   2.250  10.583 -0.1222  0.3173  0.2090
  792MPD2    H511681   3.448   2.153  10.571 -2.8827 -0.6568  1.9883
  792MPD2    N111682   3.565   2.661  10.813  0.1471  0.2981 -0.2395
  792MPD2    H711683   3.530   2.716  10.736 -0.1525 -1.5082 -1.3810
  793MPD2     C11684   2.642   2.339   9.931 -0.4694 -0.2347  0.0380
  793MPD2    C111685   2.728   2.432   9.979 -0.2591 -0.2085  0.1256
  793MPD2    C211686   2.834   2.390  10.057 -0.4922  0.5499  0.8129
  793MPD2    C311687   2.839   2.257  10.102  0.3423  0.9804  0.0421
  793MPD2    C411688   2.736   2.173  10.069 -0.2130  0.7107 -0.4902
  793MPD2    C511689   2.639   2.216   9.981 -0.3164  0.3902  0.0518
  793MPD2     H11690   2.909   2.464  10.081  1.0051 -1.0253  0.9820
  793MPD2    H111691   2.732   2.065  10.083  0.2497  0.9165  1.2822
  793MPD2    H211692   2.557   2.355   9.865 -0.9171 -1.3937  0.3235
  793MPD2    H311693   2.558   2.149   9.953 -0.1624  0.4183 -0.4678
  793MPD2     N11694   2.959   2.227  10.169  0.1928  1.0585  0.3709
  793MPD2    H511695   3.042   2.286  10.174  0.9869 -0.1205  1.0681
  793MPD2    N111696   2.731   2.566   9.926 -0.6149 -0.6184 -0.4638
  793MPD2    H711697   2.803   2.629   9.962 -1.5494  0.9183 -1.2923
  794MPD2     C11698   2.885   1.597  17.438  0.2272 -0.2699 -0.3885
  794MPD2    C111699   2.799   1.494  17.466  0.1875 -0.3692 -0.4594
  794MPD2    C211700   2.702   1.471  17.367 -0.3898  0.5613  0.0170
  794MPD2    C311701   2.690   1.554  17.252  0.3718  0.5486 -0.7994
  794MPD2    C411702   2.783   1.655  17.237  0.2436 -0.0803  0.0618
  794MPD2    C511703   2.879   1.678  17.329 -0.6772  0.4584 -0.1719
  794MPD2     H11704   2.635   1.387  17.383  0.1915  0.5241  2.2684
  794MPD2    H111705   2.777   1.716  17.147  0.8912  1.9541  1.3967
  794MPD2    H211706   2.973   1.622  17.497  0.3615  1.2371 -1.2145
  794MPD2    H311707   2.953   1.756  17.317  0.0330 -0.0522  0.8486
  794MPD2     N11708   2.598   1.549  17.149  0.6111  0.3230 -0.4979
  794MPD2    H511709   2.588   1.626  17.084 -2.8479 -0.6832 -1.1426
  794MPD2    N111710   2.790   1.431  17.588 -0.1350  0.6498 -0.0060
  794MPD2    H711711   2.719   1.360  17.603  0.4839 -0.3103 -1.5436
  795MPD2     C11712   0.488   4.044  13.800  0.1608 -0.1321  0.2157
  795MPD2    C111713   0.482   3.963  13.693  0.3807  0.6236  0.1335
  795MPD2    C211714   0.548   3.839  13.690 -0.2131  0.1564 -0.3997
  795MPD2    C311715   0.621   3.793  13.800 -0.2157 -0.2700  0.1003
  795MPD2    C411716   0.627   3.877  13.912  0.5904  0.0662  0.4119
  795MPD2    C511717   0.558   4.000  13.904  0.0551  0.8011  0.5622
  795MPD2     H11718   0.540   3.783  13.598 -0.1047 -0.9260  0.2472
  795MPD2    H111719   0.685   3.857  14.002  0.9737  0.1992  0.1960
  795MPD2    H211720   0.440   4.141  13.803 -0.4932 -0.5450  2.5627
  795MPD2    H311721   0.568   4.064  13.991  2.9362 -0.1109  0.8875
  795MPD2     N11722   0.700   3.679  13.804  0.6038  0.3409 -0.0559
  795MPD2    H511723   0.781   3.676  13.864  1.0281 -1.3069 -0.6992
  795MPD2    N111724   0.408   4.000  13.576  0.1113 -0.4939  0.1023
  795MPD2    H711725   0.404   3.934  13.499  3.0725 -2.1869  1.3909
  796MPD2     C11726   4.530   0.339  15.858 -1.2798  0.7118  0.4477
  796MPD2    C111727   4.615   0.418  15.923  0.4501 -0.3880 -0.0248
  796MPD2    C211728   4.607   0.554  15.913  0.4047  0.0865  0.0577
  796MPD2    C311729   4.512   0.607  15.828  0.3492 -0.2407 -0.1042
  796MPD2    C411730   4.436   0.525  15.749 -0.1044 -0.0288 -0.4810
  796MPD2    C511731   4.444   0.390  15.769  0.6226 -0.0519  0.3344
  796MPD2     H11732   4.669   0.616  15.976  0.5783  2.1865 -2.1882
  796MPD2    H111733   4.366   0.555  15.672 -0.0065  0.4412 -0.3882
  796MPD2    H211734   4.538   0.231  15.865 -2.5820  0.5896  0.1041
  796MPD2    H311735   4.379   0.323  15.713  0.5762 -0.5786  1.0164
  796MPD2     N11736   4.494   0.747  15.841 -0.2695 -0.1911 -0.1789
  796MPD2    H511737   4.557   0.788  15.910 -1.8558  0.5405  0.8467
  796MPD2    N111738   4.712   0.350  16.007 -0.1277  0.2593  0.7051
  796MPD2    H711739   4.710   0.249  16.013  2.6048  0.1815  0.1511
  797MPD2     C11740   0.873   0.587  17.409 -0.5006 -0.5324  0.1461
  797MPD2    C111741   0.997   0.553  17.356 -0.3152 -0.0576 -0.4373
  797MPD2    C211742   1.038   0.587  17.230 -0.1330  0.2578  0.3764
  797MPD2    C311743   0.947   0.654  17.148  0.2728 -0.1218  0.3767
  797MPD2    C411744   0.819   0.680  17.198 -0.7199  0.3176  0.3627
  797MPD2    C511745   0.780   0.649  17.327  0.0782 -0.5656  0.1182
  797MPD2     H11746   1.139   0.565  17.197  0.2471  2.2566  0.2137
  797MPD2    H111747   0.742   0.729  17.139 -2.1405  0.4375  2.3159
  797MPD2    H211748   0.842   0.563  17.510  0.6437 -2.2644  0.0840
  797MPD2    H311749   0.683   0.679  17.364  0.2767 -0.1295  0.2922
  797MPD2     N11750   0.993   0.683  17.020  0.0640 -0.1994  0.0664
  797MPD2    H511751   1.092   0.674  17.003  0.2979  1.9629  0.3285
  797MPD2    N111752   1.095   0.477  17.422 -0.3803 -0.2726 -0.0714
  797MPD2    H711753   1.181   0.469  17.369 -1.1323 -0.1436 -1.3130
  798MPD2     C11754   1.657   0.523  16.929  0.0937  0.3406 -0.7393
  798MPD2    C111755   1.521   0.522  16.947 -0.0139  0.1682  0.0672
  798MPD2    C211756   1.469   0.473  17.070  0.0663 -0.3675  0.4892
  798MPD2    C311757   1.557   0.430  17.172  0.4606 -0.5044 -0.6278
  798MPD2    C411758   1.690   0.433  17.160  0.0708  0.6010  0.4008
  798MPD2    C511759   1.732   0.479  17.037  0.2409 -0.6443 -0.1644
  798MPD2     H11760   1.363   0.468  17.090 -0.1014  3.3799  0.6478
  798MPD2    H111761   1.760   0.403  17.237 -2.8500 -2.5166  1.8295
  798MPD2    H211762   1.712   0.570  16.847  0.0250  0.5181 -0.6833
  798MPD2    H311763   1.837   0.480  17.008  0.5370  0.6986  0.9611
  798MPD2     N11764   1.490   0.375  17.288 -0.3100  0.5332  0.5509
  798MPD2    H511765   1.389   0.381  17.280 -0.4426 -1.3145  0.8786
  798MPD2    N111766   1.432   0.567  16.848  0.0014  0.2214  0.5897
  798MPD2    H711767   1.468   0.581  16.755  0.0559 -2.6507  0.1838
  799MPD2     C11768   4.343   1.955  14.715 -0.2159 -0.1445 -0.5507
  799MPD2    C111769   4.295   1.877  14.607  0.2302 -0.0288 -0.0062
  799MPD2    C211770   4.217   1.935  14.516  0.9754 -0.4713  0.2068
  799MPD2    C311771   4.192   2.073  14.524  0.2653 -0.6071  0.0229
  799MPD2    C411772   4.245   2.152  14.618  0.4748 -0.3943 -0.1440
  799MPD2    C511773   4.314   2.091  14.720  0.2933  0.1125 -0.5447
  799MPD2     H11774   4.159   1.869  14.452 -1.2672  1.3505  0.3634
  799MPD2    H111775   4.240   2.260  14.616  1.1427 -0.3269  1.6182
  799MPD2    H211776   4.403   1.913  14.795 -0.7156 -0.6557 -0.4465
  799MPD2    H311777   4.358   2.154  14.796  1.4199  1.3869 -2.2543
  799MPD2     N11778   4.122   2.135  14.418 -0.0013  0.0884 -0.5530
  799MPD2    H511779   4.126   2.237  14.418  0.5376  0.0664 -1.4747
  799MPD2    N111780   4.338   1.748  14.582 -0.7729 -0.1236  0.1725
  799MPD2    H711781   4.300   1.695  14.505  0.8632  0.8945 -1.3139
  800MPD2     C11782   0.168   3.073  13.997 -0.0620  0.4256  0.1264
  800MPD2    C111783   0.288   3.013  14.029 -0.2034  0.1797  0.4525
  800MPD2    C211784   0.291   2.879  14.021  0.3332  0.2672 -0.2784
  800MPD2    C311785   0.183   2.806  13.970  0.1321 -0.3809 -0.0397
  800MPD2    C411786   0.061   2.868  13.943  0.1507 -0.2868 -0.3785
  800MPD2    C511787   0.053   3.001  13.965 -0.0153  0.5621 -0.6024
  800MPD2     H11788   0.385   2.826  14.032  0.1717 -0.3965 -2.1362
  800MPD2    H111789   4.697   2.811  13.904  0.0630  0.1597 -0.8334
  800MPD2    H211790   0.157   3.180  14.009 -3.6766  0.3338 -2.3101
  800MPD2    H311791   4.688   3.064  13.939  0.0735 -0.4048 -3.2168
  800MPD2     N11792   0.182   2.668  13.942 -0.5197  0.0957 -0.0982
  800MPD2    H511793   0.104   2.637  13.884  0.5190 -0.8699 -0.9657
  800MPD2    N111794   0.402   3.094  14.058 -0.4356  0.3577 -0.5319
  800MPD2    H711795   0.383   3.194  14.056  2.9990  1.0249  0.2273
  801MPD2     C11796   0.643   3.725  14.253  0.7411  0.0688  0.7275
  801MPD2    C111797   0.543   3.650  14.195  0.2810  0.0130 -0.1314
  801MPD2    C211798   0.410   3.685  14.226 -0.1952 -0.3329  0.3543
  801MPD2    C311799   0.374   3.785  14.312 -0.5274  0.4217 -0.1590
  801MPD2    C411800   0.485   3.853  14.366 -0.9556  0.4655  0.0345
  801MPD2    C511801   0.616   3.837  14.331 -0.0279  0.6846  0.0985
  801MPD2     H11802   0.327   3.626  14.189  1.5260 -2.3719 -0.2450
  801MPD2    H111803   0.459   3.930  14.438 -0.0232  1.2439 -0.4579
  801MPD2    H211804   0.745   3.695  14.233  0.9900  0.8435  0.8487
  801MPD2    H311805   0.700   3.898  14.361  0.3654  0.5527 -0.7420
  801MPD2     N11806   0.242   3.817  14.353  0.5751 -0.0093  0.1044
  801MPD2    H511807   0.228   3.886  14.427  0.0404 -2.2237  2.0707
  801MPD2    N111808   0.573   3.541  14.113 -0.3554  0.6274 -0.0110
  801MPD2    H711809   0.497   3.489  14.071 -0.8869  1.9178 -0.6556
  802MPD2     C11810   0.001   2.646  17.446  0.8425  0.5424  0.0140
  802MPD2    C111811   4.707   2.784  17.461 -0.1325 -0.0399 -0.3644
  802MPD2    C211812   4.675   2.856  17.346 -0.7641  0.0116  0.0773
  802MPD2    C311813   4.660   2.806  17.223  0.5130  0.0778  0.3064
  802MPD2    C411814   4.664   2.668  17.214  0.4691 -0.3552 -0.3551
  802MPD2    C511815   4.692   2.591  17.325  0.2500  0.2015 -0.1711
  802MPD2     H11816   4.655   2.962  17.357 -0.6852  0.1861 -1.5396
  802MPD2    H111817   4.651   2.621  17.117  0.6400 -0.6620 -0.2314
  802MPD2    H211818   0.005   2.576  17.528  2.8509  1.2000  0.4724
  802MPD2    H311819   4.693   2.483  17.317  0.5262  0.1469  0.5457
  802MPD2     N11820   4.640   2.876  17.104 -0.2767 -0.0053 -0.3182
  802MPD2    H511821   4.627   2.825  17.018  1.3170 -1.4116  0.2597
  802MPD2    N111822   4.714   2.853  17.588  0.1281  0.2712 -0.5035
  802MPD2    H711823   4.682   2.948  17.600 -0.4510  0.4261 -3.3169
  803MPD2     C11824   1.001   2.403  11.659 -0.2138  0.7374  0.2257
  803MPD2    C111825   1.092   2.433  11.766  0.5499  0.0461 -0.1778
  803MPD2    C211826   1.061   2.382  11.887  0.1887  0.1350  0.1960
  803MPD2    C311827   0.961   2.282  11.896  0.5648  0.2645  0.1092
  803MPD2    C411828   0.899   2.235  11.786  0.3040 -0.7303 -0.4011
  803MPD2    C511829   0.907   2.304  11.668 -0.3930 -0.6204  0.0097
  803MPD2     H11830   1.119   2.407  11.975  0.8888  2.8108 -1.0510
  803MPD2    H111831   0.833   2.148  11.789  0.7062 -1.0617 -0.9996
  803MPD2    H211832   1.017   2.454  11.565 -1.3958 -0.6968 -0.7652
  803MPD2    H311833   0.853   2.265  11.584 -1.1704  2.3313 -0.8477
  803MPD2     N11834   0.931   2.215  12.018  0.3236 -0.2160  0.2884
  803MPD2    H511835   0.876   2.130  12.010  0.8541 -0.3395 -1.9418
  803MPD2    N111836   1.199   2.525  11.754  0.7093 -0.9936  0.0907
  803MPD2    H711837   1.248   2.544  11.840  1.0622 -0.1883 -0.2940
  804MPD2     C11838   0.362   3.255  16.841  0.4410  0.5862 -0.8082
  804MPD2    C111839   0.328   3.256  16.976  0.1522  0.8197  0.1130
  804MPD2    C211840   0.338   3.373  17.045 -0.2228  0.2322  0.9275
  804MPD2    C311841   0.401   3.486  16.987 -0.7113 -0.5377 -0.5732
  804MPD2    C411842   0.431   3.482  16.855 -0.1089  0.0119 -0.5323
  804MPD2    C511843   0.413   3.372  16.781 -0.1699 -0.4345 -0.3707
  804MPD2     H11844   0.320   3.371  17.152  3.7095 -0.2469  1.5568
  804MPD2    H111845   0.469   3.564  16.795 -0.9801  1.2766  0.6412
  804MPD2    H211846   0.365   3.171  16.772  0.7306  0.6666 -0.8946
  804MPD2    H311847   0.435   3.369  16.675 -0.8377 -0.1542 -0.5154
  804MPD2     N11848   0.441   3.597  17.068  0.2741 -0.0446 -0.4839
  804MPD2    H511849   0.415   3.585  17.165 -1.0994 -0.0784 -0.8610
  804MPD2    N111850   0.302   3.135  17.049  0.7245 -0.6111 -0.2635
  804MPD2    H711851   0.298   3.147  17.150  1.5585 -0.5858 -0.2323
  805MPD2     C11852   3.925   1.621  15.604 -0.4779 -0.0835 -0.2221
  805MPD2    C111853   3.978   1.725  15.543 -0.3576  0.3536 -0.7276
  805MPD2    C211854   4.117   1.743  15.543  0.3074 -0.1689  0.5502
  805MPD2    C311855   4.196   1.649  15.612 -0.0053  0.2335  0.3945
  805MPD2    C411856   4.134   1.553  15.690  0.7945 -0.6748  0.3745
  805MPD2    C511857   4.001   1.542  15.688 -0.2901  0.4181 -0.3498
  805MPD2     H11858   4.162   1.815  15.476 -0.5030 -0.8065 -0.6692
  805MPD2    H111859   4.187   1.474  15.743 -0.7461 -1.7488  0.3274
  805MPD2    H211860   3.818   1.606  15.602 -0.3760 -0.7892 -0.2566
  805MPD2    H311861   3.949   1.467  15.746  1.2625 -1.2022 -1.0680
  805MPD2     N11862   4.332   1.659  15.605  0.0818  0.0616 -0.2874
  805MPD2    H511863   4.358   1.745  15.556  2.4290  1.2671  3.1104
  805MPD2    N111864   3.904   1.815  15.461 -0.2413  0.4069 -0.5632
  805MPD2    H711865   3.960   1.872  15.399  0.7355  2.6545  2.4080
  806MPD2     C11866   0.888   1.763   1.657 -0.2113  0.4017  0.0013
  806MPD2    C111867   0.860   1.707   1.538 -0.7236  0.0917 -0.4465
  806MPD2    C211868   0.845   1.797   1.433 -0.3953 -1.0953  0.1853
  806MPD2    C311869   0.868   1.936   1.438  0.6598 -0.9099 -0.0827
  806MPD2    C411870   0.904   1.988   1.560  0.0937  0.4028  0.1304
  806MPD2    C511871   0.912   1.901   1.669  0.3131 -0.7278 -0.7712
  806MPD2     H11872   0.804   1.752   1.344 -0.2200 -0.0015 -0.4552
  806MPD2    H111873   0.916   2.093   1.581 -4.5584  1.2654 -1.6981
  806MPD2    H211874   0.883   1.704   1.747  0.7096  0.4056  0.0552
  806MPD2    H311875   0.922   1.929   1.773  1.6991 -4.3994  0.0939
  806MPD2     N11876   0.845   2.017   1.323 -0.0037  0.1141 -0.1486
  806MPD2    H511877   0.811   1.970   1.241 -2.4552  2.3473 -0.4178
  806MPD2    N111878   0.837   1.571   1.526  0.0958 -0.3623 -0.0145
  806MPD2    H711879   0.817   1.544   1.430  2.9116 -1.4725 -0.3061
  807MPD2     C11880   0.292   1.088   1.761 -0.1188 -0.0837  0.2065
  807MPD2    C111881   0.421   1.041   1.773 -0.1988 -0.3794  0.0427
  807MPD2    C211882   0.446   0.954   1.876 -0.0935 -0.8201  1.1771
  807MPD2    C311883   0.349   0.930   1.976 -0.0193 -0.4817 -0.0855
  807MPD2    C411884   0.223   0.982   1.961 -0.7222 -0.5080 -0.8513
  807MPD2    C511885   0.193   1.054   1.849  0.0047  0.5155  0.3620
  807MPD2     H11886   0.547   0.918   1.894  0.8481  0.4111 -1.6511
  807MPD2    H111887   0.140   0.945   2.020  0.6373 -1.3922  0.5143
  807MPD2    H211888   0.266   1.141   1.670 -0.0778 -1.1135 -0.4070
  807MPD2    H311889   0.089   1.078   1.834  0.3397  1.1882 -0.8368
  807MPD2     N11890   0.385   0.843   2.083  0.1762  0.5861  0.4604
  807MPD2    H511891   0.476   0.798   2.076 -0.3034 -0.5125  1.3207
  807MPD2    N111892   0.535   1.095   1.696  0.3077 -0.3739  0.0686
  807MPD2    H711893   0.629   1.072   1.727 -0.4992 -1.0019  2.0622
  808MPD2     C11894   0.031   4.059   8.894 -0.3053  0.7160 -0.1191
  808MPD2    C111895   0.107   3.945   8.907 -0.1024  0.8374 -0.3167
  808MPD2    C211896   0.226   3.955   8.977  0.0603 -0.5731 -0.6852
  808MPD2    C311897   0.266   4.075   9.035 -0.0651  0.1613 -0.2249
  808MPD2    C411898   0.190   4.185   9.017 -0.9311 -0.2302  0.5088
  808MPD2    C511899   0.065   4.173   8.956 -0.8147 -0.6899  0.4971
  808MPD2     H11900   0.287   3.866   8.978  0.1236 -0.5251  0.0001
  808MPD2    H111901   0.222   4.282   9.055  0.8896 -0.9943  0.9118
  808MPD2    H211902   4.670   4.064   8.822 -0.8657  1.0536  0.5334
  808MPD2    H311903   0.014   4.266   8.935 -2.2278 -1.7565 -0.7601
  808MPD2     N11904   0.390   4.086   9.112  0.0891 -0.4168 -0.1969
  808MPD2    H511905   0.422   4.179   9.139  1.2682 -1.0125  0.4888
  808MPD2    N111906   0.071   3.822   8.853 -0.2618 -0.4314 -0.8117
  808MPD2    H711907   0.138   3.751   8.880  0.1871  0.5094  0.6068
  809MPD2     C11908   1.072   3.560   9.797 -0.3919 -0.4177 -0.3521
  809MPD2    C111909   1.074   3.563   9.657  0.5556  0.3312 -0.6572
  809MPD2    C211910   0.991   3.644   9.586 -0.1363 -0.3642 -0.4569
  809MPD2    C311911   0.907   3.729   9.654  0.0364  0.1343  0.4467
  809MPD2    C411912   0.912   3.737   9.789 -0.0819 -0.6957 -0.2034
  809MPD2    C511913   1.000   3.654   9.859 -0.1639  0.1296 -0.2044
  809MPD2     H11914   0.996   3.646   9.477 -3.0784  0.8048 -0.5577
  809MPD2    H111915   0.860   3.815   9.844  0.3957 -0.3500 -0.2444
  809MPD2    H211916   1.133   3.499   9.862  1.2821  1.0630 -0.5182
  809MPD2    H311917   1.014   3.671   9.965  0.1879  1.1370 -0.4181
  809MPD2     N11918   0.814   3.825   9.597  0.1045  0.6086 -0.1096
  809MPD2    H511919   0.760   3.887   9.656  1.0893  1.9573 -0.6234
  809MPD2    N111920   1.171   3.483   9.581 -0.5541 -0.0891 -0.1261
  809MPD2    H711921   1.159   3.494   9.481  1.2553  2.4544 -0.0434
  810MPD2     C11922   0.317   3.447  10.993 -0.5999 -0.3812 -0.5726
  810MPD2    C111923   0.265   3.390  10.878 -0.4774 -0.6791  0.4919
  810MPD2    C211924   0.225   3.465  10.770 -0.7473 -0.2744  0.2868
  810MPD2    C311925   0.217   3.602  10.782 -0.0174 -0.5356 -0.1078
  810MPD2    C411926   0.252   3.661  10.904  0.0923 -0.5457  0.3417
  810MPD2    C511927   0.309   3.586  11.010  0.5972  0.4788 -0.1336
  810MPD2     H11928   0.184   3.409  10.687 -0.0191 -0.7787  0.2690
  810MPD2    H111929   0.244   3.768  10.919  0.3260 -0.4067 -0.5424
  810MPD2    H211930   0.378   3.397  11.067  0.0566  0.8013 -0.3113
  810MPD2    H311931   0.346   3.634  11.099 -1.2006  1.1861  0.2271
  810MPD2     N11932   0.164   3.684  10.685  0.9072 -0.3836 -0.0446
  810MPD2    H511933   0.148   3.781  10.709  2.9920  0.4809 -2.0783
  810MPD2    N111934   0.272   3.252  10.862 -0.7426 -0.4286 -0.1560
  810MPD2    H711935   0.283   3.221  10.766 -0.2723 -0.5821 -0.0543
  811MPD2     C11936   0.255   2.627  10.348  0.1544  0.4699  0.1179
  811MPD2    C111937   0.305   2.754  10.385 -0.1540 -0.4431  0.2242
  811MPD2    C211938   0.311   2.854  10.292 -0.0634  0.0694 -0.5052
  811MPD2    C311939   0.278   2.831  10.164 -0.1778 -0.1497 -0.1683
  811MPD2    C411940   0.233   2.709  10.124  0.8187  0.9102  0.4980
  811MPD2    C511941   0.219   2.613  10.216 -0.5088  0.2592 -0.7641
  811MPD2     H11942   0.353   2.953  10.307 -0.0993  0.0125 -0.0515
  811MPD2    H111943   0.211   2.683  10.021  1.8523  0.6440  0.3411
  811MPD2    H211944   0.254   2.546  10.419  0.5412 -1.5234 -2.1403
  811MPD2    H311945   0.186   2.515  10.184  0.7143 -0.6243  0.6477
  811MPD2     N11946   0.295   2.931  10.065 -0.2900  0.6638  0.1721
  811MPD2    H511947   0.355   3.012  10.083  1.8604 -1.0982  0.8911
  811MPD2    N111948   0.345   2.770  10.523  0.1815 -0.2721 -0.3645
  811MPD2    H711949   0.336   2.689  10.585  1.3263 -0.7745 -0.8434
  812MPD2     C11950   3.726   2.683  12.096  0.0400  0.3686 -0.5403
  812MPD2    C111951   3.589   2.672  12.117 -0.3532  0.0932  0.2719
  812MPD2    C211952   3.543   2.587  12.209 -0.6211  0.1104 -0.3588
  812MPD2    C311953   3.625   2.513  12.294 -0.4134 -0.1313 -0.1602
  812MPD2    C411954   3.762   2.524  12.272  0.0143 -0.3536  0.8662
  812MPD2    C511955   3.810   2.609  12.178  0.2419 -0.1143  0.2241
  812MPD2     H11956   3.435   2.579  12.208 -0.4219 -2.3715 -1.0220
  812MPD2    H111957   3.823   2.460  12.335  2.3165 -0.6648 -1.6533
  812MPD2    H211958   3.771   2.754  12.027  0.9173 -0.8630 -1.2486
  812MPD2    H311959   3.915   2.608  12.149  0.2928 -0.1145  0.4070
  812MPD2     N11960   3.567   2.431  12.394  0.5916 -0.0403  0.5463
  812MPD2    H511961   3.466   2.415  12.397  0.6358 -0.4649 -0.1059
  812MPD2    N111962   3.509   2.764  12.036 -0.1216  0.1911  0.5968
  812MPD2    H711963   3.553   2.807  11.955  1.0800  1.3079  1.8421
  813MPD2     C11964   2.995   4.140  12.678 -0.0663  0.4113 -0.4361
  813MPD2    C111965   2.937   4.265  12.688 -1.2122 -0.4954  0.6858
  813MPD2    C211966   2.805   4.265  12.710  0.1810  0.2852 -0.4252
  813MPD2    C311967   2.741   4.143  12.741 -0.9795  0.5837  0.2112
  813MPD2    C411968   2.799   4.026  12.731  0.3113  0.4038  0.0964
  813MPD2    C511969   2.933   4.023  12.709 -0.0358 -0.8515 -0.2440
  813MPD2     H11970   2.747   4.356  12.721 -0.7305 -0.4376  0.7765
  813MPD2    H111971   2.757   3.929  12.756  1.4925 -1.0157 -3.4976
  813MPD2    H211972   3.102   4.131  12.668 -0.1223 -1.1299  0.4060
  813MPD2    H311973   2.987   3.929  12.701  0.6333 -0.3513 -1.5269
  813MPD2     N11974   2.603   4.159  12.764 -0.3640 -0.4482 -0.0329
  813MPD2    H511975   2.564   4.252  12.773  0.7691  0.1198 -0.9949
  813MPD2    N111976   3.011   4.386  12.681  0.2105 -0.0172 -0.2081
  813MPD2    H711977   3.112   4.377  12.691  0.0577  1.4260  2.4879
  814MPD2     C11978   3.506   0.925  12.174 -0.0259 -0.1723  0.4919
  814MPD2    C111979   3.485   0.974  12.048  0.0605  0.0694 -0.8181
  814MPD2    C211980   3.454   1.110  12.029 -0.1813  0.3273 -0.3471
  814MPD2    C311981   3.461   1.202  12.132  0.2007  0.2413 -0.2836
  814MPD2    C411982   3.490   1.152  12.253  0.1278 -0.6987  0.1482
  814MPD2    C511983   3.506   1.021  12.275 -0.1307 -0.8629 -0.1054
  814MPD2     H11984   3.421   1.139  11.930  0.1322  0.2146 -0.4850
  814MPD2    H111985   3.483   1.219  12.338  0.6435 -0.5542  0.0731
  814MPD2    H211986   3.520   0.820  12.197  2.2630 -0.4711 -2.2424
  814MPD2    H311987   3.526   0.990  12.377 -2.7858 -1.5061  0.2060
  814MPD2     N11988   3.429   1.341  12.120 -0.3469  0.3723 -0.4062
  814MPD2    H511989   3.433   1.393  12.207  0.6360  1.5882 -1.1829
  814MPD2    N111990   3.484   0.891  11.936  0.6648  0.4402 -0.2138
  814MPD2    H711991   3.489   0.943  11.849 -0.1875  1.1436  0.1446
  815MPD2     C11992   3.456   4.427  11.814 -0.4559  0.3958  0.6414
  815MPD2    C111993   3.450   4.289  11.806 -0.1921  0.8056  0.0835
  815MPD2    C211994   3.326   4.234  11.823  0.2498  0.7510 -0.0125
  815MPD2    C311995   3.207   4.309  11.835  0.4129 -0.1566 -0.6904
  815MPD2    C411996   3.220   4.445  11.829 -0.1459  0.1545  0.2351
  815MPD2    C511997   3.344   4.501  11.820 -0.4555 -0.3252 -0.8188
  815MPD2     H11998   3.318   4.126  11.817 -1.0454  0.8178  0.5236
  815MPD2    H111999   3.134   4.511  11.828 -0.0152  0.3069 -0.7890
  815MPD2    H212000   3.548   4.485  11.808 -0.2302 -0.2102 -1.6196
  815MPD2    H312001   3.350   4.609  11.811 -0.4858 -0.1768  0.8269
  815MPD2     N12002   3.080   4.240  11.839  0.0133 -0.1644  0.1186
  815MPD2    H512003   3.090   4.141  11.858 -1.2685  0.1621  2.5326
  815MPD2    N112004   3.565   4.214  11.782  0.1199  0.0712  0.2661
  815MPD2    H712005   3.646   4.269  11.754  0.8683 -1.3726 -0.3625
  816MPD2     C12006   3.261   2.843  17.533  0.6346  0.6454  0.3302
  816MPD2    C112007   3.372   2.917  17.523 -0.1733 -0.4797  0.2200
  816MPD2    C212008   3.485   2.857  17.475  0.6001  0.5322 -0.0377
  816MPD2    C312009   3.498   2.727  17.440  0.1159 -0.2433 -0.7493
  816MPD2    C412010   3.389   2.644  17.449  0.0854  0.6934 -0.4610
  816MPD2    C512011   3.269   2.707  17.498  1.1850  0.0537  0.5093
  816MPD2     H12012   3.573   2.920  17.477  0.8311  0.2541 -1.5250
  816MPD2    H112013   3.390   2.536  17.434 -0.6582  0.5868  0.2542
  816MPD2    H212014   3.166   2.887  17.561 -1.1228 -1.4726 -2.2914
  816MPD2    H312015   3.185   2.639  17.502  1.2760 -0.0449  0.7555
  816MPD2     N12016   3.613   2.683  17.371 -0.4326  0.0637  0.5007
  816MPD2    H512017   3.678   2.758  17.352  0.9954 -1.0029  1.1337
  816MPD2    N112018   3.361   3.058  17.563 -0.5758  0.3966  0.5229
  816MPD2    H712019   3.272   3.091  17.600 -0.9564 -0.2040  0.1241
  817MPD2     C12020   3.752   0.213   9.510 -0.2928  0.0557 -0.3560
  817MPD2    C112021   3.855   0.222   9.415  0.2939 -0.5556 -0.2746
  817MPD2    C212022   3.856   0.339   9.344  0.0330 -0.6626 -0.1492
  817MPD2    C312023   3.764   0.442   9.351  0.1010  0.1196 -0.3210
  817MPD2    C412024   3.668   0.429   9.442 -0.5412  0.4330  0.4695
  817MPD2    C512025   3.663   0.319   9.519 -0.4149 -0.3012  0.1556
  817MPD2     H12026   3.929   0.352   9.265 -1.1254  0.6611 -1.0054
  817MPD2    H112027   3.581   0.487   9.415 -1.6959 -1.6370 -0.2921
  817MPD2    H212028   3.744   0.127   9.576  0.8828  0.3842  0.2151
  817MPD2    H312029   3.572   0.314   9.578 -1.2967  0.6385 -1.1255
  817MPD2     N12030   3.779   0.552   9.269  0.0385  0.2042  0.1863
  817MPD2    H512031   3.864   0.551   9.214  0.8508 -1.7274  1.4740
  817MPD2    N112032   3.951   0.123   9.399 -0.2376  0.2717  0.3582
  817MPD2    H712033   4.007   0.146   9.317  0.6609 -2.9301  0.0850
  818MPD2     C12034   2.525   0.630   9.322  0.6112 -0.3538 -0.4790
  818MPD2    C112035   2.564   0.525   9.394  0.7676  0.0953 -0.5096
  818MPD2    C212036   2.624   0.421   9.326 -0.0030  0.0931 -0.4230
  818MPD2    C312037   2.646   0.426   9.188 -0.9443  0.4108  0.6202
  818MPD2    C412038   2.598   0.533   9.118 -0.0188 -0.4614  0.3775
  818MPD2    C512039   2.536   0.639   9.183 -0.0778  1.0397 -0.2032
  818MPD2     H12040   2.655   0.334   9.384  0.5238  0.8902  0.5083
  818MPD2    H112041   2.614   0.538   9.011 -1.7471 -0.4635  0.1180
  818MPD2    H212042   2.480   0.709   9.380  0.6625 -0.8206  0.2069
  818MPD2    H312043   2.511   0.724   9.121 -1.1831  2.7460  2.5942
  818MPD2     N12044   2.689   0.314   9.111 -0.0787  0.0033 -0.3541
  818MPD2    H512045   2.686   0.324   9.010  3.2064  2.3010 -0.2329
  818MPD2    N112046   2.559   0.512   9.531 -0.0112  0.3473 -0.7694
  818MPD2    H712047   2.604   0.430   9.572 -0.2385 -0.0472 -1.3213
  819MPD2     C12048   0.287   1.631  15.518  0.2271  0.3918 -0.6868
  819MPD2    C112049   0.249   1.505  15.555 -0.0872 -0.2091  0.4374
  819MPD2    C212050   0.331   1.429  15.640 -0.9008 -0.1031  0.0435
  819MPD2    C312051   0.455   1.481  15.688  0.3624 -0.2864  1.1114
  819MPD2    C412052   0.470   1.616  15.663 -0.2447  0.5747  0.7552
  819MPD2    C512053   0.396   1.682  15.575  0.1094  0.1659  0.9753
  819MPD2     H12054   0.303   1.325  15.648 -2.8402  0.3166 -1.1538
  819MPD2    H112055   0.558   1.663  15.705 -0.7948  0.2021  2.3095
  819MPD2    H212056   0.236   1.692  15.445  0.0137  1.1631  0.1017
  819MPD2    H312057   0.415   1.788  15.564  0.6580 -0.1597 -1.1515
  819MPD2     N12058   0.544   1.394  15.751  0.2148  0.1970 -0.7935
  819MPD2    H512059   0.528   1.295  15.736  1.0468 -0.1001  0.2656
  819MPD2    N112060   0.123   1.460  15.505  0.0298 -1.2614  0.5399
  819MPD2    H712061   0.086   1.508  15.424 -2.0985 -3.3391  0.2565
  820MPD2     C12062   4.101   1.486  14.856  0.3718 -0.3536  0.5824
  820MPD2    C112063   4.105   1.568  14.971 -0.5863  0.5431 -0.6860
  820MPD2    C212064   4.189   1.523  15.074  0.3804 -0.3210  0.6387
  820MPD2    C312065   4.268   1.410  15.060  0.4122 -0.3186 -0.0271
  820MPD2    C412066   4.261   1.338  14.941  0.6535 -0.0888 -0.3180
  820MPD2    C512067   4.174   1.372  14.843 -0.0118 -0.4327  0.1812
  820MPD2     H12068   4.197   1.571  15.170  1.6610 -2.1788  1.4599
  820MPD2    H112069   4.313   1.243  14.933  0.4819 -0.2208  0.1242
  820MPD2    H212070   4.030   1.501  14.776 -0.7296 -0.3025  1.5671
  820MPD2    H312071   4.164   1.312  14.753  1.2614  1.5672 -1.3017
  820MPD2     N12072   4.349   1.360  15.166 -0.2743 -0.5536  0.4634
  820MPD2    H512073   4.387   1.266  15.159 -1.7004 -1.1267  0.4777
  820MPD2    N112074   4.012   1.671  14.986 -0.0194  0.3994 -0.1854
  820MPD2    H712075   3.957   1.697  14.905 -1.7457  1.8079  1.4210
  821MPD2     C12076   0.130   2.689  13.261  0.3913  0.1527  0.5811
  821MPD2    C112077   0.259   2.652  13.290  0.1045 -0.5135 -0.4187
  821MPD2    C212078   0.360   2.705  13.209  0.0652  0.1274 -0.3457
  821MPD2    C312079   0.330   2.782  13.091 -0.8087  0.2320 -0.5917
  821MPD2    C412080   0.194   2.825  13.081  0.4357 -0.7437  0.2955
  821MPD2    C512081   0.102   2.776  13.163  0.0681 -0.5230 -0.1318
  821MPD2     H12082   0.462   2.695  13.242 -0.1348  1.1528  0.5655
  821MPD2    H112083   0.163   2.905  13.014  2.1363  1.5415  2.2329
  821MPD2    H212084   0.044   2.657  13.320 -1.4579  2.0747 -1.0874
  821MPD2    H312085   0.004   2.822  13.153  0.4492  0.7870  2.0849
  821MPD2     N12086   0.430   2.840  13.001 -0.4253 -0.2582  0.2979
  821MPD2    H512087   0.401   2.913  12.937  1.8133  1.0221  0.7449
  821MPD2    N112088   0.299   2.601  13.419  0.0482  0.1418 -0.2182
  821MPD2    H712089   0.400   2.595  13.429  0.2444 -0.4335 -2.4961
  822MPD2     C12090   1.012   2.701  15.488  0.0915  0.1214 -0.1958
  822MPD2    C112091   1.017   2.676  15.625 -0.0379 -0.3672  0.2143
  822MPD2    C212092   0.919   2.736  15.705  0.0790  0.2372  0.3048
  822MPD2    C312093   0.822   2.820  15.650  0.1662  0.5227  0.0178
  822MPD2    C412094   0.815   2.831  15.511 -0.2836  0.5426 -0.1771
  822MPD2    C512095   0.913   2.777  15.438 -0.0791 -0.0819  0.1504
  822MPD2     H12096   0.928   2.727  15.813 -2.0347  0.1935  0.4877
  822MPD2    H112097   0.739   2.892  15.462 -0.3819  1.4330  1.0816
  822MPD2    H212098   1.097   2.670  15.428  1.0081 -0.5031  1.4323
  822MPD2    H312099   0.910   2.786  15.330  4.2758 -1.3766 -0.0592
  822MPD2     N12100   0.734   2.886  15.746 -0.1548 -0.3278 -0.0626
  822MPD2    H512101   0.728   2.849  15.840 -0.5052 -1.0431 -0.3672
  822MPD2    N112102   1.110   2.594  15.686  0.2701 -0.0632 -0.3278
  822MPD2    H712103   1.100   2.584  15.787 -0.1034  4.3205  0.0560
  823MPD2     C12104   0.148   3.075  16.371 -0.0633  0.2137 -0.7852
  823MPD2    C112105   0.262   3.026  16.321  0.9233  0.3243  0.2420
  823MPD2    C212106   0.365   2.990  16.404  0.2412  0.1055 -0.0710
  823MPD2    C312107   0.355   2.989  16.543  0.1953  0.4256  0.4207
  823MPD2    C412108   0.232   3.030  16.591  0.0189  0.0205  1.3795
  823MPD2    C512109   0.129   3.062  16.508  0.2929  0.2356  0.1496
  823MPD2     H12110   0.463   2.961  16.365  0.0721  0.4049 -0.7173
  823MPD2    H112111   0.219   3.051  16.697  0.2807  0.6845  1.2818
  823MPD2    H212112   0.076   3.121  16.304  0.0239  0.4929 -0.6883
  823MPD2    H312113   0.029   3.087  16.541  1.1993  1.0700  2.3088
  823MPD2     N12114   0.463   2.960  16.631 -0.9020 -0.8425  0.0696
  823MPD2    H512115   0.439   2.963  16.730  1.1723 -1.5076  0.5826
  823MPD2    N112116   0.267   3.030  16.182  0.8044  0.1846  0.5541
  823MPD2    H712117   0.195   3.069  16.122  0.2275 -1.2275  0.3313
  824MPD2     C12118   1.500   1.820  15.982 -0.5218 -0.3106  0.7766
  824MPD2    C112119   1.503   1.884  15.858  0.3874 -0.5498 -0.0576
  824MPD2    C212120   1.552   1.808  15.749 -0.5142 -0.2765  0.4017
  824MPD2    C312121   1.602   1.680  15.766  0.5100  0.1785 -0.1865
  824MPD2    C412122   1.590   1.620  15.887  0.3584 -0.4534 -0.1412
  824MPD2    C512123   1.540   1.691  15.995 -0.3847 -0.3700 -0.8696
  824MPD2     H12124   1.577   1.861  15.657 -1.1003 -1.9168 -0.6965
  824MPD2    H112125   1.633   1.524  15.913 -0.6537 -0.8832 -0.0797
  824MPD2    H212126   1.461   1.871  16.070 -1.3734 -0.5659  0.5457
  824MPD2    H312127   1.554   1.650  16.095  2.4922  0.3880 -0.9607
  824MPD2     N12128   1.666   1.627  15.653  0.2220  0.4016 -0.4397
  824MPD2    H512129   1.672   1.692  15.574 -2.6486  0.6714 -0.4471
  824MPD2    N112130   1.458   2.020  15.861  0.5830  0.1212  0.0850
  824MPD2    H712131   1.439   2.062  15.951 -1.0351  1.7322 -1.0031
  825MPD2     C12132   2.241   1.567  14.998  0.4138 -0.7980 -0.3656
  825MPD2    C112133   2.190   1.648  15.099  0.3428 -0.5038  0.1724
  825MPD2    C212134   2.218   1.779  15.094 -0.7759 -0.1026 -0.1021
  825MPD2    C312135   2.284   1.829  14.984  0.2819 -0.5293 -0.8684
  825MPD2    C412136   2.323   1.751  14.878  0.0074 -0.0116  0.5781
  825MPD2    C512137   2.303   1.618  14.891  0.0853  1.0067  0.4151
  825MPD2     H12138   2.177   1.842  15.172 -1.8358 -1.9314  0.8254
  825MPD2    H112139   2.367   1.786  14.785 -1.0639 -0.3183 -0.0332
  825MPD2    H212140   2.230   1.459  15.008 -0.0151 -0.6156  1.1833
  825MPD2    H312141   2.340   1.548  14.816 -1.9184 -1.3497  1.6180
  825MPD2     N12142   2.312   1.966  14.967 -0.4151 -0.7657 -0.3975
  825MPD2    H512143   2.356   1.989  14.878  1.3768  0.0283  0.7021
  825MPD2    N112144   2.113   1.585  15.201  0.0406  0.1053  0.0974
  825MPD2    H712145   2.108   1.484  15.192  0.3754  0.0677  0.3490
  826MPD2     C12146   1.826   1.956  13.558 -0.2545 -0.0538 -0.4298
  826MPD2    C112147   1.818   2.048  13.458 -0.1691 -0.0510  0.2147
  826MPD2    C212148   1.711   2.136  13.459 -0.0335  0.0296  0.5520
  826MPD2    C312149   1.629   2.130  13.567 -0.2902  0.5185  0.3770
  826MPD2    C412150   1.641   2.042  13.671 -0.1156 -0.6599 -0.6810
  826MPD2    C512151   1.737   1.951  13.661 -0.1799  0.0902 -0.3151
  826MPD2     H12152   1.702   2.211  13.382  0.3084 -1.5004 -0.9818
  826MPD2    H112153   1.564   2.036  13.748 -0.4873  0.7872 -0.9505
  826MPD2    H212154   1.909   1.886  13.567 -2.2479 -2.2447  1.1132
  826MPD2    H312155   1.737   1.876  13.739  3.7016 -0.2282 -0.6489
  826MPD2     N12156   1.517   2.219  13.573  0.3223  0.5694 -0.2825
  826MPD2    H512157   1.457   2.214  13.654  0.8647 -2.4061 -0.0860
  826MPD2    N112158   1.907   2.044  13.349  0.1852 -0.8450  0.2374
  826MPD2    H712159   1.981   1.975  13.354 -1.1951 -2.5327 -2.3304
  827MPD2     C12160   3.388   3.395   9.882 -0.0707 -0.4719 -0.4250
  827MPD2    C112161   3.255   3.395   9.915  0.5281 -0.4218 -0.1460
  827MPD2    C212162   3.160   3.327   9.837 -0.3335  0.7671  0.1468
  827MPD2    C312163   3.203   3.260   9.726 -0.2464  0.6736  0.6668
  827MPD2    C412164   3.338   3.254   9.702 -0.5650  0.1253 -0.6343
  827MPD2    C512165   3.430   3.314   9.780  0.1470  0.3683 -0.1943
  827MPD2     H12166   3.056   3.324   9.868  0.3281 -0.7803  2.1882
  827MPD2    H112167   3.382   3.194   9.624  0.3277 -2.1086  1.5871
  827MPD2    H212168   3.468   3.437   9.942 -0.9547  0.3358  0.1906
  827MPD2    H312169   3.536   3.311   9.759 -0.6867 -4.1887 -3.7123
  827MPD2     N12170   3.104   3.209   9.636  0.8228  0.2412  0.1958
  827MPD2    H512171   3.010   3.226   9.671  0.8502  0.4740  0.1544
  827MPD2    N112172   3.222   3.472  10.029 -0.0198 -0.3322 -0.4625
  827MPD2    H712173   3.297   3.518  10.079 -0.8640  0.4678  0.0666
  828MPD2     C12174   1.065   3.082  12.494 -1.0725  0.3073 -0.1699
  828MPD2    C112175   1.042   3.072  12.359 -0.4614  0.3466  0.1184
  828MPD2    C212176   1.146   3.098  12.275 -0.3434  0.3800 -0.2229
  828MPD2    C312177   1.269   3.130  12.323 -0.1074  0.1630  0.3135
  828MPD2    C412178   1.292   3.126  12.460 -0.4112 -0.0738 -0.2473
  828MPD2    C512179   1.188   3.104  12.542  0.1322 -0.2569 -0.4581
  828MPD2     H12180   1.123   3.088  12.169  2.5994  0.1731 -0.8531
  828MPD2    H112181   1.392   3.135  12.500 -1.1022 -0.5514  1.5839
  828MPD2    H212182   0.979   3.059  12.555 -0.7654  3.9865  1.5896
  828MPD2    H312183   1.212   3.117  12.647 -0.7146 -0.4820 -0.2312
  828MPD2     N12184   1.377   3.163  12.236  0.1669 -0.6319 -0.0474
  828MPD2    H512185   1.462   3.194  12.282 -1.3069  0.4409  1.9327
  828MPD2    N112186   0.921   3.044  12.291  0.1096  0.3910 -0.0356
  828MPD2    H712187   0.933   3.044  12.190  1.9191 -0.4254  0.1801
  829MPD2     C12188   0.555   3.523  11.685  0.5390  0.3243 -0.3739
  829MPD2    C112189   0.460   3.459  11.757  0.2174 -0.3154  0.0368
  829MPD2    C212190   0.504   3.340  11.814  0.9138 -0.5906 -0.3317
  829MPD2    C312191   0.639   3.300  11.821 -0.3568  0.3988  0.1898
  829MPD2    C412192   0.731   3.373  11.751  0.4817 -0.4221 -0.2074
  829MPD2    C512193   0.690   3.487  11.685  0.4884  0.2546  0.0824
  829MPD2     H12194   0.425   3.283  11.862 -2.0768  4.2166  0.3527
  829MPD2    H112195   0.836   3.347  11.743  0.8641  0.8245  0.6916
  829MPD2    H212196   0.528   3.596  11.609  2.4886  1.2010 -0.2267
  829MPD2    H312197   0.769   3.533  11.627 -0.4485  0.9248 -0.6570
  829MPD2     N12198   0.672   3.178  11.881  0.6555  0.1462  0.1479
  829MPD2    H512199   0.772   3.166  11.895  0.9313  0.6236 -1.4572
  829MPD2    N112200   0.327   3.515  11.774  0.3972  0.2476 -0.3584
  829MPD2    H712201   0.302   3.585  11.705  1.0711  0.2345 -0.6140
  830MPD2     C12202   1.291   0.969  15.811 -0.3071 -0.1522  0.5783
  830MPD2    C112203   1.194   1.047  15.754  0.3234  0.1100 -0.1585
  830MPD2    C212204   1.231   1.117  15.645 -0.0056  0.5377 -0.0055
  830MPD2    C312205   1.354   1.103  15.580 -0.0695  0.7243 -0.2097
  830MPD2    C412206   1.439   1.010  15.633  0.2589 -0.7174  0.8221
  830MPD2    C512207   1.412   0.947  15.750  0.3861 -0.5956 -0.2528
  830MPD2     H12208   1.160   1.189  15.605 -0.0146  0.1411 -0.6977
  830MPD2    H112209   1.534   0.990  15.584 -1.7919 -1.6285 -2.7866
  830MPD2    H212210   1.284   0.916  15.905 -0.2156  2.9386  2.3388
  830MPD2    H312211   1.489   0.882  15.791 -0.7478 -1.1894  0.9573
  830MPD2     N12212   1.401   1.198  15.481 -0.2944  0.0011 -0.5777
  830MPD2    H512213   1.500   1.219  15.478  0.0673 -1.5987 -0.0499
  830MPD2    N112214   1.067   1.055  15.823  0.0300  0.3509 -0.3016
  830MPD2    H712215   1.057   1.002  15.910 -1.0357  1.7287  0.4146
  831MPD2     C12216   0.954   3.193  16.036 -0.6221 -0.3048 -0.0176
  831MPD2    C112217   1.002   3.070  15.999  0.0544  0.5767  0.3996
  831MPD2    C212218   0.929   2.957  16.037 -0.0356  0.0670 -0.2749
  831MPD2    C312219   0.815   2.972  16.117  0.9352  0.2179  0.4277
  831MPD2    C412220   0.772   3.100  16.150  0.3527 -0.2142  0.1936
  831MPD2    C512221   0.837   3.211  16.103 -0.0186 -0.4057 -0.4066
  831MPD2     H12222   0.958   2.860  15.998 -3.5341 -1.0202 -0.1158
  831MPD2    H112223   0.680   3.109  16.207  1.7559 -2.3477  2.7922
  831MPD2    H212224   1.006   3.283  16.006  0.7303 -1.1459 -0.2042
  831MPD2    H312225   0.790   3.308  16.115 -1.9071 -1.2238 -1.2496
  831MPD2     N12226   0.738   2.864  16.164 -0.5681  0.3573 -1.3977
  831MPD2    H512227   0.670   2.880  16.238  0.8940 -2.5202  0.5750
  831MPD2    N112228   1.121   3.050  15.924  0.8172 -0.2349 -0.0045
  831MPD2    H712229   1.170   3.135  15.896  1.0337 -0.2173  0.4307
  832MPD2     C12230   4.425   3.951  17.154  0.3722  0.2034  0.2481
  832MPD2    C112231   4.385   4.079  17.158  0.1172 -0.4532 -0.1639
  832MPD2    C212232   4.258   4.107  17.104 -0.1430  0.7840 -0.3199
  832MPD2    C312233   4.170   4.006  17.074  0.3562  0.7220  0.3293
  832MPD2    C412234   4.213   3.878  17.076  0.4976 -0.4017  0.5613
  832MPD2    C512235   4.341   3.856  17.116 -0.0674 -0.5529  0.2051
  832MPD2     H12236   4.213   4.205  17.117 -2.6287 -0.4478  0.3844
  832MPD2    H112237   4.154   3.789  17.056 -0.5087  0.8177 -1.8209
  832MPD2    H212238   4.524   3.925  17.188  0.6105 -2.4267 -2.5022
  832MPD2    H312239   4.383   3.757  17.123 -0.2097 -0.4523  2.2895
  832MPD2     N12240   4.041   4.030  17.032 -0.0754 -0.2753 -0.0053
  832MPD2    H512241   3.982   3.948  17.022  1.6653 -1.1843 -2.8254
  832MPD2    N112242   4.485   4.167  17.198 -0.0053 -0.3322  0.6688
  832MPD2    H712243   4.578   4.127  17.203  0.1311  0.1064  1.5481
  833MPD2     C12244   1.389   0.884  12.336 -0.0110 -0.8662 -0.3886
  833MPD2    C112245   1.422   0.982  12.243 -0.2983 -0.1340 -0.2193
  833MPD2    C212246   1.511   0.960  12.141  0.2529 -0.0507  0.2541
  833MPD2    C312247   1.581   0.842  12.142 -0.3116  0.0499 -0.3308
  833MPD2    C412248   1.555   0.745  12.234 -0.0668  0.4322 -0.5650
  833MPD2    C512249   1.464   0.770  12.332 -0.1763 -0.1081 -0.8304
  833MPD2     H12250   1.531   1.036  12.066 -1.1069  1.5529  1.5218
  833MPD2    H112251   1.608   0.651  12.243 -2.9146 -1.1095  0.5101
  833MPD2    H212252   1.330   0.898  12.426  1.1577 -0.6626  0.3449
  833MPD2    H312253   1.468   0.695  12.411  2.2739  0.7023 -0.1890
  833MPD2     N12254   1.685   0.818  12.045  0.4830  0.5118 -0.4150
  833MPD2    H512255   1.716   0.721  12.048 -0.6320  0.1980  0.6525
  833MPD2    N112256   1.366   1.107  12.267  0.0454  0.4261  0.3195
  833MPD2    H712257   1.288   1.117  12.331 -0.8503 -0.6269 -0.5953
  834MPD2     C12258   2.031   0.369  11.202  0.0127 -0.0288 -0.8090
  834MPD2    C112259   1.987   0.493  11.154 -0.0540 -0.4336  0.6461
  834MPD2    C212260   1.964   0.599  11.243  0.2946 -0.1706 -0.2538
  834MPD2    C312261   1.973   0.574  11.377 -0.0709  0.4776 -0.2461
  834MPD2    C412262   2.022   0.456  11.424  0.8090  0.3754 -0.8563
  834MPD2    C512263   2.053   0.354  11.337 -0.7751 -0.1647 -0.7185
  834MPD2     H12264   1.911   0.686  11.207 -0.0416 -1.0322 -1.8803
  834MPD2    H112265   2.021   0.436  11.531  0.5094  1.8167 -0.5823
  834MPD2    H212266   2.047   0.281  11.141  0.4643  1.6001 -3.0451
  834MPD2    H312267   2.091   0.261  11.379  0.5807  0.3122 -0.8730
  834MPD2     N12268   1.932   0.681  11.466 -0.0393 -0.1900  0.3294
  834MPD2    H512269   1.902   0.766  11.419  0.5496  0.0458  0.3911
  834MPD2    N112270   1.960   0.502  11.016 -0.2611  0.1383 -0.8502
  834MPD2    H712271   1.964   0.418  10.960 -0.0659 -2.1257  2.6170
  835MPD2     C12272   2.076   3.807  11.303 -0.0675 -0.3340  0.4698
  835MPD2    C112273   1.958   3.882  11.321  0.3691  0.4427 -0.0277
  835MPD2    C212274   1.924   3.915  11.447 -0.7953  0.4910  0.2536
  835MPD2    C312275   1.985   3.869  11.558 -0.2044  0.1509  0.0566
  835MPD2    C412276   2.103   3.797  11.540  0.2035 -0.1883 -0.4576
  835MPD2    C512277   2.147   3.764  11.411  0.0382 -0.4333 -0.0009
  835MPD2     H12278   1.835   3.975  11.456 -0.2865  1.2058  0.5756
  835MPD2    H112279   2.159   3.760  11.625  2.9006  2.0176 -1.3002
  835MPD2    H212280   2.126   3.788  11.209  0.1652  1.8464  0.1477
  835MPD2    H312281   2.233   3.699  11.406  0.5557  0.2794 -0.3908
  835MPD2     N12282   1.936   3.887  11.691  0.2184 -0.4687 -0.1949
  835MPD2    H512283   1.989   3.832  11.757 -0.0679 -0.4656  0.0374
  835MPD2    N112284   1.882   3.929  11.215 -0.2172 -0.0254 -0.6760
  835MPD2    H712285   1.801   3.986  11.240 -1.0735 -0.6059 -2.1273
  836MPD2     C12286   1.386   3.607  12.342  0.9491 -0.7672  0.1199
  836MPD2    C112287   1.359   3.691  12.236  0.0173 -0.1608 -0.1910
  836MPD2    C212288   1.236   3.695  12.181  0.2463  0.3677  0.1664
  836MPD2    C312289   1.132   3.616  12.229  0.1845  0.3358 -0.4317
  836MPD2    C412290   1.152   3.541  12.347 -0.3317  0.4097  0.1378
  836MPD2    C512291   1.285   3.523  12.388 -0.8716  0.8268 -0.2607
  836MPD2     H12292   1.213   3.763  12.100 -1.1975  0.6146  0.7724
  836MPD2    H112293   1.069   3.487  12.389 -0.5367  1.4756  1.1064
  836MPD2    H212294   1.488   3.601  12.381  0.8949 -1.4722  0.1515
  836MPD2    H312295   1.317   3.454  12.466 -1.1822  1.4349  0.4019
  836MPD2     N12296   1.000   3.603  12.161 -0.0681 -0.5323  0.1735
  836MPD2    H512297   0.939   3.532  12.199  0.2142 -0.2198  1.1966
  836MPD2    N112298   1.470   3.771  12.187 -0.0481  0.2942 -0.5738
  836MPD2    H712299   1.551   3.763  12.249 -0.4469  0.3216 -0.0488
  837MPD2     C12300   0.412   3.645  10.152  0.2163  0.5512 -0.9245
  837MPD2    C112301   0.383   3.629  10.013  0.3629  0.2625  0.3054
  837MPD2    C212302   0.339   3.737   9.937  0.1860 -0.0174 -0.0211
  837MPD2    C312303   0.301   3.856   9.997 -0.1251  0.2235 -0.2335
  837MPD2    C412304   0.324   3.872  10.131 -0.8232  0.0170  0.1701
  837MPD2    C512305   0.377   3.768  10.202  1.1051  0.1981 -0.4327
  837MPD2     H12306   0.318   3.715   9.833 -0.2295  0.8629 -0.1267
  837MPD2    H112307   0.289   3.961  10.181 -1.0145 -0.1935  0.4130
  837MPD2    H212308   0.453   3.565  10.212 -1.0639 -0.4163 -1.3403
  837MPD2    H312309   0.394   3.794  10.306  0.0817  0.2620 -0.2811
  837MPD2     N12310   0.220   3.947   9.925 -0.1598  0.1922  0.1939
  837MPD2    H512311   0.197   3.924   9.830  1.3519  1.4796 -0.5022
  837MPD2    N112312   0.373   3.505   9.947  0.0017 -0.3680  0.0672
  837MPD2    H712313   0.353   3.520   9.849 -0.7853 -0.1570  0.2623
  838MPD2     C12314   3.625   1.698  11.278  0.2206  0.7293  0.5768
  838MPD2    C112315   3.594   1.564  11.278 -0.3326 -1.0366  0.0430
  838MPD2    C212316   3.471   1.538  11.336  0.0920  0.4509  0.1364
  838MPD2    C312317   3.390   1.629  11.408  0.3654  0.7544 -0.4016
  838MPD2    C412318   3.438   1.759  11.408  0.3882  0.2250  0.0409
  838MPD2    C512319   3.549   1.795  11.341 -0.4843 -0.4727  0.2817
  838MPD2     H12320   3.437   1.436  11.327  1.4897  0.3092 -3.6914
  838MPD2    H112321   3.380   1.839  11.455  1.0494  0.2734  0.7692
  838MPD2    H212322   3.719   1.736  11.240  0.5078  1.0503  1.6150
  838MPD2    H312323   3.577   1.900  11.338  2.5243 -1.2265  1.4692
  838MPD2     N12324   3.261   1.593  11.457 -0.5156  0.0441  0.1103
  838MPD2    H512325   3.206   1.676  11.481 -1.8094 -0.6532 -0.4579
  838MPD2    N112326   3.675   1.460  11.219  0.1711  0.7071 -0.2022
  838MPD2    H712327   3.625   1.372  11.218 -0.2579  0.9310  1.0273
  839MPD2     C12328   3.165   1.474  11.019 -0.0732  0.0248 -0.2065
  839MPD2    C112329   3.184   1.341  10.980 -0.1187 -0.0996  0.1159
  839MPD2    C212330   3.313   1.308  10.939  0.1272  0.6369 -0.3688
  839MPD2    C312331   3.420   1.396  10.935  0.9223 -0.1254 -0.9192
  839MPD2    C412332   3.398   1.525  10.986  0.0193  0.1688  0.5238
  839MPD2    C512333   3.269   1.561  11.023  0.6504  0.6876  0.0115
  839MPD2     H12334   3.328   1.206  10.906  1.8539  0.4271  1.0295
  839MPD2    H112335   3.479   1.591  11.014 -0.0932  0.7580 -0.5270
  839MPD2    H212336   3.065   1.511  11.039 -0.0071  0.3987 -0.5625
  839MPD2    H312337   3.258   1.664  11.054 -0.0645  0.8066 -0.6429
  839MPD2     N12338   3.550   1.363  10.898 -0.2543 -0.0444  0.2719
  839MPD2    H512339   3.613   1.434  10.933  0.9847 -1.9861  1.9813
  839MPD2    N112340   3.081   1.251  10.983 -0.4339  0.6324  0.2332
  839MPD2    H712341   3.110   1.159  10.953 -0.2603  0.2943  1.4100
  840MPD2     C12342   3.446   4.054  10.162 -0.5136 -0.6443  0.3610
  840MPD2    C112343   3.408   3.997  10.277 -0.0382  0.5472  0.5324
  840MPD2    C212344   3.479   4.039  10.391 -0.3550  0.1256 -0.5117
  840MPD2    C312345   3.570   4.148  10.389  0.0168 -0.2380  0.3064
  840MPD2    C412346   3.583   4.220  10.271 -0.4336  0.2325 -0.0495
  840MPD2    C512347   3.526   4.165  10.163 -0.2812  0.6207  0.5131
  840MPD2     H12348   3.460   3.997  10.489  1.6104 -0.2930 -0.3087
  840MPD2    H112349   3.649   4.305  10.257  1.4238 -1.2853 -0.5240
  840MPD2    H212350   3.416   4.016  10.066  0.3887  0.5284 -0.3844
  840MPD2    H312351   3.550   4.229  10.079  2.1606  0.0693  0.7684
  840MPD2     N12352   3.640   4.196  10.496 -1.2835  0.3926  0.5912
  840MPD2    H512353   3.690   4.283  10.479 -3.3717  1.2740 -0.9477
  840MPD2    N112354   3.319   3.888  10.270 -0.2379 -0.3570  0.0874
  840MPD2    H712355   3.291   3.861  10.176 -2.0846  0.6133  0.3507
  841MPD2     C12356   2.785   3.466  14.780  0.6399 -1.1825 -0.0645
  841MPD2    C112357   2.844   3.373  14.689 -0.1514 -0.0963 -0.3992
  841MPD2    C212358   2.929   3.423  14.587  0.6413  0.5816  0.2550
  841MPD2    C312359   2.980   3.555  14.596  0.4755  0.2557  0.4063
  841MPD2    C412360   2.924   3.633  14.695  0.4162 -0.2140  0.1305
  841MPD2    C512361   2.824   3.597  14.781  0.1342 -0.6727  0.1503
  841MPD2     H12362   2.968   3.347  14.519 -0.5299 -1.0344  1.3977
  841MPD2    H112363   2.953   3.737  14.692  0.3425 -0.1413  1.9702
  841MPD2    H212364   2.708   3.430  14.847  1.3018 -1.3618  0.6033
  841MPD2    H312365   2.776   3.672  14.843 -2.8054  0.0786 -2.9935
  841MPD2     N12366   3.080   3.595  14.508 -0.3194 -0.0487  0.4944
  841MPD2    H512367   3.113   3.519  14.450  0.4315 -0.0516  0.9146
  841MPD2    N112368   2.830   3.236  14.700  0.3017  0.1830  0.0773
  841MPD2    H712369   2.889   3.172  14.649 -0.2606 -1.3243  1.3322
  842MPD2     C12370   2.800   3.867  17.001  0.5629 -0.1437 -0.2446
  842MPD2    C112371   2.854   3.988  16.976 -0.0775  0.1501 -0.0782
  842MPD2    C212372   2.944   4.036  17.068  1.3962 -0.4464 -0.7199
  842MPD2    C312373   2.964   3.968  17.190 -0.0904 -0.4815 -0.6596
  842MPD2    C412374   2.896   3.843  17.219 -0.7787 -0.6958 -0.3400
  842MPD2    C512375   2.834   3.796  17.112 -0.9953 -0.9522  0.0372
  842MPD2     H12376   2.985   4.135  17.048  0.0820  0.1113 -0.6543
  842MPD2    H112377   2.898   3.789  17.313  2.0208 -0.3841 -0.2402
  842MPD2    H212378   2.735   3.815  16.931 -0.2772  0.9103 -0.2602
  842MPD2    H312379   2.801   3.692  17.110 -0.8818 -0.9725 -0.6577
  842MPD2     N12380   3.040   4.024  17.296  0.2922 -0.3180  0.3535
  842MPD2    H512381   3.051   3.980  17.387 -1.0013 -1.4875 -0.0590
  842MPD2    N112382   2.811   4.058  16.860  0.3117  0.4194  1.0580
  842MPD2    H712383   2.744   4.014  16.798  0.2333  1.9050  0.1046
  843MPD2     C12384   0.484   4.309   0.293 -0.6004 -0.0347 -0.2712
  843MPD2    C112385   0.560   4.318   0.412  0.1646  0.0738 -1.0297
  843MPD2    C212386   0.656   4.412   0.427 -0.1812 -0.5978  0.1104
  843MPD2    C312387   0.674   4.497   0.322 -0.1541 -0.4999  0.3219
  843MPD2    C412388   0.613   4.485   0.203  0.5971 -0.9771 -0.4822
  843MPD2    C512389   0.521   4.387   0.187  0.1563 -0.4402 -0.4299
  843MPD2     H12390   0.721   4.417   0.513  0.1501 -2.8696 -0.0130
  843MPD2    H112391   0.651   4.537   0.116  0.6790 -0.3591 -0.0752
  843MPD2    H212392   0.409   4.232   0.283 -0.9027  0.1247  0.7492
  843MPD2    H312393   0.474   4.381   0.090 -1.5331 -2.0393  0.4876
  843MPD2     N12394   0.770   4.602   0.329 -0.5271 -0.3721  0.0140
  843MPD2    H512395   0.793   4.661   0.250  2.5867  0.2271  1.3302
  843MPD2    N112396   0.525   4.218   0.510 -0.2970 -0.4392  0.4951
  843MPD2    H712397   0.442   4.162   0.493 -0.1924 -0.3356 -0.3895
  844MPD2     C12398   3.669   3.756  16.571 -0.3537  0.1460  0.5030
  844MPD2    C112399   3.781   3.692  16.532 -0.3760  0.4135 -0.3491
  844MPD2    C212400   3.901   3.766  16.534  0.1711  1.1260 -0.0895
  844MPD2    C312401   3.906   3.901  16.565  0.3186  0.0436  0.0069
  844MPD2    C412402   3.787   3.967  16.589  0.6625  0.0018 -0.9262
  844MPD2    C512403   3.670   3.889  16.587 -0.1804  0.3106  0.1546
  844MPD2     H12404   3.993   3.711  16.513 -0.3069  0.8477 -1.4422
  844MPD2    H112405   3.779   4.074  16.607  0.4764  0.0516 -1.2870
  844MPD2    H212406   3.572   3.709  16.581 -0.5531  0.1941 -1.2467
  844MPD2    H312407   3.576   3.939  16.603 -0.8622 -0.0594 -2.6140
  844MPD2     N12408   4.031   3.963  16.566  0.5688  0.1898 -0.2814
  844MPD2    H512409   4.113   3.904  16.569  0.3395 -0.0639  0.8428
  844MPD2    N112410   3.779   3.557  16.484 -0.2162  0.0533 -0.4261
  844MPD2    H712411   3.864   3.525  16.439  0.2306  2.0012 -0.9624
  845MPD2     C12412   4.252   0.089  17.068  0.1191 -0.0489 -0.2688
  845MPD2    C112413   4.157   0.000  17.109 -0.2597  0.0540 -0.2678
  845MPD2    C212414   4.177   4.589  17.062 -0.1555  0.1940 -0.3228
  845MPD2    C312415   4.284   4.551  16.980  0.3760 -0.8994 -0.3073
  845MPD2    C412416   4.386   4.642  16.951 -0.3398 -0.0657 -0.2562
  845MPD2    C512417   4.369   0.048  17.003 -0.2458 -0.1405  0.0169
  845MPD2     H12418   4.103   4.515  17.088  0.3465 -1.1335 -2.6961
  845MPD2    H112419   4.471   4.618  16.887 -1.9938  1.8664 -3.1574
  845MPD2    H212420   4.239   0.190  17.105 -0.2866 -0.4541  0.7176
  845MPD2    H312421   4.444   0.124  16.980 -0.2226 -0.1401  0.0922
  845MPD2     N12422   4.283   4.419  16.926 -0.1380  0.9019  0.1483
  845MPD2    H512423   4.200   4.363  16.946  0.3315 -0.1134 -0.7566
  845MPD2    N112424   4.037   0.046  17.165 -0.0799 -0.0169  0.1916
  845MPD2    H712425   4.029   0.147  17.157 -1.7853 -0.1289  0.5442
  846MPD2     C12426   0.942   0.721  13.682  0.4795  0.5257  0.2668
  846MPD2    C112427   0.811   0.760  13.683  0.1433 -0.1996  0.1151
  846MPD2    C212428   0.739   0.748  13.797 -0.0252  0.1624  0.2305
  846MPD2    C312429   0.782   0.678  13.901  0.8364  0.8058 -0.2530
  846MPD2    C412430   0.913   0.623  13.896 -0.0767 -0.4847 -0.4383
  846MPD2    C512431   0.997   0.658  13.791  0.6028 -0.3185  0.7678
  846MPD2     H12432   0.638   0.786  13.810 -0.8102 -1.7305 -0.2458
  846MPD2    H112433   0.942   0.569  13.985 -0.6344 -2.5860 -1.5258
  846MPD2    H212434   1.005   0.735  13.594 -1.4705  0.5692 -1.1132
  846MPD2    H312435   1.103   0.635  13.792  0.0375 -2.9846 -0.1034
  846MPD2     N12436   0.685   0.643  14.007  0.9760  0.0171 -0.4947
  846MPD2    H512437   0.592   0.680  13.989  0.7510  0.1179  0.9284
  846MPD2    N112438   0.751   0.849  13.594 -0.3067 -0.2142  0.3381
  846MPD2    H712439   0.657   0.875  13.620 -1.1137 -1.7170 -1.0619
  847MPD2     C12440   0.904   1.405  14.219 -0.2635 -0.0650  0.1530
  847MPD2    C112441   1.006   1.484  14.270 -0.0915  0.4313  0.4182
  847MPD2    C212442   1.109   1.431  14.340  0.1128  0.6039  0.3137
  847MPD2    C312443   1.114   1.294  14.355 -0.7157 -0.7150  1.2986
  847MPD2    C412444   1.014   1.217  14.298 -0.3420  0.0795  0.1058
  847MPD2    C512445   0.911   1.268  14.226 -0.1758 -0.1184 -0.3324
  847MPD2     H12446   1.191   1.492  14.377 -0.3813  0.6770  1.2990
  847MPD2    H112447   1.007   1.110  14.315 -1.8672 -0.0897 -1.7008
  847MPD2    H212448   0.811   1.437  14.172 -0.7827  2.5645  2.9682
  847MPD2    H312449   0.837   1.206  14.176 -2.1581  1.7191  0.3131
  847MPD2     N12450   1.209   1.249  14.437 -0.6044  0.9771  0.2209
  847MPD2    H512451   1.257   1.321  14.490  0.0223  2.0890 -1.8274
  847MPD2    N112452   1.005   1.624  14.263  0.1303 -0.4030 -0.3749
  847MPD2    H712453   1.091   1.656  14.304 -0.8686  1.0618  0.5636
  848MPD2     C12454   3.360   4.165  16.507  0.5257 -0.0571  0.6035
  848MPD2    C112455   3.437   4.257  16.569 -0.6304 -0.1632 -0.3922
  848MPD2    C212456   3.449   4.385  16.515  0.5351  0.1817 -0.1676
  848MPD2    C312457   3.403   4.417  16.388 -0.4077  0.0500  0.3530
  848MPD2    C412458   3.312   4.330  16.333 -0.1209 -0.1545 -1.0186
  848MPD2    C512459   3.297   4.201  16.389 -0.3590 -0.4353  0.0444
  848MPD2     H12460   3.514   4.459  16.559 -1.0864  0.9127  0.9829
  848MPD2    H112461   3.268   4.348  16.235  0.0112  1.7879 -0.7264
  848MPD2    H212462   3.350   4.066  16.550 -0.5912 -0.2435 -0.0851
  848MPD2    H312463   3.223   4.133  16.346 -0.1742  0.2578 -1.3690
  848MPD2     N12464   3.429   4.538  16.324 -0.3611  0.0145  0.0819
  848MPD2    H512465   3.380   4.544  16.235  1.1586  3.8714 -0.4900
  848MPD2    N112466   3.508   4.216  16.681 -0.3502 -0.0877 -0.1778
  848MPD2    H712467   3.481   4.130  16.727  0.8101 -1.1679 -1.5403
  849MPD2     C12468   3.020   4.028  14.203 -0.4005  0.0497  0.1627
  849MPD2    C112469   3.111   3.990  14.110  0.4530 -0.3768  0.4029
  849MPD2    C212470   3.246   4.014  14.130 -1.1258  0.0573 -0.5142
  849MPD2    C312471   3.294   4.071  14.246  1.0104 -0.0545 -0.1879
  849MPD2    C412472   3.203   4.103  14.347 -0.1535 -0.8999 -0.3696
  849MPD2    C512473   3.072   4.081  14.323  0.6764  0.1002  0.2239
  849MPD2     H12474   3.311   3.987  14.049  0.5368 -1.3022  1.2791
  849MPD2    H112475   3.226   4.147  14.443  1.2705  2.6333 -2.3177
  849MPD2    H212476   2.915   4.018  14.178  0.2109 -0.3308 -2.2516
  849MPD2    H312477   3.008   4.108  14.406 -0.2956  0.8411 -0.7659
  849MPD2     N12478   3.433   4.093  14.267  0.2951  0.5720  0.2159
  849MPD2    H512479   3.464   4.135  14.354  0.4723  0.4117  0.2289
  849MPD2    N112480   3.087   3.924  13.987  0.2391 -0.2722 -0.3902
  849MPD2    H712481   3.167   3.919  13.925 -0.9518 -0.4299 -1.9190
  850MPD2     C12482   0.828   2.552  15.040 -0.8022 -0.2533 -0.4125
  850MPD2    C112483   0.872   2.447  15.113  0.5999  0.5579 -0.2131
  850MPD2    C212484   0.979   2.380  15.068 -0.0463 -0.4474  0.1691
  850MPD2    C312485   1.040   2.392  14.942 -0.7920 -0.4875 -0.5173
  850MPD2    C412486   0.990   2.496  14.864 -0.2743  0.4461  0.5318
  850MPD2    C512487   0.886   2.568  14.914 -0.2192  0.3941  0.4658
  850MPD2     H12488   1.012   2.301  15.135 -0.4254  0.0159  0.9029
  850MPD2    H112489   1.031   2.527  14.769  0.3566  0.3949  0.7899
  850MPD2    H212490   0.747   2.618  15.069 -0.2623 -0.2728  1.1695
  850MPD2    H312491   0.854   2.654  14.857 -2.3943 -0.8332 -0.1954
  850MPD2     N12492   1.148   2.311  14.900  0.1738  0.0772  0.1827
  850MPD2    H512493   1.203   2.351  14.825 -0.0382 -0.4204 -0.2412
  850MPD2    N112494   0.843   2.421  15.247 -0.2536 -0.1082 -0.8387
  850MPD2    H712495   0.908   2.359  15.295 -1.2640 -0.1868  0.4164
  851MPD2     C12496   1.033   1.994  15.933  0.7443  0.5423  0.0506
  851MPD2    C112497   1.020   2.035  15.801  0.4328  0.0010 -0.3847
  851MPD2    C212498   1.095   1.970  15.705  0.5017  0.2454 -0.3972
  851MPD2    C312499   1.163   1.855  15.724  0.1746  0.6775 -0.0724
  851MPD2    C412500   1.168   1.811  15.858 -0.0196  0.3844 -0.2647
  851MPD2    C512501   1.107   1.882  15.961 -0.1450  0.5850  0.1126
  851MPD2     H12502   1.087   1.997  15.600 -1.4515  0.7869 -0.1201
  851MPD2    H112503   1.229   1.726  15.887 -0.2720  0.1776 -0.3373
  851MPD2    H212504   0.976   2.045  16.010  0.1513  1.3461 -0.9350
  851MPD2    H312505   1.127   1.844  16.061 -0.1723 -2.2419 -0.9648
  851MPD2     N12506   1.233   1.792  15.620 -0.3465 -0.2978  0.8016
  851MPD2    H512507   1.234   1.838  15.530  0.9089 -1.4153  0.2550
  851MPD2    N112508   0.934   2.148  15.768 -0.3637 -0.0242 -0.4844
  851MPD2    H712509   0.904   2.207  15.845  1.4486 -0.3824  0.4946
  852MPD2     C12510   1.934   0.169   9.806 -0.8342 -0.4183  0.4844
  852MPD2    C112511   1.823   0.237   9.851 -0.2086 -0.4456 -0.6571
  852MPD2    C212512   1.827   0.377   9.869  0.0924  0.2342 -0.2253
  852MPD2    C312513   1.951   0.433   9.842 -0.1569  1.0064  0.1795
  852MPD2    C412514   2.067   0.364   9.802 -0.5976  0.2908  0.4485
  852MPD2    C512515   2.055   0.232   9.790 -0.2585  0.1142  0.4077
  852MPD2     H12516   1.746   0.438   9.908  0.8886  1.5352 -0.5935
  852MPD2    H112517   2.164   0.411   9.786 -0.0065  0.5661  4.9430
  852MPD2    H212518   1.941   0.066   9.771 -0.5993  0.1567 -1.1745
  852MPD2    H312519   2.146   0.178   9.771 -0.6559 -0.1738 -0.6544
  852MPD2     N12520   1.951   0.570   9.872 -0.1247 -0.6858  0.3063
  852MPD2    H512521   1.858   0.600   9.900 -0.9612 -1.8587 -1.2447
  852MPD2    N112522   1.695   0.177   9.875 -0.0785  0.0842 -0.1932
  852MPD2    H712523   1.626   0.245   9.905 -0.7672 -0.3650 -0.7581
  853MPD2     C12524   2.541   4.570  11.780  0.2078  0.8980  0.2318
  853MPD2    C112525   2.544   4.712  11.767  0.0930 -0.7861  0.7625
  853MPD2    C212526   2.565   0.054  11.646 -0.4021 -0.7834  0.4578
  853MPD2    C312527   2.591   4.689  11.539 -0.3607 -0.2249 -0.8600
  853MPD2    C412528   2.585   4.551  11.556  0.8701 -0.2589  0.1388
  853MPD2    C512529   2.560   4.491  11.672  0.3199  0.4153 -0.3362
  853MPD2     H12530   2.581   0.158  11.624  2.1181 -1.5257 -1.2064
  853MPD2    H112531   2.585   4.490  11.466  1.4031 -0.5810  0.3571
  853MPD2    H212532   2.528   4.536  11.883  0.0302 -0.7006 -0.3270
  853MPD2    H312533   2.563   4.382  11.678 -1.4069  0.2289 -2.7722
  853MPD2     N12534   2.609   0.016  11.408  0.2049 -0.3685  0.4166
  853MPD2    H512535   2.651   4.673  11.340 -0.0441 -1.9112  1.6819
  853MPD2    N112536   2.527   0.072  11.886  0.0876  0.1333 -0.3594
  853MPD2    H712537   2.500   0.017  11.966  2.0575  2.8945  2.2199
  854MPD2     C12538   0.248   0.581  13.008  0.2569  0.3169 -0.7814
  854MPD2    C112539   0.240   0.494  12.897  0.2132 -0.1939 -0.4038
  854MPD2    C212540   0.292   0.369  12.909  0.2899 -0.9212  0.0552
  854MPD2    C312541   0.347   0.320  13.031  0.5210  0.4027  0.0981
  854MPD2    C412542   0.344   0.403  13.139  0.8703 -0.1460  0.7786
  854MPD2    C512543   0.296   0.535  13.129  0.1785 -0.2926 -0.5561
  854MPD2     H12544   0.299   0.305  12.821  1.3686 -1.1378  0.2959
  854MPD2    H112545   0.379   0.382  13.239  0.6271  1.2406  1.1686
  854MPD2    H212546   0.228   0.687  12.994  2.7232  0.5608 -2.4477
  854MPD2    H312547   0.296   0.606  13.211 -0.7192 -1.2172  0.2465
  854MPD2     N12548   0.402   0.192  13.047 -0.8461 -0.0716 -0.0385
  854MPD2    H512549   0.437   0.170  13.140  0.4620  0.1815 -0.4748
  854MPD2    N112550   0.173   0.519  12.778  0.2174 -0.6479  0.3321
  854MPD2    H712551   0.169   0.442  12.712  1.1380 -3.4034  3.4939
  855MPD2     C12552   0.451   4.681  13.778 -0.2061 -0.0679  0.1426
  855MPD2    C112553   0.412   4.567  13.716 -0.4434 -0.4090 -0.1078
  855MPD2    C212554   0.445   4.549  13.580  0.4457  0.0649 -0.3267
  855MPD2    C312555   0.511   4.643  13.507  0.5625 -0.5301  0.0874
  855MPD2    C412556   0.529   0.043  13.575 -0.2620  0.3154 -0.1028
  855MPD2    C512557   0.513   0.055  13.705  0.3024  0.2425  0.7371
  855MPD2     H12558   0.434   4.453  13.532 -0.4422 -0.7583  1.5206
  855MPD2    H112559   0.573   0.118  13.511  1.3713 -1.8982 -1.6068
  855MPD2    H212560   0.434   4.696  13.884 -2.0587  2.7735 -0.5473
  855MPD2    H312561   0.552   0.144  13.754  0.4215 -0.2516  1.5464
  855MPD2     N12562   0.547   4.625  13.377  1.0118  0.1051  0.8437
  855MPD2    H512563   0.555   4.708  13.318 -0.6573 -1.5999 -1.7633
  855MPD2    N112564   0.342   4.464  13.784  0.6186 -0.7658  0.2169
  855MPD2    H712565   0.311   4.386  13.727 -1.7653  0.7110 -0.5049
  856MPD2     C12566   1.481   1.120  13.438  0.0565 -0.1926  0.1334
  856MPD2    C112567   1.491   1.076  13.570 -0.6043 -0.4342 -0.3297
  856MPD2    C212568   1.448   1.155  13.673  0.4776 -0.6466  0.1114
  856MPD2    C312569   1.384   1.275  13.655  0.1733 -0.4518 -0.2850
  856MPD2    C412570   1.362   1.315  13.527 -0.4581  0.0729 -0.4572
  856MPD2    C512571   1.420   1.243  13.422  0.3710 -0.2510 -0.4077
  856MPD2     H12572   1.457   1.120  13.775 -0.1957  1.0974  0.7809
  856MPD2    H112573   1.318   1.410  13.499 -4.2216 -1.9986 -1.5315
  856MPD2    H212574   1.522   1.067  13.353 -1.1313  0.3546 -0.7959
  856MPD2    H312575   1.413   1.270  13.317  1.0300 -0.1818 -0.4374
  856MPD2     N12576   1.325   1.349  13.756 -0.7972  0.0470  0.0202
  856MPD2    H512577   1.263   1.423  13.724 -1.6494 -1.4956 -1.8573
  856MPD2    N112578   1.559   0.955  13.596 -0.1924  0.2272 -0.1977
  856MPD2    H712579   1.581   0.944  13.694  2.4912 -0.6661 -0.9010
  857MPD2     C12580   3.458   3.406  12.570 -0.2194 -0.2151 -0.3471
  857MPD2    C112581   3.568   3.340  12.617 -0.0338  0.0111 -0.5800
  857MPD2    C212582   3.685   3.410  12.624  0.9841  0.8303 -0.1827
  857MPD2    C312583   3.694   3.543  12.606  0.0772  0.6593 -0.1394
  857MPD2    C412584   3.578   3.609  12.561  0.1167 -0.0344  0.0865
  857MPD2    C512585   3.466   3.540  12.549 -0.3472  0.6670 -0.0138
  857MPD2     H12586   3.777   3.354  12.635  0.0792 -0.0524  2.8382
  857MPD2    H112587   3.577   3.713  12.531 -0.5569 -0.3205 -0.8730
  857MPD2    H212588   3.363   3.354  12.561 -1.0785  1.0237  1.6346
  857MPD2    H312589   3.374   3.583  12.511  0.2490  2.0334  0.0915
  857MPD2     N12590   3.819   3.597  12.593 -0.5052 -0.1061 -0.5989
  857MPD2    H512591   3.899   3.536  12.601  1.2014  2.0274 -1.4192
  857MPD2    N112592   3.567   3.202  12.654  0.8530 -0.3844 -0.5107
  857MPD2    H712593   3.476   3.160  12.637 -0.7312  1.8524  2.3771
  858MPD2     C12594   4.169   1.576  17.228 -0.0659 -0.2163  0.7583
  858MPD2    C112595   4.296   1.570  17.183  0.2265 -0.0976 -0.8414
  858MPD2    C212596   4.395   1.652  17.230 -0.7559 -0.6426 -0.2717
  858MPD2    C312597   4.363   1.748  17.321 -0.5285 -0.0807 -0.0063
  858MPD2    C412598   4.236   1.753  17.372 -0.3304  0.6907 -0.2538
  858MPD2    C512599   4.138   1.663  17.326 -0.4453  0.0219 -0.5919
  858MPD2     H12600   4.490   1.637  17.181 -1.6565  1.2996 -2.5710
  858MPD2    H112601   4.223   1.823  17.453 -1.7415  1.1473 -0.8872
  858MPD2    H212602   4.097   1.501  17.199  2.0741 -1.7764 -0.5411
  858MPD2    H312603   4.038   1.670  17.368 -0.2995 -2.0781  0.1221
  858MPD2     N12604   4.460   1.837  17.376  0.4716 -0.1709  0.0120
  858MPD2    H512605   4.428   1.916  17.430  1.7778  0.7536 -0.5720
  858MPD2    N112606   4.309   1.480  17.071  0.3355 -0.0150 -0.4921
  858MPD2    H712607   4.233   1.417  17.046 -0.0021  0.5608 -0.9155
  859MPD2     C12608   2.525   4.062  15.051  0.3574  0.5176 -0.0516
  859MPD2    C112609   2.663   4.043  15.070  0.0442 -0.3436  0.1418
  859MPD2    C212610   2.717   3.919  15.086 -0.4609 -0.2694 -0.1037
  859MPD2    C312611   2.626   3.814  15.094 -0.6027 -0.2555 -0.1266
  859MPD2    C412612   2.487   3.832  15.077 -0.0645 -0.3363 -0.6307
  859MPD2    C512613   2.439   3.957  15.056 -0.3913 -0.4809  0.3585
  859MPD2     H12614   2.823   3.897  15.093 -0.5874 -1.0169 -0.5949
  859MPD2    H112615   2.420   3.747  15.074 -0.8292  0.3029 -1.9174
  859MPD2    H212616   2.480   4.156  15.022  1.0863  0.7255 -0.5133
  859MPD2    H312617   2.332   3.973  15.049 -0.3683 -0.2265  0.6172
  859MPD2     N12618   2.663   3.677  15.111 -0.1417 -0.5512  0.0558
  859MPD2    H512619   2.586   3.611  15.110  0.1418 -0.8593 -1.4833
  859MPD2    N112620   2.739   4.164  15.066  0.3237 -0.3541  0.4661
  859MPD2    H712621   2.687   4.245  15.034 -1.3894 -1.8163 -0.4300
  860MPD2     C12622   1.034   4.651  11.263 -0.8068  0.4914 -0.7208
  860MPD2    C112623   0.993   0.048  11.330 -0.1101  0.4510  0.1059
  860MPD2    C212624   0.912   0.032  11.436  0.8773 -0.0326  0.8426
  860MPD2    C312625   0.875   4.628  11.479 -0.1676  0.3849 -0.5911
  860MPD2    C412626   0.925   4.511  11.412  0.8720  0.2787 -0.5275
  860MPD2    C512627   1.000   4.524  11.298 -0.0107 -0.1979 -0.2160
  860MPD2     H12628   0.884   0.117  11.498  2.4706  0.8808  0.2938
  860MPD2    H112629   0.904   4.410  11.444 -0.2294  0.3205 -1.0957
  860MPD2    H212630   1.103   4.661  11.180 -0.5918 -1.0127 -0.7247
  860MPD2    H312631   1.034   4.445  11.233  1.4628  0.6657 -0.4885
  860MPD2     N12632   0.789   4.624  11.590 -0.2944  0.0197 -0.1902
  860MPD2    H512633   0.761   4.709  11.637  1.9907 -0.2907  1.7431
  860MPD2    N112634   1.029   0.183  11.291 -0.6171 -0.2054  0.0585
  860MPD2    H712635   0.986   0.255  11.348  1.3208  0.6296  0.4526
  861MPD2     C12636   4.357   3.051  10.904  0.9609  0.0617  1.0870
  861MPD2    C112637   4.318   3.155  10.987 -0.2075 -0.3353 -0.0284
  861MPD2    C212638   4.275   3.274  10.931 -0.5688 -0.2374  0.0952
  861MPD2    C312639   4.266   3.295  10.793 -0.0814 -0.6501 -0.4953
  861MPD2    C412640   4.306   3.188  10.717 -0.1640  0.3813 -0.0079
  861MPD2    C512641   4.345   3.069  10.765 -0.2559 -0.0838 -0.9241
  861MPD2     H12642   4.236   3.346  11.002 -0.0968 -2.7298  2.8883
  861MPD2    H112643   4.298   3.196  10.609 -0.4415 -0.2596 -0.0357
  861MPD2    H212644   4.376   2.951  10.941  0.4708 -0.5841 -0.3995
  861MPD2    H312645   4.378   2.991  10.698 -0.3285 -2.1330  1.3977
  861MPD2     N12646   4.220   3.408  10.721 -0.1706 -0.2713 -0.2345
  861MPD2    H512647   4.222   3.405  10.619  2.4468 -3.0542 -0.0935
  861MPD2    N112648   4.323   3.146  11.134  0.2395  0.0038 -0.1725
  861MPD2    H712649   4.295   3.223  11.194 -0.3038 -0.0892 -0.3102
  862MPD2     C12650   3.843   3.540  10.116 -0.4928  0.5538  0.1694
  862MPD2    C112651   3.887   3.476  10.233 -0.7004 -0.9376  0.5728
  862MPD2    C212652   3.864   3.341  10.248  0.1327  0.3648  0.1345
  862MPD2    C312653   3.798   3.269  10.151 -0.1417  0.1035 -0.1328
  862MPD2    C412654   3.754   3.328  10.043 -0.7794  0.7524 -0.1340
  862MPD2    C512655   3.783   3.459  10.021  0.3812 -0.2995  0.3058
  862MPD2     H12656   3.902   3.293  10.338  1.2582  1.4834  0.2618
  862MPD2    H112657   3.708   3.265   9.967  0.4436  2.0163 -1.8982
  862MPD2    H212658   3.863   3.646  10.104 -1.3946  0.7325  0.2823
  862MPD2    H312659   3.759   3.499   9.923 -1.2163 -0.3411  0.6837
  862MPD2     N12660   3.775   3.129  10.172 -0.1849  0.3906  1.1821
  862MPD2    H512661   3.736   3.084  10.090  0.4671  0.2139  0.9642
  862MPD2    N112662   3.949   3.546  10.340 -0.1383 -0.0851  0.4024
  862MPD2    H712663   3.989   3.482  10.408  0.9069 -0.7973 -0.8831
  863MPD2     C12664   2.197   0.824  17.306  0.0309 -0.4894 -0.4929
  863MPD2    C112665   2.295   0.835  17.204 -0.0433  0.0084  0.1433
  863MPD2    C212666   2.415   0.779  17.232  0.3842 -0.5916  0.0544
  863MPD2    C312667   2.449   0.731  17.358 -0.1438  0.6474  0.1387
  863MPD2    C412668   2.352   0.725  17.455  0.3194  0.2459  0.7174
  863MPD2    C512669   2.225   0.755  17.420  0.5731 -0.3795 -0.1554
  863MPD2     H12670   2.490   0.789  17.154 -0.8042 -3.1015 -1.4230
  863MPD2    H112671   2.371   0.692  17.557 -0.4596 -1.9116  0.1595
  863MPD2    H212672   2.097   0.864  17.294 -0.0505  0.0811  2.1536
  863MPD2    H312673   2.142   0.748  17.489  0.7344 -2.3135 -0.1619
  863MPD2     N12674   2.581   0.698  17.394  0.7614  0.2194  0.2404
  863MPD2    H512675   2.586   0.673  17.492 -0.1378  2.8089  0.9479
  863MPD2    N112676   2.258   0.899  17.079  0.1411  0.2422 -0.0514
  863MPD2    H712677   2.163   0.936  17.076  0.0977  0.3653  3.2623
  864MPD2     C12678   3.226   1.718  17.670  0.4221  0.1671  0.1520
  864MPD2    C112679   3.251   1.696  17.541  0.0410 -0.1914  0.1610
  864MPD2    C212680   3.292   1.802  17.465 -0.2525 -0.2788  0.3808
  864MPD2    C312681   3.306   1.930  17.518 -0.9768  0.6637  0.1613
  864MPD2    C412682   3.286   1.950  17.656 -0.0383 -0.3351  0.2204
  864MPD2    C512683   3.243   1.840   0.045 -0.0838  0.4530  0.5013
  864MPD2     H12684   3.290   1.784  17.358  0.6410  2.9255 -0.1640
  864MPD2    H112685   3.291   2.044   0.027 -3.5031  0.1808 -0.4161
  864MPD2    H212686   3.199   1.634   0.050  1.4657 -1.6434 -1.8162
  864MPD2    H312687   3.208   1.849   0.147  0.4411  0.9769  0.6326
  864MPD2     N12688   3.342   2.036  17.433  0.5241  0.1370 -0.4555
  864MPD2    H512689   3.332   2.130  17.472 -1.0673 -0.3373  0.2511
  864MPD2    N112690   3.227   1.567  17.485  0.9038  0.3272 -0.3352
  864MPD2    H712691   3.173   1.498  17.537 -0.0536 -0.2729 -2.1240
  865MPD2     C12692   3.158   2.494  16.556  0.3356 -0.0377 -0.2566
  865MPD2    C112693   3.180   2.369  16.603  0.3496 -0.2917 -0.2106
  865MPD2    C212694   3.199   2.346  16.735 -1.1155 -0.3041  0.2268
  865MPD2    C312695   3.208   2.454  16.826  0.3646  0.2481 -0.0653
  865MPD2    C412696   3.200   2.581  16.775  0.0575  0.1270  0.0818
  865MPD2    C512697   3.169   2.602  16.639 -0.3079 -0.2553 -0.8155
  865MPD2     H12698   3.220   2.245  16.768 -2.7456 -1.4976 -2.3271
  865MPD2    H112699   3.237   2.664  16.834 -2.0031  2.1009 -1.3957
  865MPD2    H212700   3.135   2.511  16.452 -0.0645 -0.8895 -0.3093
  865MPD2    H312701   3.177   2.698  16.589  0.4760  0.1550  0.1037
  865MPD2     N12702   3.247   2.454  16.961  0.1223  0.0901 -0.2522
  865MPD2    H512703   3.283   2.541  16.998  0.6204 -0.1380 -0.2040
  865MPD2    N112704   3.196   2.267  16.508  0.5294 -0.1514  0.5958
  865MPD2    H712705   3.216   2.281  16.410 -0.6836 -0.9577  0.2370
  866MPD2     C12706   0.029   3.304  11.588  0.0366  0.7007  0.2805
  866MPD2    C112707   0.103   3.371  11.496  0.3666 -0.3694 -0.5279
  866MPD2    C212708   0.027   3.472  11.416  0.4620  0.4683 -0.2391
  866MPD2    C312709   4.624   3.522  11.441  0.3807 -0.8351  0.3467
  866MPD2    C412710   4.555   3.447  11.538 -0.0609 -0.8521  0.0822
  866MPD2    C512711   4.621   3.343  11.606  0.0579  0.3647  0.0401
  866MPD2     H12712   0.081   3.512  11.331 -0.3933  1.3285 -0.3801
  866MPD2    H112713   4.459   3.470  11.582 -1.3725 -2.1685 -2.1000
  866MPD2    H212714   0.060   3.235  11.666  2.2644  2.6147  1.1187
  866MPD2    H312715   4.566   3.309  11.693 -2.1037  1.3233 -0.9558
  866MPD2     N12716   4.542   3.609  11.366 -0.1821  0.2718 -0.0817
  866MPD2    H512717   4.446   3.627  11.391  0.0724 -0.1540  1.1817
  866MPD2    N112718   0.238   3.334  11.475 -0.5147  0.3654  0.1614
  866MPD2    H712719   0.275   3.256  11.527  0.1848 -0.2297 -1.2435
  867MPD2     C12720   2.205   2.011  16.634  0.0825  0.1328  0.2761
  867MPD2    C112721   2.299   1.981  16.733 -0.7890 -0.1015 -0.8624
  867MPD2    C212722   2.384   2.080  16.765 -0.3647  0.1602 -0.0600
  867MPD2    C312723   2.385   2.208  16.718  0.9109 -0.7252 -0.3548
  867MPD2    C412724   2.284   2.237  16.618 -0.2680  0.2001  0.4745
  867MPD2    C512725   2.193   2.136  16.582  0.1397 -0.0223 -0.4714
  867MPD2     H12726   2.460   2.069  16.841 -1.8320 -0.2803  1.3571
  867MPD2    H112727   2.279   2.335  16.572 -0.9142  0.4719  1.1178
  867MPD2    H212728   2.135   1.933  16.607  0.1735  0.6653 -1.5126
  867MPD2    H312729   2.137   2.141  16.490  0.1346 -0.0566 -0.4701
  867MPD2     N12730   2.469   2.319  16.754  0.2976 -0.8692  0.3833
  867MPD2    H512731   2.445   2.408  16.713  2.3380 -1.3419 -1.8552
  867MPD2    N112732   2.293   1.852  16.795  0.0280  0.0441  0.5377
  867MPD2    H712733   2.224   1.784  16.765  0.5263  0.4976 -1.5840
  868MPD2     C12734   3.753   1.664  13.088  0.8574 -0.4771 -0.6797
  868MPD2    C112735   3.754   1.527  13.097 -0.1225 -0.2055  0.2652
  868MPD2    C212736   3.651   1.459  13.160 -0.2976  0.4821  0.9112
  868MPD2    C312737   3.545   1.527  13.215  0.0960 -0.0542  0.3028
  868MPD2    C412738   3.544   1.667  13.193  0.1425 -0.1570  0.4422
  868MPD2    C512739   3.648   1.736  13.135  0.7257 -0.1598 -0.3600
  868MPD2     H12740   3.656   1.351  13.174  0.3036  0.5941  1.5440
  868MPD2    H112741   3.451   1.717  13.220  0.8457 -0.0740  2.7547
  868MPD2    H212742   3.824   1.719  13.027  2.1706  0.4897  1.7207
  868MPD2    H312743   3.633   1.842  13.121 -0.0379 -0.0220  1.4988
  868MPD2     N12744   3.449   1.456  13.288  0.3981 -0.1616 -0.1159
  868MPD2    H512745   3.468   1.356  13.291  0.4324 -0.1848 -1.0604
  868MPD2    N112746   3.865   1.463  13.039 -0.4661 -0.4690 -0.2320
  868MPD2    H712747   3.937   1.526  13.005 -0.0653 -1.3767 -1.0714
  869MPD2     C12748   0.899   4.189   2.497  0.1409  0.4923  0.2260
  869MPD2    C112749   0.822   4.089   2.433 -0.6225 -0.0112 -0.9014
  869MPD2    C212750   0.786   4.111   2.302  0.6056 -0.5716  0.1128
  869MPD2    C312751   0.813   4.234   2.242  0.3789 -0.0788  0.0879
  869MPD2    C412752   0.885   4.331   2.310 -0.0002 -0.5565 -0.1059
  869MPD2    C512753   0.921   4.303   2.435  0.2718 -0.6633 -0.4450
  869MPD2     H12754   0.712   4.043   2.262 -0.0277 -0.5657  1.2801
  869MPD2    H112755   0.913   4.431   2.278  1.1887 -0.8275  0.0671
  869MPD2    H212756   0.946   4.170   2.593 -1.4692 -0.6988  0.7735
  869MPD2    H312757   0.987   4.380   2.474 -0.3833  0.1993 -1.0196
  869MPD2     N12758   0.766   4.276   2.116 -0.0405 -0.0251  0.1884
  869MPD2    H512759   0.791   4.371   2.089  0.0323 -0.3362 -0.7989
  869MPD2    N112760   0.791   3.969   2.506 -0.3585  0.2389 -0.4122
  869MPD2    H712761   0.812   3.971   2.605 -2.3676  0.5167  0.0140
  870MPD2     C12762   0.037   2.186   1.995 -0.0615  0.0567 -0.1735
  870MPD2    C112763   0.076   2.304   2.055 -0.1275 -0.0002  0.2975
  870MPD2    C212764   0.165   2.387   1.998  0.5325  0.7377 -0.0223
  870MPD2    C312765   0.234   2.348   1.879  0.7167  0.4040  0.5407
  870MPD2    C412766   0.200   2.227   1.821  0.0156  0.0796 -0.1831
  870MPD2    C512767   0.109   2.150   1.882 -0.5878  0.5768  0.4882
  870MPD2     H12768   0.200   2.472   2.055 -1.3239  0.5971  1.3357
  870MPD2    H112769   0.254   2.191   1.734  0.0376  0.9694 -0.5380
  870MPD2    H212770   4.696   2.114   2.047  1.1414 -0.0187  1.1293
  870MPD2    H312771   0.102   2.051   1.838  0.6163  0.5397  0.3704
  870MPD2     N12772   0.328   2.431   1.820 -0.2923 -0.7526 -0.1378
  870MPD2    H512773   0.370   2.503   1.877 -1.2051  0.0509 -0.4828
  870MPD2    N112774   0.013   2.325   2.175  0.0121  0.0709  0.7542
  870MPD2    H712775   4.666   2.257   2.211 -0.0461 -1.5637 -2.4603
  871MPD2     C12776   1.043   2.654  16.270  0.6905  0.8707  0.3628
  871MPD2    C112777   1.020   2.592  16.393 -0.6810  0.3727  0.5819
  871MPD2    C212778   1.039   2.457  16.413  0.0158 -0.4908 -0.1761
  871MPD2    C312779   1.069   2.376  16.305 -0.0190  1.0591 -0.3518
  871MPD2    C412780   1.087   2.436  16.182  0.4091 -0.2953 -0.3469
  871MPD2    C512781   1.076   2.572  16.169 -0.5085 -0.3726 -0.2023
  871MPD2     H12782   1.033   2.406  16.509  0.3607 -0.0050  0.1003
  871MPD2    H112783   1.087   2.370  16.096 -0.6553  0.1174 -0.6687
  871MPD2    H212784   1.033   2.759  16.245  1.3244  0.8957  0.2127
  871MPD2    H312785   1.090   2.614  16.070 -0.1610 -1.5590 -0.6553
  871MPD2     N12786   1.076   2.241  16.329  0.1058 -0.2331  0.4205
  871MPD2    H512787   1.052   2.195  16.416 -2.7201 -1.5744 -1.0654
  871MPD2    N112788   0.983   2.683  16.495 -0.2675 -0.3024 -0.1254
  871MPD2    H712789   0.970   2.779  16.464  0.0487 -1.1233 -2.7970
  872MPD2     C12790   2.106   0.147  13.512  0.2848 -0.8750  0.0109
  872MPD2    C112791   2.136   0.247  13.611  0.4524  0.1478  0.1471
  872MPD2    C212792   2.033   0.297  13.693 -0.4154  0.0722  0.0600
  872MPD2    C312793   1.907   0.240  13.686 -0.1035 -0.4178  0.8063
  872MPD2    C412794   1.880   0.146  13.585  0.0815  0.5917  0.3186
  872MPD2    C512795   1.976   0.108  13.496  0.7862 -0.6702  0.9726
  872MPD2     H12796   2.047   0.369  13.773  0.5373 -0.7746  0.6487
  872MPD2    H112797   1.787   0.092  13.579  0.8381 -0.6536 -0.2108
  872MPD2    H212798   2.174   0.105  13.438  0.1494 -1.9944  0.5141
  872MPD2    H312799   1.954   0.041  13.413 -1.2412 -0.8106  1.6021
  872MPD2     N12800   1.807   0.289  13.769 -0.5461  0.2025 -0.1408
  872MPD2    H512801   1.837   0.345  13.848  0.3466  1.3800 -1.3157
  872MPD2    N112802   2.263   0.310  13.618  0.9813 -0.6140 -0.1639
  872MPD2    H712803   2.272   0.380  13.691  1.4014 -1.4657  0.6061
  873MPD2     C12804   3.852   0.913   1.524  0.0094 -0.9390  0.6002
  873MPD2    C112805   3.930   0.861   1.623 -0.6952 -0.6281 -0.6706
  873MPD2    C212806   4.065   0.850   1.589 -0.5092  0.5524 -0.0388
  873MPD2    C312807   4.112   0.881   1.461  0.1001 -0.5590  1.1120
  873MPD2    C412808   4.028   0.931   1.364  0.4939  0.5750  0.2320
  873MPD2    C512809   3.901   0.947   1.407 -0.0441 -0.1202  0.0251
  873MPD2     H12810   4.138   0.813   1.661 -1.0509 -0.0318  0.2105
  873MPD2    H112811   4.057   0.960   1.264  0.5150 -2.4041 -0.6146
  873MPD2    H212812   3.745   0.907   1.541  0.0574  1.2541  1.5958
  873MPD2    H312813   3.839   1.010   1.344  0.6019  0.4460 -0.0486
  873MPD2     N12814   4.244   0.862   1.417  0.5673 -0.1039 -0.0839
  873MPD2    H512815   4.262   0.879   1.318 -2.9896  0.7059 -0.6068
  873MPD2    N112816   3.862   0.825   1.743  0.2097  0.1100  0.2704
  873MPD2    H712817   3.761   0.821   1.745  0.3544 -1.8014  3.1120
  874MPD2     C12818   2.752   0.085  16.322  0.2253  0.7845  0.2999
  874MPD2    C112819   2.835   4.697  16.337  0.0873 -0.0541 -0.4334
  874MPD2    C212820   2.967   4.698  16.293 -0.0540  0.2708  0.3717
  874MPD2    C312821   3.014   0.090  16.231 -0.1051 -0.0001  0.6725
  874MPD2    C412822   2.929   0.202  16.226 -0.8363  0.2788 -0.2201
  874MPD2    C512823   2.798   0.196  16.262 -0.6413 -0.5893 -0.1320
  874MPD2     H12824   3.028   4.609  16.293  0.3907  0.5747  1.0038
  874MPD2    H112825   2.967   0.297  16.193 -1.1398  0.0059 -1.3461
  874MPD2    H212826   2.651   0.088  16.361 -0.0403  0.2530 -0.3492
  874MPD2    H312827   2.733   0.282  16.244  1.5020  0.9989 -0.3317
  874MPD2     N12828   3.154   0.094  16.208 -0.0551 -0.6489  0.4385
  874MPD2    H512829   3.202   0.009  16.235 -0.4831 -1.0797 -0.1290
  874MPD2    N112830   2.777   4.584  16.395 -0.2143 -0.0233  0.7130
  874MPD2    H712831   2.681   4.593  16.426 -1.3722  0.0373 -2.9568
  875MPD2     C12832   3.995   3.232  14.211 -0.5300  0.4566  0.0204
  875MPD2    C112833   3.853   3.250  14.211  0.8927 -0.1977 -0.5246
  875MPD2    C212834   3.792   3.249  14.337  0.8198  0.4877 -0.1524
  875MPD2    C312835   3.861   3.219  14.453 -0.0058 -0.5440 -0.0850
  875MPD2    C412836   3.997   3.201  14.450 -0.1433 -0.7967  0.1041
  875MPD2    C512837   4.062   3.189  14.328  0.4529  0.1158 -0.5571
  875MPD2     H12838   3.685   3.269  14.343  0.4367 -1.4772 -0.6944
  875MPD2    H112839   4.054   3.163  14.535  0.3270 -0.9521 -0.2819
  875MPD2    H212840   4.046   3.245  14.117 -2.1146 -0.5683 -0.9820
  875MPD2    H312841   4.170   3.176  14.323  0.4568  0.4866 -1.5601
  875MPD2     N12842   3.791   3.213  14.578 -0.1555  0.1753  0.3767
  875MPD2    H512843   3.700   3.258  14.585  0.0825  0.4285  2.0120
  875MPD2    N112844   3.769   3.288  14.103 -0.4698  0.1467 -0.2818
  875MPD2    H712845   3.669   3.299  14.118 -0.3135  0.8052  0.3054
  876MPD2     C12846   3.031   4.428  16.014 -0.2671 -0.3662 -0.5160
  876MPD2    C112847   3.111   4.361  15.927 -0.2080  0.4380 -0.0576
  876MPD2    C212848   3.128   4.222  15.938  0.5145 -0.6749  0.3652
  876MPD2    C312849   3.072   4.150  16.044 -0.0741  0.0866  0.0867
  876MPD2    C412850   2.994   4.224  16.134 -0.2673 -0.3504  0.1697
  876MPD2    C512851   2.979   4.362  16.126 -0.0543  0.1089 -0.0965
  876MPD2     H12852   3.187   4.168  15.866  0.3975 -1.8520  1.1556
  876MPD2    H112853   2.940   4.185  16.220 -2.8685 -0.8829 -1.6826
  876MPD2    H212854   3.016   4.534  15.999 -0.8950 -0.2324  1.1275
  876MPD2    H312855   2.945   4.426  16.207  0.1801  2.5841 -1.9580
  876MPD2     N12856   3.101   4.013  16.066  0.0291  0.6634  0.6831
  876MPD2    H512857   3.126   3.969  15.978  1.0032  1.0953  0.7409
  876MPD2    N112858   3.156   4.432  15.810  0.0052  0.0811 -0.2169
  876MPD2    H712859   3.123   4.526  15.790 -1.8567 -0.7617 -1.2111
  877MPD2     C12860   2.953   0.079  15.133 -0.0421  0.6704 -0.2933
  877MPD2    C112861   3.086   0.097  15.161  0.0046 -0.1635  0.2824
  877MPD2    C212862   3.163   0.141  15.063 -0.4913 -0.6874 -0.1125
  877MPD2    C312863   3.114   0.165  14.933 -1.2200 -0.4149 -0.0844
  877MPD2    C412864   2.982   0.164  14.911 -0.1611  0.8440 -0.4625
  877MPD2    C512865   2.903   0.115  15.013  0.1675  0.7440 -0.0041
  877MPD2     H12866   3.266   0.156  15.093 -0.9668 -0.6627  1.4784
  877MPD2    H112867   2.930   0.196  14.821 -0.6040 -2.2487 -1.3270
  877MPD2    H212868   2.887   0.041  15.211 -0.3140  2.2412  0.2288
  877MPD2    H312869   2.799   0.096  14.989  0.9971 -1.6034 -1.7191
  877MPD2     N12870   3.192   0.218  14.827  0.4268  0.6493  0.2807
  877MPD2    H512871   3.160   0.214  14.731  1.9135 -4.0641 -0.0274
  877MPD2    N112872   3.154   0.031  15.268 -0.0444  0.1069 -0.1514
  877MPD2    H712873   3.255   0.029  15.260 -0.0089  1.0502  0.1086
  878MPD2     C12874   2.710   4.564  13.308  0.4858  0.7190  0.4101
  878MPD2    C112875   2.836   4.529  13.268  0.4199 -0.1858  0.5721
  878MPD2    C212876   2.896   4.419  13.337  0.0323  0.3613 -0.8853
  878MPD2    C312877   2.831   4.346  13.430  0.0680  0.2474  0.0696
  878MPD2    C412878   2.700   4.378  13.459 -0.2404  0.3474  0.2407
  878MPD2    C512879   2.642   4.489  13.402 -0.2245  0.5858 -0.9995
  878MPD2     H12880   2.998   4.392  13.314 -1.1134 -3.3798 -1.5016
  878MPD2    H112881   2.645   4.334  13.542  0.7448  0.2583  0.8536
  878MPD2    H212882   2.660   4.655  13.277  0.7198  1.4213  2.0759
  878MPD2    H312883   2.540   4.517  13.424 -0.1412  1.2879 -1.5107
  878MPD2     N12884   2.908   4.240  13.492  0.0412 -0.0761  0.3091
  878MPD2    H512885   3.009   4.243  13.480  0.3038  1.2504  2.7828
  878MPD2    N112886   2.891   4.609  13.164 -0.2123  0.4937  0.0716
  878MPD2    H712887   2.823   4.672  13.123 -1.3924  0.4639  1.9775
  879MPD2     C12888   3.936   0.871  17.221  0.3169 -0.2224 -0.1187
  879MPD2    C112889   3.902   0.754  17.284 -0.3242  0.1038  0.3838
  879MPD2    C212890   3.803   0.680  17.240  0.0111  0.3723  0.1677
  879MPD2    C312891   3.733   0.723  17.130  0.4331  0.5247 -0.0189
  879MPD2    C412892   3.763   0.834  17.061 -0.1794  0.2479  0.3199
  879MPD2    C512893   3.867   0.912  17.105  0.6994 -0.1288  0.2997
  879MPD2     H12894   3.783   0.589  17.296 -0.0925 -1.1537 -2.3306
  879MPD2    H112895   3.703   0.867  16.976 -1.5867 -1.3563  0.6689
  879MPD2    H212896   4.008   0.936  17.269  0.4471 -0.5353  0.1035
  879MPD2    H312897   3.889   1.000  17.046 -2.8649  0.2058 -0.5435
  879MPD2     N12898   3.618   0.651  17.089 -0.0439  0.9706 -0.1842
  879MPD2    H512899   3.575   0.684  17.003 -0.1151 -1.7323 -1.1867
  879MPD2    N112900   3.981   0.728  17.405  0.3557 -0.2121  0.3027
  879MPD2    H712901   4.050   0.799  17.429  2.0535 -1.0547 -2.0874
  880MPD2     C12902   0.906   2.358   0.162 -0.1870  0.9717  0.2424
  880MPD2    C112903   0.868   2.347   0.294 -0.1783  0.3261  0.3163
  880MPD2    C212904   0.929   2.253   0.373  0.0229 -0.1262 -0.0524
  880MPD2    C312905   1.026   2.166   0.326  0.2508  0.0972  0.2367
  880MPD2    C412906   1.055   2.170   0.187  0.1051 -0.4911 -0.4595
  880MPD2    C512907   0.988   2.258   0.112  0.1658  0.3508 -0.0648
  880MPD2     H12908   0.902   2.244   0.477  0.7090  2.2111  0.3300
  880MPD2    H112909   1.134   2.110   0.141  0.0246  1.0012 -2.5407
  880MPD2    H212910   0.859   2.417   0.084 -0.2796 -1.5907 -1.6689
  880MPD2    H312911   1.007   2.262   0.005  2.8629  0.0373  0.4110
  880MPD2     N12912   1.079   2.075   0.421 -0.0787  0.1853  0.4115
  880MPD2    H512913   1.070   2.114   0.515 -2.3795  2.0325 -0.5793
  880MPD2    N112914   0.775   2.443   0.349  0.3017  0.1658  0.2292
  880MPD2    H712915   0.732   2.507   0.283  1.8106  0.9128 -0.0510
  881MPD2     C12916   0.251   3.141  17.644 -0.2582 -0.4395 -0.6464
  881MPD2    C112917   0.312   3.025  17.623  0.1677 -0.3263  0.9078
  881MPD2    C212918   0.360   2.944   0.047 -0.8154 -0.3079  0.0256
  881MPD2    C312919   0.373   3.001   0.174  0.4515  0.0391 -0.1891
  881MPD2    C412920   0.334   3.132   0.195 -0.8765  0.8974 -0.2059
  881MPD2    C512921   0.272   3.195   0.091 -0.3609  0.1597  0.1429
  881MPD2     H12922   0.383   2.839   0.032  2.0824  0.5004 -1.0132
  881MPD2    H112923   0.349   3.179   0.292 -0.6844 -0.3625  0.3791
  881MPD2    H212924   0.214   3.196  17.557 -1.1318 -1.7337 -1.0856
  881MPD2    H312925   0.244   3.300   0.100  0.7287  0.5446 -0.9018
  881MPD2     N12926   0.416   2.916   0.287 -0.2671  0.1862 -0.0838
  881MPD2    H512927   0.428   2.959   0.378 -0.3480 -0.1216  0.0712
  881MPD2    N112928   0.291   2.963  17.498 -0.4093  0.6482  0.7038
  881MPD2    H712929   0.248   3.021  17.426 -2.2324 -0.1637  1.1386
  882MPD2     C12930   3.308   0.106  14.056  0.6692  0.5331 -0.5149
  882MPD2    C112931   3.236   0.174  14.151  0.0331 -0.5685 -0.0103
  882MPD2    C212932   3.101   0.177  14.140 -0.2478  0.0398  0.0859
  882MPD2    C312933   3.036   0.095  14.046 -0.5836  0.5817 -0.7143
  882MPD2    C412934   3.109   0.017  13.956 -0.5211  0.2587 -0.1023
  882MPD2    C512935   3.244   0.025  13.965 -0.4217  0.5394 -0.2988
  882MPD2     H12936   3.049   0.234  14.216 -0.1313 -1.2168  1.1060
  882MPD2    H112937   3.064   4.676  13.878 -1.5348  2.2883 -1.1020
  882MPD2    H212938   3.415   0.091  14.065  0.3365 -3.2107 -2.9821
  882MPD2    H312939   3.300   4.689  13.891  0.7284  0.8378  0.3430
  882MPD2     N12940   2.895   0.081  14.049 -0.0662 -0.2520  0.0018
  882MPD2    H512941   2.858   0.016  13.981  0.4406  0.8650 -1.3444
  882MPD2    N112942   3.305   0.247  14.262 -0.1395 -0.2631 -0.0061
  882MPD2    H712943   3.403   0.224  14.272 -0.9207 -4.3705 -1.4812
  883MPD2     C12944   0.458   4.654  16.123 -0.0600 -0.0702 -0.0747
  883MPD2    C112945   0.536   0.009  16.034 -0.3936 -0.4867 -0.6187
  883MPD2    C212946   0.670   0.019  16.065  0.0385  0.3489  0.0835
  883MPD2    C312947   0.726   4.677  16.172  0.0516 -0.6403 -0.4016
  883MPD2    C412948   0.654   4.595  16.249  0.7337 -0.2726 -0.2428
  883MPD2    C512949   0.519   4.583  16.232 -0.4198 -0.6045 -0.6358
  883MPD2     H12950   0.735   0.085  16.008 -0.3303  0.1180 -0.6021
  883MPD2    H112951   0.691   4.546  16.338  2.9309 -1.0724 -1.5995
  883MPD2    H212952   0.350   4.650  16.117 -0.1849  1.7382  0.9052
  883MPD2    H312953   0.453   4.522  16.292 -1.1623  2.8798  2.1175
  883MPD2     N12954   0.871   4.688  16.200 -0.0249  0.1357 -0.2160
  883MPD2    H512955   0.925   0.034  16.145 -0.4043 -0.6374 -1.5072
  883MPD2    N112956   0.493   0.066  15.912 -0.2520 -0.7501 -0.0435
  883MPD2    H712957   0.556   0.125  15.859 -0.7784  1.6193  1.9270
  884MPD2     C12958   2.268   0.591  15.384  0.4363  0.9461  0.2456
  884MPD2    C112959   2.256   0.712  15.321 -0.1696 -0.8291  0.3864
  884MPD2    C212960   2.137   0.778  15.308  0.2734 -0.2981  0.3567
  884MPD2    C312961   2.027   0.720  15.355  0.1940 -0.2357  0.3168
  884MPD2    C412962   2.032   0.591  15.403  0.1915  0.5749  0.0752
  884MPD2    C512963   2.152   0.529  15.419 -0.6599  0.7530 -0.4801
  884MPD2     H12964   2.130   0.877  15.265 -0.6542  0.1072  1.4347
  884MPD2    H112965   1.944   0.542  15.443  1.4702 -2.1230 -0.4554
  884MPD2    H212966   2.363   0.544  15.403  0.1488 -0.3764 -1.6385
  884MPD2    H312967   2.147   0.428  15.459  2.5144  0.9020  0.2946
  884MPD2     N12968   1.907   0.800  15.353  0.1696  0.1753  0.6070
  884MPD2    H512969   1.915   0.893  15.314  3.4936 -0.0202  0.8196
  884MPD2    N112970   2.374   0.784  15.269  0.4459 -0.0031 -0.1576
  884MPD2    H712971   2.349   0.877  15.237 -1.2881 -0.9612 -1.5831
  885MPD2     C12972   0.484   0.468  17.679 -0.1815  0.3744  0.1153
  885MPD2    C112973   0.505   0.584   0.065 -0.1916  0.3385  0.2884
  885MPD2    C212974   0.481   0.706  17.679 -0.2533 -0.0294  0.0173
  885MPD2    C312975   0.440   0.699  17.549 -0.0835 -0.3800  0.2561
  885MPD2    C412976   0.431   0.580  17.473  0.1078 -0.2025 -0.1579
  885MPD2    C512977   0.449   0.463  17.547  0.4475 -0.0416  0.6759
  885MPD2     H12978   0.485   0.803   0.044 -0.7410  0.9155 -1.9029
  885MPD2    H112979   0.417   0.568  17.366 -1.9428  0.3689  0.0462
  885MPD2    H212980   0.495   0.375   0.051  0.0758  0.7733  0.7397
  885MPD2    H312981   0.440   0.370  17.491 -1.6652  0.7671 -0.3120
  885MPD2     N12982   0.427   0.828  17.494  0.2070  0.1894  0.2309
  885MPD2    H512983   0.469   0.904  17.545 -0.9665  0.2135  1.1749
  885MPD2    N112984   0.546   0.576   0.202 -0.2869 -0.3176  0.3387
  885MPD2    H712985   0.544   0.484   0.246 -0.0811 -0.2412  0.5066
  886MPD2     C12986   1.701   4.262  15.409  0.1975  0.9428 -0.3635
  886MPD2    C112987   1.780   4.202  15.317  0.0074  0.2990  0.3904
  886MPD2    C212988   1.808   4.261  15.197  0.5450 -0.4162  0.0252
  886MPD2    C312989   1.748   4.383  15.167 -0.2309  0.2665  0.1062
  886MPD2    C412990   1.663   4.445  15.254 -0.4835 -0.6252 -0.4676
  886MPD2    C512991   1.633   4.375  15.369  0.0745 -0.3198 -0.1831
  886MPD2     H12992   1.867   4.210  15.123 -1.1981  0.7781 -2.1786
  886MPD2    H112993   1.612   4.539  15.234 -1.7920 -1.1017  0.6228
  886MPD2    H212994   1.672   4.217  15.503 -1.6234 -1.1647 -1.9154
  886MPD2    H312995   1.563   4.412  15.443 -1.5499 -2.4655 -0.6490
  886MPD2     N12996   1.800   4.474  15.069 -0.7993  0.1999  0.0305
  886MPD2    H512997   1.786   4.574  15.076  0.6386  0.4814 -1.1547
  886MPD2    N112998   1.836   4.077  15.342 -0.2164  0.4739 -0.5603
  886MPD2    H712999   1.901   4.049  15.270  0.9076 -3.8186  2.0907
  887MPD2     C13000   2.515   3.883  15.415 -0.6156  0.0561  0.3546
  887MPD2    C113001   2.401   3.952  15.453 -0.5014  0.4703 -0.5653
  887MPD2    C213002   2.411   4.067  15.532 -0.6947  0.5893 -1.1666
  887MPD2    C313003   2.539   4.101  15.586 -0.1822 -0.1794 -0.7832
  887MPD2    C413004   2.650   4.028  15.561 -0.4178  0.4118  0.1854
  887MPD2    C513005   2.630   3.917  15.468 -0.1282  0.3436 -0.3932
  887MPD2     H13006   2.320   4.123  15.549 -0.4988  0.2818  0.9162
  887MPD2    H113007   2.751   4.049  15.595 -0.2954 -0.0724  0.1119
  887MPD2    H213008   2.520   3.797  15.349  1.0052  0.9999 -0.7600
  887MPD2    H313009   2.720   3.861  15.444 -0.4837  0.1735 -1.3222
  887MPD2     N13010   2.526   4.211  15.676  0.2322  0.2650  0.3688
  887MPD2    H513011   2.433   4.239  15.705 -0.3811 -1.3421 -0.0452
  887MPD2    N113012   2.266   3.904  15.423 -0.0846 -0.3586 -0.2527
  887MPD2    H713013   2.193   3.973  15.441 -0.8518 -1.5113  1.0389
  888MPD2     C13014   4.233   4.345  14.908 -0.1227 -0.6046 -0.4369
  888MPD2    C113015   4.240   4.408  15.028 -0.1955 -0.2932 -0.7679
  888MPD2    C213016   4.280   4.540  15.029  0.5023 -0.6948 -0.4589
  888MPD2    C313017   4.308   4.612  14.918  0.1358  0.9718  0.6456
  888MPD2    C413018   4.292   4.547  14.795 -0.5957 -0.0126 -0.1764
  888MPD2    C513019   4.259   4.415  14.797 -0.9637  0.2238  0.8522
  888MPD2     H13020   4.272   4.592  15.124 -1.6312  0.0780 -1.0668
  888MPD2    H113021   4.296   4.600  14.701 -2.3545  0.2955 -0.0845
  888MPD2    H213022   4.211   4.240  14.896 -3.7229  0.2096 -0.7703
  888MPD2    H313023   4.239   4.371  14.700  2.3758  0.0112  0.2704
  888MPD2     N13024   4.346   0.020  14.936 -0.4545 -0.2071  0.0461
  888MPD2    H513025   4.337   0.047  15.034 -0.9881  1.6109 -0.5101
  888MPD2    N113026   4.198   4.352  15.155  0.3310  0.0862  0.0830
  888MPD2    H713027   4.223   4.405  15.238  0.3576 -0.0046  0.1325
  889MPD2     C13028   4.088   4.302  12.300 -0.4659 -0.0440 -0.0271
  889MPD2    C113029   4.045   4.248  12.415 -0.3937  0.3940 -0.5878
  889MPD2    C213030   3.954   4.317  12.488 -0.2355  0.0879  0.0752
  889MPD2    C313031   3.915   4.443  12.453  0.4417  0.7240  0.4996
  889MPD2    C413032   3.959   4.498  12.336 -0.0945  0.1140 -1.0761
  889MPD2    C513033   4.041   4.422  12.256  0.3997 -0.2739 -0.2966
  889MPD2     H13034   3.937   4.276  12.587  2.4377 -0.8347  0.1507
  889MPD2    H113035   3.929   4.598  12.304  2.0704  0.6421 -1.4529
  889MPD2    H213036   4.156   4.250  12.234 -2.3033 -1.2367 -0.9825
  889MPD2    H313037   4.060   4.457  12.156 -2.9426  0.2286 -0.7734
  889MPD2     N13038   3.831   4.510  12.545 -0.0153 -0.2299  0.0631
  889MPD2    H513039   3.792   4.456  12.621  1.6692 -0.7512  0.5533
  889MPD2    N113040   4.069   4.111  12.449 -0.1592  0.5988 -0.3903
  889MPD2    H713041   4.012   4.083  12.528 -1.4224  0.0293 -1.5060
  890MPD2     C13042   2.653   0.790  14.737  0.3084  0.1221 -0.3970
  890MPD2    C113043   2.775   0.840  14.763 -0.1121 -0.4066 -0.4529
  890MPD2    C213044   2.862   0.770  14.834 -0.0182 -0.2406 -0.2575
  890MPD2    C313045   2.827   0.649  14.890 -0.0701  0.2493  0.2624
  890MPD2    C413046   2.699   0.601  14.869 -0.6158 -0.0275 -0.1354
  890MPD2    C513047   2.613   0.672  14.796  1.1133  0.1626  0.3049
  890MPD2     H13048   2.962   0.807  14.854 -0.8490  1.6252  0.4532
  890MPD2    H113049   2.651   0.514  14.914  2.9337 -3.1953 -2.5026
  890MPD2    H213050   2.578   0.825  14.667 -0.3040  0.4124  0.4035
  890MPD2    H313051   2.516   0.633  14.770 -0.1639  1.2852  3.3996
  890MPD2     N13052   2.924   0.587  14.968  0.2500 -0.1021  0.2904
  890MPD2    H513053   3.016   0.624  14.949 -1.9541  3.3063 -3.5561
  890MPD2    N113054   2.812   0.962  14.694 -0.1924 -0.3815  0.2300
  890MPD2    H713055   2.739   0.994  14.632 -1.0408 -0.0503  1.4031
  891MPD2     C13056   1.111   3.982  16.311 -0.3926 -0.2997 -0.1513
  891MPD2    C113057   1.073   4.064  16.415 -0.4239  0.3957  0.1440
  891MPD2    C213058   1.161   4.080  16.519 -0.6982 -0.0857  1.3862
  891MPD2    C313059   1.276   4.012  16.534  0.0135 -0.0350 -0.1812
  891MPD2    C413060   1.308   3.916  16.438  1.3075  0.1890 -0.8012
  891MPD2    C513061   1.234   3.915  16.324 -0.0764  0.7251 -0.9215
  891MPD2     H13062   1.136   4.155  16.593  0.8136  1.2611  0.5365
  891MPD2    H113063   1.393   3.851  16.451 -0.7076 -2.0406  1.2957
  891MPD2    H213064   1.056   3.959  16.220 -2.4263 -0.6934  1.1837
  891MPD2    H313065   1.257   3.842  16.247  2.6354 -0.1442  0.7095
  891MPD2     N13066   1.364   4.040  16.635  0.0512  0.0026 -0.4224
  891MPD2    H513067   1.340   4.120  16.693  0.5605 -0.4799  0.4593
  891MPD2    N113068   0.948   4.128  16.406 -0.2910  0.5226 -0.3267
  891MPD2    H713069   0.892   4.112  16.323 -0.5381  1.5514 -0.3475
  892MPD2     C13070   2.351   0.406  14.760  0.5113  0.1127 -0.2484
  892MPD2    C113071   2.267   0.428  14.658  0.1595  0.2688  0.1944
  892MPD2    C213072   2.302   0.389  14.533 -0.6516  0.0116  0.0484
  892MPD2    C313073   2.427   0.334  14.510 -0.2582  0.1889  0.2151
  892MPD2    C413074   2.520   0.325  14.612 -0.1450 -0.0533 -0.6695
  892MPD2    C513075   2.476   0.355  14.731 -0.2026 -0.2288  0.9377
  892MPD2     H13076   2.232   0.389  14.451 -1.7497  0.2107  0.9808
  892MPD2    H113077   2.610   0.265  14.611  0.1560  0.3850  0.2606
  892MPD2    H213078   2.332   0.452  14.856 -3.0562  1.3444 -1.5352
  892MPD2    H313079   2.548   0.338  14.811  0.0026  3.2678  1.5232
  892MPD2     N13080   2.463   0.289  14.381  0.5695 -0.6557  0.1478
  892MPD2    H513081   2.560   0.265  14.361  0.9195  1.1557 -0.2514
  892MPD2    N113082   2.141   0.483  14.682  0.1992 -0.4833 -0.8452
  892MPD2    H713083   2.115   0.499  14.779  1.8575 -0.0958 -0.4648
  893MPD2     C13084   4.337   2.978   2.374 -0.6175 -0.0671  0.6318
  893MPD2    C113085   4.379   2.876   2.291 -0.4421  0.4985 -0.5766
  893MPD2    C213086   4.297   2.765   2.262 -0.5166 -0.5406 -0.2688
  893MPD2    C313087   4.176   2.747   2.321  0.5512  0.1819 -0.1728
  893MPD2    C413088   4.142   2.845   2.403 -0.5342  0.5227 -0.5260
  893MPD2    C513089   4.216   2.958   2.431  0.5340  0.5787  0.4453
  893MPD2     H13090   4.331   2.691   2.191  2.4171 -1.0137  1.6275
  893MPD2    H113091   4.044   2.839   2.449  0.2196 -1.6998  0.7822
  893MPD2    H213092   4.393   3.066   2.402 -0.4747  0.5063 -1.4957
  893MPD2    H313093   4.181   3.032   2.503  0.4200 -0.4265  1.4125
  893MPD2     N13094   4.088   2.644   2.297  0.6955  0.6412  0.3049
  893MPD2    H513095   4.009   2.638   2.361 -0.2254  0.9238 -0.7995
  893MPD2    N113096   4.512   2.897   2.243  0.2446 -0.2233 -0.2996
  893MPD2    H713097   4.556   2.988   2.255  0.5116  0.0187 -3.0354
  894MPD2     C13098   2.274   1.034   1.218  0.0927  0.1444 -0.0748
  894MPD2    C113099   2.344   1.104   1.311 -0.8209  0.5332 -0.1050
  894MPD2    C213100   2.376   1.239   1.288  0.3973 -0.4908 -0.0075
  894MPD2    C313101   2.358   1.293   1.160  0.3510  0.7000 -0.1490
  894MPD2    C413102   2.294   1.217   1.068 -0.2154 -0.0249  0.5494
  894MPD2    C513103   2.249   1.095   1.101  0.4589  0.3276  0.4425
  894MPD2     H13104   2.420   1.299   1.367  0.1367  0.9696 -0.9565
  894MPD2    H113105   2.277   1.245   0.965  0.6886  0.2477  0.4817
  894MPD2    H213106   2.249   0.930   1.237  1.4090  0.1105  1.4060
  894MPD2    H313107   2.201   1.044   1.019 -1.9281 -1.3520  2.8592
  894MPD2     N13108   2.392   1.428   1.140  0.3198 -0.0527  0.1075
  894MPD2    H513109   2.426   1.483   1.218  1.0749  0.6240 -0.7103
  894MPD2    N113110   2.362   1.055   1.446 -0.2252  0.1197  0.5726
  894MPD2    H713111   2.406   1.116   1.514 -0.6060  2.8009 -1.5781
  895MPD2     C13112   1.588   4.655  13.132  0.4370 -0.4729  0.1187
  895MPD2    C113113   1.502   4.571  13.061  0.6681  0.5077  0.0133
  895MPD2    C213114   1.520   4.434  13.075  0.1910 -0.8437  0.0362
  895MPD2    C313115   1.629   4.378  13.138 -0.0768 -0.4219  0.6552
  895MPD2    C413116   1.720   4.459  13.199 -0.5752  0.5392  0.2297
  895MPD2    C513117   1.688   4.594  13.199  1.0135 -0.2562 -0.4889
  895MPD2     H13118   1.455   4.370  13.018 -1.2348  0.8722 -0.2752
  895MPD2    H113119   1.799   4.427  13.265 -1.2302 -1.8842 -0.1556
  895MPD2    H213120   1.585   0.043  13.126  0.5210 -0.4852 -0.1592
  895MPD2    H313121   1.760   4.668  13.232  1.2261 -0.1782 -1.1202
  895MPD2     N13122   1.631   4.239  13.163  0.1595 -0.1247 -0.6562
  895MPD2    H513123   1.559   4.183  13.116  1.7030 -1.4596 -1.4266
  895MPD2    N113124   1.399   4.616  12.980  0.2013 -0.2544 -0.3327
  895MPD2    H713125   1.331   4.550  12.945  0.3653 -0.0768 -0.9858
  896MPD2     C13126   3.401   1.926   2.250  0.0930 -0.3480 -0.2114
  896MPD2    C113127   3.436   1.865   2.134  0.4209  0.1306  0.7163
  896MPD2    C213128   3.338   1.821   2.047 -0.2387  0.1580 -0.3534
  896MPD2    C313129   3.204   1.844   2.074  0.1000 -0.1156  0.3198
  896MPD2    C413130   3.168   1.904   2.191  0.6341  0.6171  0.1191
  896MPD2    C513131   3.269   1.953   2.274  0.0611 -0.4310  0.4551
  896MPD2     H13132   3.365   1.782   1.950 -1.7747 -0.6654 -0.4341
  896MPD2    H113133   3.063   1.920   2.215  0.4138  0.2719 -0.6114
  896MPD2    H213134   3.487   1.949   2.311  0.5848 -0.9725 -0.6671
  896MPD2    H313135   3.243   2.004   2.366 -0.4508  0.7189 -0.3350
  896MPD2     N13136   3.106   1.801   1.984 -0.6055 -0.2269 -0.5165
  896MPD2    H513137   3.147   1.752   1.905 -0.6270  2.6689 -2.3606
  896MPD2    N113138   3.573   1.849   2.105  0.3258  0.5598  0.2597
  896MPD2    H713139   3.637   1.882   2.176  1.4682 -2.7814  0.7766
  897MPD2     C13140   0.517   3.939  10.695  0.3805 -0.1591  0.0695
  897MPD2    C113141   0.452   4.008  10.595 -0.5339  0.1711 -0.1118
  897MPD2    C213142   0.325   4.053  10.623  0.4520 -0.4281 -0.2444
  897MPD2    C313143   0.261   4.032  10.744 -0.3206  0.4862 -0.2647
  897MPD2    C413144   0.335   3.975  10.842 -0.4017  0.1792  0.2829
  897MPD2    C513145   0.459   3.925  10.814 -0.0300  0.6426  0.5058
  897MPD2     H13146   0.275   4.103  10.540 -0.7162  0.8076  1.1909
  897MPD2    H113147   0.306   3.955  10.944  0.1219  1.6790  0.7216
  897MPD2    H213148   0.624   3.918  10.693  0.3012 -0.7262  1.5118
  897MPD2    H313149   0.514   3.885  10.899 -0.9487  1.2185  1.3649
  897MPD2     N13150   0.128   4.080  10.783 -0.2562 -0.1000  0.0364
  897MPD2    H513151   0.082   4.133  10.710  0.0135 -1.4199 -1.1152
  897MPD2    N113152   0.519   4.021  10.472  0.4755 -0.8957 -0.2857
  897MPD2    H713153   0.603   3.964  10.463  0.0487 -1.8432  1.7271
  898MPD2     C13154   2.123   4.434   0.188 -0.5140 -0.6823 -0.3461
  898MPD2    C113155   2.233   4.510   0.140  0.6384 -0.1432  0.3327
  898MPD2    C213156   2.204   4.631   0.082 -0.1248 -1.0895 -0.0287
  898MPD2    C313157   2.069   4.681   0.090 -0.2601  0.5531  0.2490
  898MPD2    C413158   1.969   4.615   0.153  0.1663  0.4444 -0.1989
  898MPD2    C513159   1.997   4.487   0.199 -0.1934 -0.0344 -0.3995
  898MPD2     H13160   2.283   4.686   0.032  0.5534 -1.9885  0.0592
  898MPD2    H113161   1.866   4.645   0.137  0.2115  0.4538 -0.4712
  898MPD2    H213162   2.140   4.342   0.243  2.0332  1.7550  2.9342
  898MPD2    H313163   1.919   4.430   0.248 -0.2942  1.3751  1.0938
  898MPD2     N13164   2.047   0.087   0.019  0.1679 -0.2114 -0.3942
  898MPD2    H513165   2.133   0.127  17.665  0.7138  1.0318  2.2273
  898MPD2    N113166   2.367   4.463   0.141  0.3050 -0.3748  0.0669
  898MPD2    H713167   2.438   4.521   0.098  0.6633 -1.4196 -0.7558
  899MPD2     C13168   3.174   0.315   0.207 -0.7400 -0.2434 -0.0665
  899MPD2    C113169   3.041   0.355   0.176 -0.6459 -0.3646 -0.1160
  899MPD2    C213170   2.935   0.331   0.261  0.2752 -0.5699 -0.0672
  899MPD2    C313171   2.962   0.266   0.379  1.5414  0.2058  0.6129
  899MPD2    C413172   3.091   0.215   0.404  0.3433  0.8473 -0.3495
  899MPD2    C513173   3.190   0.237   0.317 -0.6214 -0.2344 -0.3353
  899MPD2     H13174   2.837   0.367   0.233  0.8592  2.5288  1.9407
  899MPD2    H113175   3.110   0.162   0.496  1.2486  2.8394  0.6170
  899MPD2    H213176   3.252   0.329   0.132 -1.6914  0.5366 -0.9169
  899MPD2    H313177   3.287   0.197   0.345 -1.4983 -2.0878  0.0184
  899MPD2     N13178   2.866   0.234   0.479 -0.0140 -0.4338 -0.6306
  899MPD2    H513179   2.883   0.167   0.553 -3.0308 -1.7721 -1.1350
  899MPD2    N113180   3.021   0.428   0.057  0.0545 -0.4290 -0.4198
  899MPD2    H713181   3.108   0.449   0.010 -0.5817  0.1386 -1.3292
  900MPD2     C13182   2.432   2.460  12.528 -0.3267  0.9495  0.9250
  900MPD2    C113183   2.347   2.368  12.470  0.0879 -0.5858  0.2792
  900MPD2    C213184   2.269   2.405  12.368 -0.1257  0.5254 -0.6175
  900MPD2    C313185   2.279   2.530  12.315  0.5590  0.5040  0.3846
  900MPD2    C413186   2.371   2.624  12.369 -0.1017 -0.1201 -0.1003
  900MPD2    C513187   2.446   2.585  12.479  0.1481 -0.2321 -0.3689
  900MPD2     H13188   2.196   2.339  12.323  0.5435 -1.4629  1.2422
  900MPD2    H113189   2.388   2.727  12.337  1.0738 -0.5177 -0.7629
  900MPD2    H213190   2.497   2.427  12.608 -0.0493 -2.8476 -0.8750
  900MPD2    H313191   2.523   2.648  12.520 -0.2986 -0.7346  1.2743
  900MPD2     N13192   2.192   2.561  12.205  0.7822 -0.2887  0.0474
  900MPD2    H513193   2.118   2.492  12.190  0.5262 -0.1262  0.5729
  900MPD2    N113194   2.341   2.247  12.527 -0.6518  0.1715 -0.3985
  900MPD2    H713195   2.417   2.230  12.592  0.6865 -0.3319 -2.1089
  901MPD2     C13196   2.060   1.195  12.445 -0.6335 -0.2552 -0.1837
  901MPD2    C113197   2.193   1.218  12.428  0.4094  0.0812  1.0053
  901MPD2    C213198   2.248   1.343  12.444 -0.0287 -0.2809  0.2762
  901MPD2    C313199   2.166   1.449  12.478  0.2715 -0.0556  0.3361
  901MPD2    C413200   2.030   1.430  12.492  0.2415  0.0776 -1.0689
  901MPD2    C513201   1.977   1.304  12.479 -0.6133 -1.1992 -0.1241
  901MPD2     H13202   2.351   1.368  12.423 -0.0444 -0.9865 -0.6827
  901MPD2    H113203   1.963   1.512  12.514  0.3421 -0.0135 -0.4320
  901MPD2    H213204   2.026   1.093  12.430  1.3090 -0.6640 -1.7976
  901MPD2    H313205   1.871   1.284  12.497 -1.1149  1.6668  0.0253
  901MPD2     N13206   2.227   1.578  12.509 -0.1048  0.2440 -0.2369
  901MPD2    H513207   2.328   1.564  12.516 -0.0140 -0.1976 -2.3280
  901MPD2    N113208   2.270   1.105  12.386 -0.2681  0.3078 -0.0118
  901MPD2    H713209   2.223   1.016  12.394 -0.6218  0.5918  1.0841
  902MPD2     C13210   1.631   4.456  12.435 -0.2125 -0.8297 -0.3481
  902MPD2    C113211   1.649   4.581  12.392  0.2165 -0.4320 -0.3093
  902MPD2    C213212   1.718   4.593  12.278  0.4245 -0.0009  0.2124
  902MPD2    C313213   1.762   4.478  12.208 -0.1037  1.0863  0.1731
  902MPD2    C413214   1.742   4.349  12.259 -0.3222 -0.1360 -1.0211
  902MPD2    C513215   1.674   4.344  12.376  0.9579  0.7522  0.4073
  902MPD2     H13216   1.740   4.694  12.244 -0.1628  0.9320  2.6007
  902MPD2    H113217   1.795   4.262  12.223  0.6376  0.1782 -0.3555
  902MPD2    H213218   1.583   4.446  12.531  1.3221  2.2817  0.7163
  902MPD2    H313219   1.671   4.252  12.433  1.2886  2.4281  3.1446
  902MPD2     N13220   1.838   4.494  12.090  0.1642 -0.0193 -0.5212
  902MPD2    H513221   1.876   4.409  12.049  1.8210  0.2447  0.4463
  902MPD2    N113222   1.609   4.697  12.465  0.7811  0.1658 -0.0427
  902MPD2    H713223   1.638   0.069  12.432  0.7212 -0.0008 -0.5524
  903MPD2     C13224   1.927   0.022  11.327  1.1162 -0.0837 -0.3829
  903MPD2    C113225   1.894   0.091  11.443  0.6524  0.7112  0.2102
  903MPD2    C213226   1.785   0.175  11.442 -0.4619 -0.4574  0.0836
  903MPD2    C313227   1.718   0.208  11.322 -0.4401  0.4158  0.7940
  903MPD2    C413228   1.757   0.140  11.206 -0.2888 -0.4957  0.4049
  903MPD2    C513229   1.865   0.051  11.210 -0.3556 -1.1144  0.2219
  903MPD2     H13230   1.736   0.224  11.526  0.0817 -0.5597  0.4610
  903MPD2    H113231   1.703   0.168  11.116 -0.8206  1.1690  1.2543
  903MPD2    H213232   2.004   4.666  11.327  1.8103  0.6224 -0.7856
  903MPD2    H313233   1.911   4.715  11.130 -0.2397  0.1035 -0.5674
  903MPD2     N13234   1.605   0.292  11.315 -0.6101  0.0277  0.5899
  903MPD2    H513235   1.582   0.314  11.219 -1.0892 -1.0951  0.4433
  903MPD2    N113236   1.952   0.078  11.572 -0.6655  0.1644 -1.0636
  903MPD2    H713237   1.918   0.144  11.641 -2.5950 -1.2837 -0.6260
  904MPD2     C13238   1.063   4.199  14.149 -0.1080 -0.3141  0.6502
  904MPD2    C113239   1.051   4.225  14.011  0.0222  0.5256 -0.6167
  904MPD2    C213240   1.158   4.206  13.925  0.0155 -0.3942 -0.3961
  904MPD2    C313241   1.278   4.171  13.983  0.2403  0.5737 -0.4810
  904MPD2    C413242   1.284   4.135  14.122  0.6524  0.0162  0.4903
  904MPD2    C513243   1.176   4.147  14.200 -0.4874 -0.7518 -0.5334
  904MPD2     H13244   1.161   4.222  13.818  1.1731 -0.5699 -0.3914
  904MPD2    H113245   1.376   4.094  14.164  0.1058 -0.9779  0.7206
  904MPD2    H213246   0.974   4.213  14.208 -1.6457 -1.9572 -1.2802
  904MPD2    H313247   1.179   4.120  14.306  2.1977 -2.1942 -0.9529
  904MPD2     N13248   1.388   4.171  13.894 -0.5711  0.2638 -0.1481
  904MPD2    H513249   1.370   4.206  13.801  2.2078 -2.4107 -1.6632
  904MPD2    N113250   0.934   4.273  13.955  0.8179  0.0092 -1.2881
  904MPD2    H713251   0.957   4.306  13.862  2.9656  2.3355  0.0610
  905MPD2     C13252   0.806   4.161  13.242  0.5674 -0.2978  0.5215
  905MPD2    C113253   0.865   4.188  13.371  0.2369  0.1567  0.1192
  905MPD2    C213254   0.995   4.156  13.392 -0.3864 -0.6905  0.3869
  905MPD2    C313255   1.076   4.107  13.290  0.2211 -0.1466  0.9333
  905MPD2    C413256   1.020   4.090  13.165  0.0254 -0.5519  0.2439
  905MPD2    C513257   0.887   4.112  13.145 -0.0607 -0.4655 -0.0965
  905MPD2     H13258   1.050   4.183  13.482  1.7672 -3.4839 -0.0857
  905MPD2    H113259   1.078   4.051  13.082  0.5713 -0.5081  0.6071
  905MPD2    H213260   0.704   4.189  13.216  0.5555  0.6796  1.6348
  905MPD2    H313261   0.852   4.102  13.043  2.1587 -4.9963 -0.4159
  905MPD2     N13262   1.217   4.073  13.310  0.1439  0.3773 -0.3454
  905MPD2    H513263   1.272   4.060  13.226 -0.3488 -0.0330 -0.6056
  905MPD2    N113264   0.781   4.249  13.471 -0.3819 -0.2997  0.3439
  905MPD2    H713265   0.685   4.274  13.450 -0.2479 -1.7933 -1.9345
  906MPD2     C13266   3.536   4.316  11.345 -0.2622  0.2459 -0.4392
  906MPD2    C113267   3.530   4.214  11.244 -0.6915 -0.1972 -0.5475
  906MPD2    C213268   3.462   4.095  11.277 -0.8070  0.3187 -0.4345
  906MPD2    C313269   3.399   4.084  11.401  0.3634 -0.0432 -0.0917
  906MPD2    C413270   3.397   4.190  11.489 -0.1862  0.4831  0.7798
  906MPD2    C513271   3.467   4.301  11.459 -0.1546 -0.3048 -0.7031
  906MPD2     H13272   3.459   4.011  11.209  2.7995 -0.6690  0.6452
  906MPD2    H113273   3.344   4.184  11.583 -1.1406  2.1631  0.3554
  906MPD2    H213274   3.595   4.406  11.334  0.7717 -0.3010  0.6100
  906MPD2    H313275   3.471   4.385  11.528  0.1921  0.4611 -1.6610
  906MPD2     N13276   3.315   3.974  11.415  0.1450 -0.8336  0.1076
  906MPD2    H513277   3.324   3.909  11.338  2.7093 -0.4133  0.0675
  906MPD2    N113278   3.596   4.217  11.120 -0.1352 -0.3745  0.5208
  906MPD2    H713279   3.591   4.133  11.064  0.0925 -1.0484  1.5121
  907MPD2     C13280   2.518   2.619  15.419 -1.0225  0.0245 -0.5691
  907MPD2    C113281   2.513   2.485  15.388  0.3092 -0.2086  0.2448
  907MPD2    C213282   2.592   2.407  15.470 -0.0989  0.4975  1.0857
  907MPD2    C313283   2.665   2.456  15.576 -0.2379 -0.0522 -0.4997
  907MPD2    C413284   2.673   2.591  15.595  0.0544  0.1831  0.1824
  907MPD2    C513285   2.594   2.674  15.518  0.7508 -0.6873 -0.4556
  907MPD2     H13286   2.579   2.300  15.453  3.4033  0.0574  1.1004
  907MPD2    H113287   2.738   2.636  15.668 -0.2485 -0.6531  0.9791
  907MPD2    H213288   2.460   2.690  15.360  1.6503  2.7263  0.0665
  907MPD2    H313289   2.591   2.782  15.528  1.4800 -0.5308 -2.0027
  907MPD2     N13290   2.746   2.362  15.641 -0.0107  0.1366 -0.2599
  907MPD2    H513291   2.740   2.265  15.610 -0.2213  0.4542 -1.1905
  907MPD2    N113292   2.434   2.428  15.284 -0.6456 -0.0420 -0.7536
  907MPD2    H713293   2.424   2.327  15.282  0.6542 -0.2065  1.2064
  908MPD2     C13294   0.266   4.437   9.623 -0.2646  0.1164 -0.0196
  908MPD2    C113295   0.274   4.300   9.603 -0.4861 -0.2415 -0.4830
  908MPD2    C213296   0.364   4.231   9.687 -0.6507  0.0161 -0.2484
  908MPD2    C313297   0.438   4.290   9.784 -0.4094  0.0998 -0.1549
  908MPD2    C413298   0.435   4.429   9.789 -0.1883  0.3373 -0.2079
  908MPD2    C513299   0.341   4.494   9.717  0.1211  0.7680  0.0094
  908MPD2     H13300   0.362   4.123   9.678  0.9853 -0.1321  1.2479
  908MPD2    H113301   0.495   4.489   9.857  0.5002 -0.9819  0.3626
  908MPD2    H213302   0.201   4.507   9.572  1.8273 -0.2300 -3.1936
  908MPD2    H313303   0.324   4.600   9.727  0.7159  0.8195  0.4774
  908MPD2     N13304   0.521   4.219   9.868  0.0078 -0.4392  0.3802
  908MPD2    H513305   0.510   4.118   9.871  0.5382 -0.5892 -2.7719
  908MPD2    N113306   0.206   4.249   9.489  0.3052 -0.2074 -0.7337
  908MPD2    H713307   0.152   4.322   9.443 -0.1617  2.5462  4.2105
  909MPD2     C13308   0.641   1.993  11.585  0.2367 -0.0522  0.3654
  909MPD2    C113309   0.607   2.120  11.554 -0.0999 -0.1692 -0.3688
  909MPD2    C213310   0.549   2.194  11.649  0.4413  0.3660 -0.0878
  909MPD2    C313311   0.505   2.155  11.765  0.3253 -0.6107 -0.1317
  909MPD2    C413312   0.534   2.022  11.797 -0.1282 -0.8505 -0.3501
  909MPD2    C513313   0.598   1.946  11.707 -0.0360  0.4109  0.3753
  909MPD2     H13314   0.531   2.299  11.629  0.2025  0.2840 -0.3222
  909MPD2    H113315   0.503   1.972  11.888 -4.4148  1.3694 -0.5524
  909MPD2    H213316   0.703   1.924  11.528 -0.4703 -1.0367  0.8005
  909MPD2    H313317   0.638   1.851  11.742 -0.5331 -0.4751 -1.4344
  909MPD2     N13318   0.435   2.237  11.851  0.3125  0.2618  0.0811
  909MPD2    H513319   0.421   2.332  11.820  0.4882 -0.1704 -1.3536
  909MPD2    N113320   0.637   2.182  11.432  0.2874 -0.4912  0.3897
  909MPD2    H713321   0.621   2.283  11.429 -0.7286 -0.6229  1.2333
  910MPD2     C13322   1.095   3.407  15.708 -0.3425  0.1331  0.2218
  910MPD2    C113323   1.204   3.395  15.620 -0.2446  0.2922 -0.7651
  910MPD2    C213324   1.187   3.428  15.487  0.0352 -0.0650 -0.4912
  910MPD2    C313325   1.062   3.450  15.433  0.0022 -0.4954 -0.4295
  910MPD2    C413326   0.954   3.446  15.516 -0.7763 -0.0095  0.0608
  910MPD2    C513327   0.971   3.419  15.652  0.1116  0.2290  0.3921
  910MPD2     H13328   1.280   3.421  15.432  0.2794  0.8773 -0.1913
  910MPD2    H113329   0.853   3.470  15.485  0.6225  1.7946 -3.1329
  910MPD2    H213330   1.096   3.397  15.816  2.5244 -2.8970 -0.0931
  910MPD2    H313331   0.884   3.432  15.716  0.0818  0.1166  0.3748
  910MPD2     N13332   1.037   3.477  15.293  0.4744 -0.3492 -0.1547
  910MPD2    H513333   0.939   3.494  15.270  0.3491 -1.5565 -0.5081
  910MPD2    N113334   1.326   3.354  15.669  0.3673 -0.4278  0.0805
  910MPD2    H713335   1.401   3.376  15.604 -0.7676  0.6219 -0.8747
  911MPD2     C13336   4.011   3.626  16.105 -0.4630  0.1111 -0.3522
  911MPD2    C113337   4.070   3.723  16.184 -0.3987 -0.2511 -0.2899
  911MPD2    C213338   3.998   3.839  16.207  0.4407  0.6934 -0.2907
  911MPD2    C313339   3.871   3.846  16.159  0.3826 -0.0202  0.7510
  911MPD2    C413340   3.813   3.743  16.094 -0.0970  0.5336  0.3495
  911MPD2    C513341   3.879   3.634  16.063 -0.0046  0.2492  0.4038
  911MPD2     H13342   4.043   3.919  16.264 -3.2842  0.8314  2.4930
  911MPD2    H113343   3.716   3.748  16.045 -0.2257  0.8438  0.6290
  911MPD2    H213344   4.067   3.541  16.070  0.9839 -0.6301  3.6897
  911MPD2    H313345   3.834   3.553  16.006  1.2135  0.7197 -1.2214
  911MPD2     N13346   3.788   3.953  16.188  0.0343 -0.0496 -0.1199
  911MPD2    H513347   3.690   3.945  16.164  0.0901  0.2184 -0.4478
  911MPD2    N113348   4.203   3.695  16.228  0.4949  0.3206 -0.4307
  911MPD2    H713349   4.257   3.619  16.188  1.8045 -0.6689  3.2316
  912MPD2     C13350   3.482   3.721  15.818  0.4580 -0.6030  0.0850
  912MPD2    C113351   3.468   3.759  15.954 -0.1494  0.2404 -0.5603
  912MPD2    C213352   3.486   3.654  16.049  1.0050 -0.3150  0.6093
  912MPD2    C313353   3.517   3.527  16.008 -0.4431 -0.3488  0.2015
  912MPD2    C413354   3.534   3.492  15.876  0.4961 -0.2067 -0.2795
  912MPD2    C513355   3.519   3.595  15.788 -0.3726 -0.7160  0.4677
  912MPD2     H13356   3.489   3.671  16.156 -0.4802 -0.5684  0.6901
  912MPD2    H113357   3.548   3.391  15.839  1.7707 -0.4990  1.0132
  912MPD2    H213358   3.456   3.796  15.743  2.4001  1.4598  1.4729
  912MPD2    H313359   3.512   3.569  15.683  1.4876 -1.0532  0.4317
  912MPD2     N13360   3.542   3.439  16.111 -0.3313 -0.4849 -0.1717
  912MPD2    H513361   3.542   3.477  16.205 -0.0220 -1.7148  0.3267
  912MPD2    N113362   3.441   3.894  15.993 -0.2360 -0.1672 -0.1281
  912MPD2    H713363   3.457   3.971  15.928  1.6255 -0.0412  0.4906
  913MPD2     C13364   0.001   0.526  10.020  0.7645 -0.0922 -0.3943
  913MPD2    C113365   4.690   0.653   9.967 -0.1019 -0.0118  0.2025
  913MPD2    C213366   4.560   0.673   9.910  0.4320 -0.2086  0.4388
  913MPD2    C313367   4.473   0.565   9.906  0.2539  0.1279  0.1515
  913MPD2    C413368   4.507   0.447   9.972 -0.6748  0.3580 -0.2757
  913MPD2    C513369   4.628   0.431  10.030  0.4881  0.4709  0.3985
  913MPD2     H13370   4.541   0.768   9.860  1.7731 -0.4627 -0.5796
  913MPD2    H113371   4.439   0.363   9.976 -1.2892  0.9372  1.4442
  913MPD2    H213372   0.095   0.506  10.070  0.9518 -1.0600 -1.1369
  913MPD2    H313373   4.650   0.335  10.075  1.6363  1.0940  1.1498
  913MPD2     N13374   4.347   0.569   9.847 -0.2477 -0.1107  1.4449
  913MPD2    H513375   4.294   0.483   9.853 -1.0431  0.0834 -2.3789
  913MPD2    N113376   0.062   0.754   9.998  0.0876 -0.0310  0.3571
  913MPD2    H713377   0.151   0.733  10.041 -0.3941 -2.7575  0.0450
  914MPD2     C13378   3.161   1.017  11.912 -0.5628 -0.5139 -0.1363
  914MPD2    C113379   3.073   1.127  11.947  0.6686 -0.3728  0.4597
  914MPD2    C213380   2.973   1.108  12.039  0.0748 -0.2790 -0.0114
  914MPD2    C313381   2.951   0.987  12.102  0.1162  0.3483 -0.6316
  914MPD2    C413382   3.039   0.880  12.073 -0.0440 -0.3645 -0.4784
  914MPD2    C513383   3.140   0.897  11.980  0.0118 -0.0570 -0.2981
  914MPD2     H13384   2.898   1.185  12.054  1.2534  0.7061  0.7740
  914MPD2    H113385   3.032   0.785  12.124 -0.5879  1.2171  2.4338
  914MPD2    H213386   3.250   1.025  11.850  0.6006 -2.2603  1.3029
  914MPD2    H313387   3.205   0.811  11.968  0.8651  0.7425 -1.3858
  914MPD2     N13388   2.842   0.970  12.192  0.2005 -0.3169  0.2688
  914MPD2    H513389   2.794   1.056  12.216 -1.2220 -0.9119 -0.4702
  914MPD2    N113390   3.102   1.250  11.883  0.4272 -0.3129  0.4158
  914MPD2    H713391   3.182   1.246  11.822  0.0343  1.5362 -0.2222
  915MPD2     C13392   0.902   0.527  15.287 -0.9255  0.1911 -0.6822
  915MPD2    C113393   0.784   0.591  15.275  0.3141 -0.0172 -0.3593
  915MPD2    C213394   0.735   0.664  15.386 -0.1136 -0.0387 -0.6382
  915MPD2    C313395   0.802   0.668  15.505 -0.2537  0.5157  0.1563
  915MPD2    C413396   0.914   0.589  15.519  0.6028 -0.0469  0.4741
  915MPD2    C513397   0.965   0.521  15.411  0.7293 -0.0410  0.1149
  915MPD2     H13398   0.641   0.716  15.395  1.7400  2.9632  1.2689
  915MPD2    H113399   0.966   0.567  15.612  0.0698  1.7265  1.1838
  915MPD2    H213400   0.951   0.462  15.216  1.2250  0.1004  0.8827
  915MPD2    H313401   1.047   0.452  15.431  0.0389 -0.6855  0.7142
  915MPD2     N13402   0.734   0.729  15.613 -0.3303  0.5121  0.1038
  915MPD2    H513403   0.647   0.774  15.588 -1.6067 -0.8655  2.1190
  915MPD2    N113404   0.708   0.572  15.159 -0.0016  0.3805 -0.2989
  915MPD2    H713405   0.742   0.501  15.096 -0.5189 -1.7517  1.8104
  916MPD2     C13406   2.996   3.635  15.573  0.0982  0.4988  0.0830
  916MPD2    C113407   3.077   3.565  15.658  0.1635 -0.2606 -0.2159
  916MPD2    C213408   3.169   3.474  15.613 -0.0338  0.3995 -0.1435
  916MPD2    C313409   3.179   3.456  15.481  0.2102 -0.1822  0.2744
  916MPD2    C413410   3.089   3.513  15.395  0.0955  0.2676  0.1525
  916MPD2    C513411   3.001   3.598  15.442  0.1888  0.8011  0.3539
  916MPD2     H13412   3.238   3.425  15.681 -0.5098  0.2704  0.2470
  916MPD2    H113413   3.104   3.499  15.289 -0.5570  0.0106  0.0961
  916MPD2    H213414   2.922   3.708  15.605  2.0658  2.1378  0.8952
  916MPD2    H313415   2.944   3.653  15.368  0.8833 -0.6741 -1.2840
  916MPD2     N13416   3.267   3.357  15.449 -0.0587  0.0213 -0.1416
  916MPD2    H513417   3.298   3.300  15.527  0.7366 -1.0694 -1.2487
  916MPD2    N113418   3.056   3.586  15.800 -0.8199 -0.3207  0.4919
  916MPD2    H713419   2.996   3.666  15.821 -1.4046 -0.7497  0.4679
  917MPD2     C13420   4.155   1.838  11.174  0.1938  0.2725  0.7550
  917MPD2    C113421   4.081   1.907  11.271  0.3173 -0.0455  0.7793
  917MPD2    C213422   4.107   2.042  11.293  0.3130 -0.1100  0.0428
  917MPD2    C313423   4.183   2.108  11.197 -0.7125  0.3187 -0.0168
  917MPD2    C413424   4.258   2.033  11.103 -0.4837 -0.4532 -0.9100
  917MPD2    C513425   4.248   1.898  11.095 -0.0452 -0.0845  0.3427
  917MPD2     H13426   4.055   2.094  11.372  0.9526  0.1217  0.3133
  917MPD2    H113427   4.325   2.096  11.044 -2.8041  0.5138 -2.5225
  917MPD2    H213428   4.139   1.733  11.149 -1.2318  0.8703 -0.8312
  917MPD2    H313429   4.301   1.840  11.020 -0.3345  0.5193 -0.3263
  917MPD2     N13430   4.216   2.248  11.207 -0.0443  0.2378 -0.4671
  917MPD2    H513431   4.266   2.289  11.129  0.7990  0.0152 -0.0487
  917MPD2    N113432   3.992   1.830  11.353  0.5375  0.3001 -0.4950
  917MPD2    H713433   4.002   1.730  11.342  3.2066  0.5960 -0.6330
  918MPD2     C13434   3.944   2.288  12.094  0.4906 -0.0092 -0.6574
  918MPD2    C113435   3.999   2.162  12.112  0.4589  0.3217 -0.2322
  918MPD2    C213436   3.930   2.056  12.057 -0.2184  0.1798 -0.4909
  918MPD2    C313437   3.824   2.078  11.970  0.1603  0.2365 -0.1324
  918MPD2    C413438   3.770   2.203  11.966 -0.3526 -0.3150 -0.2680
  918MPD2    C513439   3.828   2.309  12.025  0.4850 -0.0467  0.1900
  918MPD2     H13440   3.968   1.958  12.082 -2.1401 -0.5415 -0.3946
  918MPD2    H113441   3.675   2.229  11.922  0.3975  2.0496 -0.4930
  918MPD2    H213442   3.992   2.374  12.140  0.2325  0.5085 -1.3409
  918MPD2    H313443   3.775   2.403  12.038 -1.4709 -1.7052  3.9389
  918MPD2     N13444   3.772   1.987  11.879 -0.0190  0.1039 -0.0522
  918MPD2    H513445   3.722   2.021  11.798  1.1439  0.8830 -0.4390
  918MPD2    N113446   4.116   2.129  12.190 -0.0805  0.4392  0.6285
  918MPD2    H713447   4.144   2.032  12.201  2.0562  1.3739  3.3601
  919MPD2     C13448   4.618   0.601  11.697 -0.0743  0.6805 -0.5253
  919MPD2    C113449   0.008   0.513  11.668  0.1681  0.4574 -0.8883
  919MPD2    C213450   0.076   0.537  11.549 -0.0983  0.1218 -0.0914
  919MPD2    C313451   0.039   0.643  11.463  0.4849 -0.6135 -0.4271
  919MPD2    C413452   4.653   0.726  11.498  0.2806 -0.4125 -0.2726
  919MPD2    C513453   4.581   0.704  11.617 -0.6987 -1.2388 -0.6011
  919MPD2     H13454   0.148   0.460  11.524 -2.2042 -2.0369  0.5237
  919MPD2    H113455   4.619   0.805  11.432 -0.7013 -0.9166 -0.3657
  919MPD2    H213456   4.563   0.592  11.791 -0.2265 -0.9381 -0.7616
  919MPD2    H313457   4.519   0.784  11.656 -0.0640 -0.5444 -1.0034
  919MPD2     N13458   0.108   0.674  11.341 -0.2814 -0.4752  0.4703
  919MPD2    H513459   0.074   0.751  11.286  1.9183  0.4855  0.4368
  919MPD2    N113460   0.044   0.404  11.751  0.6079  0.4131  0.0608
  919MPD2    H713461   0.119   0.343  11.720  0.1746  0.8285 -1.8124
  920MPD2     C13462   0.091   1.298  10.616 -0.1495 -0.3564 -0.6095
  920MPD2    C113463   0.073   1.173  10.566  0.3675  0.6170  0.5438
  920MPD2    C213464   0.115   1.060  10.638  0.9441 -0.2273 -0.5860
  920MPD2    C313465   0.177   1.076  10.758 -0.3211 -1.0821  0.2400
  920MPD2    C413466   0.189   1.208  10.803  0.4634 -0.0540  0.0008
  920MPD2    C513467   0.134   1.318  10.738 -0.2387 -0.5627  0.3498
  920MPD2     H13468   0.113   0.959  10.598  2.7720 -0.4305 -0.1569
  920MPD2    H113469   0.230   1.217  10.903 -1.4787  0.6960  0.7292
  920MPD2    H213470   0.058   1.390  10.570 -1.2829 -0.2971  0.3205
  920MPD2    H313471   0.138   1.417  10.782 -2.5449  0.3898 -1.6131
  920MPD2     N13472   0.197   0.960  10.834 -0.0432 -0.5581  0.2223
  920MPD2    H513473   0.177   0.873  10.786 -1.3005  0.3763 -0.9352
  920MPD2    N113474   0.023   1.143  10.434 -0.0027 -0.1800  0.6057
  920MPD2    H713475   0.001   1.045  10.419 -3.5685  0.6203  0.4632
  921MPD2     C13476   0.102   4.331  16.585 -0.5183  0.1617 -0.9596
  921MPD2    C113477   0.188   4.218  16.584  0.5498 -0.1754 -0.1294
  921MPD2    C213478   0.137   4.090  16.559 -0.5120  0.0487  0.8888
  921MPD2    C313479   4.717   4.075  16.543  0.2374  0.2019 -0.0865
  921MPD2    C413480   4.636   4.187  16.546 -0.2728 -0.1409 -0.0462
  921MPD2    C513481   4.685   4.315  16.563 -0.3036  0.3597 -0.2215
  921MPD2     H13482   0.196   4.000  16.565 -0.4097  0.1021  0.6491
  921MPD2    H113483   4.529   4.185  16.525 -0.1908  2.9080 -0.8034
  921MPD2    H213484   0.144   4.430  16.598 -0.4140  0.0729 -0.6097
  921MPD2    H313485   4.612   4.395  16.560  0.5432  1.0940 -1.4932
  921MPD2     N13486   4.656   3.954  16.512  0.5264 -0.3644 -0.5409
  921MPD2    H513487   4.557   3.963  16.491  0.3031 -1.1158  0.1975
  921MPD2    N113488   0.324   4.240  16.610  0.3748 -0.2805  0.1687
  921MPD2    H713489   0.356   4.335  16.594  1.6869 -0.4004  2.1280
  922MPD2     C13490   1.564   2.100  16.820  0.4495 -0.3676  0.2334
  922MPD2    C113491   1.616   2.091  16.946 -0.4283 -0.9399  0.5546
  922MPD2    C213492   1.537   2.030  17.046 -0.2228  0.4338  0.0359
  922MPD2    C313493   1.407   2.000  17.020 -0.0342  0.2190 -0.5361
  922MPD2    C413494   1.357   2.010  16.896  0.3604 -0.4559  0.1892
  922MPD2    C513495   1.438   2.052  16.795 -0.3572  0.0227 -0.2864
  922MPD2     H13496   1.576   2.002  17.144  0.7019 -0.1716 -0.5089
  922MPD2    H113497   1.257   1.974  16.873  0.0948 -1.7663  3.3216
  922MPD2    H213498   1.631   2.123  16.739 -1.3459  0.7598 -0.9231
  922MPD2    H313499   1.415   2.049  16.689  1.1622 -0.9555 -0.5892
  922MPD2     N13500   1.324   1.941  17.119 -0.1274  0.0779  0.3351
  922MPD2    H513501   1.234   1.906  17.086  0.1575  1.0859 -1.4552
  922MPD2    N113502   1.755   2.111  16.973  0.6969 -0.1940 -0.0869
  922MPD2    H713503   1.798   2.076  17.058  0.3039  1.3281  0.7400
  923MPD2     C13504   3.175   3.628   9.331  0.1507 -0.4295 -0.1301
  923MPD2    C113505   3.248   3.740   9.335  0.3816 -0.5702  0.3554
  923MPD2    C213506   3.334   3.765   9.433 -0.7238 -0.0276  0.2191
  923MPD2    C313507   3.340   3.676   9.543 -0.1302 -0.0208  0.2918
  923MPD2    C413508   3.247   3.576   9.552  0.4037  0.0705 -0.3791
  923MPD2    C513509   3.164   3.550   9.447 -0.1717 -0.5142  0.3843
  923MPD2     H13510   3.396   3.854   9.439  1.2991 -1.4592  0.8410
  923MPD2    H113511   3.240   3.506   9.635 -1.5964 -2.1653 -2.4583
  923MPD2    H213512   3.119   3.610   9.241 -0.8426  1.7995  0.0525
  923MPD2    H313513   3.104   3.461   9.460  0.6474 -1.0966  0.2107
  923MPD2     N13514   3.428   3.702   9.652 -0.0225 -0.2318  0.4466
  923MPD2    H513515   3.429   3.626   9.720 -0.1796 -0.2981  0.3756
  923MPD2    N113516   3.226   3.824   9.222  0.4799  0.1474  0.4339
  923MPD2    H713517   3.149   3.800   9.161  0.8736 -0.3018  0.1202
  924MPD2     C13518   2.284   1.696  15.594  0.0618  1.0593  0.1549
  924MPD2    C113519   2.312   1.826  15.557 -0.1719  0.6414 -0.6153
  924MPD2    C213520   2.435   1.878  15.574  0.7269  0.3403  0.8025
  924MPD2    C313521   2.537   1.796  15.634 -0.0734  0.3779 -0.4662
  924MPD2    C413522   2.509   1.666  15.672  0.7779  0.4282 -0.4122
  924MPD2    C513523   2.382   1.613  15.641 -0.1466  0.3868 -0.4370
  924MPD2     H13524   2.456   1.983  15.556  0.9446  0.3341  1.0132
  924MPD2    H113525   2.584   1.613  15.730  0.0843  1.9956  1.8803
  924MPD2    H213526   2.182   1.661  15.603  1.1348 -1.9605  0.6879
  924MPD2    H313527   2.350   1.518  15.681  1.5660  0.6427  1.5377
  924MPD2     N13528   2.654   1.855  15.693  0.7920  0.4193 -0.2623
  924MPD2    H513529   2.726   1.798  15.737 -0.1264  0.1630  0.8970
  924MPD2    N113530   2.208   1.908  15.523  0.2868 -0.8868 -0.2153
  924MPD2    H713531   2.115   1.875  15.545 -0.8167  2.3664 -0.0131
  925MPD2     C13532   1.681   4.615  14.422  0.3025  0.1329  0.3902
  925MPD2    C113533   1.579   4.702  14.406  0.0479 -0.2111  1.0443
  925MPD2    C213534   1.488   4.700  14.505  0.1117  0.3451  0.6626
  925MPD2    C313535   1.474   4.594  14.593  0.0011 -0.3619  0.7831
  925MPD2    C413536   1.577   4.499  14.601 -0.1122  0.4138  0.4367
  925MPD2    C513537   1.684   4.524  14.523 -0.9967  0.2791 -0.0816
  925MPD2     H13538   1.410   0.056  14.503  0.7132  0.9616  0.3888
  925MPD2    H113539   1.557   4.414  14.666  0.8206 -2.4641 -3.0694
  925MPD2    H213540   1.756   4.597  14.345  1.0097 -0.7240  1.2878
  925MPD2    H313541   1.776   4.467  14.530 -0.5055  1.1536  0.5960
  925MPD2     N13542   1.361   4.577  14.673  0.1028  0.6279  0.0365
  925MPD2    H513543   1.339   4.484  14.706 -0.4084  0.3502 -1.0934
  925MPD2    N113544   1.561   0.078  14.302 -0.4107 -0.5404 -0.2115
  925MPD2    H713545   1.481   0.140  14.303  0.8824  1.1401 -0.3722
  926MPD2     C13546   4.301   3.076  13.105  0.1616 -0.3081 -0.2768
  926MPD2    C113547   4.345   3.202  13.073 -0.2421  0.9346  0.2292
  926MPD2    C213548   4.456   3.221  12.994 -0.5940  0.2183 -0.3664
  926MPD2    C313549   4.534   3.108  12.969  0.1838  0.2426  0.0037
  926MPD2    C413550   4.503   2.987  13.019 -0.3651  0.0367 -0.3398
  926MPD2    C513551   4.380   2.966  13.073  0.9850  0.4609 -0.1796
  926MPD2     H13552   4.484   3.317  12.952 -0.0584  0.5964  0.8470
  926MPD2    H113553   4.573   2.906  13.005  1.0846  1.4408 -1.2645
  926MPD2    H213554   4.206   3.048  13.151 -0.6385  2.6444 -0.1180
  926MPD2    H313555   4.355   2.865  13.104  0.6128  0.3860 -0.7288
  926MPD2     N13556   4.649   3.118  12.889 -0.0938 -0.5479 -0.2538
  926MPD2    H513557   0.002   3.047  12.887  0.0740 -0.3713 -0.3765
  926MPD2    N113558   4.278   3.317  13.130  0.1814  0.2312  0.3050
  926MPD2    H713559   4.336   3.400  13.120  4.3353 -2.7997 -0.6233
  927MPD2     C13560   0.333   0.725   0.749  0.5045  0.6891 -0.1823
  927MPD2    C113561   0.330   0.850   0.695 -0.0009  0.5963 -0.4236
  927MPD2    C213562   0.305   0.862   0.557  0.2726 -0.1950  0.6384
  927MPD2    C313563   0.275   0.746   0.478 -0.2106  0.9180  0.0418
  927MPD2    C413564   0.300   0.623   0.535 -0.2771 -0.1521  0.0253
  927MPD2    C513565   0.322   0.616   0.669 -0.0786 -0.7005 -0.2752
  927MPD2     H13566   0.297   0.963   0.519  0.8451  0.1557  1.4366
  927MPD2    H113567   0.276   0.528   0.487 -0.4989 -0.1434  0.1207
  927MPD2    H213568   0.325   0.707   0.856 -1.7887 -0.7936 -0.5997
  927MPD2    H313569   0.333   0.516   0.709 -0.8630 -1.2760 -1.4882
  927MPD2     N13570   0.230   0.764   0.347  0.3761 -0.2674 -0.1169
  927MPD2    H513571   0.206   0.858   0.316 -2.0828 -1.2756 -1.3131
  927MPD2    N113572   0.340   0.960   0.783 -0.1381  0.6664 -0.0925
  927MPD2    H713573   0.342   0.945   0.883  2.5783  1.0041 -0.1070
  928MPD2     C13574   3.925   4.559   1.469 -0.2146  0.5470  0.3729
  928MPD2    C113575   3.801   4.505   1.499  0.6442 -0.1109 -0.4284
  928MPD2    C213576   3.723   4.455   1.395  0.0690 -0.0763  0.1304
  928MPD2    C313577   3.773   4.462   1.269  0.0209 -0.1831 -0.4799
  928MPD2    C413578   3.905   4.493   1.247 -0.2476 -0.7662  0.0561
  928MPD2    C513579   3.976   4.546   1.347 -0.1432  0.5898  0.3988
  928MPD2     H13580   3.617   4.443   1.413 -0.3845 -1.9333 -3.8369
  928MPD2    H113581   3.965   4.490   1.156 -0.3592 -0.3873 -0.0303
  928MPD2    H213582   3.990   4.596   1.547 -0.3655  0.9081  0.3289
  928MPD2    H313583   4.083   4.560   1.336 -0.5066  3.1376  0.1194
  928MPD2     N13584   3.692   4.435   1.156 -0.1108  0.1694  0.0963
  928MPD2    H513585   3.734   4.445   1.064  1.2734 -1.6247  0.5356
  928MPD2    N113586   3.759   4.515   1.630  0.4887 -0.2538  0.1241
  928MPD2    H713587   3.835   4.553   1.685 -1.1684  1.6940  1.0584
  929MPD2     C13588   3.368   4.321   9.260 -0.1729 -0.4903 -0.6874
  929MPD2    C113589   3.238   4.274   9.301 -0.0178 -0.5263  0.8394
  929MPD2    C213590   3.122   4.332   9.249 -0.7146 -0.6283  0.9028
  929MPD2    C313591   3.132   4.437   9.155  1.2650 -0.7511 -0.1173
  929MPD2    C413592   3.256   4.472   9.103 -0.3133 -0.2512 -0.0718
  929MPD2    C513593   3.367   4.415   9.161 -0.0156  0.0275 -0.2258
  929MPD2     H13594   3.028   4.307   9.297 -0.0820 -0.6837  2.1217
  929MPD2    H113595   3.270   4.550   9.030  1.6444  0.0905  0.6624
  929MPD2    H213596   3.460   4.272   9.290  0.3127 -0.4970 -2.1932
  929MPD2    H313597   3.459   4.456   9.122 -0.1777  2.2073  1.6833
  929MPD2     N13598   3.023   4.510   9.117  0.0791  0.3955  0.5870
  929MPD2    H513599   3.042   4.587   9.054 -2.3119  0.0301 -0.6193
  929MPD2    N113600   3.230   4.164   9.401  0.6076  0.4183 -0.2728
  929MPD2    H713601   3.319   4.138   9.443  1.3250  3.0976 -0.1092
  930MPD2     C13602   4.107   1.455  14.143 -0.2124  0.5856 -0.1528
  930MPD2    C113603   4.120   1.559  14.055  0.1140 -0.5951  0.4594
  930MPD2    C213604   4.098   1.544  13.924  0.1076 -0.5194  0.9488
  930MPD2    C313605   4.085   1.415  13.872 -0.3301 -0.9540  0.2776
  930MPD2    C413606   4.094   1.309  13.966 -0.2395  0.6379 -0.7501
  930MPD2    C513607   4.095   1.326  14.107 -0.4969 -0.2380  0.3107
  930MPD2     H13608   4.101   1.628  13.854  1.2427 -0.7740  0.6937
  930MPD2    H113609   4.086   1.208  13.929  0.7264  0.6882 -1.1088
  930MPD2    H213610   4.093   1.476  14.249 -0.9465 -0.4011 -0.0560
  930MPD2    H313611   4.103   1.242  14.175  1.7005  0.2548  0.6605
  930MPD2     N13612   4.059   1.388  13.737 -0.0632  0.1998  0.3473
  930MPD2    H513613   4.076   1.294  13.702 -0.3052 -0.1126  1.0735
  930MPD2    N113614   4.162   1.688  14.094 -0.3856  0.2203  0.3960
  930MPD2    H713615   4.166   1.749  14.013  0.9985 -0.4329 -0.0267
  931MPD2     C13616   4.663   1.238   1.484 -0.0587  0.2961  0.2285
  931MPD2    C113617   0.024   1.151   1.427 -0.0244 -0.8495 -0.1116
  931MPD2    C213618   0.053   1.033   1.497  0.0352 -0.2233  0.8763
  931MPD2    C313619   4.698   0.999   1.611 -0.4523 -0.0759  1.1496
  931MPD2    C413620   4.616   1.094   1.665 -0.3637  0.4667 -0.3475
  931MPD2    C513621   4.600   1.213   1.599  1.2009  0.1839  0.1561
  931MPD2     H13622   0.120   0.965   1.445  0.5392  2.0129 -1.3776
  931MPD2    H113623   4.565   1.094   1.761  0.7637 -1.9715  0.2596
  931MPD2    H213624   4.644   1.332   1.432  0.5954 -0.7751 -1.9229
  931MPD2    H313625   4.531   1.284   1.645  0.0745 -0.0614 -1.1582
  931MPD2     N13626   4.701   0.871   1.672 -0.3062  0.1083 -0.0127
  931MPD2    H513627   4.652   0.859   1.760 -0.0504  0.8774  0.2335
  931MPD2    N113628   0.077   1.191   1.303  0.1298 -0.6834  0.5244
  931MPD2    H713629   0.033   1.276   1.268  0.4889 -0.8144 -0.2486
  932MPD2     C13630   1.559   0.141  10.584  0.0425  0.5371  0.2655
  932MPD2    C113631   1.689   0.175  10.635  0.0506 -0.4093 -0.2589
  932MPD2    C213632   1.769   0.072  10.686  0.1629 -0.1441  1.1875
  932MPD2    C313633   1.726   4.660  10.698  0.1664 -0.4063  0.6899
  932MPD2    C413634   1.595   4.634  10.647  0.5675 -0.4944  0.9808
  932MPD2    C513635   1.512   0.013  10.593  0.2709  0.6764  0.4352
  932MPD2     H13636   1.872   0.092  10.711  1.1414 -0.9509 -2.1602
  932MPD2    H113637   1.551   4.535  10.653 -0.4194 -0.0928  0.3695
  932MPD2    H213638   1.484   0.211  10.549  1.3346  1.8278  0.0743
  932MPD2    H313639   1.413   4.696  10.568  0.5580 -1.1138  1.9502
  932MPD2     N13640   1.794   4.559  10.764 -0.0301 -0.2604 -0.5965
  932MPD2    H513641   1.745   4.473  10.787  2.8903 -1.5096  0.9447
  932MPD2    N113642   1.740   0.304  10.656 -0.0489 -0.4038  0.1667
  932MPD2    H713643   1.828   0.313  10.706 -0.2004  0.2723  0.3147
  933MPD2     C13644   3.292   0.175   2.263  0.4283 -0.2336  0.6249
  933MPD2    C113645   3.270   0.062   2.187 -0.5175  0.7298 -0.5529
  933MPD2    C213646   3.139   0.041   2.152  0.8880 -0.3930 -0.3608
  933MPD2    C313647   3.040   0.130   2.193 -0.4372 -0.6398 -1.0333
  933MPD2    C413648   3.070   0.242   2.270 -0.7282  1.0721  1.2229
  933MPD2    C513649   3.200   0.262   2.306  0.1375  0.1594 -0.5189
  933MPD2     H13650   3.115   4.675   2.090  0.4489 -1.9678  1.9785
  933MPD2    H113651   3.006   0.326   2.296 -1.6291  0.5047  0.8307
  933MPD2    H213652   3.391   0.210   2.291  1.7316 -1.9856 -1.8340
  933MPD2    H313653   3.228   0.349   2.365 -1.8594  1.3455 -1.2855
  933MPD2     N13654   2.905   0.097   2.163  0.4283 -0.1287  0.3855
  933MPD2    H513655   2.887   0.019   2.100  1.0514  0.5931 -0.6866
  933MPD2    N113656   3.389   4.717   2.135  0.4000 -0.4238  0.2328
  933MPD2    H713657   3.481   0.011   2.176  1.1081 -2.0027 -0.8126
  934MPD2     C13658   3.221   1.701   2.522  0.5671  0.0755 -1.0835
  934MPD2    C113659   3.243   1.627   2.407  0.5049 -0.0620  0.3570
  934MPD2    C213660   3.130   1.593   2.331  0.0792  0.0178 -0.0726
  934MPD2    C313661   3.000   1.627   2.361 -0.1650 -0.8728  0.9183
  934MPD2    C413662   2.977   1.692   2.476  0.0002  0.3873  0.9283
  934MPD2    C513663   3.083   1.733   2.551 -0.5921 -0.3183 -0.1157
  934MPD2     H13664   3.151   1.541   2.239  1.6303 -0.3742  0.4957
  934MPD2    H113665   2.874   1.717   2.500 -0.0362  0.1379  1.0299
  934MPD2    H213666   3.307   1.743   2.572 -0.3106 -0.2636  0.6960
  934MPD2    H313667   3.050   1.781   2.643 -2.0251 -0.9802 -0.2845
  934MPD2     N13668   2.907   1.576   2.272 -0.5482  0.1826  0.1483
  934MPD2    H513669   2.946   1.505   2.211  0.5515  0.4477  0.5484
  934MPD2    N113670   3.370   1.591   2.360 -0.6084  0.1413  0.3726
  934MPD2    H713671   3.382   1.533   2.277 -2.8828  1.4389 -0.8694
  935MPD2     C13672   3.093   0.879   2.083 -0.8795  0.1933  0.4905
  935MPD2    C113673   3.016   0.919   1.981 -0.3996  0.5183  0.3675
  935MPD2    C213674   2.903   0.991   2.007  0.6636 -0.6095  0.6127
  935MPD2    C313675   2.855   1.025   2.132  0.2478 -0.5822 -0.8183
  935MPD2    C413676   2.932   0.977   2.234  0.0875  0.1467 -0.4210
  935MPD2    C513677   3.041   0.903   2.212  0.7908  0.4261 -0.1142
  935MPD2     H13678   2.841   1.031   1.927  0.0300  0.1254  1.4732
  935MPD2    H113679   2.915   1.001   2.338  0.3825 -0.9927 -0.1196
  935MPD2    H213680   3.182   0.817   2.078 -2.0373 -1.2674 -2.4035
  935MPD2    H313681   3.105   0.882   2.296  1.8386  3.2139 -0.2269
  935MPD2     N13682   2.760   1.122   2.160 -0.3310 -0.2460  0.2752
  935MPD2    H513683   2.762   1.169   2.250 -0.6770  0.4898 -0.1018
  935MPD2    N113684   3.055   0.916   1.847  0.3867 -0.0599 -0.3520
  935MPD2    H713685   3.018   0.990   1.787 -0.3090  0.8818  1.2212
  936MPD2     C13686   1.953   3.092  12.301 -0.1603  0.2106 -0.5744
  936MPD2    C113687   1.995   3.139  12.424  0.0337 -0.3446  0.5182
  936MPD2    C213688   2.127   3.127  12.456  0.4382  0.1759  0.2599
  936MPD2    C313689   2.219   3.073  12.367  0.2891  0.5491  0.0391
  936MPD2    C413690   2.180   3.032  12.242 -0.9853  0.0240  0.2624
  936MPD2    C513691   2.047   3.034  12.222  0.6792  0.2665 -0.3421
  936MPD2     H13692   2.170   3.167  12.547 -0.4274 -1.0087  1.1703
  936MPD2    H113693   2.249   2.990  12.170 -1.5934  0.3322 -0.4983
  936MPD2    H213694   1.850   3.084  12.269 -0.5391  0.9228  0.4980
  936MPD2    H313695   2.014   2.981  12.133  2.4702 -0.9680 -0.2606
  936MPD2     N13696   2.351   3.097  12.407 -0.1794 -0.1359 -0.2350
  936MPD2    H513697   2.353   3.147  12.495 -1.2195 -1.5221  0.5803
  936MPD2    N113698   1.908   3.197  12.523 -0.4183 -0.2641 -0.0151
  936MPD2    H713699   1.946   3.206  12.617 -0.7758  2.2399 -0.1093
  937MPD2     C13700   0.314   4.466  11.573  0.0186 -0.1358  0.4483
  937MPD2    C113701   0.282   4.599  11.555  0.3546 -0.0801 -0.4754
  937MPD2    C213702   0.365   4.670  11.470 -0.3016  1.3584  0.4180
  937MPD2    C313703   0.470   4.616  11.403  0.2238 -1.1273 -1.1642
  937MPD2    C413704   0.492   4.478  11.418  0.3070  0.1895 -0.1712
  937MPD2    C513705   0.420   4.405  11.510 -0.2190  0.0560 -0.1403
  937MPD2     H13706   0.351   0.057  11.460 -1.2161  1.2817  0.8246
  937MPD2    H113707   0.571   4.420  11.370  3.7672  3.2295  1.8381
  937MPD2    H213708   0.256   4.406  11.642  0.8979 -0.5264  0.8481
  937MPD2    H313709   0.436   4.303  11.541 -3.1048 -0.4755 -0.3964
  937MPD2     N13710   0.546   4.695  11.305 -0.1523  0.3911 -1.4495
  937MPD2    H513711   0.543   0.076  11.316 -2.3022  0.0747  0.8956
  937MPD2    N113712   0.206   4.680  11.647  0.0698  0.0978  0.8241
  937MPD2    H713713   0.213   0.061  11.639 -1.3503  0.2271  1.1619
  938MPD2     C13714   2.255   0.564   0.975  0.6892 -0.1010  0.4638
  938MPD2    C113715   2.343   0.626   1.065 -0.2169  0.3861  0.4713
  938MPD2    C213716   2.347   0.573   1.196  0.5951 -0.2943  0.0537
  938MPD2    C313717   2.276   0.460   1.240 -0.2793  0.1037  0.1988
  938MPD2    C413718   2.201   0.398   1.145  0.9842 -0.2326 -0.1069
  938MPD2    C513719   2.189   0.453   1.025  0.1833  0.7306  0.4783
  938MPD2     H13720   2.414   0.622   1.266 -0.9447  1.0706  0.5715
  938MPD2    H113721   2.149   0.304   1.160  0.8996  0.1900  2.3465
  938MPD2    H213722   2.242   0.594   0.872  0.2811 -0.9303  0.2682
  938MPD2    H313723   2.133   0.401   0.949  0.0276  1.2126  0.2652
  938MPD2     N13724   2.279   0.413   1.379  0.2757  0.1755 -0.3328
  938MPD2    H513725   2.210   0.342   1.402  2.0418 -0.7883  2.0251
  938MPD2    N113726   2.418   0.745   1.039  0.1702  0.0058 -0.5555
  938MPD2    H713727   2.496   0.770   1.099 -0.9690  0.8205  0.5858
  939MPD2     C13728   3.726   1.653   0.878 -0.2922 -0.4618  0.2868
  939MPD2    C113729   3.680   1.777   0.894  0.0750 -0.1531  0.4040
  939MPD2    C213730   3.775   1.887   0.868 -0.1428  0.0410  0.1043
  939MPD2    C313731   3.900   1.857   0.818 -0.0127 -0.2023  0.6791
  939MPD2    C413732   3.933   1.721   0.809 -0.6496 -0.5490  0.2532
  939MPD2    C513733   3.850   1.621   0.837  0.5897  0.1637  0.8509
  939MPD2     H13734   3.742   1.989   0.880 -1.6109 -0.3149 -0.7662
  939MPD2    H113735   4.035   1.693   0.784  0.3246  3.2010 -0.0414
  939MPD2    H213736   3.656   1.571   0.872 -0.1391 -0.4656 -1.3391
  939MPD2    H313737   3.877   1.518   0.817 -1.5403  0.1488 -1.9441
  939MPD2     N13738   4.000   1.957   0.805  0.0486 -0.7491 -0.4196
  939MPD2    H513739   3.970   2.050   0.831  0.0570 -0.4960 -1.2970
  939MPD2    N113740   3.547   1.793   0.933 -0.9949  0.0341  0.3158
  939MPD2    H713741   3.495   1.705   0.928  2.6956 -2.1923  1.5520
  940MPD2     C13742   2.749   3.441  13.186  0.0461 -0.6264 -0.0627
  940MPD2    C113743   2.724   3.308  13.197 -0.7343  0.6501  0.4098
  940MPD2    C213744   2.754   3.222  13.087 -0.3584 -0.7233  0.6707
  940MPD2    C313745   2.814   3.276  12.979 -0.1682  0.5003 -0.1015
  940MPD2    C413746   2.834   3.411  12.973 -0.0117 -0.6957 -0.0378
  940MPD2    C513747   2.785   3.492  13.069  0.9454 -0.2433 -0.2544
  940MPD2     H13748   2.719   3.120  13.082 -1.5133 -0.3407  0.8444
  940MPD2    H113749   2.882   3.458  12.887 -0.1788 -0.7457 -0.1571
  940MPD2    H213750   2.732   3.515  13.263 -1.8303  0.8256 -1.8521
  940MPD2    H313751   2.815   3.594  13.050  0.5291 -0.3635 -1.5592
  940MPD2     N13752   2.857   3.211  12.864 -0.6280  0.6602 -0.1550
  940MPD2    H513753   2.896   3.274  12.795 -1.4180  1.7294  0.3668
  940MPD2    N113754   2.655   3.256  13.308  0.0949  0.2624 -0.4998
  940MPD2    H713755   2.649   3.155  13.310 -1.1067  0.3487 -0.0187
  941MPD2     C13756   2.285   1.638   8.758 -0.0833  0.7972 -0.6215
  941MPD2    C113757   2.304   1.674   8.884  0.3760  0.4354  0.5029
  941MPD2    C213758   2.283   1.582   8.986  0.6785  0.4279 -0.2432
  941MPD2    C313759   2.248   1.448   8.952 -0.4268 -0.2841  0.1521
  941MPD2    C413760   2.235   1.413   8.821  0.9438  0.0570  0.0483
  941MPD2    C513761   2.252   1.506   8.726  0.3571 -0.0083  0.3987
  941MPD2     H13762   2.307   1.606   9.089 -1.6249 -2.4259  0.9674
  941MPD2    H113763   2.211   1.312   8.789 -1.2700  1.3016 -2.2601
  941MPD2    H213764   2.289   1.704   8.672 -0.9230 -0.0192 -1.3004
  941MPD2    H313765   2.243   1.478   8.622  1.3277  0.1645  0.2727
  941MPD2     N13766   2.238   1.337   9.039 -0.1953 -0.2307  0.0745
  941MPD2    H513767   2.216   1.248   8.995 -0.5917 -0.4362  0.6838
  941MPD2    N113768   2.367   1.795   8.911 -0.3932  0.2298 -0.0694
  941MPD2    H713769   2.406   1.807   9.004  2.5381  2.0376 -1.5633
  942MPD2     C13770   0.692   4.251   9.006 -0.0796  0.3019 -0.4350
  942MPD2    C113771   0.682   4.151   8.917 -0.2477 -0.1204  0.2760
  942MPD2    C213772   0.778   4.053   8.924  0.5490 -0.1015  0.4913
  942MPD2    C313773   0.877   4.050   9.024 -0.2995 -0.1314  0.3324
  942MPD2    C413774   0.882   4.157   9.117  0.2436  0.0411  0.5165
  942MPD2    C513775   0.785   4.256   9.110  0.9332 -0.0906 -0.3516
  942MPD2     H13776   0.763   3.974   8.851  0.7003 -1.0691  1.5082
  942MPD2    H113777   0.961   4.160   9.192  0.5893  0.2295  0.1460
  942MPD2    H213778   0.618   4.329   8.998 -0.3329  0.0117 -0.9670
  942MPD2    H313779   0.775   4.331   9.187  2.0883  1.5946 -1.8560
  942MPD2     N13780   0.976   3.949   9.030 -0.4525 -0.1191 -0.7573
  942MPD2    H513781   1.052   3.966   9.096 -0.6894 -1.5453 -0.1159
  942MPD2    N113782   0.580   4.144   8.816  0.0329 -0.0213 -0.2890
  942MPD2    H713783   0.579   4.056   8.767  0.0131 -0.5125  0.5995
  943MPD2     C13784   3.433   1.345   8.759 -0.1777 -0.2851 -0.4525
  943MPD2    C113785   3.515   1.458   8.783  0.1955  0.4262  0.2248
  943MPD2    C213786   3.490   1.574   8.709 -0.1733 -0.4259  0.8121
  943MPD2    C313787   3.389   1.571   8.610 -0.2419  0.1328  0.0989
  943MPD2    C413788   3.327   1.451   8.576  0.8490  0.0887 -0.6698
  943MPD2    C513789   3.341   1.341   8.653 -0.3887 -0.3755 -0.5031
  943MPD2     H13790   3.555   1.659   8.729 -0.9057 -0.2500  2.4168
  943MPD2    H113791   3.250   1.449   8.499 -1.1641 -0.4654  1.3797
  943MPD2    H213792   3.442   1.261   8.827  3.0561  0.0432 -0.4658
  943MPD2    H313793   3.281   1.253   8.639 -1.7826  0.2390  1.6263
  943MPD2     N13794   3.357   1.689   8.543 -0.0974  0.2574 -0.7199
  943MPD2    H513795   3.317   1.683   8.450  0.8096  1.2092 -1.1671
  943MPD2    N113796   3.585   1.455   8.903 -0.0671 -0.5512 -0.1335
  943MPD2    H713797   3.592   1.368   8.955 -1.0948 -1.8586 -2.1721
  944MPD2     C13798   0.910   1.287  11.315  0.6173 -0.3636  0.3182
  944MPD2    C113799   0.861   1.338  11.202 -0.2348  0.7262  0.1522
  944MPD2    C213800   0.749   1.423  11.210 -0.5468 -0.0073  0.2941
  944MPD2    C313801   0.704   1.463  11.338  0.2441  0.6031 -0.8342
  944MPD2    C413802   0.753   1.412  11.452  0.2619  0.2612  0.1913
  944MPD2    C513803   0.858   1.326  11.440  1.2065 -0.5349 -0.0090
  944MPD2     H13804   0.701   1.469  11.125  1.2893  2.1735  0.4292
  944MPD2    H113805   0.704   1.422  11.549 -1.3565 -1.4701 -0.4682
  944MPD2    H213806   0.993   1.218  11.301  2.0704  1.3051  0.5870
  944MPD2    H313807   0.907   1.283  11.527  2.0036 -0.8144 -0.5967
  944MPD2     N13808   0.601   1.564  11.336  0.5945 -0.0634  0.0243
  944MPD2    H513809   0.586   1.608  11.245 -2.4193  1.3066  1.1771
  944MPD2    N113810   0.923   1.293  11.079 -0.0918 -0.2646  0.0709
  944MPD2    H713811   0.996   1.225  11.096  1.4669  0.9474 -1.8927
    1TCq1    O113812   2.708   2.225  14.058 -0.4360  0.1658  0.2368
    1TCq1    C113813   2.726   2.157  14.174  0.2572  0.3335 -0.3385
    1TCq1    O213814   2.667   2.174  14.282  0.1466 -0.1982 -0.0545
    1TCq1    C213815   2.867   2.117  14.166 -0.1474  0.6031  0.0515
    1TCq1    C313816   2.890   2.020  14.073 -0.4719 -0.1820 -0.8209
    1TCq1    C413817   3.005   1.949  14.082 -0.4719  0.0831 -0.1092
    1TCq1    C513818   3.086   1.965  14.192  0.3250  0.1750  0.2546
    1TCq1    C613819   3.048   2.053  14.292  0.4799  0.5717  0.1757
    1TCq1    C713820   2.944   2.141  14.280  0.3494 -0.1438 -0.2647
    1TCq1    C813821   3.147   2.078  14.396  0.8007  0.1538 -0.4548
    1TCq1    O413822   3.207   1.982  14.439 -0.8128 -0.3230  0.1898
    1TCq1    C913823   3.062   1.876  13.966  0.4878  0.2339 -0.4200
    1TCq1    O513824   3.001   1.894  13.858  0.2422  0.4079  0.3468
    1TCq1    O613825   3.177   1.827  13.986  0.6877  0.1198  0.7074
    1TCq1    H113826   2.772   2.212  13.985  1.4546  0.6247  1.8163
    1TCq1    H213827   2.832   2.004  13.983 -1.8537 -0.0709  0.0336
    1TCq1    H313828   3.173   1.901  14.202  0.7500  0.2985 -2.7179
    1TCq1    H413829   2.922   2.218  14.353 -2.1825 -0.5691 -0.5492
    2MPD2     C13830   3.437   2.411  14.653  0.1358  0.4148  0.6985
    2MPD2    C113831   3.350   2.473  14.570 -0.0092 -0.4862  0.5413
    2MPD2    C213832   3.260   2.404  14.491  0.2089  0.7784 -0.1584
    2MPD2    C313833   3.255   2.269  14.488 -0.1728  0.2160 -0.2266
    2MPD2    C413834   3.347   2.198  14.572  0.0068  0.0389  0.0344
    2MPD2    C513835   3.433   2.271  14.653  0.5365 -0.3109  0.6115
    2MPD2     H13836   3.187   2.452  14.428 -0.5243  1.3321  1.1153
    2MPD2    H113837   3.358   2.090  14.562  1.6627  0.1347  0.6826
    2MPD2    H213838   3.517   2.461  14.707  0.9100 -0.2460  0.1729
    2MPD2    H313839   3.493   2.205  14.714  1.8257  0.6413  0.3742
    2MPD2     N13840   3.156   2.213  14.407 -0.0631 -0.3824  0.3726
    2MPD2    H513841   3.111   2.281  14.347  0.7615  0.5471  0.8080
    2MPD2    N113842   3.359   2.616  14.574 -0.2281  0.4317 -0.0860
    2MPD2    H713843   3.441   2.658  14.617 -0.4569  3.9873 -3.1310
    3TMC2    C113844   3.308   2.840  14.511 -0.3182 -0.8025  0.0162
    3TMC2    C213845   3.417   2.856  14.431  0.3697  0.7785  1.1930
    3TMC2    C313846   3.408   2.969  14.355 -0.2312  0.3635  0.8315
    3TMC2    C413847   3.197   2.915  14.510  0.3878  0.5245 -0.0554
    3TMC2    C513848   3.194   3.023  14.425 -0.1618  0.2502  0.5704
    3TMC2    C613849   3.304   3.059  14.352  0.1411  0.4046  0.2507
    3TMC2     C13850   3.264   2.702  14.518  0.1653  0.3533 -0.0971
    3TMC2     O13851   3.143   2.685  14.504  0.3229 -0.4083  0.1551
    3TMC2     H13852   3.485   2.776  14.405  0.3110  1.7725 -2.0418
    3TMC2    H113853   3.111   2.899  14.575  0.3257 -0.6574 -0.4204
    3TMC2    H213854   3.307   3.150  14.294  1.9266  0.7767  0.9171
    3TMC2    C713855   3.066   3.093  14.420  0.6460 -0.2370 -0.2318
    3TMC2    C813856   3.506   3.004  14.254  0.5568  0.0927 -0.5242
    3TMC2    O113857   3.001   3.092  14.522 -0.4198  0.4413  0.5256
    3TMC2    O213858   3.484   3.074  14.154  0.3579 -0.6883 -0.4332
    3TMC2    O513859   3.627   2.985  14.319  0.3427 -0.4034  0.0875
    3TMC2    H513860   3.627   2.963  14.415 -0.2487  0.6759  0.3406
    4MPD2     C13861   2.160   3.831  13.428 -0.3325  0.5572 -0.4275
    4MPD2    C113862   2.253   3.785  13.334 -0.6109  0.3604  0.3422
    4MPD2    C213863   2.376   3.739  13.374 -0.5030 -0.2387 -0.0225
    4MPD2    C313864   2.411   3.745  13.509 -0.3045  0.3139 -0.3351
    4MPD2    C413865   2.316   3.788  13.601  0.1796 -0.4459 -0.8948
    4MPD2    C513866   2.193   3.829  13.562  0.3471 -0.4234 -0.5831
    4MPD2     H13867   2.439   3.706  13.293  0.4260  3.5229 -0.8146
    4MPD2    H113868   2.333   3.780  13.708  0.0860 -0.0193 -0.8506
    4MPD2    H213869   2.060   3.849  13.389 -0.5575  0.7189  0.2199
    4MPD2    H313870   2.116   3.861  13.631  0.5182  0.0817 -0.6282
    4MPD2     N13871   2.539   3.693  13.535  0.9277  0.4325 -0.2450
    4MPD2    H513872   2.584   3.648  13.456  0.0862 -0.1530 -0.3887
    4MPD2    N113873   2.217   3.789  13.197 -0.3120 -0.1022 -0.0514
    4MPD2    H713874   2.120   3.811  13.178 -0.3634 -1.4882 -1.4517
    5TCq2    C113875   2.605   3.701  13.650 -0.0670 -0.1173  0.2359
    5TCq2    O213876   2.554   3.737  13.758  0.0141  0.1001 -0.0011
    5TCq2    C213877   2.724   3.630  13.651 -0.0324  0.3848 -0.1167
    5TCq2    C313878   2.815   3.632  13.547  0.2253 -0.1521 -0.2190
    5TCq2    C413879   2.941   3.576  13.561 -0.1034 -0.0567 -0.6821
    5TCq2    C513880   2.971   3.529  13.687 -0.3957  0.1627  0.5946
    5TCq2    C613881   2.877   3.515  13.784 -0.5164 -0.3620 -0.3108
    5TCq2    C713882   2.755   3.571  13.773  0.5442  0.1104 -0.4722
    5TCq2    C813883   2.915   3.460  13.910 -0.1077 -0.3670 -0.1981
    5TCq2    O413884   3.036   3.453  13.936  0.3829 -0.3409  0.6790
    5TCq2    C913885   3.044   3.570  13.459 -0.0829 -0.0641  0.5369
    5TCq2    O513886   3.161   3.542  13.496 -0.0138  0.0439 -0.2387
    5TCq2    O613887   3.024   3.617  13.342  1.0730  0.3411  0.0693
    5TCq2    H213888   2.789   3.679  13.453 -1.5589  1.2047  0.9492
    5TCq2    H313889   3.072   3.492  13.701 -0.0974  0.7587 -0.0129
    5TCq2    H413890   2.690   3.586  13.858  2.1715 -1.2049  1.0117
    6MPD1     C13891   2.081   0.573  11.984  0.1549  0.0705 -0.1716
    6MPD1    C113892   2.132   0.473  11.908  0.6637  0.6310  0.1057
    6MPD1    C213893   2.152   0.350  11.976  0.0559 -0.0262  0.4135
    6MPD1    C313894   2.106   0.326  12.106 -0.5744  0.3473  0.0151
    6MPD1    C413895   2.061   0.435  12.178  0.4437 -0.3147 -0.7393
    6MPD1    C513896   2.055   0.556  12.118 -0.0374 -0.6131 -0.4509
    6MPD1     H13897   2.194   0.269  11.916  0.7039  0.4277  0.2567
    6MPD1    H113898   2.036   0.432  12.284  1.6944  0.2759 -0.4239
    6MPD1    H213899   2.065   0.670  11.939  1.7528  0.8835  0.9890
    6MPD1    H313900   2.017   0.637  12.179  1.1610  0.4668 -1.1307
    6MPD1     N13901   2.124   0.198  12.168  0.7325  0.1833  0.0758
    6MPD1    H513902   2.077   0.185  12.257  2.3956 -2.1551  0.5985
    6MPD1    N113903   2.191   0.489  11.781 -0.1236 -0.7164 -0.2900
    6MPD1    H613904   2.214   0.403  11.733 -1.4416 -1.4445  0.3769
    6MPD1    H713905   2.121   0.530  11.719 -0.4192 -0.7957 -0.0148
    7MPD2     C13906   1.905   4.470  12.761  0.0506 -0.1490 -0.7185
    7MPD2    C113907   1.939   4.387  12.656 -0.6393 -0.1397  0.7602
    7MPD2    C213908   1.946   4.252  12.685  0.0453  0.0885 -0.2956
    7MPD2    C313909   1.928   4.196  12.812  0.3320  0.5206 -0.2178
    7MPD2    C413910   1.873   4.282  12.905 -0.1824  0.0093 -0.0130
    7MPD2    C513911   1.864   4.419  12.881  0.3518  0.0786  0.0161
    7MPD2     H13912   1.998   4.195  12.609  0.8152 -1.9373  1.7626
    7MPD2    H113913   1.855   4.247  13.006 -0.7799 -1.3266 -0.5710
    7MPD2    H213914   1.909   4.577  12.748 -0.6033 -0.0779 -0.3541
    7MPD2    H313915   1.831   4.478  12.965 -1.4260  1.2726 -1.5182
    7MPD2     N13916   1.953   4.060  12.844  0.0012 -0.2393 -0.6178
    7MPD2    H513917   1.913   4.027  12.931  0.1917 -0.6045 -0.6661
    7MPD2    N113918   1.992   4.434  12.531  0.7311  0.1066  0.3310
    7MPD2    H713919   2.011   4.356  12.468 -0.7568  1.0590 -1.2805
    8TMC3    C113920   2.057   3.842  12.811 -0.6547  0.4733  0.4176
    8TMC3    C213921   2.101   3.838  12.944  0.2861  0.0589 -0.1522
    8TMC3    C313922   2.227   3.781  12.963  0.1102  0.2341  0.1545
    8TMC3    C413923   2.120   3.775  12.701  0.0364 -0.8737 -0.1090
    8TMC3    C513924   2.247   3.726  12.727  0.9027  0.1189  0.8642
    8TMC3    C613925   2.302   3.732  12.852  0.4120  0.1672  0.1851
    8TMC3     C13926   2.027   3.972  12.763 -0.1134  0.1487 -0.0684
    8TMC3     O13927   2.078   3.992  12.654 -0.0594 -0.7747 -0.0192
    8TMC3     H13928   2.072   3.915  13.015  0.1619 -1.4492  1.4206
    8TMC3    H113929   2.071   3.771  12.605  2.8921 -0.0745 -1.6079
    8TMC3    H213930   2.404   3.698  12.861  0.7507  1.5999  1.8135
    8TMC3    C713931   2.349   3.769  12.631 -0.3000 -0.4590 -0.4316
    8TMC3    C813932   2.302   3.780  13.088  1.0240  0.5417  0.1470
    8TMC3    O113933   2.458   3.720  12.638 -0.0941  0.3418 -0.2811
    8TMC3    O213934   2.424   3.775  13.080  0.3735  0.1705 -0.4666
    9TMC3    C113935   2.194   4.694  12.208 -0.3356  0.4997 -0.2191
    9TMC3    C213936   2.263   4.582  12.164  0.3669  0.3067 -0.3878
    9TMC3    C313937   2.256   4.468  12.240 -0.4413 -0.5859  0.8954
    9TMC3    C413938   2.108   4.698  12.316  0.4647  0.4528  0.0556
    9TMC3    C513939   2.109   4.583  12.389 -0.3739  0.7368 -0.2205
    9TMC3    C613940   2.192   4.478  12.359 -0.4979 -0.9124 -0.2800
    9TMC3     C13941   2.196   0.093  12.120  0.2974  0.8363  0.0205
    9TMC3     O13942   2.273   0.091  12.024 -0.2014 -0.2817 -0.3023
    9TMC3     H13943   2.329   4.588  12.078 -1.1811 -0.7454 -1.6516
    9TMC3    H113944   2.041   0.057  12.350 -0.5177 -0.7837  0.9819
    9TMC3    H213945   2.210   4.404  12.436 -0.0906  0.2039  0.7009
    9TMC3    C713946   2.020   4.569  12.504 -0.0821  0.1275  0.0461
    9TMC3    C813947   2.351   4.359  12.214 -0.9051 -0.4796  0.3006
    9TMC3    O113948   1.997   4.674  12.562 -0.4410  0.3762 -0.4006
    9TMC3    O213949   2.454   4.378  12.151 -0.8525 -0.5196 -0.0638
   10MPD2     C13950   2.523   3.942  12.457 -0.1711 -0.3199 -0.0327
   10MPD2    C113951   2.389   3.954  12.480 -0.1120  0.1162  0.0033
   10MPD2    C213952   2.321   4.065  12.427  0.1113 -0.1030 -0.2821
   10MPD2    C313953   2.389   4.148  12.344 -0.0205  0.4144  0.2737
   10MPD2    C413954   2.523   4.134  12.309 -0.4094 -0.1885  0.1133
   10MPD2    C513955   2.589   4.037  12.387 -0.4888 -0.9012  0.8154
   10MPD2     H13956   2.214   4.077  12.435  0.0589 -0.2490 -0.8034
   10MPD2    H113957   2.583   4.193  12.241  0.0719  0.8872  1.4765
   10MPD2    H213958   2.582   3.864  12.503  0.6099  1.2685  1.6591
   10MPD2    H313959   2.697   4.036  12.389 -0.4423 -0.0596 -1.4571
   10MPD2     N13960   2.308   4.248  12.285 -0.2504  0.2120 -0.5399
   10MPD2    H513961   2.208   4.242  12.306 -0.4750  0.8731 -1.4374
   10MPD2    N113962   2.308   3.873  12.558  0.0090 -0.1656  0.1146
   10MPD2    H713963   2.210   3.896  12.571  0.6400  1.5127  1.8536
   11MPD2     C13964   2.801   3.209  14.342  0.6442  0.1052  0.3173
   11MPD2    C113965   2.918   3.222  14.271  0.1291  0.0215  0.0465
   11MPD2    C213966   2.920   3.296  14.154 -1.0396  0.5084  0.2393
   11MPD2    C313967   2.804   3.360  14.111  0.7542 -0.8041  0.7057
   11MPD2    C413968   2.693   3.361  14.195  0.0069 -0.2739 -0.4192
   11MPD2    C513969   2.694   3.286  14.311 -0.0485 -0.1729  0.5871
   11MPD2     H13970   3.010   3.287  14.094 -1.4902 -1.9894 -0.0408
   11MPD2    H113971   2.606   3.411  14.154 -0.6263 -0.6105  0.5426
   11MPD2    H213972   2.783   3.153  14.433  1.0635 -0.8342 -0.1803
   11MPD2    H313973   2.602   3.272  14.366 -0.1206 -1.4483  0.1408
   11MPD2     N13974   2.802   3.433  13.992  1.0937  0.6637  0.0768
   11MPD2    H513975   2.709   3.457  13.960  0.9954 -3.2367 -2.6001
   11MPD2    N113976   3.038   3.155  14.301 -0.5710 -0.6796  0.2709
   11MPD2    H713977   3.106   3.149  14.226 -1.8756  0.2525 -0.9857
    1MPD1     C13978   1.962   3.928  15.852 -0.2088  0.4762 -0.3787
    1MPD1    C113979   2.071   3.994  15.905  0.7267 -0.1007 -1.0169
    1MPD1    C213980   2.047   4.110  15.980  0.7219 -0.3275 -0.2835
    1MPD1    C313981   1.919   4.160  15.998  0.1081 -0.7781  0.1182
    1MPD1    C413982   1.818   4.085  15.951  0.0750  1.4662  0.4210
    1MPD1    C513983   1.839   3.971  15.880  0.0931 -0.4463 -0.1807
    1MPD1     H13984   2.132   4.164  16.019 -0.0697  0.1719  0.7379
    1MPD1    H113985   1.715   4.117  15.962 -0.5805 -1.4144  2.4712
    1MPD1    H213986   1.967   3.852  15.775 -0.9111  2.6219 -2.5092
    1MPD1    H313987   1.755   3.913  15.844  0.1939  0.2596 -1.5663
    1MPD1     N13988   1.890   4.274  16.072 -0.0851  0.3624 -0.5052
    1MPD1    H513989   1.791   4.298  16.071 -0.6081 -1.7520 -0.2581
    1MPD1    N113990   2.201   3.951  15.880  0.1912 -0.7501  0.2845
    1MPD1    H613991   2.203   3.854  15.850 -0.5524 -1.0537  1.1902
    1MPD1    H713992   2.273   3.970  15.950 -1.1874  0.3196  1.4238
    2MPD1     C13993   1.319   0.065  15.748 -0.0214  0.2530 -0.6347
    2MPD1    C113994   1.374   4.662  15.733  0.4919  0.3225  0.3696
    2MPD1    C213995   1.459   4.622  15.826 -0.1978  0.2886  0.8254
    2MPD1    C313996   1.474   4.677  15.949  0.2810  0.4597  0.1049
    2MPD1    C413997   1.399   0.069  15.974  0.3373  0.5128 -0.3943
    2MPD1    C513998   1.327   0.129  15.874  0.0229 -0.0441  0.5056
    2MPD1     H13999   1.498   4.522  15.813  1.8807  0.7816  3.3629
    2MPD1    H114000   1.403   0.125  16.067 -1.2178 -1.6038  0.9570
    2MPD1    H214001   1.276   0.123  15.668 -2.5530  1.3119  1.4676
    2MPD1    H314002   1.271   0.217  15.903  2.1529  1.3097  0.5412
    2MPD1     N14003   1.561   4.618  16.049  0.5728  0.0947  0.5554
    2MPD1    H514004   1.602   4.529  16.024 -1.3542 -0.4668 -0.6235
    2MPD1    N114005   1.368   4.589  15.613 -0.2591  0.2321  0.7611
    2MPD1    H614006   1.275   4.602  15.572 -0.8103 -0.2759  1.8706
    2MPD1    H714007   1.386   4.490  15.629 -0.7729 -0.1501 -1.0139
    3TMC3    C114008   1.715   4.594  16.229 -0.1669  0.5165 -0.2494
    3TMC3    C214009   1.747   4.637  16.351  0.2074 -0.1319 -0.0225
    3TMC3    C314010   1.864   4.583  16.402  0.3070 -0.0474  0.6244
    3TMC3    C414011   1.795   4.513  16.150  0.3872 -0.6660 -1.0101
    3TMC3    C514012   1.907   4.460  16.211  0.6224  0.3625 -0.3172
    3TMC3    C614013   1.947   4.495  16.336 -0.2768 -0.3961  0.2317
    3TMC3     C14014   1.597   4.670  16.174  0.3332  0.0102  0.5035
    3TMC3     O14015   1.562   0.057  16.219 -0.2133 -0.3117  0.6955
    3TMC3     H14016   1.682   4.712  16.394  1.0723  0.0157  1.0475
    3TMC3    H114017   1.770   4.494  16.046  1.9626  0.3047 -1.5650
    3TMC3    H214018   2.023   4.444  16.394 -0.1987  2.4612  2.6703
    3TMC3    C714019   1.977   4.353  16.150 -0.2704  0.3402  0.1810
    3TMC3    C814020   1.907   4.638  16.524  0.4027  0.0339 -0.2692
    3TMC3    O114021   2.093   4.335  16.194 -0.4960  0.2329 -0.1876
    3TMC3    O214022   2.023   4.623  16.555 -0.0535  0.0068 -0.5610
    4MPD1     C14023   1.806   0.152  16.973  0.4086 -0.5312 -0.6593
    4MPD1    C114024   1.687   0.134  16.908  0.3463  0.0001 -0.2372
    4MPD1    C214025   1.690   0.066  16.786  0.1182 -1.1928 -0.0468
    4MPD1    C314026   1.815   0.033  16.722  0.5502 -0.0404 -0.0446
    4MPD1    C414027   1.932   0.061  16.788 -0.5871  0.4814 -0.4448
    4MPD1    C514028   1.925   0.111  16.915  0.2043 -0.0745 -0.9835
    4MPD1     H14029   1.593   0.042  16.745 -0.0928 -0.8772  0.2643
    4MPD1    H114030   2.026   0.036  16.740 -1.0403  1.9902 -2.1172
    4MPD1    H214031   1.809   0.210  17.064  0.5383 -0.0190 -0.9956
    4MPD1    H314032   2.018   0.119  16.971 -0.6969 -0.3244  0.5334
    4MPD1     N14033   1.807   4.699  16.593  0.8743 -0.5396  0.5204
    4MPD1    H514034   1.717   4.672  16.554 -0.2066  2.9984  0.4757
    4MPD1    N114035   1.560   0.143  16.979  0.4465  0.1254  0.2077
    4MPD1    H614036   1.567   0.219  17.047  2.3547  1.8121 -1.8902
    4MPD1    H714037   1.497   0.179  16.908  1.5176  0.7032 -0.4452
    1TCq1    O114038   2.359   4.205  10.772 -0.1767  0.0968  0.2599
    1TCq1    C114039   2.382   4.315  10.705 -0.3155 -0.4831 -0.6312
    1TCq1    O214040   2.433   4.410  10.767 -0.8377  0.3585  0.2017
    1TCq1    C214041   2.278   4.331  10.603  0.1493  0.9692  0.2845
    1TCq1    C314042   2.231   4.229  10.529 -0.5131  0.1991 -0.1791
    1TCq1    C414043   2.148   4.245  10.424 -1.0147 -0.1564  0.4114
    1TCq1    C514044   2.075   4.369  10.428 -0.0350 -0.1865  0.3537
    1TCq1    C614045   2.111   4.467  10.510  0.3534  0.2544 -0.4398
    1TCq1    C714046   2.227   4.455  10.594 -0.2022  0.3111 -0.2414
    1TCq1    C814047   2.058   4.595  10.477  0.2239  0.0231 -0.2657
    1TCq1    O414048   1.947   4.598  10.424 -0.9092  0.4890 -0.0786
    1TCq1    C914049   2.075   4.138  10.365 -0.0210  0.1065 -0.0666
    1TCq1    O514050   2.106   4.025  10.399 -0.3070 -0.0791 -0.7257
    1TCq1    O614051   1.969   4.176  10.312 -0.0889  0.7512  0.6688
    1TCq1    H114052   2.294   4.141  10.735 -0.3912 -0.1000  0.9698
    1TCq1    H214053   2.287   4.137  10.524 -1.1908 -0.2064 -0.3266
    1TCq1    H314054   1.993   4.382  10.359 -0.5517 -1.2381  0.7730
    1TCq1    H414055   2.245   4.531  10.669 -2.8016 -0.1539  0.8701
    2MPD1     C14056   2.109   0.385  10.469 -0.2735  0.0880  0.1250
    2MPD1    C114057   2.227   0.332  10.518  0.4050  0.7537 -0.2780
    2MPD1    C214058   2.233   0.196  10.528 -0.1927 -0.0626  0.0268
    2MPD1    C314059   2.125   0.117  10.500 -0.2458 -0.1006  0.7967
    2MPD1    C414060   2.004   0.175  10.458 -0.2448 -0.5304  0.6111
    2MPD1    C514061   1.998   0.306  10.449 -0.0144 -0.3364  0.2283
    2MPD1     H14062   2.321   0.138  10.555 -0.3893 -0.1188  0.5353
    2MPD1    H114063   1.913   0.117  10.450 -0.5418  0.0251  0.0287
    2MPD1    H214064   2.096   0.492  10.454 -2.0524 -0.0404  0.7511
    2MPD1    H314065   1.904   0.356  10.427  1.0693  1.7155  0.2547
    2MPD1     N14066   2.141   4.694  10.522  0.3564 -0.4215 -0.8706
    2MPD1    H514067   2.233   4.667  10.555 -0.4867  0.2133  2.0391
    2MPD1    N114068   2.334   0.417  10.516  0.0873  0.2448  0.7030
    2MPD1    H614069   2.321   0.511  10.553  1.2914  0.3662  0.8142
    2MPD1    H714070   2.422   0.390  10.559 -0.3782  1.3405  2.3745
    1TCq1    O114071   4.046   4.282   2.514 -0.4261 -0.4693  0.1590
    1TCq1    C114072   3.925   4.314   2.463  0.6240 -1.2571  0.1454
    1TCq1    O214073   3.819   4.309   2.523 -0.4192  0.1844 -0.2619
    1TCq1    C214074   3.927   4.296   2.320 -0.5303 -0.3506  0.4677
    1TCq1    C314075   3.816   4.237   2.252 -0.0097  0.5503 -0.3451
    1TCq1    C414076   3.832   4.213   2.120 -0.4121 -0.1100  0.2702
    1TCq1    C514077   3.935   4.264   2.046  0.2117  0.4764 -0.4745
    1TCq1    C614078   4.042   4.323   2.117 -0.2905  0.6819  0.4840
    1TCq1    C714079   4.038   4.343   2.252  0.2616 -0.0262  0.2895
    1TCq1    C814080   4.146   4.377   2.031  0.4049 -0.0561  0.0676
    1TCq1    O414081   4.137   4.367   1.909 -0.2330 -0.8231  0.3537
    1TCq1    C914082   3.710   4.199   2.046  0.0864 -0.0121 -0.3438
    1TCq1    O514083   3.607   4.203   2.120 -0.6457  0.7053  0.0394
    1TCq1    O614084   3.713   4.172   1.924  0.4687  0.3693  0.3875
    1TCq1    H114085   4.123   4.281   2.453  0.7511  1.1101  1.5883
    1TCq1    H214086   3.742   4.197   2.320  0.5225 -0.0923 -0.1435
    1TCq1    H314087   3.924   4.263   1.938  0.1629  0.3293 -0.4678
    1TCq1    H414088   4.097   4.419   2.302 -0.6477 -0.6684  2.3533
    2MPD1     C14089   4.633   4.444   1.943  0.3326 -0.4059 -0.4948
    2MPD1    C114090   4.621   4.391   2.076  0.3661  0.2630 -0.0741
    2MPD1    C214091   4.497   4.388   2.129 -0.1263 -0.0612  0.8585
    2MPD1    C314092   4.382   4.427   2.058 -0.4188  0.2859 -0.1684
    2MPD1    C414093   4.398   4.490   1.933 -0.6512 -0.2504 -0.3910
    2MPD1    C514094   4.529   4.509   1.879 -0.1004 -0.5765 -0.2060
    2MPD1     H14095   4.475   4.344   2.226 -1.1998  0.4116  0.8289
    2MPD1    H114096   4.321   4.534   1.870 -1.0935  1.5292  1.3815
    2MPD1    H214097   0.008   4.434   1.893  0.4269  0.7738 -0.5580
    2MPD1    H314098   4.539   4.552   1.779  0.5486 -0.9598 -0.3075
    2MPD1     N14099   4.255   4.399   2.109  0.2549  0.2342 -0.0753
    2MPD1    H514100   4.248   4.374   2.207 -1.9918  0.5403 -0.1492
    2MPD1    N114101   0.001   4.312   2.129  0.1030 -0.0003 -0.4463
    2MPD1    H614102   0.095   4.345   2.106  0.7191 -0.9710  0.7286
    2MPD1    H714103   4.713   4.304   2.230  0.8696  0.4825 -0.3458
    1MPD1     C14104   0.001   3.835  12.219 -0.1576 -0.3588 -0.4963
    1MPD1    C114105   4.622   3.928  12.250 -0.1038 -0.1789  0.9532
    1MPD1    C214106   4.608   4.032  12.157  0.9417 -0.6584 -0.3688
    1MPD1    C314107   4.689   4.048  12.048  0.3556 -0.3807  0.4071
    1MPD1    C414108   0.073   3.956  12.026 -0.6037 -0.1039  0.2518
    1MPD1    C514109   0.084   3.844  12.112  0.2444  0.3254  0.5632
    1MPD1     H14110   4.530   4.105  12.178  0.4149 -1.7429  1.3803
    1MPD1    H114111   0.138   3.963  11.939 -1.5084 -1.1741 -0.5140
    1MPD1    H214112   0.000   3.739  12.270  1.6410 -1.2826 -2.2239
    1MPD1    H314113   0.163   3.774  12.086 -2.4634 -3.4985  2.7687
    1MPD1     N14114   4.665   4.158  11.959 -0.8476 -0.1882  0.0413
    1MPD1    H514115   4.581   4.215  11.967 -1.8456 -2.1477  3.5986
    1MPD1    N114116   4.523   3.896  12.341 -0.4260 -0.1207 -0.4400
    1MPD1    H614117   4.474   3.980  12.373 -0.2959  0.9023 -2.9528
    1MPD1    H714118   4.552   3.852  12.428  2.8068  2.1067 -0.3878
    2MPD1     C14119   3.403   0.756  10.525  0.2401  0.1432 -0.6388
    2MPD1    C114120   3.514   0.777  10.441  0.0880 -0.2433  0.6752
    2MPD1    C214121   3.614   0.686  10.446  0.4964 -0.1889 -0.5413
    2MPD1    C314122   3.593   0.565  10.509 -0.0113  0.2150 -0.2219
    2MPD1    C414123   3.475   0.540  10.578 -0.4269 -0.0200  0.0686
    2MPD1    C514124   3.378   0.635  10.585 -0.4544  0.1436  0.2105
    2MPD1     H14125   3.712   0.710  10.405  1.1812 -3.7250 -0.9698
    2MPD1    H114126   3.454   0.447  10.630 -0.2483 -1.1013 -1.8011
    2MPD1    H214127   3.334   0.839  10.535 -0.9496 -0.9292  0.1423
    2MPD1    H314128   3.285   0.624  10.639 -0.2028  1.7800  0.9761
    2MPD1     N14129   3.688   0.467  10.526 -0.4652  0.0548  0.3951
    2MPD1    H514130   3.660   0.388  10.584  1.1270 -0.1886  0.8343
    2MPD1    N114131   3.542   0.904  10.406  0.0334 -0.1178  0.4632
    2MPD1    H614132   3.462   0.961  10.379  0.3746 -0.2380 -0.7757
    2MPD1    H714133   3.606   0.914  10.328  0.3111  0.6160  0.7830
    3MPD1     C14134   3.366   4.507  10.798  0.8741  0.4807 -0.2984
    3MPD1    C114135   3.389   4.639  10.840  0.7479  1.1377 -0.1626
    3MPD1    C214136   3.493   4.710  10.789 -0.2325 -0.2373  0.2046
    3MPD1    C314137   3.577   4.662  10.700  0.3096  0.2611 -0.2566
    3MPD1    C414138   3.563   4.531  10.652  0.3365 -0.5529  0.1681
    3MPD1    C514139   3.465   4.454  10.713  0.3640  0.5439 -0.9933
    3MPD1     H14140   3.505   0.093  10.822 -0.2514 -0.3249  0.4896
    3MPD1    H114141   3.635   4.487  10.583  0.2236  1.0425 -0.9722
    3MPD1    H214142   3.277   4.461  10.838 -2.2677  2.5499 -4.8682
    3MPD1    H314143   3.454   4.349  10.689 -0.4129  0.6602 -1.1569
    3MPD1     N14144   3.668   0.035  10.646  0.1425 -0.4646  0.3549
    3MPD1    H514145   3.660   0.133  10.670  0.7578 -0.7973  1.8985
    3MPD1    N114146   3.317   4.693  10.949  0.1759  0.1487  0.6387
    3MPD1    H614147   3.224   4.655  10.963 -0.2472  1.4926  1.4515
    3MPD1    H714148   3.311   0.075  10.959  1.1669  0.1633  1.0589
    4MPD2     C14149   4.413   0.123  11.618  0.8006  0.1499 -0.7035
    4MPD2    C114150   4.497   0.030  11.557 -0.3921 -0.5045 -0.0502
    4MPD2    C214151   4.583   0.078  11.461 -0.7018  0.2008  0.3047
    4MPD2    C314152   4.591   0.207  11.425  1.2254  0.2375  0.3723
    4MPD2    C414153   4.505   0.291  11.486  0.0787 -0.0160  0.2407
    4MPD2    C514154   4.421   0.256  11.591 -0.2573 -1.3582  0.5815
    4MPD2     H14155   4.646   0.004  11.414 -0.7391 -0.5861  1.4730
    4MPD2    H114156   4.516   0.391  11.445  1.7066  0.3047  1.4509
    4MPD2    H214157   4.340   0.092  11.692  1.0994  0.8867 -0.0859
    4MPD2    H314158   4.354   0.329  11.636 -0.5240  0.2175 -2.4103
    4MPD2     N14159   4.672   0.252  11.312 -0.0537  0.4633 -0.0127
    4MPD2    H514160   4.657   0.347  11.282  0.3467  0.8498  1.0234
    4MPD2    N114161   4.499   4.608  11.578  0.0876  0.5052  0.0936
    4MPD2    H714162   4.570   4.561  11.523 -0.5477  0.9511 -1.0867
    5TMC3    C114163   4.473   4.402  11.675 -0.4715  0.1179  0.6259
    5TMC3    C214164   4.548   4.353  11.777 -0.1417 -0.3452  0.0720
    5TMC3    C314165   4.654   4.270  11.748  0.3350 -0.7144  0.1026
    5TMC3    C414166   4.515   4.380  11.544  0.4398  0.6491  0.0097
    5TMC3    C514167   4.633   4.311  11.524  0.5183  0.3219 -0.2211
    5TMC3    C614168   4.701   4.257  11.625 -0.9024 -0.5351  0.0039
    5TMC3     C14169   4.434   4.538  11.679 -0.7453 -0.3330  0.3463
    5TMC3     O14170   4.378   4.584  11.777  0.1958 -0.0828 -0.1962
    5TMC3     H14171   4.511   4.366  11.878  0.1668  1.9583 -0.1252
    5TMC3    H114172   4.451   4.401  11.460  0.5343 -0.4972 -0.3444
    5TMC3    H214173   0.076   4.209  11.601 -0.1696  0.1808  1.4798
    5TMC3    C714174   4.710   4.378  11.422  0.2073 -0.2935 -0.0855
    5TMC3    C814175   0.015   4.186  11.847 -0.0753 -0.4664 -0.7151
    5TMC3    O114176   4.666   4.484  11.378  0.0521  0.3021  0.1953
    5TMC3    O214177   0.127   4.147  11.820  0.3531  0.2887 -0.1103
    6TMC3    C114178   3.872   0.335  10.504  0.2356  0.0210  0.0159
    6TMC3    C214179   3.791   0.225  10.503 -0.0495  0.3637  0.5352
    6TMC3    C314180   3.852   0.103  10.533 -0.1795  0.8577  0.1051
    6TMC3    C414181   4.008   0.324  10.504  0.1546 -0.5335 -0.0327
    6TMC3    C514182   4.063   0.195  10.516 -0.2723 -0.8251 -0.2056
    6TMC3    C614183   3.987   0.085  10.544 -0.1251  0.2218  0.1593
    6TMC3     C14184   3.819   0.466  10.475  0.1918  0.5606  0.1503
    6TMC3     O14185   3.891   0.553  10.423  0.0496 -0.1536 -0.1141
    6TMC3     H14186   3.684   0.234  10.485  0.4534  3.2212 -1.0343
    6TMC3    H114187   4.072   0.411  10.488 -2.5958  1.6698  0.9092
    6TMC3    H214188   4.032   4.708  10.564 -1.2664 -0.8337 -2.2793
    6TMC3    C714189   4.205   0.193  10.522  0.2180 -0.7868  0.4262
    6TMC3    C814190   3.775   4.716  10.568 -0.3681  0.2860 -0.6344
    6TMC3    O114191   4.256   0.303  10.548 -0.0414 -0.0471  0.1425
    6TMC3    O214192   3.809   4.605  10.526 -0.1788 -0.1434  0.3504
    7MPD2     C14193   0.353   4.440  11.067  0.3822  0.1916 -0.2565
    7MPD2    C114194   0.268   4.528  11.124 -0.3332 -0.1270 -0.1090
    7MPD2    C214195   0.184   4.484  11.220 -0.3843  0.3363 -0.0316
    7MPD2    C314196   0.180   4.349  11.269 -0.5516 -0.0477 -0.1294
    7MPD2    C414197   0.273   4.260  11.209  0.0282  0.1300 -0.1993
    7MPD2    C514198   0.351   4.306  11.108 -0.4957 -0.4640  0.4882
    7MPD2     H14199   0.109   4.556  11.254 -1.2055  0.6641 -2.5483
    7MPD2    H114200   0.274   4.152  11.219  0.5795  0.1200 -0.3960
    7MPD2    H214201   0.424   4.472  10.992  2.7535 -1.5692  1.2394
    7MPD2    H314202   0.409   4.241  11.042 -2.2926 -0.0193 -1.5160
    7MPD2     N14203   0.088   4.301  11.364 -0.2288 -0.1546  0.5832
    7MPD2    H514204   0.114   4.207  11.392 -0.1274 -0.6764 -1.2980
    7MPD2    N114205   0.248   4.662  11.085  0.3884 -0.4076 -0.0528
    7MPD2    H714206   0.172   4.703  11.137 -0.1249  0.3125 -1.3667
    8TMC3    C114207   0.263   0.144  10.982 -0.1826 -0.0383 -0.7624
    8TMC3    C214208   0.187   0.149  10.870  0.5248 -0.1448  0.2370
    8TMC3    C314209   0.064   0.212  10.891  0.1164 -0.5897 -0.1667
    8TMC3    C414210   0.224   0.185  11.110  0.5258 -0.1145  0.0362
    8TMC3    C514211   0.105   0.247  11.124 -0.2146 -0.5420  0.2196
    8TMC3    C614212   0.022   0.252  11.016  0.8066  0.4916 -0.1271
    8TMC3     C14213   0.323   0.014  10.996 -0.6845  0.4965 -0.3997
    8TMC3     O14214   0.411   4.700  10.917 -0.1552  0.3476  0.0666
    8TMC3     H14215   0.219   0.094  10.782  2.1732  0.8040  0.2446
    8TMC3    H114216   0.295   0.185  11.192  0.8631  0.2276 -0.2546
    8TMC3    H214217   4.644   0.296  11.028  0.6882  0.5258 -1.1953
    8TMC3    C714218   0.048   0.181  11.239 -1.0971  0.9357  0.0556
    8TMC3    C814219   4.683   0.208  10.786  0.3940 -0.6213 -0.1643
    8TMC3    O114220   0.079   0.063  11.249  0.8435 -0.6098 -0.1844
    8TMC3    O214221   4.579   0.273  10.801 -0.0796 -0.8109  0.3497
    9MPD2     C14222   4.675   4.701  10.507 -0.4086 -0.0599 -0.3856
    9MPD2    C114223   4.623   0.080  10.593 -0.2593  0.5898  0.4820
    9MPD2    C214224   4.493   0.124  10.570  0.0499 -0.9339 -0.0174
    9MPD2    C314225   4.405   0.051  10.486 -0.4738  0.2246  0.4680
    9MPD2    C414226   4.453   4.662  10.420 -0.3518  0.4168  1.0043
    9MPD2    C514227   4.589   4.631  10.425 -0.0729 -0.5446 -0.4648
    9MPD2     H14228   4.454   0.202  10.635 -1.0506  1.3791 -3.4394
    9MPD2    H114229   4.385   4.606  10.356  0.6922  2.6531 -2.0447
    9MPD2    H214230   0.057   4.662  10.507 -0.3081  0.2075 -0.0651
    9MPD2    H314231   4.626   4.541  10.377  0.3883 -0.2351 -0.6969
    9MPD2     N14232   4.263   0.073  10.482  0.3007 -0.5128  0.2187
    9MPD2    H514233   4.203   0.006  10.435  0.4934 -1.5093  1.4117
    9MPD2    N114234   4.718   0.136  10.678 -0.3247  0.8034 -0.3147
    9MPD2    H714235   0.090   0.094  10.671 -0.2234  0.9261  0.3043
    1MPD1     C14236   4.138   3.509  16.582 -0.3899  0.0207 -0.1022
    1MPD1    C114237   4.055   3.407  16.531  0.1084  0.5986  0.7083
    1MPD1    C214238   3.991   3.325  16.627  0.3806 -0.5308  0.3642
    1MPD1    C314239   4.029   3.321  16.759  0.4400 -0.8758  0.6147
    1MPD1    C414240   4.131   3.403  16.801 -0.7034  0.5104  0.1835
    1MPD1    C514241   4.177   3.504  16.715 -0.0606 -0.2059  0.2868
    1MPD1     H14242   3.917   3.263  16.578  0.3950  1.0335 -1.6485
    1MPD1    H114243   4.155   3.404  16.906 -0.7766  0.0221  0.2014
    1MPD1    H214244   4.171   3.598  16.530 -0.2653 -0.2168 -0.4273
    1MPD1    H314245   4.253   3.573  16.751 -0.1399 -0.7583  1.5222
    1MPD1     N14246   3.962   3.244  16.848 -0.3656  0.0664  0.4482
    1MPD1    H514247   4.014   3.242  16.935  0.1071 -0.2878  0.1608
    1MPD1    N114248   4.023   3.414  16.394 -0.0765  0.1196 -1.0102
    1MPD1    H614249   4.083   3.471  16.335  3.5326 -1.5446  1.0313
    1MPD1    H714250   4.009   3.322  16.351 -0.2584  0.5470 -1.8672
    2MPD1     C14251   3.037   3.016  16.673  0.1450 -0.0189  0.1404
    2MPD1    C114252   3.152   3.028  16.595 -0.0356  0.2683  0.5675
    2MPD1    C214253   3.273   3.022  16.665  0.1458 -0.2176 -0.4273
    2MPD1    C314254   3.278   2.994  16.802  0.5775 -1.3057 -0.0485
    2MPD1    C414255   3.158   2.971  16.876  0.4514 -0.3830 -1.2288
    2MPD1    C514256   3.040   2.994  16.805  0.6212  0.5925 -0.1336
    2MPD1     H14257   3.369   3.037  16.617 -0.3085 -0.4608 -1.4038
    2MPD1    H114258   3.160   2.949  16.983 -1.2671 -0.8188 -1.2838
    2MPD1    H214259   2.941   3.031  16.624  0.9770  1.3124 -1.0733
    2MPD1    H314260   2.949   2.971  16.859 -0.5618 -0.9265 -2.7703
    2MPD1     N14261   3.398   3.023  16.869 -0.2067 -0.0111 -0.6928
    2MPD1    H514262   3.466   3.057  16.802 -2.2076  3.0064 -1.1837
    2MPD1    N114263   3.146   3.052  16.458  0.0690 -0.3396  0.5399
    2MPD1    H614264   3.067   3.033  16.397 -1.1861 -1.0866  2.4188
    2MPD1    H714265   3.219   3.006  16.404  2.2341  1.0677  2.2840
    3TCq2    C114266   3.440   2.999  16.992 -0.6901  0.6234 -0.1983
    3TCq2    O214267   3.375   2.943  17.082  0.5101  0.4541  0.3025
    3TCq2    C214268   3.575   3.050  17.019  0.1374  0.9749 -0.8428
    3TCq2    C314269   3.634   3.003  17.134  0.0991  0.2836  0.3081
    3TCq2    C414270   3.772   3.023  17.146  0.2291 -0.6988  0.0809
    3TCq2    C514271   3.843   3.089  17.049 -0.3994 -0.2985 -0.6020
    3TCq2    C614272   3.773   3.124  16.936  0.4101 -0.7127  0.1867
    3TCq2    C714273   3.643   3.110  16.922  0.2172 -0.0541 -0.1621
    3TCq2    C814274   3.849   3.168  16.819  0.7768  0.0396  0.5519
    3TCq2    O414275   3.797   3.140  16.711  0.5138  0.0517  0.5002
    3TCq2    C914276   3.833   2.978  17.263 -1.1181  0.0514 -0.0916
    3TCq2    O514277   3.778   2.884  17.332  0.0509 -0.5054  0.0849
    3TCq2    O614278   3.942   3.035  17.296 -0.1824 -0.6434  0.6052
    3TCq2    H214279   3.577   2.952  17.210 -2.0068  1.2791 -0.6050
    3TCq2    H314280   3.951   3.103  17.053 -0.4294 -0.6616  1.2264
    3TCq2    H414281   3.599   3.148  16.831  0.8956 -0.7762 -0.8009
    1TCq1    O114282   1.327   2.392  12.368  0.5764  0.0132  0.1665
    1TCq1    C114283   1.259   2.415  12.483 -0.7065 -0.3784  0.1799
    1TCq1    O214284   1.142   2.388  12.498  0.6267  0.1119 -0.2240
    1TCq1    C214285   1.352   2.361  12.582 -0.4190 -0.1742 -0.0054
    1TCq1    C314286   1.332   2.243  12.649  0.9937  0.3243 -0.4534
    1TCq1    C414287   1.421   2.194  12.738 -0.8387 -0.8910 -0.6941
    1TCq1    C514288   1.537   2.259  12.758 -0.0071  0.0386 -0.0058
    1TCq1    C614289   1.564   2.370  12.682  0.0212 -0.4820 -0.2248
    1TCq1    C714290   1.476   2.420  12.595 -0.6665  0.1134 -0.4377
    1TCq1    C814291   1.660   2.468  12.741 -0.3674  0.0197  0.0478
    1TCq1    O414292   1.694   2.555  12.658  0.3470  0.2758  0.4501
    1TCq1    C914293   1.391   2.073  12.817  0.1942 -0.3374 -0.2632
    1TCq1    O514294   1.495   2.023  12.878  0.4434 -0.1930 -0.5100
    1TCq1    O614295   1.269   2.055  12.842 -0.3483  0.3157 -0.1222
    1TCq1    H114296   1.422   2.416  12.368  0.0442  2.1530  1.1150
    1TCq1    H214297   1.241   2.185  12.636  1.5292 -0.9977  1.6662
    1TCq1    H314298   1.608   2.215  12.826  0.6455  0.0018 -0.7110
    1TCq1    H414299   1.495   2.508  12.535  0.2850 -0.3639 -0.8302
    2MPD2     C14300   1.874   2.591  12.910  0.4419 -0.0540  0.0319
    2MPD2    C114301   1.766   2.516  12.960 -0.1427 -0.5619 -0.7612
    2MPD2    C214302   1.746   2.502  13.099 -0.5767 -0.3413  0.2463
    2MPD2    C314303   1.838   2.551  13.193 -0.3758 -0.9446 -0.5257
    2MPD2    C414304   1.947   2.631  13.138 -0.2355 -0.0893 -0.3534
    2MPD2    C514305   1.958   2.648  13.003 -0.1732 -0.0230  0.1737
    2MPD2     H14306   1.662   2.448  13.143 -0.5965 -0.9100 -0.4885
    2MPD2    H114307   2.025   2.673  13.201 -0.4232  1.0091 -0.8597
    2MPD2    H214308   1.899   2.604  12.806  0.6424 -0.5105  0.0182
    2MPD2    H314309   2.034   2.718  12.971 -0.3250  0.4159  0.7774
    2MPD2     N14310   1.813   2.534  13.331 -0.0983 -0.6062  0.3975
    2MPD2    H514311   1.726   2.487  13.353 -1.3164  1.6524  0.3832
    2MPD2    N114312   1.675   2.453  12.877  0.1773  0.0025 -0.0911
    2MPD2    H714313   1.614   2.387  12.923  1.3635  0.7114  2.4771
    3TCq1    O114314   1.530   2.424  13.844 -0.5481 -0.2052  0.2987
    3TCq1    C114315   1.561   2.547  13.794 -0.5453 -0.0105  0.4729
    3TCq1    O214316   1.487   2.617  13.731  0.1092 -0.0360 -1.0006
    3TCq1    C214317   1.700   2.523  13.741  0.1359 -0.2791 -0.2104
    3TCq1    C314318   1.787   2.450  13.822 -0.3280 -0.4110  0.6492
    3TCq1    C414319   1.903   2.404  13.764 -0.1953  0.4173 -0.2639
    3TCq1    C514320   1.939   2.439  13.639  0.2296  0.4717 -0.6202
    3TCq1    C614321   1.854   2.513  13.567 -0.1387 -0.8528 -0.7916
    3TCq1    C714322   1.734   2.562  13.617 -0.4646 -0.3769 -0.2181
    3TCq1    C814323   1.908   2.549  13.434 -0.0028  0.5276 -0.0914
    3TCq1    O414324   2.023   2.590  13.425  0.6663  0.3862 -1.2605
    3TCq1    C914325   2.012   2.377  13.855 -0.6065  0.1907  0.0966
    3TCq1    O514326   2.114   2.316  13.815 -0.0897  0.2061  0.4568
    3TCq1    O614327   1.996   2.426  13.967  0.1205  0.0352  0.0271
    3TCq1    H114328   1.604   2.369  13.879 -1.1312 -1.0220  0.2367
    3TCq1    H214329   1.761   2.438  13.926 -0.2371 -0.1147  0.7061
    3TCq1    H314330   2.036   2.409  13.602 -1.4989 -4.9400 -0.7303
    3TCq1    H414331   1.670   2.627  13.557 -1.6756  1.2259  2.7930
    1MPD2     C14332   1.876   3.481  14.741 -0.6980  0.0001  0.1296
    1MPD2    C114333   1.802   3.380  14.807 -0.2421  0.1938 -0.4573
    1MPD2    C214334   1.888   3.288  14.871  0.9579 -0.5363 -0.7075
    1MPD2    C314335   2.032   3.290  14.863  0.3663  0.0389 -0.0743
    1MPD2    C414336   2.094   3.391  14.788 -0.2573  0.7728 -0.3814
    1MPD2    C514337   2.014   3.481  14.721 -0.3698 -1.0769  0.4465
    1MPD2     H14338   1.849   3.197  14.916 -0.0899 -0.2097 -0.9711
    1MPD2    H114339   2.202   3.393  14.778 -0.3217 -1.6113 -1.7530
    1MPD2    H214340   1.819   3.553  14.684  0.4525  1.1995  0.5213
    1MPD2    H314341   2.059   3.561  14.662 -0.6054 -1.8272 -0.7465
    1MPD2     N14342   2.103   3.185  14.942 -0.5984  0.0840  0.2764
    1MPD2    H514343   2.043   3.114  14.983 -1.5781  1.5509  1.3558
    1MPD2    N114344   1.664   3.374  14.805 -0.8462  0.0380 -0.7999
    1MPD2    H714345   1.617   3.438  14.742 -1.4118  0.4416  0.0386
    2TMC3    C114346   1.448   3.286  14.883 -0.1233  0.7597  0.1068
    2TMC3    C214347   1.398   3.188  14.969 -0.3875  0.0708  0.1441
    2TMC3    C314348   1.301   3.104  14.928 -0.7263 -0.0304 -0.9822
    2TMC3    C414349   1.386   3.311  14.767  0.1104 -0.5417 -0.2754
    2TMC3    C514350   1.277   3.239  14.726 -0.1155 -0.6863  0.2439
    2TMC3    C614351   1.226   3.136  14.808 -0.5736  0.8159  0.0778
    2TMC3     C14352   1.594   3.301  14.899  0.2573 -0.2001  0.2092
    2TMC3     O14353   1.629   3.225  14.987  0.6108 -0.1259  0.0174
    2TMC3     H14354   1.434   3.176  15.070 -0.0881  0.2099  0.0531
    2TMC3    H114355   1.419   3.400  14.715 -1.3662  0.0501 -0.2011
    2TMC3    H214356   1.156   3.063  14.768 -0.7054  1.1254 -0.2572
    2TMC3    C714357   1.175   3.326  14.671  0.1140 -0.4233 -0.5668
    2TMC3    C814358   1.333   2.964  14.952  0.2565  0.5545  0.6583
    2TMC3    O114359   1.202   3.445  14.668  0.1949  0.3297 -0.3771
    2TMC3    O214360   1.249   2.885  14.907 -0.1328  0.0671  0.5378
    3TCq1    O114361   4.706   2.966  14.407 -0.0838 -0.3253  0.8905
    3TCq1    C114362   0.057   3.078  14.384 -0.1402  0.1734  0.7785
    3TCq1    O214363   0.046   3.152  14.286 -0.1881  0.7443 -0.5319
    3TCq1    C214364   0.180   3.059  14.449 -0.0273  0.8154  0.3473
    3TCq1    C314365   0.189   2.992  14.572  0.5040 -0.6423  0.0006
    3TCq1    C414366   0.306   2.993  14.635 -0.2939  0.3539 -0.6811
    3TCq1    C514367   0.416   3.064  14.583 -0.7136  0.3632  0.1234
    3TCq1    C614368   0.406   3.123  14.461 -0.8453 -0.9710  0.0588
    3TCq1    C714369   0.290   3.114  14.390 -0.5108  0.2964  0.6622
    3TCq1    C814370   0.497   3.225  14.422 -0.1822 -0.3582 -0.4565
    3TCq1    O414371   0.450   3.329  14.373  0.4019  0.0712  0.2959
    3TCq1    C914372   0.313   2.925  14.763  0.4093  0.3181  0.6764
    3TCq1    O514373   0.413   2.938  14.836 -0.6515 -0.0637  0.2904
    3TCq1    O614374   0.210   2.865  14.804  0.1890 -0.1213  0.4130
    3TCq1    H114375   0.012   2.902  14.476  0.1676 -1.6754 -0.4635
    3TCq1    H214376   0.104   2.950  14.624  0.0792  0.4275  0.1791
    3TCq1    H314377   0.507   3.066  14.642 -1.4860 -1.9158  1.3875
    3TCq1    H414378   0.279   3.162  14.293 -0.2753  1.0770  1.0186
    4MPD2     C14379   0.716   3.418  14.440 -0.3894 -0.0584  0.0925
    4MPD2    C114380   0.722   3.292  14.488 -0.1651 -0.3998 -0.7743
    4MPD2    C214381   0.842   3.245  14.537  0.3791  0.4941  0.0237
    4MPD2    C314382   0.951   3.326  14.557 -0.2055  0.3063  0.2359
    4MPD2    C414383   0.941   3.464  14.513  0.1153  0.5283  1.3301
    4MPD2    C514384   0.821   3.503  14.450  0.5043  0.5292  0.4376
    4MPD2     H14385   0.839   3.144  14.575  1.7407  1.1207  1.8265
    4MPD2    H114386   1.016   3.536  14.542  1.9134 -1.3227  1.3115
    4MPD2    H214387   0.626   3.468  14.405 -2.3726 -1.8803  2.6358
    4MPD2    H314388   0.801   3.603  14.415 -0.3436  0.9724  2.2132
    4MPD2     N14389   1.062   3.264  14.622  0.5461 -0.1533 -0.3710
    4MPD2    H514390   1.047   3.168  14.650 -1.2220 -0.0179 -0.8802
    4MPD2    N114391   0.617   3.208  14.481  0.0312  0.3478  0.1340
    4MPD2    H714392   0.636   3.111  14.506 -3.3492 -0.5050 -0.5572
    5TMC2    C114393   2.116   2.836  15.020  0.0701 -0.3197 -0.3790
    5TMC2    C214394   2.159   2.829  15.151  1.0209 -0.3793 -0.3154
    5TMC2    C314395   2.246   2.919  15.209 -0.2914 -0.0885 -0.8067
    5TMC2    C414396   2.175   2.942  14.944  0.4370 -0.4242 -0.3053
    5TMC2    C514397   2.266   3.030  14.999 -0.0725 -0.0967  0.1574
    5TMC2    C614398   2.302   3.025  15.136 -0.0168 -0.0316 -0.4249
    5TMC2     C14399   1.975   2.856  15.016  0.6093  0.4358  0.1964
    5TMC2     O14400   1.935   2.968  15.042  0.3335  0.0465 -0.2809
    5TMC2     H14401   2.126   2.744  15.209 -1.9301  0.4126 -0.8561
    5TMC2    H114402   2.128   2.977  14.853 -1.8129  0.3708  1.1630
    5TMC2    H214403   2.361   3.103  15.183  0.7919 -0.6984 -0.3322
    5TMC2    C714404   2.240   3.165  14.956 -0.1813  0.2642 -0.5923
    5TMC2    C814405   2.253   2.918  15.359  0.2449  0.2651 -0.4165
    5TMC2    O114406   2.335   3.246  14.939  0.3028  0.2102 -0.0959
    5TMC2    O214407   2.198   2.829  15.422  0.2423  0.6142  0.8511
    5TMC2    O514408   2.364   2.979  15.399  0.5458 -0.5736 -0.1859
    5TMC2    H514409   2.417   3.025  15.331  0.1203 -0.6326 -0.5522
    6MPD2     C14410   1.487   2.711  14.944 -0.1521 -1.3563 -0.3707
    6MPD2    C114411   1.544   2.830  14.970  0.5362 -0.5705  0.5360
    6MPD2    C214412   1.681   2.844  14.980 -0.2023  0.1935  0.2361
    6MPD2    C314413   1.767   2.738  14.963  0.0182  0.6464 -0.1988
    6MPD2    C414414   1.715   2.617  14.918  0.3335 -0.2086 -0.1374
    6MPD2    C514415   1.576   2.609  14.924 -0.1428  0.4113 -0.6155
    6MPD2     H14416   1.721   2.943  15.001 -1.5031  0.7043  0.3027
    6MPD2    H114417   1.780   2.535  14.895  1.3860 -0.2874  3.0334
    6MPD2    H214418   1.381   2.693  14.925 -0.1311  1.7066 -3.4462
    6MPD2    H314419   1.526   2.524  14.878  0.0188  0.5853 -1.1183
    6MPD2     N14420   1.905   2.743  14.981  0.0498 -0.4630 -0.0167
    6MPD2    H514421   1.957   2.657  14.967 -0.7186 -1.0091  0.5025
    6MPD2    N114422   1.469   2.950  14.983 -0.2422 -0.0680 -0.5057
    6MPD2    H714423   1.521   3.031  15.016  1.1765 -0.9953 -0.4862
  945NH4     N114424   1.671   4.275   0.655 -0.7562  0.4335  0.3612
  945NH4     H214425   1.625   4.356   0.701 -2.5452 -0.3039 -0.1253
  945NH4     H314426   1.745   4.310   0.592 -1.1050  0.8220  0.1687
  945NH4     H414427   1.605   4.216   0.600 -1.8277  2.6550 -0.7227
  945NH4     H514428   1.708   4.221   0.736 -2.7103  1.4818  1.9778
  946SOD     NA14429   2.206   4.419   7.543 -0.3555  0.2046 -0.0454
  947SOD     NA14430   0.352   1.391  15.051  0.2059  0.2182  0.3212
  948SOD     NA14431   3.739   4.573  16.616  0.2077  0.2686 -0.5101
  949SOD     NA14432   2.690   2.901  15.947  0.2461  0.1811 -0.4062
  950SOD     NA14433   1.056   3.360   2.382 -0.3471  0.4448 -0.4143
  951SOD     NA14434   2.293   2.655  11.456  0.0022  0.3499  0.2995
  952SOD     NA14435   4.233   4.053   1.700  0.5351 -0.1997  0.1553
  953SOD     NA14436   3.113   2.120   9.374  0.0594  0.2257 -0.0919
  954SOD     NA14437   3.616   1.305  13.969  0.2544  0.1669  0.1723
  955SOD     NA14438   3.698   0.947   0.402  0.3582  0.2193  0.0194
  956SOD     NA14439   0.804   2.958  10.110 -0.5042 -0.0005  0.0313
  957SOD     NA14440   1.363   4.709   1.831 -0.3560  0.0461  0.0294
  958SOD     NA14441   3.378   1.183  15.056 -0.1763  0.1453 -0.3296
  959SOD     NA14442   1.594   2.064  13.067  0.2089 -0.0960 -0.0279
  960SOD     NA14443   3.543   1.897  12.278 -0.2869 -0.6530 -0.0442
  961SOD     NA14444   3.958   2.882  17.473  0.0413 -0.2632 -0.1856
  962SOD     NA14445   2.887   0.170  16.745  0.1985  0.1082  0.6567
  963SOD     NA14446   1.838   3.016  11.460  0.0343 -0.2213  0.3418
  964SOD     NA14447   1.939   2.060  11.683  0.2451 -0.0743  0.6375
  965SOD     NA14448   1.234   0.778   5.345  0.5374 -0.0954  0.1340
  966SOD     NA14449   4.188   2.883   0.923  0.4520  0.1464 -0.1748
  967SOD     NA14450   1.141   4.203  11.846 -0.1280  0.2422  0.1173
  968SOD     NA14451   0.701   3.704   8.721  0.4455  0.3119 -0.1949
  969SOD     NA14452   1.288   4.472   3.551 -0.0659  0.3300 -0.3596
  970SOD     NA14453   0.981   2.437   5.277  0.1274 -0.2696  0.5916
  971SOD     NA14454   0.333   2.243   9.392 -0.1015  0.0326 -0.2278
  972SOD     NA14455   2.250   2.403  13.986 -0.3379 -0.2681 -0.6685
  973SOD     NA14456   3.884   4.468  11.523 -0.1068  0.2512 -0.6106
  974SOD     NA14457   4.438   4.250  10.553 -0.2959 -0.1276  0.0819
  975SOD     NA14458   3.477   1.461   1.629  0.1067  0.0917  0.3292
  976SOD     NA14459   4.319   1.956  12.894  0.1326 -0.0163 -0.1520
  977SOD     NA14460   4.106   3.223  13.790 -0.4601 -0.4126  0.8140
  978SOD     NA14461   2.360   2.521   9.724  0.0367 -0.1734  0.0725
  979SOD     NA14462   1.822   1.667  10.624 -0.6038  0.3764 -0.3024
  980SOD     NA14463   2.811   2.486  14.727 -0.2976 -0.1503 -0.1944
  981SOD     NA14464   3.810   1.577   9.653 -0.1471  0.0427  0.0040
  982SOD     NA14465   1.470   3.610   0.253  0.3482  0.4278  0.2922
  983SOD     NA14466   1.418   2.092  10.089  0.4631 -0.1036 -0.0800
  984SOD     NA14467   0.616   1.699  10.294 -0.0302 -0.7599 -0.1375
  985SOD     NA14468   4.198   0.746   2.749 -0.1536 -0.1589 -0.1740
  986SOD     NA14469   0.561   3.412  14.957 -0.1968  0.1519  0.4874
  987SOD     NA14470   4.608   1.496  11.448 -0.1917  0.2932  0.7941
  988SOD     NA14471   3.820   4.682   4.600  0.1930 -0.0834  0.1797
  989SOD     NA14472   0.965   2.044   2.739  0.1406  0.0708  0.5830
  990SOD     NA14473   4.281   2.577  11.854  0.4378  0.3988  0.0856
  991SOD     NA14474   1.761   3.418   3.701  0.1477  0.1973 -0.3427
  992SOD     NA14475   0.603   1.673  14.228 -0.4415  0.6845  0.1949
  993SOD     NA14476   3.046   2.881  15.140 -0.0484 -0.0890  0.2223
  994SOD     NA14477   1.452   3.540  14.019 -0.0147 -0.1425  0.3321
  995SOD     NA14478   2.840   0.546   2.679  0.1499  0.1428  0.1184
  996SOD     NA14479   0.472   2.051  12.709  0.0401  0.0295  0.3208
  997SOD     NA14480   4.310   2.285   1.290  0.7327 -0.2686  0.2806
  998SOD     NA14481   2.961   2.584  15.044 -0.0669  0.1717 -0.2748
  999SOD     NA14482   1.958   2.750  11.468  0.2955  0.2005 -0.6144
 1000SOD     NA14483   2.226   3.116  10.990  0.0733  0.3930 -0.1938
 1001SOD     NA14484   4.009   3.224  12.770  0.0285 -0.3875 -0.0681
 1002SOD     NA14485   1.134   2.935   9.190 -0.3780 -0.1851  0.4206
 1003SOD     NA14486   2.076   2.747   8.078  0.7197 -0.4401 -0.2047
 1004SOD     NA14487   2.555   2.299  14.431  0.0226  0.0006  0.2678
 1005SOD     NA14488   2.917   1.993   4.177 -0.1394  0.2000  0.1204
 1006SOD     NA14489   3.222   3.496  13.287 -0.0903  0.4491 -0.1299
 1007SOD     NA14490   1.945   3.944  10.508  0.0017  0.6851 -0.0021
 1008SOD     NA14491   3.325   3.443   2.173 -0.0300  0.0548  0.5702
 1009SOD     NA14492   3.406   3.835  10.674 -0.1509 -0.4040 -0.2402
 1010SOD     NA14493   2.807   1.043  16.867  0.3207  0.2524  0.3686
 1011SOL     OW14494   2.467   0.548  11.245 -0.0224  0.1513 -0.2189
 1011SOL    HW114495   2.496   0.478  11.303  0.3647  1.3283  0.9998
 1011SOL    HW214496   2.411   0.604  11.299  0.9017  1.8164 -0.9860
 1012SOL     OW14497   0.152   4.020  11.462 -0.2454  0.5016  1.3233
 1012SOL    HW114498   0.228   3.963  11.471 -1.4230 -1.2580  0.0999
 1012SOL    HW214499   0.091   3.967  11.514  0.9744 -0.9461  1.2838
 1013SOL     OW14500   3.136   2.608  15.193 -0.1288  0.4053 -0.1677
 1013SOL    HW114501   3.206   2.668  15.166  0.2222 -0.0625 -0.2937
 1013SOL    HW214502   3.178   2.522  15.189 -0.6541  0.2281 -2.0574
 1014SOL     OW14503   3.188   2.483   7.975  0.1963 -0.1046  0.0232
 1014SOL    HW114504   3.115   2.533   8.011 -0.6660 -0.8319 -0.7244
 1014SOL    HW214505   3.168   2.394   8.002  2.7641 -0.9111 -0.7426
 1015SOL     OW14506   0.060   4.371   7.684 -0.6405 -0.0810  0.3600
 1015SOL    HW114507   0.015   4.447   7.721 -0.4400  1.5758 -2.7897
 1015SOL    HW214508   0.002   4.298   7.707  0.9728 -0.5343  3.1037
 1016SOL     OW14509   0.389   4.610  15.287 -0.0959  0.5310  0.1351
 1016SOL    HW114510   0.417   4.587  15.198  1.2522  1.4101  0.3340
 1016SOL    HW214511   0.476   4.610  15.326 -0.4504 -1.4297  0.9344
 1017SOL     OW14512   2.945   1.217   4.670  0.2698 -0.0967  0.0031
 1017SOL    HW114513   2.897   1.297   4.647 -1.8775 -0.7638  2.2238
 1017SOL    HW214514   2.874   1.154   4.654 -0.7991  0.9174  0.7373
 1018SOL     OW14515   1.412   0.329   1.532  0.0147 -0.7721 -0.2976
 1018SOL    HW114516   1.369   0.324   1.447 -1.0155  0.7047  0.1365
 1018SOL    HW214517   1.500   0.302   1.506  0.9642  0.5502  1.4339
 1019SOL     OW14518   4.348   1.035   6.104  0.1187  0.6947 -0.5685
 1019SOL    HW114519   4.396   1.114   6.079  0.2925  0.3074 -1.4580
 1019SOL    HW214520   4.277   1.044   6.041 -0.1577 -3.7167 -0.9000
 1020SOL     OW14521   1.249   0.645   6.291 -0.0834 -0.0364 -0.5220
 1020SOL    HW114522   1.192   0.594   6.349  0.4937 -0.0358  0.0489
 1020SOL    HW214523   1.336   0.608   6.306 -0.1345  1.2854  3.0835
 1021SOL     OW14524   2.037   0.634   4.191  0.0146  0.2590 -0.2157
 1021SOL    HW114525   1.973   0.697   4.226  0.8657  0.9484  0.1097
 1021SOL    HW214526   1.979   0.604   4.121 -0.6506 -0.8292  0.8093
 1022SOL     OW14527   0.222   0.310  12.583  0.1146 -0.3449 -0.3633
 1022SOL    HW114528   0.284   0.239  12.567  0.5025  0.6418 -3.3606
 1022SOL    HW214529   0.248   0.382  12.526 -1.7374  0.2090 -0.5238
 1023SOL     OW14530   2.802   4.681   3.266 -0.3625 -0.0488  0.1176
 1023SOL    HW114531   2.785   0.047   3.303 -0.8579  0.0729 -0.3803
 1023SOL    HW214532   2.727   4.642   3.310  0.9896  0.4810  2.8473
 1024SOL     OW14533   3.518   4.004   0.816  0.0834  0.1107  0.6089
 1024SOL    HW114534   3.435   4.036   0.781 -1.2659 -3.0312  0.9299
 1024SOL    HW214535   3.474   3.954   0.885 -0.3984  0.3833  0.4998
 1025SOL     OW14536   0.969   3.438   8.279 -0.2492  0.7389 -0.1889
 1025SOL    HW114537   0.923   3.488   8.211  1.5557  0.1636 -1.8202
 1025SOL    HW214538   0.913   3.362   8.296  2.2303 -0.9610  0.3156
 1026SOL     OW14539   4.485   0.321   6.513 -0.2497  0.7850 -0.2359
 1026SOL    HW114540   4.423   0.293   6.447  0.6520  1.1267 -1.2332
 1026SOL    HW214541   4.425   0.353   6.580  2.4367  0.3085  2.3858
 1027SOL     OW14542   0.872   0.340   6.683  0.1154 -0.0335  0.0946
 1027SOL    HW114543   0.833   0.303   6.761 -1.7619 -0.2669 -0.9630
 1027SOL    HW214544   0.933   0.272   6.655  1.2585  1.5470 -1.2967
 1028SOL     OW14545   2.071   2.916   7.605  0.8112 -0.3773  0.0673
 1028SOL    HW114546   2.020   2.839   7.630  0.3222  0.6461  2.2120
 1028SOL    HW214547   2.084   2.909   7.510  0.6331 -0.4410  0.0479
 1029SOL     OW14548   4.374   3.531   8.353  0.1020  0.7011 -0.4577
 1029SOL    HW114549   4.309   3.593   8.384 -2.4664 -2.3961  0.3007
 1029SOL    HW214550   4.375   3.551   8.259 -1.1225 -2.6012 -1.1839
 1030SOL     OW14551   3.430   3.841   1.481  0.1407 -0.3981 -0.7850
 1030SOL    HW114552   3.514   3.848   1.526 -0.3286 -0.1885  0.0770
 1030SOL    HW214553   3.413   3.930   1.450 -0.4538 -0.2228  0.0556
 1031SOL     OW14554   4.062   1.272   7.492 -0.3143 -0.2878 -0.8530
 1031SOL    HW114555   4.042   1.351   7.442  1.9927 -0.2877 -1.7548
 1031SOL    HW214556   3.993   1.219   7.452 -1.8771 -0.8751  2.6352
 1032SOL     OW14557   3.356   3.308  13.290  0.0066 -0.2211 -0.5126
 1032SOL    HW114558   3.301   3.234  13.269 -1.6777  0.1066  2.8328
 1032SOL    HW214559   3.439   3.277  13.327 -0.8407  0.0564  1.6196
 1033SOL     OW14560   3.533   2.426   6.101  0.0891 -0.2631  0.2164
 1033SOL    HW114561   3.463   2.443   6.038 -0.3498 -0.2237  0.7107
 1033SOL    HW214562   3.533   2.330   6.109 -0.9755 -0.3764 -1.0287
 1034SOL     OW14563   2.325   3.658   6.237  0.0989 -0.4419 -0.3558
 1034SOL    HW114564   2.347   3.582   6.292  1.2232 -1.0088 -1.5796
 1034SOL    HW214565   2.258   3.620   6.181  0.1371 -1.6486  0.4164
 1035SOL     OW14566   3.883   3.986   3.553  0.0886  0.1682  0.3207
 1035SOL    HW114567   3.818   4.039   3.507  1.3602  1.5109  0.0846
 1035SOL    HW214568   3.970   4.017   3.530  0.0478 -0.3775 -0.5750
 1036SOL     OW14569   1.310   2.824   4.570  0.0943 -0.9076 -0.0654
 1036SOL    HW114570   1.232   2.773   4.592 -0.3657 -1.5198 -3.0986
 1036SOL    HW214571   1.334   2.873   4.648  1.5558 -0.0612 -1.0493
 1037SOL     OW14572   1.221   2.249  10.130 -0.3405  0.7999 -0.3337
 1037SOL    HW114573   1.166   2.229  10.055 -1.2823  0.8910  0.3258
 1037SOL    HW214574   1.176   2.326  10.166  0.3680  0.3711  1.4838
 1038SOL     OW14575   3.497   0.016  14.313 -0.2885  0.2643  0.3189
 1038SOL    HW114576   3.475   4.646  14.288 -2.2667  0.5513  0.9583
 1038SOL    HW214577   3.583   0.036  14.277 -0.2843  1.3948  0.9500
 1039SOL     OW14578   3.106   4.260   4.793  0.0643 -0.4945 -0.3967
 1039SOL    HW114579   3.155   4.243   4.712 -1.0583  0.2236 -1.2256
 1039SOL    HW214580   3.173   4.285   4.857 -1.7702  3.2900  0.0552
 1040SOL     OW14581   0.212   0.268   0.036  0.0263  0.5361  0.0970
 1040SOL    HW114582   0.210   0.221  17.635 -3.6740  2.1904 -0.7245
 1040SOL    HW214583   0.307   0.271   0.053 -0.3096  1.5099  1.7803
 1041SOL     OW14584   2.543   1.979   5.362 -0.1904  0.9717  0.5944
 1041SOL    HW114585   2.482   1.919   5.319  0.5404  0.0042  0.8892
 1041SOL    HW214586   2.518   2.061   5.320 -2.7735 -1.1342 -2.0133
 1042SOL     OW14587   2.918   2.989   8.314 -0.6613 -0.2560  0.3565
 1042SOL    HW114588   2.823   2.981   8.303 -0.9120  2.9257  0.4001
 1042SOL    HW214589   2.927   3.006   8.407  0.1879 -0.4949  0.3188
 1043SOL     OW14590   4.372   2.897   3.433  0.5777  0.2284  0.4386
 1043SOL    HW114591   4.402   2.831   3.494 -1.1411 -1.7257 -0.8411
 1043SOL    HW214592   4.372   2.977   3.486  0.3013  0.0434  0.7188
 1044SOL     OW14593   0.795   3.437   8.013  0.0418  0.1031  0.2381
 1044SOL    HW114594   0.735   3.422   8.086 -0.3723  1.2448  0.1370
 1044SOL    HW214595   0.774   3.529   7.993 -0.6265 -0.4044 -1.4627
 1045SOL     OW14596   4.561   0.713  10.559  0.2690 -0.0838  0.2617
 1045SOL    HW114597   4.500   0.766  10.611 -0.0385 -0.5040  0.3249
 1045SOL    HW214598   4.512   0.632  10.549 -1.6498  1.0886  0.1188
 1046SOL     OW14599   3.381   4.264   7.298 -0.4273 -0.0660  0.0087
 1046SOL    HW114600   3.311   4.223   7.248 -0.2266  0.6893 -0.8926
 1046SOL    HW214601   3.332   4.319   7.359  0.5852 -0.1624  0.9254
 1047SOL     OW14602   1.293   1.351   8.781  0.5403  0.5220 -0.0647
 1047SOL    HW114603   1.282   1.308   8.697  0.0234  0.5682 -0.0181
 1047SOL    HW214604   1.207   1.351   8.824  0.9038  0.4724  0.6686
 1048SOL     OW14605   4.564   2.461   5.335 -0.1581 -0.1025 -0.7621
 1048SOL    HW114606   4.476   2.488   5.362  1.0127  2.4250  0.5116
 1048SOL    HW214607   4.616   2.476   5.414  0.0097  2.9866 -1.4655
 1049SOL     OW14608   2.399   3.856   3.735 -0.0426  0.2757  0.2681
 1049SOL    HW114609   2.416   3.944   3.703  0.9338  0.4254  1.2008
 1049SOL    HW214610   2.469   3.842   3.799  2.3659  1.1713 -2.1844
 1050SOL     OW14611   1.108   3.250   4.425 -0.1036 -0.8143  0.6766
 1050SOL    HW114612   1.067   3.243   4.510  0.7413  0.6393  1.2020
 1050SOL    HW214613   1.198   3.271   4.452 -1.0851  1.1953  2.3300
 1051SOL     OW14614   0.969   3.069   5.540  0.2662  0.0384  0.3886
 1051SOL    HW114615   0.980   3.059   5.445  0.8297  2.1852  0.2374
 1051SOL    HW214616   1.021   3.144   5.569  0.9596  0.2135 -1.3011
 1052SOL     OW14617   3.154   3.538   1.618 -0.4676 -0.3930 -0.3539
 1052SOL    HW114618   3.150   3.634   1.623 -2.3607 -0.5589  1.0792
 1052SOL    HW214619   3.102   3.512   1.694  0.5784 -1.9121 -0.1656
 1053SOL     OW14620   3.958   0.421   3.258  0.0518 -0.9254 -0.2969
 1053SOL    HW114621   4.021   0.386   3.195 -0.5915  0.1298 -1.5187
 1053SOL    HW214622   4.012   0.483   3.307  0.0757 -2.3487  1.4823
 1054SOL     OW14623   0.067   3.139   3.666  0.0510  0.2924 -0.2147
 1054SOL    HW114624   4.714   3.169   3.720 -0.5520  0.7705 -1.3015
 1054SOL    HW214625   0.041   3.189   3.588  2.4570 -0.2376 -1.3516
 1055SOL     OW14626   3.628   0.140   2.360  0.4610  0.6853 -0.1203
 1055SOL    HW114627   3.642   0.173   2.272 -2.4174  1.4928 -0.3039
 1055SOL    HW214628   3.710   0.160   2.404  1.6537  1.3974 -2.7112
 1056SOL     OW14629   2.256   2.670   5.091  0.2016 -0.0794 -0.0553
 1056SOL    HW114630   2.292   2.646   5.176  2.6671 -1.1816 -1.3872
 1056SOL    HW214631   2.286   2.595   5.040 -1.2586 -0.3394 -0.5260
 1057SOL     OW14632   2.216   3.579   5.659 -0.2420  0.4036  0.0472
 1057SOL    HW114633   2.272   3.505   5.635  0.0644  0.0885  1.7405
 1057SOL    HW214634   2.154   3.583   5.586  1.3292  1.8290 -1.2072
 1058SOL     OW14635   4.131   3.765   5.769  0.1046 -0.9861 -0.0129
 1058SOL    HW114636   4.144   3.801   5.856 -0.3913  1.3938 -0.9293
 1058SOL    HW214637   4.165   3.836   5.715  1.7904 -2.6374 -1.1142
 1059SOL     OW14638   3.720   1.385  15.740  0.0015 -0.1003  0.4339
 1059SOL    HW114639   3.723   1.402  15.835  0.9388  2.6497 -0.0818
 1059SOL    HW214640   3.799   1.331  15.728  0.8060  1.7640 -2.5692
 1060SOL     OW14641   2.925   0.083  13.444  0.4431 -0.8714  0.0713
 1060SOL    HW114642   2.889   0.171  13.438 -1.7033 -1.8329 -1.3271
 1060SOL    HW214643   2.903   0.060  13.353  3.7505  2.9812 -1.7326
 1061SOL     OW14644   1.851   1.672   7.690  0.0668 -0.6163 -0.9009
 1061SOL    HW114645   1.884   1.761   7.678  3.2584 -1.8589 -1.3406
 1061SOL    HW214646   1.928   1.618   7.676  0.3538 -0.8881  1.6999
 1062SOL     OW14647   3.789   3.068   1.483 -0.1629 -0.2841  0.1667
 1062SOL    HW114648   3.727   3.105   1.421  1.9832 -0.3974 -2.0098
 1062SOL    HW214649   3.867   3.086   1.432 -0.7936 -1.4891 -1.2182
 1063SOL     OW14650   0.440   4.664  10.092  0.1793  0.3805  0.0486
 1063SOL    HW114651   0.488   4.698  10.017  1.0470  0.4249  0.6282
 1063SOL    HW214652   0.509   4.622  10.143 -1.3493 -0.8615  1.0826
 1064SOL     OW14653   1.396   2.483   1.038 -0.2239 -0.3588  0.5710
 1064SOL    HW114654   1.304   2.509   1.042 -0.5450 -1.1794 -1.6331
 1064SOL    HW214655   1.402   2.451   0.948 -1.2034  0.7247  0.1327
 1065SOL     OW14656   0.947   3.043   7.660 -0.0597 -0.7939  0.4708
 1065SOL    HW114657   0.880   3.086   7.714 -0.8197 -0.3310 -0.8445
 1065SOL    HW214658   0.926   3.078   7.574  0.0292 -1.2334  0.2733
 1066SOL     OW14659   3.765   2.161  16.275 -0.0775  0.3051 -0.1250
 1066SOL    HW114660   3.674   2.167  16.246  1.0603 -2.8937 -4.3095
 1066SOL    HW214661   3.753   2.110  16.356 -0.3037  0.0724 -0.3071
 1067SOL     OW14662   0.392   2.483   6.793 -0.5403 -0.3644 -0.3252
 1067SOL    HW114663   0.378   2.391   6.814  0.6633  0.2203  3.0788
 1067SOL    HW214664   0.435   2.511   6.874  0.7312  0.9029 -1.4279
 1068SOL     OW14665   4.436   1.837   2.798  0.0552 -0.1006  0.2964
 1068SOL    HW114666   4.343   1.841   2.818  0.5125 -1.4840  2.6466
 1068SOL    HW214667   4.456   1.744   2.797 -0.9212 -0.3311  3.4046
 1069SOL     OW14668   1.636   1.130   1.994  0.1331  0.1797  0.1992
 1069SOL    HW114669   1.683   1.128   1.911 -2.6200  2.4539 -1.4245
 1069SOL    HW214670   1.557   1.079   1.979 -0.9469  1.8738  0.1717
 1070SOL     OW14671   0.621   3.642  10.789 -0.4607 -0.4935 -0.1930
 1070SOL    HW114672   0.626   3.653  10.884  1.2745 -2.6118 -0.0450
 1070SOL    HW214673   0.690   3.706  10.775 -0.5367  0.1695  2.3458
 1071SOL     OW14674   4.309   1.361   8.528 -0.3965 -0.2788  0.1505
 1071SOL    HW114675   4.318   1.265   8.528  1.8478 -0.0546 -0.7424
 1071SOL    HW214676   4.268   1.369   8.442 -1.1419  1.1964  0.6412
 1072SOL     OW14677   2.111   0.389   8.700  0.1605  0.3168 -0.0685
 1072SOL    HW114678   2.096   0.311   8.646 -0.1609  0.6699 -0.4791
 1072SOL    HW214679   2.137   0.342   8.780  3.7785  0.7096 -1.0134
 1073SOL     OW14680   0.406   2.448   5.730 -0.0571  0.3468  0.6226
 1073SOL    HW114681   0.341   2.405   5.785  0.5187 -0.8844  0.3630
 1073SOL    HW214682   0.442   2.517   5.786  0.2135 -0.1817  1.0972
 1074SOL     OW14683   4.699   3.930   2.602  0.3471  0.1558  0.3470
 1074SOL    HW114684   0.055   3.874   2.621  2.3204  2.8371  0.4041
 1074SOL    HW214685   0.023   4.013   2.621  1.3815 -0.2712 -0.1703
 1075SOL     OW14686   3.000   0.743   6.976 -0.7495  0.2212 -0.3542
 1075SOL    HW114687   2.962   0.786   6.899 -1.7785 -1.3385 -0.7076
 1075SOL    HW214688   2.923   0.742   7.033 -0.9229  0.7332 -0.5827
 1076SOL     OW14689   1.519   1.794   9.295 -0.3760  0.5153 -0.2915
 1076SOL    HW114690   1.557   1.877   9.325 -0.3267 -0.3143  1.9197
 1076SOL    HW214691   1.427   1.820   9.302  0.2878  3.0005 -0.7605
 1077SOL     OW14692   3.818   2.304   1.442 -0.3784  0.3919 -0.5127
 1077SOL    HW114693   3.856   2.224   1.479 -0.0898  0.1165 -1.4150
 1077SOL    HW214694   3.855   2.296   1.354 -0.7433  0.8862 -0.7093
 1078SOL     OW14695   2.531   4.169  17.498 -0.5718 -0.5476 -0.1442
 1078SOL    HW114696   2.546   4.094  17.440 -0.8205  0.0917 -1.0357
 1078SOL    HW214697   2.496   4.118  17.571 -1.9236  0.9696  0.2731
 1079SOL     OW14698   1.715   0.832   2.125 -0.7180 -0.0387 -0.1811
 1079SOL    HW114699   1.677   0.767   2.184  1.3745 -1.1582 -0.0651
 1079SOL    HW214700   1.691   0.799   2.039  2.9643 -0.4124 -1.0447
 1080SOL     OW14701   3.546   0.390   7.463 -0.2895  0.6103  0.7584
 1080SOL    HW114702   3.552   0.303   7.425  0.7357  0.8662  0.3451
 1080SOL    HW214703   3.602   0.374   7.538  0.2125 -1.0201  0.0295
 1081SOL     OW14704   1.052   0.396   5.909 -0.5922  0.0504  0.3629
 1081SOL    HW114705   1.074   0.451   5.834  0.3416 -0.5479  0.2123
 1081SOL    HW214706   1.117   0.326   5.904 -0.7162 -0.0430  0.0566
 1082SOL     OW14707   1.491   2.425   8.702  0.3068  0.7194 -0.1046
 1082SOL    HW114708   1.515   2.517   8.695 -0.6952  0.8513 -1.8851
 1082SOL    HW214709   1.501   2.403   8.610  0.5362  0.7652 -0.0904
 1083SOL     OW14710   2.906   3.099   8.022  0.1010  0.3689 -0.1516
 1083SOL    HW114711   2.824   3.127   8.063 -0.5320 -1.2878 -0.2810
 1083SOL    HW214712   2.961   3.105   8.101  0.4496 -2.0279 -0.1928
 1084SOL     OW14713   1.552   2.919   1.567  0.0366  0.2634 -0.1980
 1084SOL    HW114714   1.613   2.986   1.595  0.1193 -0.5001  1.4369
 1084SOL    HW214715   1.602   2.838   1.555 -0.7717 -0.4453  1.2128
 1085SOL     OW14716   3.382   3.965   1.187  0.5075 -0.3027  0.0952
 1085SOL    HW114717   3.419   3.901   1.126 -1.1462 -0.2275 -0.9914
 1085SOL    HW214718   3.445   3.990   1.254  0.4510  3.7251 -1.3948
 1086SOL     OW14719   0.302   0.507   8.022 -0.3319 -0.1105 -0.3962
 1086SOL    HW114720   0.270   0.597   8.018  0.9212  0.3414 -0.3014
 1086SOL    HW214721   0.318   0.482   7.931  0.4725  1.0056 -0.5613
 1087SOL     OW14722   2.955   3.267   3.193  0.1599 -0.0828  0.4966
 1087SOL    HW114723   3.036   3.301   3.232  1.3810 -1.6467 -0.6985
 1087SOL    HW214724   2.905   3.349   3.195 -2.4138 -1.6708  1.3093
 1088SOL     OW14725   0.313   4.168  15.084  0.2540 -0.3295  0.2730
 1088SOL    HW114726   0.370   4.132  15.017  0.2588  0.0812  0.0560
 1088SOL    HW214727   0.371   4.231  15.128  1.9229 -0.8937 -1.1409
 1089SOL     OW14728   4.366   4.662  15.783 -0.0882  0.5804 -0.0214
 1089SOL    HW114729   4.303   4.597  15.815 -2.4755  1.9460 -2.0123
 1089SOL    HW214730   4.332   0.022  15.822 -1.0112  0.0357  0.2919
 1090SOL     OW14731   4.439   3.431  15.670  0.3845  0.0072  0.3412
 1090SOL    HW114732   4.481   3.458  15.588  0.0100 -0.6799 -0.0691
 1090SOL    HW214733   4.418   3.513  15.716 -0.6846 -0.3045  0.3999
 1091SOL     OW14734   1.986   0.747   8.494  0.5005  0.2308  0.3260
 1091SOL    HW114735   2.055   0.717   8.553 -0.5657 -0.3155  1.2943
 1091SOL    HW214736   2.045   0.761   8.420  2.7577 -1.0372  1.9006
 1092SOL     OW14737   0.055   0.646  16.835  0.3756  0.7143 -0.8836
 1092SOL    HW114738   0.143   0.625  16.864 -0.8844 -1.8687  1.0778
 1092SOL    HW214739   0.021   0.709  16.898  1.5145 -2.8528  3.2505
 1093SOL     OW14740   2.258   2.407   5.784  0.1288 -0.0331 -0.4885
 1093SOL    HW114741   2.177   2.391   5.831  0.6920 -1.0154  0.1590
 1093SOL    HW214742   2.302   2.454   5.855 -0.6378  2.0755 -1.4262
 1094SOL     OW14743   2.286   3.335  10.068 -0.4475  0.2909  0.1157
 1094SOL    HW114744   2.336   3.415  10.084 -0.2301 -0.0231  0.9913
 1094SOL    HW214745   2.343   3.295  10.003  1.2789 -2.8954  3.6002
 1095SOL     OW14746   0.358   0.637   3.289 -0.4299 -0.2033  0.7344
 1095SOL    HW114747   0.350   0.695   3.364  0.2298 -1.3829  1.7197
 1095SOL    HW214748   0.402   0.699   3.231  1.0827 -2.3687 -0.4570
 1096SOL     OW14749   2.437   2.211   2.912 -0.1973  0.0694  0.6187
 1096SOL    HW114750   2.437   2.282   2.976 -0.8677 -0.1366  0.8581
 1096SOL    HW214751   2.430   2.138   2.974  1.6815 -0.4306  0.2246
 1097SOL     OW14752   1.106   2.470   7.076 -0.0401 -0.4751 -0.1377
 1097SOL    HW114753   1.087   2.491   7.168  2.8661  0.6118  0.2142
 1097SOL    HW214754   1.148   2.550   7.045 -0.7093 -0.2137 -0.3743
 1098SOL     OW14755   0.174   1.428  11.987  0.2377  0.3201  0.2653
 1098SOL    HW114756   0.174   1.488  11.913  0.8046  2.2257  1.8288
 1098SOL    HW214757   0.162   1.347  11.937  2.0442  0.2012 -0.0049
 1099SOL     OW14758   0.226   1.875  16.370 -0.3595  0.1124 -0.8148
 1099SOL    HW114759   0.204   1.954  16.419  1.0669  0.9340 -1.4914
 1099SOL    HW214760   0.171   1.882  16.292 -2.8573  0.0823  0.9402
 1100SOL     OW14761   4.108   4.694   8.298 -0.1492 -0.0811 -0.3224
 1100SOL    HW114762   4.139   0.023   8.375 -0.4368  0.3660 -0.4928
 1100SOL    HW214763   4.075   4.617   8.345 -1.0148  0.5350  0.0924
 1101SOL     OW14764   4.365   2.231  11.627 -0.3092  0.2010 -0.2963
 1101SOL    HW114765   4.422   2.230  11.550 -0.6102  1.2304 -0.5368
 1101SOL    HW214766   4.284   2.259  11.584  1.8422  4.3211 -1.6946
 1102SOL     OW14767   3.909   4.096   1.125 -0.7934 -0.3258  0.4459
 1102SOL    HW114768   3.955   4.110   1.042  2.1527 -0.6065  2.0513
 1102SOL    HW214769   3.829   4.142   1.099  0.5893  1.2926 -0.9316
 1103SOL     OW14770   0.821   2.634   2.367  0.3013  0.0768  0.0244
 1103SOL    HW114771   0.731   2.647   2.398  0.5478 -0.8924  1.1098
 1103SOL    HW214772   0.842   2.553   2.413 -0.8179  1.0235  2.1872
 1104SOL     OW14773   4.028   4.450   6.892  0.1355  0.6009  0.4372
 1104SOL    HW114774   4.080   4.529   6.880  0.0890  0.1961 -2.4603
 1104SOL    HW214775   3.957   4.478   6.950 -0.3352 -0.5930  0.4475
 1105SOL     OW14776   0.958   4.661  14.495 -0.1016  0.8562  0.6433
 1105SOL    HW114777   0.948   0.036  14.496 -2.3828  0.6372 -1.5320
 1105SOL    HW214778   0.883   4.637  14.550  2.0585  1.1032  3.6773
 1106SOL     OW14779   0.218   4.465   3.822 -0.0105  0.1732 -0.2530
 1106SOL    HW114780   0.204   4.442   3.914  0.3974 -2.8738 -0.9658
 1106SOL    HW214781   0.192   4.557   3.832 -2.1478 -0.2833 -1.9399
 1107SOL     OW14782   1.785   2.294  10.503  0.0856  0.2160  0.1826
 1107SOL    HW114783   1.877   2.299  10.478  0.5541 -2.0300  1.4540
 1107SOL    HW214784   1.781   2.341  10.587  0.0629 -2.3067  1.5843
 1108SOL     OW14785   4.017   4.622   0.157  0.4266  0.3403  0.3761
 1108SOL    HW114786   4.085   4.674   0.114  0.2707 -1.2430 -1.7326
 1108SOL    HW214787   4.001   4.677   0.234 -1.9535  2.3819 -1.5592
 1109SOL     OW14788   4.694   2.857   6.609  0.4590 -0.1328  0.3956
 1109SOL    HW114789   4.645   2.882   6.531  0.4523  1.5120  0.9215
 1109SOL    HW214790   0.062   2.884   6.583 -0.9265  0.8218 -3.1548
 1110SOL     OW14791   2.640   3.622   6.273 -0.3325  0.2339  0.1590
 1110SOL    HW114792   2.609   3.596   6.360  1.4430  0.5969  0.8913
 1110SOL    HW214793   2.683   3.704   6.295  1.0938 -1.0531  2.1970
 1111SOL     OW14794   1.792   3.645   1.296  0.2305 -0.2216  0.7780
 1111SOL    HW114795   1.767   3.611   1.382  3.0422  0.0138  1.6957
 1111SOL    HW214796   1.712   3.639   1.245  0.0366 -0.6734  1.1317
 1112SOL     OW14797   3.994   2.508  14.998  0.4782 -0.2314 -0.2385
 1112SOL    HW114798   4.038   2.475  15.076 -0.9593  0.5950  0.9095
 1112SOL    HW214799   4.044   2.466  14.928 -0.4925 -2.3667  0.3618
 1113SOL     OW14800   1.275   1.066  12.604  0.2223 -0.5125 -0.4979
 1113SOL    HW114801   1.233   1.062  12.518  0.4128  0.4531 -0.6315
 1113SOL    HW214802   1.324   1.148  12.601  3.2128 -2.2568 -0.4390
 1114SOL     OW14803   4.154   3.076  13.951  0.1120 -0.1384  0.5025
 1114SOL    HW114804   4.214   3.011  13.989  2.2181  1.0639 -0.7509
 1114SOL    HW214805   4.074   3.043  13.992 -0.6440 -1.2226 -1.8330
 1115SOL     OW14806   3.480   2.944   9.476 -0.1643  0.1294 -0.0741
 1115SOL    HW114807   3.388   2.958   9.497  0.1900  0.0307  1.5025
 1115SOL    HW214808   3.512   2.932   9.565  3.0557  0.6047 -1.1751
 1116SOL     OW14809   1.082   0.180   4.159 -0.5465  0.2872  0.3930
 1116SOL    HW114810   0.991   0.176   4.188  0.4190 -1.0321  3.2000
 1116SOL    HW214811   1.102   0.087   4.150 -0.2408  0.1076  3.0239
 1117SOL     OW14812   4.700   3.136  10.861 -0.1372 -0.7249 -0.2010
 1117SOL    HW114813   4.659   3.222  10.852 -0.6427 -0.8719  0.6677
 1117SOL    HW214814   0.051   3.150  10.798  2.1114 -0.4981  2.3810
 1118SOL     OW14815   1.529   3.694   3.544  0.0829 -0.0717 -0.0911
 1118SOL    HW114816   1.538   3.640   3.622 -0.0576 -1.5401 -1.0863
 1118SOL    HW214817   1.437   3.714   3.561  0.5292  0.6682  1.5003
 1119SOL     OW14818   4.118   1.850   5.974  0.2955 -0.4688  0.3058
 1119SOL    HW114819   4.151   1.785   6.036  1.2586  1.6296  2.0057
 1119SOL    HW214820   4.031   1.862   6.011  0.6821  1.7358  0.4642
 1120SOL     OW14821   2.881   4.619   9.515 -0.4145  0.1439 -0.1873
 1120SOL    HW114822   2.884   4.662   9.601 -0.9424  2.1944 -1.1843
 1120SOL    HW214823   2.883   4.526   9.535 -1.9061 -0.0255 -0.8028
 1121SOL     OW14824   3.619   1.436   3.561  0.1215 -0.2368  0.1437
 1121SOL    HW114825   3.524   1.451   3.555  0.3258  0.4737 -1.3258
 1121SOL    HW214826   3.645   1.509   3.504 -1.1779  0.9874  1.0998
 1122SOL     OW14827   2.008   1.147  14.909 -0.1699  0.2992  0.0934
 1122SOL    HW114828   2.092   1.163  14.865  0.0113  1.6503  0.9314
 1122SOL    HW214829   1.951   1.116  14.839 -1.5621 -0.0659  1.3971
 1123SOL     OW14830   2.543   0.606   7.684  0.8166 -0.0581  0.2296
 1123SOL    HW114831   2.475   0.540   7.670  1.5451 -0.4729 -1.3348
 1123SOL    HW214832   2.522   0.626   7.775  2.7243  0.1916  0.6097
 1124SOL     OW14833   4.654   3.315   5.672  0.8635  0.1041  0.2234
 1124SOL    HW114834   4.561   3.335   5.671  0.7507 -0.3672  1.5730
 1124SOL    HW214835   4.645   3.221   5.686  2.6001  0.3882  3.2484
 1125SOL     OW14836   2.659   0.432   8.203 -0.3182  0.5236  0.3626
 1125SOL    HW114837   2.750   0.454   8.182 -0.0939  0.2465  1.0488
 1125SOL    HW214838   2.647   0.498   8.271  0.9654  0.3181  0.7941
 1126SOL     OW14839   0.990   3.803   7.348 -0.7137 -0.2619 -0.1098
 1126SOL    HW114840   0.984   3.709   7.361 -1.3053 -0.4982 -1.9879
 1126SOL    HW214841   0.921   3.819   7.283 -0.4058  1.7576  0.0392
 1127SOL     OW14842   1.098   1.669   0.356 -0.4796 -0.0377 -0.4118
 1127SOL    HW114843   1.180   1.635   0.391 -0.3876  0.7647  0.1394
 1127SOL    HW214844   1.141   1.716   0.284 -1.4074 -0.5283 -1.2857
 1128SOL     OW14845   3.262   3.994   1.761  0.6372  0.1018 -0.1357
 1128SOL    HW114846   3.332   4.039   1.809 -1.3751  1.8982  1.0848
 1128SOL    HW214847   3.188   4.053   1.776  0.8685  0.0717  1.1265
 1129SOL     OW14848   3.408   1.303   0.383 -0.5590  0.6101 -0.1659
 1129SOL    HW114849   3.322   1.317   0.423 -0.4450 -2.2303  1.0500
 1129SOL    HW214850   3.428   1.396   0.367  1.8635 -0.1353 -1.4364
 1130SOL     OW14851   4.466   3.022   6.175  0.4572 -0.2070 -0.3172
 1130SOL    HW114852   4.434   3.112   6.172 -1.0371 -0.7507 -1.1603
 1130SOL    HW214853   4.485   3.006   6.082  0.1113 -1.6498 -0.1432
 1131SOL     OW14854   4.686   1.891   5.861 -0.2720  0.1719 -0.2474
 1131SOL    HW114855   4.614   1.921   5.806  1.3793  0.5969 -2.1752
 1131SOL    HW214856   4.679   1.959   5.929  1.6472 -1.6714  1.8329
 1132SOL     OW14857   1.848   0.788   4.303 -0.5985 -0.2313 -0.0972
 1132SOL    HW114858   1.797   0.815   4.379 -1.4451 -1.4765 -0.2249
 1132SOL    HW214859   1.776   0.791   4.239 -0.4446  2.5771 -0.1671
 1133SOL     OW14860   4.645   0.339   4.562  0.3335 -0.2921 -0.3550
 1133SOL    HW114861   4.674   0.382   4.642 -0.8133  0.6810 -0.4574
 1133SOL    HW214862   4.557   0.316   4.591  0.1828  3.3583  2.1669
 1134SOL     OW14863   1.274   0.699  16.408  0.6981 -0.1799 -0.1184
 1134SOL    HW114864   1.356   0.748  16.416  0.4993  0.4449 -1.7835
 1134SOL    HW214865   1.291   0.670  16.318  1.7276 -1.8357  0.6057
 1135SOL     OW14866   2.552   2.584   3.270 -0.1580  0.1250 -0.3396
 1135SOL    HW114867   2.517   2.665   3.305  1.3605  1.4648 -1.8972
 1135SOL    HW214868   2.591   2.556   3.353 -4.5316 -0.5632  1.4638
 1136SOL     OW14869   1.965   4.241  17.444  0.0971 -0.0263 -0.3360
 1136SOL    HW114870   1.977   4.336  17.443 -0.0144  0.0013  0.7982
 1136SOL    HW214871   1.948   4.220  17.353 -2.9086  2.8804 -0.4177
 1137SOL     OW14872   2.171   2.508   4.542  0.0171  0.9240 -0.1940
 1137SOL    HW114873   2.119   2.573   4.495  0.5396  0.5464 -1.3080
 1137SOL    HW214874   2.096   2.465   4.584  0.0460  2.4026  1.3686
 1138SOL     OW14875   2.557   2.399   9.339  0.0716 -0.2087 -0.5181
 1138SOL    HW114876   2.472   2.362   9.313  0.7738 -1.9444 -0.3250
 1138SOL    HW214877   2.609   2.330   9.298 -0.5701  0.1849 -1.9975
 1139SOL     OW14878   4.385   0.424  17.189 -0.0777 -0.3889 -0.6413
 1139SOL    HW114879   4.385   0.379  17.273 -0.1679  0.1486 -0.3532
 1139SOL    HW214880   4.359   0.513  17.211  2.3479 -0.0378  0.6870
 1140SOL     OW14881   0.426   3.071   5.965 -0.1116 -0.2134 -0.1231
 1140SOL    HW114882   0.358   3.128   6.000 -0.4836 -1.0045  0.4357
 1140SOL    HW214883   0.503   3.125   5.949  0.5939 -0.9251  0.8685
 1141SOL     OW14884   2.291   0.738   4.305 -0.1919 -0.2116 -0.0157
 1141SOL    HW114885   2.213   0.698   4.265  0.4635 -1.2138 -0.2953
 1141SOL    HW214886   2.258   0.825   4.328  2.0800 -0.0333  2.4988
 1142SOL     OW14887   3.282   2.560   2.694  0.7055  0.1041 -0.4445
 1142SOL    HW114888   3.306   2.630   2.634  2.7720  1.2812  1.7698
 1142SOL    HW214889   3.297   2.484   2.637  0.4232 -2.8660  3.3985
 1143SOL     OW14890   0.276   4.015   3.018 -0.2877 -0.2351 -0.0984
 1143SOL    HW114891   0.329   4.060   3.082  1.0390 -2.2258  0.2119
 1143SOL    HW214892   0.337   3.974   2.956 -0.6592 -1.8877  0.6293
 1144SOL     OW14893   1.446   3.593  13.010 -0.8665 -0.1672  0.1405
 1144SOL    HW114894   1.385   3.524  12.984 -0.2627 -0.7976  0.3894
 1144SOL    HW214895   1.397   3.670  12.984 -2.3019 -0.5980  1.6186
 1145SOL     OW14896   0.533   0.767  16.970 -0.2306 -0.1040 -0.8354
 1145SOL    HW114897   0.626   0.749  16.961  0.0700  1.3114 -0.5521
 1145SOL    HW214898   0.522   0.835  16.903 -2.3398  1.8352  1.4492
 1146SOL     OW14899   4.427   4.270  12.382 -0.2466 -0.4134  0.2599
 1146SOL    HW114900   4.402   4.197  12.326 -1.3712  1.2947 -1.4849
 1146SOL    HW214901   4.380   4.261  12.466  2.0830 -1.0177  1.4917
 1147SOL     OW14902   4.081   2.796   0.723 -0.0813 -0.1135 -0.0624
 1147SOL    HW114903   4.033   2.723   0.762 -1.9258  0.8678 -0.4923
 1147SOL    HW214904   4.069   2.778   0.629 -1.1317 -0.5672  0.1537
 1148SOL     OW14905   2.199   2.347  17.331  0.0498 -0.0726 -0.3006
 1148SOL    HW114906   2.278   2.312  17.375 -0.5230 -1.6089 -0.4802
 1148SOL    HW214907   2.149   2.265  17.338  1.2671 -0.7188  1.0120
 1149SOL     OW14908   0.460   0.352   9.355 -0.1523  0.1177 -0.1692
 1149SOL    HW114909   0.491   0.362   9.266 -2.1132 -0.6093 -0.9414
 1149SOL    HW214910   0.484   0.427   9.409  0.3594 -0.7062  0.7627
 1150SOL     OW14911   1.918   0.792   5.513 -0.0354  1.0371  0.3459
 1150SOL    HW114912   2.000   0.841   5.514  1.3212 -1.2248  0.2952
 1150SOL    HW214913   1.945   0.713   5.560  1.7773  0.9740 -0.8047
 1151SOL     OW14914   4.308   1.455   5.204 -0.2302  0.1083  0.6674
 1151SOL    HW114915   4.242   1.467   5.272 -0.4546  0.0722  0.4580
 1151SOL    HW214916   4.243   1.416   5.145 -0.1630  1.1575 -0.1219
 1152SOL     OW14917   1.725   3.137   0.299  0.2134  0.8846  0.4586
 1152SOL    HW114918   1.632   3.145   0.321  0.0771 -1.8298  0.8298
 1152SOL    HW214919   1.739   3.165   0.209 -1.1684 -0.6042 -0.2192
 1153SOL     OW14920   4.077   0.991  11.014  0.2183 -0.3412 -0.2243
 1153SOL    HW114921   3.981   0.983  11.014  0.2493 -0.6889  0.9840
 1153SOL    HW214922   4.109   0.923  10.955 -1.4866 -0.8102 -0.6161
 1154SOL     OW14923   4.260   3.542   0.071 -0.4442 -0.0291 -0.3834
 1154SOL    HW114924   4.342   3.502   0.041  0.4043 -0.1775  2.1577
 1154SOL    HW214925   4.212   3.468   0.108  1.9709 -1.0600  0.7361
 1155SOL     OW14926   0.496   0.146   0.202  0.2329  0.0992 -0.7081
 1155SOL    HW114927   0.437   0.212   0.240  1.5769  0.6529  0.4275
 1155SOL    HW214928   0.523   0.118   0.290 -1.0605 -0.6235 -0.5483
 1156SOL     OW14929   4.069   3.486   3.570 -0.5566 -0.4715  0.1099
 1156SOL    HW114930   3.990   3.434   3.587 -0.7366 -0.5153 -0.9085
 1156SOL    HW214931   4.043   3.578   3.563 -2.5256 -0.7825  3.0192
 1157SOL     OW14932   2.616   3.508   5.512 -0.3896 -0.0283  0.0193
 1157SOL    HW114933   2.563   3.470   5.582 -2.4628 -2.1587 -2.6717
 1157SOL    HW214934   2.563   3.496   5.433  0.7481  1.3166 -0.9337
 1158SOL     OW14935   2.789   4.417  14.373 -0.6154 -0.1380  0.2215
 1158SOL    HW114936   2.764   4.325  14.375 -0.1194 -0.2161  2.2641
 1158SOL    HW214937   2.715   4.462  14.332  0.1420  0.5158 -0.4253
 1159SOL     OW14938   3.021   3.747  17.536  0.4145 -0.3508 -0.1818
 1159SOL    HW114939   3.046   3.677  17.474  1.6336 -0.8891  0.9259
 1159SOL    HW214940   3.033   3.694  17.615  0.4114 -1.1998 -0.7517
 1160SOL     OW14941   4.157   0.876   0.475 -0.1419  0.6234  0.5083
 1160SOL    HW114942   4.221   0.944   0.497  0.6250  1.5289 -4.5050
 1160SOL    HW214943   4.077   0.919   0.448 -0.8340 -1.5571 -0.9084
 1161SOL     OW14944   4.046   4.689   7.792 -0.1311  0.2650  0.5026
 1161SOL    HW114945   4.100   4.700   7.870  0.0015 -0.7595  0.5586
 1161SOL    HW214946   4.039   0.056   7.751 -1.6389  0.8771  2.0763
 1162SOL     OW14947   3.633   0.378  15.025  0.3022  0.5209 -0.1765
 1162SOL    HW114948   3.544   0.354  14.998  0.5655 -1.6652  0.9419
 1162SOL    HW214949   3.648   0.457  14.973 -1.0873  0.9749  0.0841
 1163SOL     OW14950   0.441   3.997   2.462  0.4624 -0.7730 -0.3328
 1163SOL    HW114951   0.424   3.903   2.452  1.2563 -0.8086 -1.4201
 1163SOL    HW214952   0.354   4.030   2.442  0.8679  0.1799 -0.5367
 1164SOL     OW14953   1.770   3.794   5.597 -0.1682  0.1559 -0.2878
 1164SOL    HW114954   1.756   3.760   5.508 -1.3045 -0.5256  0.1601
 1164SOL    HW214955   1.813   3.878   5.579  0.2222 -0.1169 -0.6380
 1165SOL     OW14956   1.906   2.593   6.785 -0.2939 -0.1427 -1.0926
 1165SOL    HW114957   1.822   2.553   6.763 -1.3063  1.6895 -0.4930
 1165SOL    HW214958   1.957   2.553   6.715  0.3096 -0.4498 -0.4812
 1166SOL     OW14959   2.161   0.163   1.357 -0.6222  0.1814 -0.0319
 1166SOL    HW114960   2.068   0.170   1.378 -0.1002 -1.1909  2.7529
 1166SOL    HW214961   2.173   0.068   1.365  1.8244  0.3137 -1.9724
 1167SOL     OW14962   4.716   2.435   6.293 -0.0584 -0.1117  0.6154
 1167SOL    HW114963   0.077   2.465   6.334 -0.2150  0.6737  0.3480
 1167SOL    HW214964   4.672   2.517   6.268 -1.8588 -1.2802 -0.0381
 1168SOL     OW14965   2.286   4.694   4.249  0.5729  0.0881  0.7010
 1168SOL    HW114966   2.372   4.711   4.288  0.4724 -0.1361  1.0135
 1168SOL    HW214967   2.289   0.020   4.165 -4.5379 -1.1305 -0.1797
 1169SOL     OW14968   0.787   3.371   9.941  0.4335 -0.3010 -0.2227
 1169SOL    HW114969   0.739   3.433   9.886 -0.6211 -0.2675  0.7528
 1169SOL    HW214970   0.773   3.407  10.028 -0.9406 -0.7673 -0.2565
 1170SOL     OW14971   3.979   3.169  13.005 -0.0671  0.0730  0.4036
 1170SOL    HW114972   4.063   3.183  13.048 -0.3691  1.3167  0.5923
 1170SOL    HW214973   3.968   3.075  13.022 -1.1945  0.7198  3.1595
 1171SOL     OW14974   2.691   0.216  16.642 -0.2843  0.3233 -0.4503
 1171SOL    HW114975   2.625   0.248  16.703 -0.1398  2.2511 -1.3105
 1171SOL    HW214976   2.650   0.249  16.562  1.1428 -2.2310 -2.2378
 1172SOL     OW14977   1.699   2.859   7.897  0.5076 -0.1624  0.1846
 1172SOL    HW114978   1.640   2.811   7.956  0.3938 -2.3843 -1.7429
 1172SOL    HW214979   1.766   2.893   7.956  0.9736 -0.5768 -0.1123
 1173SOL     OW14980   3.494   2.783  11.690 -0.0392 -0.1335  0.1300
 1173SOL    HW114981   3.439   2.852  11.652  0.4469  1.5940  2.6453
 1173SOL    HW214982   3.558   2.788  11.618 -0.4852 -0.4684 -0.2929
 1174SOL     OW14983   3.285   1.727  13.760  0.0884 -0.4714  0.2639
 1174SOL    HW114984   3.240   1.765  13.836 -0.5918 -1.1024  0.1711
 1174SOL    HW214985   3.375   1.733  13.792  0.6310 -2.7908 -0.7951
 1175SOL     OW14986   1.637   4.114   8.507 -0.3538 -0.5836  0.2531
 1175SOL    HW114987   1.623   4.203   8.538 -0.6728 -0.2670 -0.7843
 1175SOL    HW214988   1.546   4.083   8.511 -1.2429  2.0462  0.1247
 1176SOL     OW14989   3.776   0.879   5.423 -0.3166 -0.3101  0.1625
 1176SOL    HW114990   3.870   0.862   5.410 -0.1465  1.7968 -1.3293
 1176SOL    HW214991   3.753   0.940   5.353  2.6809  2.0340  1.1823
 1177SOL     OW14992   1.087   2.749   7.822  0.1405 -0.3471 -0.4386
 1177SOL    HW114993   1.044   2.790   7.897  2.0721 -1.4063  1.2471
 1177SOL    HW214994   1.013   2.712   7.773  0.6682 -0.7663 -0.9321
 1178SOL     OW14995   0.610   2.627   4.348  0.2014  0.1240  0.6233
 1178SOL    HW114996   0.583   2.591   4.264 -1.3873 -0.0740  1.2136
 1178SOL    HW214997   0.705   2.629   4.341  0.2448 -0.3596  1.0571
 1179SOL     OW14998   3.681   0.492   2.476 -0.1498  0.0002  0.6249
 1179SOL    HW114999   3.637   0.491   2.391  0.4855 -0.4565  0.3053
 1179SOL    HW215000   3.742   0.418   2.484 -0.6531 -0.5681 -0.8987
 1180SOL     OW15001   4.558   4.641   3.551 -0.8985  0.2348  0.3166
 1180SOL    HW115002   4.621   4.712   3.547 -0.2839 -0.2536  1.3954
 1180SOL    HW215003   4.569   4.607   3.462  3.0443  0.8222  0.5758
 1181SOL     OW15004   0.753   2.895   4.364 -0.1922  0.2358  0.4619
 1181SOL    HW115005   0.794   2.863   4.284 -0.6689  1.7143 -0.3627
 1181SOL    HW215006   0.665   2.915   4.332  0.4604  0.9776 -0.8323
 1182SOL     OW15007   4.227   2.704  15.889  0.1225  0.7053 -0.0217
 1182SOL    HW115008   4.318   2.680  15.907 -0.3464  0.1617  1.6177
 1182SOL    HW215009   4.233   2.745  15.803 -0.0799  1.4786  0.3431
 1183SOL     OW15010   1.019   2.244   9.962  0.1917 -0.6022  0.0024
 1183SOL    HW115011   0.995   2.304  10.033 -0.5240  1.5240 -2.0488
 1183SOL    HW215012   0.937   2.218   9.919 -0.3140  1.7927 -0.4856
 1184SOL     OW15013   0.637   2.804  10.099 -0.0049  0.7069 -0.2352
 1184SOL    HW115014   0.563   2.797  10.038  1.1285 -1.0472 -1.4215
 1184SOL    HW215015   0.667   2.713  10.097 -0.1699  0.6332  0.6921
 1185SOL     OW15016   3.506   1.082  15.202  0.1235 -0.1820  0.1557
 1185SOL    HW115017   3.583   1.026  15.190  0.4498  0.1856  0.5474
 1185SOL    HW215018   3.540   1.136  15.273 -2.3673 -1.1039  2.0436
 1186SOL     OW15019   3.020   0.980   5.517  0.2187  0.1095  0.8886
 1186SOL    HW115020   2.965   1.017   5.586 -2.0143  1.0175 -1.3314
 1186SOL    HW215021   2.982   0.892   5.508 -2.2802  0.9175  3.6082
 1187SOL     OW15022   1.867   2.409  14.179 -0.2443  0.3848 -0.0234
 1187SOL    HW115023   1.924   2.426  14.104 -0.9125  0.9187 -0.4087
 1187SOL    HW215024   1.895   2.484  14.232 -0.2865  0.9609 -0.8213
 1188SOL     OW15025   1.506   0.594  16.548 -0.0151 -0.2001  0.0665
 1188SOL    HW115026   1.600   0.580  16.534 -0.1800 -1.4337  0.1412
 1188SOL    HW215027   1.495   0.674  16.497 -0.0437  0.5818  1.3052
 1189SOL     OW15028   0.647   0.273   6.167 -0.2507  0.1830 -0.2513
 1189SOL    HW115029   0.734   0.296   6.134  0.9130 -1.3647  1.6945
 1189SOL    HW215030   0.671   0.275   6.260 -0.7966  0.4912 -0.1214
 1190SOL     OW15031   4.456   2.366   8.277  0.1308  0.3379  0.2987
 1190SOL    HW115032   4.404   2.314   8.338  1.2019 -0.1870  0.7544
 1190SOL    HW215033   4.438   2.452   8.313  0.5474  0.9762 -1.0106
 1191SOL     OW15034   1.073   0.462  11.989  0.2241 -0.0377  0.7622
 1191SOL    HW115035   1.152   0.516  11.997  1.5328 -1.7740 -0.4599
 1191SOL    HW215036   1.102   0.384  12.037  1.6054  0.5367  0.8676
 1192SOL     OW15037   1.135   2.560   5.395 -0.2001 -0.4600  0.3401
 1192SOL    HW115038   1.125   2.655   5.389 -0.4314 -0.4346  1.1639
 1192SOL    HW215039   1.217   2.552   5.444 -0.1729 -1.4633  0.1330
 1193SOL     OW15040   2.190   3.597  16.997  0.3933  0.3482  0.7848
 1193SOL    HW115041   2.173   3.686  17.028 -2.1986  1.0375 -2.5686
 1193SOL    HW215042   2.278   3.605  17.034 -0.1829  1.7976  1.8218
 1194SOL     OW15043   2.831   1.775   9.228  0.7006  0.4531  0.0001
 1194SOL    HW115044   2.762   1.841   9.224  1.1489  0.8226 -1.5273
 1194SOL    HW215045   2.800   1.720   9.156  2.1520 -1.1841  0.6250
 1195SOL     OW15046   1.118   1.172   4.018 -0.6135  0.1410 -0.0225
 1195SOL    HW115047   1.110   1.267   4.031  0.3039  0.3131 -0.7091
 1195SOL    HW215048   1.180   1.164   4.091  0.7618  0.4366 -1.1642
 1196SOL     OW15049   4.658   4.066   1.939 -0.3663 -0.6342  0.1047
 1196SOL    HW115050   4.682   4.136   2.000  1.3762 -2.0138  1.0250
 1196SOL    HW215051   4.636   4.123   1.866  0.9391 -3.1952 -2.2670
 1197SOL     OW15052   1.630   2.598   6.065 -0.4278 -0.3139  0.3650
 1197SOL    HW115053   1.619   2.524   6.125 -0.4734 -0.2077  0.4857
 1197SOL    HW215054   1.606   2.556   5.982  0.0564 -0.8474  0.4883
 1198SOL     OW15055   3.977   0.469   5.169  0.0377 -0.1652 -0.0391
 1198SOL    HW115056   3.931   0.389   5.143 -0.7384  0.5614 -0.9555
 1198SOL    HW215057   3.997   0.450   5.260  1.1656  0.6112 -0.1301
 1199SOL     OW15058   4.453   4.550   5.771  0.4007  0.1624 -0.3112
 1199SOL    HW115059   4.500   4.625   5.807  0.2042 -0.0162  0.3144
 1199SOL    HW215060   4.428   4.509   5.853  1.8537 -1.5275 -0.7270
 1200SOL     OW15061   4.546   1.911   4.135 -0.2451  0.1558 -0.0822
 1200SOL    HW115062   4.634   1.935   4.163  0.0677  1.1424 -1.9316
 1200SOL    HW215063   4.500   1.902   4.219 -1.8359  1.7845 -0.7875
 1201SOL     OW15064   4.209   2.395   5.758 -0.6711  0.1691  0.2466
 1201SOL    HW115065   4.162   2.427   5.835 -2.7813  0.1474 -1.0319
 1201SOL    HW215066   4.214   2.303   5.784  0.4813  0.0131 -0.5460
 1202SOL     OW15067   0.553   0.840   3.754  0.6884 -0.0504 -0.2331
 1202SOL    HW115068   0.522   0.901   3.821  2.7268  0.0906  0.5874
 1202SOL    HW215069   0.467   0.806   3.730  1.8143 -2.8157 -0.4012
 1203SOL     OW15070   1.956   3.153   1.070  0.1298 -0.0889  0.3031
 1203SOL    HW115071   1.932   3.227   1.126  0.7320 -0.0651  0.5262
 1203SOL    HW215072   1.924   3.185   0.986  0.7519  0.9597  0.4769
 1204SOL     OW15073   4.175   1.059   5.887  0.0630  0.7538 -0.1270
 1204SOL    HW115074   4.209   1.015   5.809 -0.6459  0.5084 -0.2981
 1204SOL    HW215075   4.080   1.050   5.886  0.1296  0.1549 -1.2341
 1205SOL     OW15076   2.150   0.483  10.168  0.1280  0.2052  0.5331
 1205SOL    HW115077   2.064   0.503  10.130  0.5076  1.4685  0.3463
 1205SOL    HW215078   2.125   0.453  10.255  1.1378 -1.0665  0.3812
 1206SOL     OW15079   4.453   2.830   7.720  0.1312  0.2485  0.3569
 1206SOL    HW115080   4.377   2.809   7.774 -2.1631 -0.4464 -3.0760
 1206SOL    HW215081   4.433   2.759   7.658  3.0944 -1.6250  1.5253
 1207SOL     OW15082   4.033   4.663   4.265  0.1621  0.2150 -0.2856
 1207SOL    HW115083   4.100   4.717   4.307 -1.6114  1.6259  0.7927
 1207SOL    HW215084   3.954   4.703   4.303  1.3204  0.3879  1.9238
 1208SOL     OW15085   0.667   1.298   8.057 -0.0756 -0.1614  0.0299
 1208SOL    HW115086   0.720   1.251   7.993  0.8873  0.7054  0.1860
 1208SOL    HW215087   0.623   1.234   8.112 -0.3727  0.2228  0.2382
 1209SOL     OW15088   0.111   3.912   1.770 -0.1004  0.4414 -0.4914
 1209SOL    HW115089   0.173   3.903   1.842 -0.6016 -1.2468 -0.2713
 1209SOL    HW215090   0.050   3.974   1.810  0.4961  0.7932 -0.1413
 1210SOL     OW15091   4.367   3.332   5.691  0.0165  0.6279 -0.2737
 1210SOL    HW115092   4.349   3.285   5.610 -1.6290 -0.8282  0.9502
 1210SOL    HW215093   4.288   3.306   5.738  0.1154  0.1404 -0.3743
 1211SOL     OW15094   3.537   2.342  16.114  0.2972 -0.2375  0.7962
 1211SOL    HW115095   3.480   2.268  16.137  0.0042  0.2584  1.6926
 1211SOL    HW215096   3.591   2.303  16.046  2.3814 -0.2251  2.4576
 1212SOL     OW15097   3.130   1.504   6.941  0.3125 -0.2408 -0.3064
 1212SOL    HW115098   3.172   1.503   6.855 -0.6091  3.2277 -0.8182
 1212SOL    HW215099   3.082   1.422   6.943 -2.1871  1.1352 -3.5594
 1213SOL     OW15100   4.245   0.683   7.980 -0.5180 -0.2571 -0.4620
 1213SOL    HW115101   4.163   0.731   7.971  0.3668  1.3367  0.0750
 1213SOL    HW215102   4.216   0.610   7.925  0.8110 -1.7416  0.8153
 1214SOL     OW15103   0.104   0.210   9.824 -0.6328  0.3037 -0.3775
 1214SOL    HW115104   0.108   0.197   9.919 -3.0310 -2.6115 -0.6910
 1214SOL    HW215105   0.196   0.223   9.802 -0.4249  0.9780  0.8422
 1215SOL     OW15106   1.917   3.704   7.939  0.0574  0.2198 -0.0675
 1215SOL    HW115107   1.914   3.783   7.993 -0.4255  0.2476 -0.1376
 1215SOL    HW215108   1.880   3.746   7.862 -2.3630  0.2503  1.1183
 1216SOL     OW15109   4.186   1.526  11.386 -0.2748 -0.1717  0.1708
 1216SOL    HW115110   4.273   1.558  11.363 -1.0181  1.2322 -0.7017
 1216SOL    HW215111   4.205   1.514  11.480  0.6555 -2.8679 -0.3595
 1217SOL     OW15112   2.302   0.397   3.854 -0.1258 -0.4242 -0.4129
 1217SOL    HW115113   2.229   0.455   3.879  0.5389 -0.0227  0.5715
 1217SOL    HW215114   2.308   0.348   3.936  0.0418  0.1305 -0.0945
 1218SOL     OW15115   1.993   2.173   6.289  0.3608 -0.3889 -0.1901
 1218SOL    HW115116   1.954   2.102   6.339 -0.1541  0.1435  0.1610
 1218SOL    HW215117   2.040   2.120   6.224  3.2137 -0.9284  2.3406
 1219SOL     OW15118   0.030   2.004   4.640 -0.0411 -0.3440  0.3660
 1219SOL    HW115119   0.064   2.067   4.704 -0.1139  0.2926 -0.2249
 1219SOL    HW215120   0.065   2.041   4.559  1.4117  0.1289  1.2144
 1220SOL     OW15121   3.746   2.837   2.529  0.2816 -0.4915 -0.5120
 1220SOL    HW115122   3.701   2.760   2.565 -0.2049 -0.3282 -0.7724
 1220SOL    HW215123   3.747   2.890   2.609 -0.7714  1.3555 -1.7450
 1221SOL     OW15124   0.971   2.055   7.134 -0.1998 -0.3760 -0.2959
 1221SOL    HW115125   0.989   1.965   7.104 -1.9268 -0.3264 -1.4709
 1221SOL    HW215126   1.014   2.056   7.220 -0.7932 -2.3890  0.0484
 1222SOL     OW15127   1.953   0.379   4.450 -0.0428 -0.4611 -0.0262
 1222SOL    HW115128   1.859   0.389   4.464  0.0963 -0.9395  1.3142
 1222SOL    HW215129   1.961   0.342   4.363 -2.2233  1.3367 -0.9707
 1223SOL     OW15130   4.464   2.983   7.217  0.1955 -0.3121  0.2475
 1223SOL    HW115131   4.457   3.070   7.179  2.6490 -1.1914 -2.2241
 1223SOL    HW215132   4.530   2.997   7.285  0.1771  2.1825 -0.2593
 1224SOL     OW15133   2.584   2.323   0.902 -0.6548 -0.0736  0.1954
 1224SOL    HW115134   2.532   2.343   0.824 -0.9239  2.6060  1.0666
 1224SOL    HW215135   2.511   2.314   0.963 -0.5307 -0.6203  0.2615
 1225SOL     OW15136   3.056   0.230   8.224 -0.0991  0.2034 -0.1239
 1225SOL    HW115137   2.989   0.264   8.164 -0.1963  0.4832  0.1386
 1225SOL    HW215138   3.034   0.269   8.308  3.3063 -0.2110  0.9500
 1226SOL     OW15139   1.455   0.220   6.988  0.4136  0.2953  0.9700
 1226SOL    HW115140   1.528   0.173   7.029  1.5326  0.4212 -0.8509
 1226SOL    HW215141   1.503   0.236   6.907  0.5827  0.9505  1.2046
 1227SOL     OW15142   3.921   3.802   4.076  0.1096 -0.4264 -0.1676
 1227SOL    HW115143   3.901   3.729   4.016 -2.2367 -1.9405  2.4510
 1227SOL    HW215144   3.949   3.875   4.020 -2.8842 -0.3914 -1.6111
 1228SOL     OW15145   2.421   3.616   8.621  0.0567  0.0261 -0.5909
 1228SOL    HW115146   2.455   3.693   8.666 -0.3221  0.3839 -0.9225
 1228SOL    HW215147   2.495   3.558   8.639 -0.5003 -0.0983  1.2488
 1229SOL     OW15148   2.710   3.184   1.486 -0.2360 -0.6119 -0.3135
 1229SOL    HW115149   2.615   3.195   1.493 -0.0003  1.7112 -1.0276
 1229SOL    HW215150   2.735   3.258   1.541 -2.3277  0.6923 -1.1249
 1230SOL     OW15151   4.488   2.597   9.522 -0.0622 -0.4236 -0.0298
 1230SOL    HW115152   4.533   2.679   9.501 -1.4273 -0.6132 -3.7346
 1230SOL    HW215153   4.397   2.625   9.507 -0.3403 -0.9753  0.6453
 1231SOL     OW15154   0.888   3.249  16.670  0.3745  0.2423 -0.2800
 1231SOL    HW115155   0.890   3.343  16.688 -0.3790  0.3907 -1.0016
 1231SOL    HW215156   0.815   3.246  16.609 -0.3897 -2.1447  0.7384
 1232SOL     OW15157   1.094   4.520  15.325  0.1000  0.3895  0.1214
 1232SOL    HW115158   1.012   4.538  15.279  1.9272  1.4542 -2.6879
 1232SOL    HW215159   1.067   4.553  15.411 -1.1107 -0.8151  0.1894
 1233SOL     OW15160   4.685   0.206   6.930 -0.4268 -0.0643  0.5028
 1233SOL    HW115161   0.030   0.169   6.989  3.2054  1.9803 -2.2454
 1233SOL    HW215162   0.021   0.207   6.852 -0.4991  0.2427  0.4545
 1234SOL     OW15163   1.755   3.307   0.515  0.2454  0.2590 -0.8110
 1234SOL    HW115164   1.746   3.282   0.423 -2.0685 -0.5075 -0.3652
 1234SOL    HW215165   1.846   3.282   0.526  0.3614  0.9129 -0.2731
 1235SOL     OW15166   0.145   0.585   6.211 -0.1674  0.5028  0.4577
 1235SOL    HW115167   0.098   0.506   6.238  0.2613  0.2482  0.4505
 1235SOL    HW215168   0.171   0.552   6.125  0.7288  1.8326  0.2181
 1236SOL     OW15169   1.557   2.923   3.031  0.6049 -0.2662  0.1013
 1236SOL    HW115170   1.540   3.005   2.985  0.5676  1.4031  3.0868
 1236SOL    HW215171   1.613   2.879   2.967  2.0511  0.1407  1.0887
 1237SOL     OW15172   0.750   0.794  16.562  0.2482  0.0869 -0.3985
 1237SOL    HW115173   0.778   0.882  16.538  0.4888  0.7417  2.2880
 1237SOL    HW215174   0.683   0.812  16.628 -0.3094 -0.1707 -0.8913
 1238SOL     OW15175   0.958   3.155  10.459  0.5770  0.4818 -0.4464
 1238SOL    HW115176   1.052   3.158  10.477  0.4225  1.1009  0.2838
 1238SOL    HW215177   0.954   3.205  10.377 -3.0118 -0.2725 -0.7188
 1239SOL     OW15178   0.593   2.737   2.493 -0.1135  0.0597 -0.3460
 1239SOL    HW115179   0.519   2.721   2.435 -0.1353 -1.4291  0.1134
 1239SOL    HW215180   0.546   2.790   2.558 -1.6968  0.0920 -1.5256
 1240SOL     OW15181   1.055   1.816   1.003  0.1291 -0.1780  0.0621
 1240SOL    HW115182   1.116   1.765   0.949 -0.6478 -0.6982 -0.3213
 1240SOL    HW215183   1.009   1.871   0.939  3.0356 -0.7654 -2.5414
 1241SOL     OW15184   4.273   1.193   7.347 -0.0718  0.2814  0.1318
 1241SOL    HW115185   4.213   1.192   7.422 -1.4423  1.2228 -0.9708
 1241SOL    HW215186   4.222   1.128   7.298 -0.7585  0.0316  1.1622
 1242SOL     OW15187   2.978   2.154   1.941  0.0958  0.2908  0.8359
 1242SOL    HW115188   3.020   2.135   1.858 -0.7993  1.0105  0.2185
 1242SOL    HW215189   2.949   2.066   1.967 -0.8106  0.7187  1.2654
 1243SOL     OW15190   3.574   4.372  14.846 -0.9860  0.1256 -1.0251
 1243SOL    HW115191   3.563   4.408  14.758 -1.2116  2.8106  0.1056
 1243SOL    HW215192   3.487   4.332  14.852 -0.5782 -0.4191  1.3344
 1244SOL     OW15193   2.979   2.459   5.765 -0.3482  0.2481 -0.1699
 1244SOL    HW115194   2.892   2.460   5.804 -0.2176 -0.3759  0.1314
 1244SOL    HW215195   3.027   2.401   5.825 -1.1306  0.3854  0.5829
 1245SOL     OW15196   0.830   0.441   3.209 -0.6748  0.3127 -0.2833
 1245SOL    HW115197   0.920   0.460   3.181 -0.7860  0.9310 -0.2401
 1245SOL    HW215198   0.809   0.506   3.276  2.2643  1.1567 -0.1753
 1246SOL     OW15199   4.015   2.479   6.907  0.8658  0.2818  0.5793
 1246SOL    HW115200   4.065   2.559   6.924  1.8680 -0.2887  0.2750
 1246SOL    HW215201   3.933   2.525   6.886  0.9307  0.3531  0.4859
 1247SOL     OW15202   2.788   3.296   5.650 -0.1143 -0.0106 -0.2249
 1247SOL    HW115203   2.693   3.284   5.650  0.0239 -1.1928 -3.0138
 1247SOL    HW215204   2.818   3.259   5.733  1.3152 -1.4083 -1.3487
 1248SOL     OW15205   4.128   4.478   5.299  0.5157  0.7814 -0.0954
 1248SOL    HW115206   4.067   4.551   5.289 -0.0648  0.2870 -0.1813
 1248SOL    HW215207   4.157   4.493   5.389 -0.8411 -0.0552  0.4774
 1249SOL     OW15208   3.172   1.096   7.563  0.0838  0.6866  0.0925
 1249SOL    HW115209   3.219   1.038   7.623 -0.9973  0.4159  0.6782
 1249SOL    HW215210   3.203   1.180   7.596  3.0624 -0.1660 -0.4834
 1250SOL     OW15211   1.536   3.932   9.591 -0.3686  0.1833 -0.1939
 1250SOL    HW115212   1.507   3.968   9.675  1.3897  1.3293 -0.0799
 1250SOL    HW215213   1.512   4.005   9.534  0.2562  1.6966  1.4678
 1251SOL     OW15214   0.079   4.177   4.909 -0.4048  0.8056  0.4826
 1251SOL    HW115215   0.097   4.262   4.869 -1.9847  0.8779 -0.0808
 1251SOL    HW215216   0.073   4.198   5.002 -1.5661  1.1981  0.3116
 1252SOL     OW15217   2.951   1.827   7.393 -0.0831 -0.6673  0.7314
 1252SOL    HW115218   2.897   1.904   7.411 -0.3822 -1.0138  1.2868
 1252SOL    HW215219   2.894   1.784   7.329 -0.7977  2.1912 -0.5656
 1253SOL     OW15220   1.235   3.971   7.799 -0.5726 -0.1079 -0.4108
 1253SOL    HW115221   1.200   3.947   7.713 -0.2652  0.9534 -0.8236
 1253SOL    HW215222   1.257   4.063   7.790  1.5421 -0.5484  0.3963
 1254SOL     OW15223   4.184   2.771   7.800 -0.0323 -0.4516  0.3265
 1254SOL    HW115224   4.107   2.723   7.828 -1.0740  0.6066 -0.7390
 1254SOL    HW215225   4.155   2.862   7.790  0.6237 -0.1264  1.4222
 1255SOL     OW15226   0.560   0.958  16.774 -0.1489 -0.4040 -0.5113
 1255SOL    HW115227   0.517   0.971  16.689 -1.4703 -2.3439 -0.1414
 1255SOL    HW215228   0.622   1.031  16.773 -0.3046 -0.2791 -1.1682
 1256SOL     OW15229   0.329   3.565  17.311 -0.0059  0.3589  0.2386
 1256SOL    HW115230   0.317   3.597  17.401  0.8591  0.9298  0.1499
 1256SOL    HW215231   0.240   3.529  17.310 -0.6509  1.9705 -0.4913
 1257SOL     OW15232   3.707   4.449   6.429  0.1868 -1.0954 -0.2461
 1257SOL    HW115233   3.719   4.542   6.448 -0.7860 -1.1567  0.6827
 1257SOL    HW215234   3.790   4.419   6.394  1.5105 -1.0374  2.7753
 1258SOL     OW15235   3.974   3.960   9.697  0.1561 -0.6018 -0.0390
 1258SOL    HW115236   4.067   3.944   9.717  0.6981  1.2073 -1.1341
 1258SOL    HW215237   3.976   3.982   9.604  1.6272  1.8526  0.5860
 1259SOL     OW15238   2.680   2.695   4.496 -0.4224 -0.2477 -0.5251
 1259SOL    HW115239   2.695   2.654   4.411 -0.4658  3.1658 -2.1981
 1259SOL    HW215240   2.594   2.657   4.510  0.6574 -3.2064 -2.0943
 1260SOL     OW15241   2.571   1.424   6.661  0.0357  0.1003  0.0443
 1260SOL    HW115242   2.655   1.456   6.694  0.0123 -0.3869  0.5875
 1260SOL    HW215243   2.551   1.356   6.726  0.0699 -0.1872 -0.2439
 1261SOL     OW15244   1.829   4.271   5.425  0.2066  0.6436  0.2423
 1261SOL    HW115245   1.834   4.176   5.413  0.7933  1.0279 -2.7662
 1261SOL    HW215246   1.844   4.283   5.519  0.9183 -0.2359  0.2426
 1262SOL     OW15247   0.608   1.368   3.721  1.0031  0.5279  0.0047
 1262SOL    HW115248   0.610   1.462   3.708 -0.6945  0.9490  2.7866
 1262SOL    HW215249   0.547   1.348   3.650  1.5613  0.4802 -0.4547
 1263SOL     OW15250   2.050   2.300   7.949 -0.2949  0.2526  0.1199
 1263SOL    HW115251   2.020   2.256   8.028  0.5346  0.1784  0.3924
 1263SOL    HW215252   2.144   2.317   7.956 -0.7296  2.2618  1.0807
 1264SOL     OW15253   4.307   2.035  17.525 -0.0083 -0.2800  0.4319
 1264SOL    HW115254   4.254   1.998  17.596 -1.3481  1.6608  0.4256
 1264SOL    HW215255   4.259   2.113  17.500  0.3610  0.2812  1.4511
 1265SOL     OW15256   2.765   1.529  12.393 -0.1884  0.3338  0.0788
 1265SOL    HW115257   2.701   1.491  12.453 -1.0678  2.2647  0.3642
 1265SOL    HW215258   2.739   1.621  12.400 -2.1717 -0.3319  1.4644
 1266SOL     OW15259   4.441   1.253   1.055 -0.0754 -0.1372  0.2258
 1266SOL    HW115260   4.507   1.184   1.051  0.3930  0.2295  1.5232
 1266SOL    HW215261   4.435   1.280   0.963  1.3256  2.3061  0.8534
 1267SOL     OW15262   0.419   2.025  12.265  0.4268  0.3016  0.5166
 1267SOL    HW115263   0.431   2.053  12.174  0.2008 -0.9163  0.1120
 1267SOL    HW215264   0.361   1.950  12.253  1.5588 -0.5967  0.6612
 1268SOL     OW15265   4.404   4.658   1.450  0.3667  0.1990  0.2643
 1268SOL    HW115266   4.391   4.564   1.464  0.1608 -0.0607 -1.7221
 1268SOL    HW215267   4.432   4.666   1.359 -0.7388 -0.1022 -0.0904
 1269SOL     OW15268   1.400   0.757   1.765  0.2362  0.0269 -0.3065
 1269SOL    HW115269   1.380   0.697   1.693  0.6051  1.0710 -1.2912
 1269SOL    HW215270   1.360   0.842   1.746 -1.1656 -0.6195 -0.2229
 1270SOL     OW15271   0.298   1.134   0.317 -0.2855  0.1633  0.5520
 1270SOL    HW115272   0.212   1.096   0.298 -0.5121  0.0066  1.8682
 1270SOL    HW215273   0.271   1.207   0.373  0.3918 -0.0518  1.1557
 1271SOL     OW15274   1.682   0.848   5.396  0.3799  0.2961 -0.3072
 1271SOL    HW115275   1.770   0.837   5.432  0.7525 -1.0928 -1.6245
 1271SOL    HW215276   1.642   0.767   5.427  0.7062 -0.1280 -1.0028
 1272SOL     OW15277   1.648   4.174   2.397  0.1789 -0.0553  0.1552
 1272SOL    HW115278   1.624   4.100   2.453  0.3127 -0.6102 -0.5225
 1272SOL    HW215279   1.633   4.245   2.460  1.1772  0.3574 -0.0785
 1273SOL     OW15280   0.722   4.015   5.911 -0.1328 -0.1026  0.1765
 1273SOL    HW115281   0.670   4.042   5.835  1.9341  3.1088 -0.1016
 1273SOL    HW215282   0.798   3.976   5.867 -1.2229 -1.5459 -0.4522
 1274SOL     OW15283   3.130   1.274  16.154 -0.1356 -0.0222  0.3469
 1274SOL    HW115284   3.043   1.308  16.176 -0.0730 -0.4741  1.2750
 1274SOL    HW215285   3.185   1.349  16.177 -1.8874  0.7624  2.0240
 1275SOL     OW15286   1.545   3.165  10.254 -0.5295  0.5407 -0.4535
 1275SOL    HW115287   1.583   3.208  10.177 -0.1772  1.2156  0.0995
 1275SOL    HW215288   1.453   3.160  10.228  0.2858 -0.2491 -3.2076
 1276SOL     OW15289   1.726   2.879   3.773  0.1633  0.3173 -0.0428
 1276SOL    HW115290   1.650   2.836   3.812 -0.3623  1.2369 -0.0479
 1276SOL    HW215291   1.695   2.911   3.689 -1.3794  4.6443  2.1800
 1277SOL     OW15292   0.938   4.164  11.942 -0.5288 -0.3295 -0.4300
 1277SOL    HW115293   0.905   4.237  11.994  1.5497 -0.8045  1.5896
 1277SOL    HW215294   0.868   4.146  11.880 -0.7982 -1.2272  0.1226
 1278SOL     OW15295   1.884   0.461   0.886  0.5995  0.1049 -1.2349
 1278SOL    HW115296   1.834   0.543   0.880 -1.3506 -0.9284  1.4528
 1278SOL    HW215297   1.946   0.478   0.814  1.7347 -0.9007 -0.4871
 1279SOL     OW15298   3.659   3.092   2.178  0.0689 -0.1096 -0.7553
 1279SOL    HW115299   3.731   3.065   2.235 -0.7348  0.6518  0.6338
 1279SOL    HW215300   3.708   3.118   2.101  0.0161 -0.3533 -0.8708
 1280SOL     OW15301   0.371   4.171  15.441 -0.7631 -0.1383 -0.2141
 1280SOL    HW115302   0.456   4.165  15.484 -0.1306  0.3986 -1.3667
 1280SOL    HW215303   0.393   4.237  15.375 -0.6172  0.3024  0.2703
 1281SOL     OW15304   3.754   3.603   4.554 -0.8375 -0.1950 -0.1210
 1281SOL    HW115305   3.728   3.596   4.461 -0.2842  0.1232 -0.2960
 1281SOL    HW215306   3.739   3.697   4.556  2.4387  0.2772  1.3860
 1282SOL     OW15307   4.056   2.854   2.742 -0.4006 -0.2179  0.4393
 1282SOL    HW115308   4.002   2.792   2.693 -0.7458  0.2252  0.2598
 1282SOL    HW215309   4.130   2.796   2.763  0.3264  0.0851 -1.2600
 1283SOL     OW15310   1.956   4.245   1.042  0.2847  0.0666 -0.1234
 1283SOL    HW115311   1.924   4.333   1.058  1.0922  0.1962  0.7508
 1283SOL    HW215312   2.007   4.245   1.123  0.8443  1.9812 -0.4781
 1284SOL     OW15313   4.327   2.935   5.931  0.1049  0.3301  0.1040
 1284SOL    HW115314   4.367   2.866   5.877 -1.0623 -1.1904  1.1764
 1284SOL    HW215315   4.253   2.882   5.960 -0.5892  0.9701 -0.4956
 1285SOL     OW15316   4.468   1.747   6.803 -0.4067 -0.2075 -0.1378
 1285SOL    HW115317   4.467   1.687   6.878  1.4275 -0.0376  0.0254
 1285SOL    HW215318   4.466   1.834   6.842  0.8203 -0.4419  0.4407
 1286SOL     OW15319   2.649   3.955   8.092  0.2998 -0.3179 -0.2197
 1286SOL    HW115320   2.740   3.981   8.106 -0.2152  2.4894 -2.0740
 1286SOL    HW215321   2.599   4.019   8.142  2.2259  2.8183 -2.2760
 1287SOL     OW15322   2.399   1.313   0.452  1.3069 -0.4268 -0.1052
 1287SOL    HW115323   2.449   1.393   0.467 -2.2376  0.9179  4.5124
 1287SOL    HW215324   2.448   1.254   0.510  4.5380  0.1191 -2.2415
 1288SOL     OW15325   3.710   2.971   5.703  0.1312 -0.5417 -0.0545
 1288SOL    HW115326   3.766   2.943   5.631  1.5396 -0.4044  0.9632
 1288SOL    HW215327   3.625   2.957   5.662 -0.4367  0.2699  0.8425
 1289SOL     OW15328   2.620   0.095   7.173 -0.1993  0.4381  0.4122
 1289SOL    HW115329   2.696   0.130   7.220  0.4346 -0.0756 -0.2250
 1289SOL    HW215330   2.585   0.031   7.234  0.9698  0.1656  0.8059
 1290SOL     OW15331   4.215   1.251   6.963  0.1751  0.1129  0.0188
 1290SOL    HW115332   4.308   1.235   6.950 -0.0241 -0.7047 -0.4045
 1290SOL    HW215333   4.202   1.324   6.902  0.5612  1.0345  1.0504
 1291SOL     OW15334   0.268   3.935   4.098  0.4775  0.6892  0.4935
 1291SOL    HW115335   0.250   3.901   4.011 -0.0473  1.3575  0.3370
 1291SOL    HW215336   0.361   3.914   4.092  0.2112  0.4008 -2.3586
 1292SOL     OW15337   2.748   3.982   0.106  0.3438 -0.1699 -0.0188
 1292SOL    HW115338   2.835   4.002   0.072  1.4869 -0.3332  2.7819
 1292SOL    HW215339   2.694   3.965   0.028 -0.6794 -0.1344  0.6790
 1293SOL     OW15340   1.588   2.041   6.328  0.4232 -0.3003 -0.4407
 1293SOL    HW115341   1.545   2.112   6.281  0.0795 -0.4131 -0.2972
 1293SOL    HW215342   1.543   2.060   6.410 -0.8012  0.0493 -1.2031
 1294SOL     OW15343   1.118   1.780   2.752 -0.2106  0.2014 -0.1586
 1294SOL    HW115344   1.068   1.699   2.741 -0.6202  0.5851 -1.2130
 1294SOL    HW215345   1.169   1.755   2.829 -1.0328  0.3035  0.4133
 1295SOL     OW15346   3.558   1.840   9.852 -0.1141  0.7101  0.2879
 1295SOL    HW115347   3.587   1.914   9.798 -1.7542  0.7673 -0.5290
 1295SOL    HW215348   3.580   1.860   9.943  0.6302  1.0974  0.0294
 1296SOL     OW15349   2.110   2.999  17.170 -0.2252 -0.4199 -0.1931
 1296SOL    HW115350   2.103   3.064  17.100  1.5360  1.4004  1.3347
 1296SOL    HW215351   2.084   2.919  17.123 -0.5747 -1.6174  2.0362
 1297SOL     OW15352   0.767   2.789   7.669  0.6138 -0.0424 -0.0197
 1297SOL    HW115353   0.815   2.871   7.679 -1.4990  1.1167  0.6492
 1297SOL    HW215354   0.802   2.761   7.585  1.0933 -1.2286  0.5877
 1298SOL     OW15355   3.199   0.044  11.713 -0.5860  0.4964  0.3951
 1298SOL    HW115356   3.212   0.071  11.805  1.6573 -0.5379  0.3556
 1298SOL    HW215357   3.104   0.055  11.701 -0.7919 -0.0696  1.4986
 1299SOL     OW15358   1.680   1.426   2.912  0.2351  0.0143  0.6776
 1299SOL    HW115359   1.689   1.393   2.823 -1.0829  0.9223  0.2050
 1299SOL    HW215360   1.767   1.438   2.950 -0.0127  2.2571  0.5568
 1300SOL     OW15361   2.311   2.968   8.231  0.4437 -0.8387  0.5211
 1300SOL    HW115362   2.307   2.997   8.139 -1.2534  1.4801  1.3317
 1300SOL    HW215363   2.318   3.049   8.282 -1.6468  1.4387 -2.7960
 1301SOL     OW15364   2.240   2.706  11.230  0.0225 -0.0395  0.2572
 1301SOL    HW115365   2.327   2.693  11.192 -1.1670 -1.2704 -2.0854
 1301SOL    HW215366   2.179   2.647  11.185 -0.7346 -0.4764  1.8673
 1302SOL     OW15367   3.285   2.815  16.289  0.6489  0.7732  0.1790
 1302SOL    HW115368   3.365   2.866  16.300  2.0588 -1.6445  1.0776
 1302SOL    HW215369   3.318   2.732  16.255 -0.2573  0.6581 -0.4244
 1303SOL     OW15370   3.549   3.870   6.763  0.1440  0.4488 -0.7634
 1303SOL    HW115371   3.502   3.791   6.736 -1.1236  0.7729  0.4708
 1303SOL    HW215372   3.518   3.941   6.706  0.4412  1.4776  0.3553
 1304SOL     OW15373   2.681   4.366  10.944 -0.1257 -0.3189  0.5014
 1304SOL    HW115374   2.641   4.367  10.857 -1.4267 -0.9794  1.0917
 1304SOL    HW215375   2.735   4.444  10.934 -0.5086 -0.1466 -0.2898
 1305SOL     OW15376   0.818   2.363   9.439  1.1965  0.5171  0.7505
 1305SOL    HW115377   0.844   2.295   9.376 -0.5305  0.8273 -0.3080
 1305SOL    HW215378   0.816   2.440   9.382 -1.2054 -0.5249 -0.6016
 1306SOL     OW15379   0.363   2.685   2.080 -0.7062  0.1482  0.3396
 1306SOL    HW115380   0.306   2.637   2.140 -0.0469 -1.6550 -0.4748
 1306SOL    HW215381   0.404   2.743   2.145 -1.3094  0.3687  0.5236
 1307SOL     OW15382   3.697   4.231   6.597  0.5462  0.0391  0.6239
 1307SOL    HW115383   3.741   4.272   6.671  2.3882 -0.6270 -0.0900
 1307SOL    HW215384   3.689   4.314   6.550 -1.0350 -0.1684  0.5367
 1308SOL     OW15385   2.562   3.495   7.479 -0.1544  0.2117 -0.1636
 1308SOL    HW115386   2.652   3.516   7.502  0.1653  0.1944 -1.3742
 1308SOL    HW215387   2.517   3.470   7.559 -0.1853 -1.3707 -0.6725
 1309SOL     OW15388   4.246   0.011   4.440 -0.1524 -0.3112 -0.0047
 1309SOL    HW115389   4.303   4.660   4.411 -1.0421 -1.9769  2.3081
 1309SOL    HW215390   4.309   0.070   4.482 -0.1322 -1.4982  1.6348
 1310SOL     OW15391   2.911   3.686   4.376  0.3959 -0.4475 -0.4784
 1310SOL    HW115392   2.879   3.714   4.462 -0.5719  0.2139 -1.0521
 1310SOL    HW215393   2.910   3.591   4.376  2.0672 -0.4724 -1.6937
 1311SOL     OW15394   2.336   4.710   9.397 -0.2592  0.1445  0.0416
 1311SOL    HW115395   2.424   4.675   9.412 -0.0954  2.0812  3.4723
 1311SOL    HW215396   2.314   4.653   9.323  2.0733 -0.0939 -0.4740
 1312SOL     OW15397   0.367   0.447   4.344  0.4333 -0.0716  0.0149
 1312SOL    HW115398   0.368   0.420   4.435  1.9908  0.4667  0.1428
 1312SOL    HW215399   0.450   0.491   4.325 -1.5358  3.2698 -0.9691
 1313SOL     OW15400   3.875   1.778   6.932  0.0164  0.2216  0.1278
 1313SOL    HW115401   3.871   1.749   6.841 -0.9946  0.0513  0.2301
 1313SOL    HW215402   3.970   1.790   6.940  0.3710 -2.2485 -0.3682
 1314SOL     OW15403   2.526   3.905   9.657  0.5861 -0.6088 -0.1355
 1314SOL    HW115404   2.447   3.896   9.603  0.3110  0.1903  0.1419
 1314SOL    HW215405   2.516   3.833   9.720 -1.8763 -2.7681 -2.9835
 1315SOL     OW15406   3.776   4.358   0.099  0.1031 -0.1257 -0.2151
 1315SOL    HW115407   3.846   4.373   0.036  1.5568 -3.8367  0.5110
 1315SOL    HW215408   3.798   4.269   0.128  1.2291  0.7687  1.7190
 1316SOL     OW15409   2.066   1.201   6.059  0.1427 -0.6639 -0.6110
 1316SOL    HW115410   1.978   1.218   6.027 -0.3619  0.0021  1.0920
 1316SOL    HW215411   2.075   1.268   6.127  1.8110 -1.6147  0.0940
 1317SOL     OW15412   2.550   4.532   2.733 -0.2104  0.2654  0.0400
 1317SOL    HW115413   2.581   4.563   2.648  1.3814 -0.1568  0.4627
 1317SOL    HW215414   2.516   4.610   2.777  0.4203  1.7411 -2.1081
 1318SOL     OW15415   3.035   0.225   7.135  0.3341 -0.1903  0.0444
 1318SOL    HW115416   3.028   0.167   7.059 -0.4482 -0.0343 -0.0052
 1318SOL    HW215417   3.128   0.210   7.151  0.9331  2.6012 -0.8571
 1319SOL     OW15418   2.679   0.493   4.382 -0.0314  0.1523 -0.9111
 1319SOL    HW115419   2.636   0.571   4.349  2.2463  0.5590 -2.9299
 1319SOL    HW215420   2.615   0.430   4.349 -1.3478  1.3824 -0.6858
 1320SOL     OW15421   1.885   3.147   3.188  0.3719  0.2130 -0.1533
 1320SOL    HW115422   1.912   3.210   3.121  0.5197  1.1813  0.8185
 1320SOL    HW215423   1.824   3.211   3.224  2.0569  1.6709  0.0934
 1321SOL     OW15424   2.268   4.342   6.857  0.1063  0.5305 -0.4979
 1321SOL    HW115425   2.259   4.337   6.952 -0.9242 -2.4759 -0.7307
 1321SOL    HW215426   2.363   4.329   6.855 -0.0318 -0.5598 -0.0736
 1322SOL     OW15427   2.123   2.897   2.000  0.1715  0.0077  0.4792
 1322SOL    HW115428   2.213   2.926   1.987  0.4585 -0.8668  0.5076
 1322SOL    HW215429   2.131   2.870   2.092 -1.0371  0.9468  0.8628
 1323SOL     OW15430   1.581   0.558   6.580  0.1867 -0.4464 -0.0073
 1323SOL    HW115431   1.583   0.636   6.636  0.0424  0.9707 -1.9487
 1323SOL    HW215432   1.576   0.483   6.638 -0.6510  0.3720  0.9797
 1324SOL     OW15433   3.406   3.785   0.980 -0.2721  0.0105  0.2374
 1324SOL    HW115434   3.374   3.738   0.903 -0.4553 -0.6683  0.7253
 1324SOL    HW215435   3.470   3.717   0.999  0.0475  0.0308 -0.7733
 1325SOL     OW15436   2.626   4.148   4.627 -0.2696 -0.1268  0.0114
 1325SOL    HW115437   2.583   4.182   4.706  0.6881 -0.1251  0.5338
 1325SOL    HW215438   2.712   4.129   4.665 -0.2657 -1.5375 -0.7044
 1326SOL     OW15439   3.482   0.743  14.803  0.0413 -0.2249 -0.3112
 1326SOL    HW115440   3.423   0.762  14.730  1.4002 -3.5915 -2.2801
 1326SOL    HW215441   3.422   0.723  14.875 -2.3008 -0.2111 -2.2487
 1327SOL     OW15442   0.207   0.928   8.605  0.1875  0.2092  0.1576
 1327SOL    HW115443   0.257   0.891   8.678  2.1353  1.0182 -0.7742
 1327SOL    HW215444   0.140   0.982   8.647  1.3454  2.7954 -1.3122
 1328SOL     OW15445   0.230   2.740   4.193 -0.3208  0.0436 -0.1582
 1328SOL    HW115446   0.205   2.667   4.137  0.8963 -0.4188 -0.0884
 1328SOL    HW215447   0.171   2.805   4.155  0.3657 -0.3555 -1.8715
 1329SOL     OW15448   2.011   3.356   4.076 -0.4944  0.0699  0.1290
 1329SOL    HW115449   1.984   3.413   4.005  1.4550  0.5594 -0.2418
 1329SOL    HW215450   1.977   3.404   4.152  0.3936  0.1508  0.4795
 1330SOL     OW15451   2.593   4.032   6.346 -0.5712  0.2167  0.1021
 1330SOL    HW115452   2.555   3.963   6.291  1.2536  1.3350 -2.5316
 1330SOL    HW215453   2.596   4.108   6.287 -0.2393 -0.4939 -0.7962
 1331SOL     OW15454   3.433   1.784  12.840  0.0715 -0.2993 -0.2436
 1331SOL    HW115455   3.385   1.833  12.774  1.1586 -0.4220 -1.1105
 1331SOL    HW215456   3.408   1.831  12.920  0.6740 -0.5719  0.1131
 1332SOL     OW15457   0.149   0.971   4.612  0.0609  0.0549 -0.3548
 1332SOL    HW115458   0.062   0.934   4.632  0.1384  0.0974  0.0603
 1332SOL    HW215459   0.159   0.970   4.517  0.2789 -2.4783 -0.2961
 1333SOL     OW15460   2.046   1.582  16.648  0.0460 -0.2845  0.2262
 1333SOL    HW115461   2.015   1.618  16.731  0.6065  0.6032  0.0517
 1333SOL    HW215462   1.974   1.613  16.593  1.1081  0.3318 -0.8444
 1334SOL     OW15463   4.274   1.154   1.573 -0.5172  0.3459  0.2542
 1334SOL    HW115464   4.187   1.186   1.551 -1.6152 -1.1597  2.4055
 1334SOL    HW215465   4.306   1.144   1.484  0.1156 -1.6626  0.7081
 1335SOL     OW15466   1.622   2.190  17.337 -0.1957  0.2777  0.5478
 1335SOL    HW115467   1.680   2.152  17.402 -2.5421 -2.3178  1.0962
 1335SOL    HW215468   1.564   2.114  17.339 -0.2994  0.3447  0.2246
 1336SOL     OW15469   0.079   0.030   9.324 -0.4991 -0.3780 -0.9338
 1336SOL    HW115470   0.125   0.090   9.383 -1.7579  0.5561 -0.9037
 1336SOL    HW215471   0.007   4.711   9.373 -0.8713  1.6535  0.1122
 1337SOL     OW15472   1.614   4.439   3.211 -0.1681  0.3648  0.6141
 1337SOL    HW115473   1.704   4.445   3.177  0.1048  0.9082  1.4405
 1337SOL    HW215474   1.563   4.501   3.159 -0.1102 -0.5860 -0.5959
 1338SOL     OW15475   4.158   0.549  16.761  0.4504  0.0734  0.7561
 1338SOL    HW115476   4.148   0.457  16.738 -1.8225  0.8753 -1.4004
 1338SOL    HW215477   4.148   0.594  16.677  1.8421  0.8724  1.0108
 1339SOL     OW15478   3.686   4.165   3.891 -0.0870 -0.2988 -0.4564
 1339SOL    HW115479   3.611   4.119   3.854  0.0001 -1.8792  1.3575
 1339SOL    HW215480   3.760   4.108   3.873  0.4918 -0.5628  2.8344
 1340SOL     OW15481   2.227   2.572   4.093 -0.4322 -0.1324 -0.0870
 1340SOL    HW115482   2.238   2.625   4.014  2.4778 -0.8896 -0.1560
 1340SOL    HW215483   2.235   2.482   4.063 -1.0852 -0.1734 -0.1593
 1341SOL     OW15484   0.879   3.161  10.927  0.4335 -0.5012 -0.2852
 1341SOL    HW115485   0.912   3.217  10.856  1.1674 -1.1297 -0.4419
 1341SOL    HW215486   0.862   3.221  10.999  0.8659 -1.7858  0.8808
 1342SOL     OW15487   2.000   1.544   3.986  0.2961  0.2578 -0.2300
 1342SOL    HW115488   2.067   1.569   4.050  0.2393  1.0738 -0.4869
 1342SOL    HW215489   1.922   1.547   4.043  1.6613 -0.1464  1.6585
 1343SOL     OW15490   2.190   2.554  14.162  0.4725 -0.1607 -0.5417
 1343SOL    HW115491   2.154   2.613  14.228  0.2174 -0.3518 -0.5091
 1343SOL    HW215492   2.285   2.555  14.152  0.6778  1.2848  1.5265
 1344SOL     OW15493   1.725   2.820   2.814  0.2860 -0.3910  0.4623
 1344SOL    HW115494   1.813   2.811   2.850  0.5799 -0.2269 -0.2139
 1344SOL    HW215495   1.742   2.833   2.720  0.2140  2.4416  0.8481
 1345SOL     OW15496   4.410   2.676  13.976 -0.0930 -0.1575  0.4594
 1345SOL    HW115497   4.339   2.621  13.943 -0.2945  0.7176 -0.5813
 1345SOL    HW215498   4.380   2.706  14.062 -0.9980  1.5878 -0.4477
 1346SOL     OW15499   0.512   4.470   2.402 -0.1607 -0.3702  0.4242
 1346SOL    HW115500   0.580   4.466   2.469 -0.0947  0.1568  0.3835
 1346SOL    HW215501   0.534   4.549   2.353  0.8644 -0.3433  0.9295
 1347SOL     OW15502   1.513   3.978  12.772  0.1227 -0.0764  0.5266
 1347SOL    HW115503   1.475   4.003  12.857  0.0372  0.6666  0.2677
 1347SOL    HW215504   1.534   4.065  12.738 -0.8942 -0.3977 -0.8964
 1348SOL     OW15505   4.362   3.877   0.707  0.5485 -0.4474  0.6997
 1348SOL    HW115506   4.457   3.889   0.706  0.4317  0.3747 -0.8238
 1348SOL    HW215507   4.351   3.802   0.765 -0.1180  0.4245  1.6937
 1349SOL     OW15508   1.274   3.058   6.206 -0.0342  0.2913  0.2382
 1349SOL    HW115509   1.243   3.139   6.247  0.5170  1.0762 -0.9020
 1349SOL    HW215510   1.368   3.054   6.221  0.0455  1.8322  0.0821
 1350SOL     OW15511   2.929   0.020  10.262 -0.4343 -0.0909 -0.1372
 1350SOL    HW115512   2.891   0.023  10.175 -0.2765  0.7513 -0.1795
 1350SOL    HW215513   2.866   0.069  10.315  0.6917  0.9513  0.2457
 1351SOL     OW15514   0.473   1.945   8.592 -0.2738 -0.3470  0.1276
 1351SOL    HW115515   0.459   1.852   8.575  1.8040 -0.8335  1.0236
 1351SOL    HW215516   0.425   1.999   8.529  3.2305  0.0513 -2.2697
 1352SOL     OW15517   4.447   0.816   5.066  0.2348 -0.2118 -0.2065
 1352SOL    HW115518   4.444   0.758   4.989  0.6967 -0.0642 -0.3370
 1352SOL    HW215519   4.504   0.766   5.125 -1.0645  1.6945  2.6206
 1353SOL     OW15520   2.330   2.768  15.693 -0.7831 -0.6644 -0.7439
 1353SOL    HW115521   2.309   2.802  15.606  0.5984  1.5657 -0.2314
 1353SOL    HW215522   2.402   2.709  15.671 -0.7238 -0.4194 -1.2001
 1354SOL     OW15523   0.599   0.875   5.619 -0.0371  0.3635 -0.0107
 1354SOL    HW115524   0.637   0.829   5.694  0.1460 -2.6652 -1.9383
 1354SOL    HW215525   0.678   0.895   5.569  0.1463  3.4017  1.5008
 1355SOL     OW15526   0.225   3.208   0.911 -0.5067  0.0459  0.1530
 1355SOL    HW115527   0.298   3.166   0.866 -0.9572 -0.3505 -0.2079
 1355SOL    HW215528   0.242   3.298   0.885  0.2968  0.1865  1.1459
 1356SOL     OW15529   0.112   1.773   3.321  0.2384 -0.0350  0.0809
 1356SOL    HW115530   0.049   1.778   3.249 -1.5232 -1.1737  1.5413
 1356SOL    HW215531   0.053   1.720   3.374 -0.0477 -0.7392 -0.9360
 1357SOL     OW15532   1.531   2.259   5.975  0.9437  0.1232 -0.4679
 1357SOL    HW115533   1.474   2.266   6.052  1.4160 -0.4149 -0.0660
 1357SOL    HW215534   1.499   2.180   5.931 -0.7424  1.3669 -1.4710
 1358SOL     OW15535   1.348   0.477   2.842 -0.4721 -0.2147  0.1671
 1358SOL    HW115536   1.434   0.465   2.802 -1.4461  1.0917 -2.2915
 1358SOL    HW215537   1.294   0.411   2.799  1.1039 -1.3371 -0.0646
 1359SOL     OW15538   2.032   1.432  11.833 -0.3884 -0.2090 -0.2514
 1359SOL    HW115539   1.989   1.394  11.910  0.6151  1.2097  1.0046
 1359SOL    HW215540   2.082   1.355  11.805 -0.0918 -0.3895  0.7704
 1360SOL     OW15541   4.173   0.104   8.864  0.0817 -0.0217  0.6601
 1360SOL    HW115542   4.129   0.030   8.906 -2.4668  0.8357 -0.4927
 1360SOL    HW215543   4.159   0.080   8.772  1.1061  1.4886  0.0974
 1361SOL     OW15544   4.126   1.616   6.451  0.2232 -0.5864  0.0268
 1361SOL    HW115545   4.196   1.559   6.483  2.6548  2.9261  1.0979
 1361SOL    HW215546   4.148   1.686   6.512 -2.2105 -0.8753  1.2073
 1362SOL     OW15547   1.669   0.790   9.109 -0.6664  0.1137  0.1175
 1362SOL    HW115548   1.701   0.825   9.026 -2.1288  0.2286 -0.3989
 1362SOL    HW215549   1.735   0.725   9.131  0.6608  1.4493  0.0844
 1363SOL     OW15550   4.167   0.324   0.494  0.6517 -0.6873  0.0784
 1363SOL    HW115551   4.201   0.372   0.418  2.3345 -0.0959  1.2011
 1363SOL    HW215552   4.237   0.259   0.500  1.0538 -0.5468 -2.9788
 1364SOL     OW15553   4.162   2.932  17.557 -0.1119  0.8012 -0.1003
 1364SOL    HW115554   4.243   2.880  17.560 -1.3120 -1.0932 -0.5649
 1364SOL    HW215555   4.192   3.019  17.531 -1.0131  0.9554 -0.6185
 1365SOL     OW15556   2.967   4.268   5.809 -0.6474  0.3053  0.9050
 1365SOL    HW115557   2.874   4.252   5.823 -0.2531 -1.9677  0.9062
 1365SOL    HW215558   3.004   4.217   5.882  0.9691 -0.1197 -0.2049
 1366SOL     OW15559   1.451   2.002   8.323 -0.0294  0.0378 -0.0469
 1366SOL    HW115560   1.395   2.079   8.334 -2.0813 -1.0679 -2.6977
 1366SOL    HW215561   1.466   2.010   8.229 -0.5581  2.2293  0.0516
 1367SOL     OW15562   2.726   2.588   5.053  0.3526 -0.7490 -0.2650
 1367SOL    HW115563   2.771   2.644   4.990  2.5186 -0.7797  1.2060
 1367SOL    HW215564   2.718   2.651   5.125  1.0624  0.0960 -0.9176
 1368SOL     OW15565   1.700   1.635   2.487 -0.4656  0.1508 -0.5423
 1368SOL    HW115566   1.774   1.658   2.544 -1.5463 -0.4756  1.1305
 1368SOL    HW215567   1.712   1.540   2.490  5.5264  0.8826 -0.5877
 1369SOL     OW15568   3.218   1.827  14.650 -0.2977 -0.2129 -0.0043
 1369SOL    HW115569   3.298   1.783  14.623  0.4774  0.7196  0.8166
 1369SOL    HW215570   3.219   1.904  14.593 -1.0663 -0.2767 -0.1140
 1370SOL     OW15571   2.676   3.928  14.498 -0.2006  0.3258 -0.1789
 1370SOL    HW115572   2.665   3.929  14.593 -0.9620 -1.3987 -0.2376
 1370SOL    HW215573   2.593   3.885  14.474  0.5813 -1.1751 -0.2075
 1371SOL     OW15574   0.655   3.720   4.456 -0.0175  1.0111 -0.0524
 1371SOL    HW115575   0.693   3.651   4.510 -0.5444  1.4875  0.9326
 1371SOL    HW215576   0.635   3.667   4.379 -1.4976 -0.0219  1.0217
 1372SOL     OW15577   4.688   2.987  14.860  0.3658  0.2751 -0.1195
 1372SOL    HW115578   0.051   2.952  14.826 -0.0132  1.1912 -1.9622
 1372SOL    HW215579   4.677   3.068  14.810  1.3122  0.1113 -0.5843
 1373SOL     OW15580   0.961   0.288   4.472 -0.1503  0.1452  0.1201
 1373SOL    HW115581   0.961   0.269   4.565  1.3633  0.8780  0.2625
 1373SOL    HW215582   1.020   0.218   4.443  1.5147  1.8386 -0.5700
 1374SOL     OW15583   1.990   3.054   0.021  0.4480 -0.4969 -0.1456
 1374SOL    HW115584   1.947   2.970   0.009 -1.6984  0.4876  0.6637
 1374SOL    HW215585   1.999   3.090  17.614 -1.8121  0.3828 -0.0145
 1375SOL     OW15586   2.948   1.917  16.758  0.4696  0.3805 -0.0219
 1375SOL    HW115587   2.858   1.948  16.771  0.0050 -1.0815  0.1745
 1375SOL    HW215588   2.987   1.998  16.725 -0.8105  1.3706  0.8963
 1376SOL     OW15589   3.988   2.189   2.982  0.3946 -0.0836  0.3117
 1376SOL    HW115590   4.066   2.137   3.003  2.8242  2.7733 -1.6026
 1376SOL    HW215591   3.915   2.134   3.009  2.0478 -1.1189  2.7526
 1377SOL     OW15592   2.508   1.986  12.906 -0.1049 -0.1416  0.0055
 1377SOL    HW115593   2.506   2.081  12.893 -1.4339 -0.2742 -0.7418
 1377SOL    HW215594   2.416   1.961  12.914 -0.6727  2.1396  0.6403
 1378SOL     OW15595   0.362   0.360   2.880  0.3157 -0.5358 -0.6887
 1378SOL    HW115596   0.335   0.370   2.788  0.2078  0.2321 -0.5751
 1378SOL    HW215597   0.364   0.265   2.890 -0.3964 -0.4711  0.0138
 1379SOL     OW15598   3.099   2.059   5.096 -0.6143  0.7093  0.5576
 1379SOL    HW115599   3.026   2.094   5.146 -1.6827 -1.8849  0.8021
 1379SOL    HW215600   3.055   2.064   5.012 -2.5346 -1.4029  1.4295
 1380SOL     OW15601   3.663   2.764   1.542  0.4797  0.0773  0.4338
 1380SOL    HW115602   3.665   2.670   1.561 -0.1176  0.1897  1.0665
 1380SOL    HW215603   3.757   2.782   1.535  0.1665  0.8030 -1.8144
 1381SOL     OW15604   2.323   2.061   3.907  0.4443 -0.2987  0.3469
 1381SOL    HW115605   2.233   2.044   3.878  0.1568  1.5259  0.1246
 1381SOL    HW215606   2.367   2.047   3.823  1.1198 -3.8664  1.3039
 1382SOL     OW15607   1.060   3.240   6.615 -0.2112 -0.0477  0.1401
 1382SOL    HW115608   1.000   3.173   6.585 -0.1373  0.3612 -0.9198
 1382SOL    HW215609   1.147   3.207   6.592  0.5533  2.3504 -0.4560
 1383SOL     OW15610   0.483   3.378  16.370  0.1362 -0.0545  0.0361
 1383SOL    HW115611   0.438   3.450  16.326 -0.7316  0.0697  1.1025
 1383SOL    HW215612   0.470   3.321  16.295 -0.7481  0.1945  0.0029
 1384SOL     OW15613   0.817   3.920  14.716 -0.2942 -0.2164  0.3463
 1384SOL    HW115614   0.881   3.927  14.788 -0.3765 -3.0380  0.6944
 1384SOL    HW215615   0.809   3.825  14.710 -0.3257 -0.1869 -0.0504
 1385SOL     OW15616   1.102   1.072   9.211 -0.1766 -0.5970 -0.1505
 1385SOL    HW115617   1.086   1.011   9.138 -1.7322 -0.1944 -0.1380
 1385SOL    HW215618   1.192   1.100   9.193  0.3478 -0.7926  2.1624
 1386SOL     OW15619   2.527   3.641   6.898 -0.1456  0.2884 -0.0614
 1386SOL    HW115620   2.553   3.725   6.859 -0.0746  0.3327  0.0801
 1386SOL    HW215621   2.555   3.578   6.832  1.1305  2.1609 -1.3178
 1387SOL     OW15622   3.846   2.239   6.719 -0.0646 -0.0970 -0.0531
 1387SOL    HW115623   3.911   2.223   6.651  1.7413 -0.1823  1.6780
 1387SOL    HW215624   3.900   2.270   6.792 -2.4014 -1.8524  2.4170
 1388SOL     OW15625   3.011   1.730   4.444 -0.0706 -0.0795 -0.1061
 1388SOL    HW115626   3.055   1.649   4.419  0.1257  0.0052 -0.0312
 1388SOL    HW215627   2.985   1.720   4.535 -0.2626 -0.9220 -0.2449
 1389SOL     OW15628   1.805   2.150  17.601 -0.3886  0.3764  0.6500
 1389SOL    HW115629   1.717   2.114  17.613 -0.0859 -0.7069 -0.2929
 1389SOL    HW215630   1.836   2.146   0.009 -0.9755 -1.3217  0.7705
 1390SOL     OW15631   3.944   1.049   0.812 -0.2569 -0.1074  0.0170
 1390SOL    HW115632   3.939   1.135   0.855 -1.6583 -0.4521  0.5532
 1390SOL    HW215633   4.037   1.030   0.824  0.1650  0.9830 -1.5046
 1391SOL     OW15634   2.061   0.433   7.301 -0.1353  0.2720  0.4239
 1391SOL    HW115635   2.083   0.464   7.389  0.9812  0.0560  0.2257
 1391SOL    HW215636   2.004   0.504   7.275 -0.7673  0.1971  1.5883
 1392SOL     OW15637   4.704   3.131   2.945  0.1994 -0.0252  1.0098
 1392SOL    HW115638   0.062   3.164   2.990 -0.4364  1.0838  1.2593
 1392SOL    HW215639   4.646   3.136   3.020  0.6635  0.7664  1.3119
 1393SOL     OW15640   3.115   3.983   1.114  0.4918  0.0637 -0.0436
 1393SOL    HW115641   3.210   3.993   1.108  0.2948  0.5886 -2.2858
 1393SOL    HW215642   3.091   3.923   1.044 -3.3303  1.4155  0.1404
 1394SOL     OW15643   1.317   1.045  11.187  0.0085 -0.5368 -0.2486
 1394SOL    HW115644   1.405   1.080  11.194 -0.8048  1.3947  0.3803
 1394SOL    HW215645   1.261   1.122  11.174 -0.8304 -1.4857 -2.3785
 1395SOL     OW15646   3.203   1.640  15.619  0.0523 -0.3009  0.2470
 1395SOL    HW115647   3.278   1.648  15.561 -0.8508  1.4907 -0.6672
 1395SOL    HW215648   3.159   1.725  15.611  0.7108 -0.2608 -2.8525
 1396SOL     OW15649   0.298   2.124   2.766  0.0033 -0.3299 -0.0162
 1396SOL    HW115650   0.291   2.129   2.861  2.6854 -1.2395  0.2109
 1396SOL    HW215651   0.392   2.111   2.763  0.2585  1.2343  1.3684
 1397SOL     OW15652   0.519   0.456   4.070 -0.0081 -0.1838  0.2819
 1397SOL    HW115653   0.540   0.445   4.163 -0.1536 -4.4713 -0.1838
 1397SOL    HW215654   0.456   0.527   4.083  1.9817  1.4980  0.7026
 1398SOL     OW15655   4.393   4.289  14.506 -0.2759 -0.9221 -0.5989
 1398SOL    HW115656   4.424   4.208  14.547  0.1297 -1.7240 -2.4628
 1398SOL    HW215657   4.444   4.349  14.560 -1.1779 -2.1009  1.5521
 1399SOL     OW15658   4.714   4.712   7.167  0.1989 -0.1099  0.1031
 1399SOL    HW115659   4.701   0.081   7.199 -0.8208 -1.0383  2.2248
 1399SOL    HW215660   0.041   4.674   7.240  2.0005 -2.2042 -2.1561
 1400SOL     OW15661   0.741   2.047   6.112 -0.0530 -0.0559  0.0357
 1400SOL    HW115662   0.711   1.991   6.183  0.3864  0.1308  0.3630
 1400SOL    HW215663   0.817   2.096   6.142 -1.1077  0.6729  1.5328
 1401SOL     OW15664   4.712   4.464   7.996 -0.0739  0.5983 -0.9154
 1401SOL    HW115665   4.696   4.550   7.958  0.5043  2.0683  2.2261
 1401SOL    HW215666   4.638   4.427   7.949 -0.9293 -0.7994  1.5276
 1402SOL     OW15667   0.772   4.607  15.691 -0.3314  0.0392 -0.1977
 1402SOL    HW115668   0.736   4.594  15.604  0.3057 -1.0794 -0.2949
 1402SOL    HW215669   0.737   4.537  15.746  0.8389 -2.2808 -2.4054
 1403SOL     OW15670   2.185   0.639   7.975  0.1238  0.0710 -0.1655
 1403SOL    HW115671   2.174   0.697   7.900  0.5373 -0.9464 -0.9956
 1403SOL    HW215672   2.211   0.705   8.040 -0.0980  0.9786 -0.9980
 1404SOL     OW15673   3.050   2.855  17.265 -0.6506  0.2004  0.0669
 1404SOL    HW115674   3.037   2.779  17.209 -0.0077  0.5382 -0.5493
 1404SOL    HW215675   2.971   2.904  17.244 -0.4669  0.5946  0.2836
 1405SOL     OW15676   1.515   3.143   3.390 -0.4999 -0.1587  0.3273
 1405SOL    HW115677   1.470   3.070   3.347  1.3098 -1.1672  0.1436
 1405SOL    HW215678   1.559   3.184   3.315 -0.3849  0.1426  0.5596
 1406SOL     OW15679   3.359   3.741   5.690  0.1410  0.2369  0.0570
 1406SOL    HW115680   3.360   3.826   5.646 -0.0966 -0.3427 -1.0692
 1406SOL    HW215681   3.269   3.730   5.721 -0.6626 -0.7827 -2.5820
 1407SOL     OW15682   2.563   3.064  15.826 -0.0623 -0.3225 -0.4242
 1407SOL    HW115683   2.589   3.155  15.815 -0.3507 -0.1357  0.4181
 1407SOL    HW215684   2.527   3.057  15.738  0.4973  0.6307 -0.7233
 1408SOL     OW15685   4.593   3.500  15.461 -1.2640  0.1021 -0.0643
 1408SOL    HW115686   4.549   3.573  15.418 -0.2744  1.8118  1.8146
 1408SOL    HW215687   4.618   3.458  15.379  1.8070  0.7028  0.5683
 1409SOL     OW15688   1.425   2.412   7.667  0.4807 -0.1182 -0.0951
 1409SOL    HW115689   1.332   2.409   7.642  0.7359  2.7468 -1.4201
 1409SOL    HW215690   1.418   2.499   7.706 -0.6987  0.4745 -1.5932
 1410SOL     OW15691   4.029   1.936   5.258 -0.2922  0.1860  0.2592
 1410SOL    HW115692   4.089   1.954   5.186 -2.7717  2.4561 -1.2649
 1410SOL    HW215693   4.094   1.903   5.320 -0.6607 -1.2130 -0.1156
 1411SOL     OW15694   2.784   0.586   3.287  0.0543  0.4033 -0.3492
 1411SOL    HW115695   2.869   0.552   3.313 -0.5049 -0.3754  0.4911
 1411SOL    HW215696   2.773   0.533   3.208  0.9181 -0.5625  0.1705
 1412SOL     OW15697   0.325   1.960   3.287  0.2276  0.4412 -0.3198
 1412SOL    HW115698   0.280   2.033   3.329 -1.3584 -0.7074 -0.0160
 1412SOL    HW215699   0.260   1.890   3.297  1.5498 -0.6750  0.4454
 1413SOL     OW15700   3.002   1.384   4.916  0.5712  0.7909  0.1408
 1413SOL    HW115701   3.069   1.375   4.848  0.7447 -0.2008  0.4562
 1413SOL    HW215702   3.046   1.338   4.987  0.5977 -3.4123 -2.6324
 1414SOL     OW15703   3.578   1.240   5.685  0.0742  0.4068 -0.1399
 1414SOL    HW115704   3.598   1.333   5.695  0.1793  0.3507  0.1789
 1414SOL    HW215705   3.559   1.220   5.777  0.2636  0.4036 -0.1026
 1415SOL     OW15706   2.200   4.346  15.143  0.4594  0.7340 -0.7161
 1415SOL    HW115707   2.284   4.336  15.188  1.3600 -0.0995 -2.6034
 1415SOL    HW215708   2.212   4.301  15.060  0.1102  0.2003 -0.4744
 1416SOL     OW15709   3.986   0.054   9.842  0.0600  0.3435 -0.2013
 1416SOL    HW115710   3.971   0.148   9.850 -1.3815 -0.0486  1.7822
 1416SOL    HW215711   3.976   0.036   9.749  1.2962 -0.1158 -0.2345
 1417SOL     OW15712   3.064   1.442   4.462  0.1327 -0.4880 -0.5421
 1417SOL    HW115713   3.079   1.430   4.555  1.4952  2.3190 -0.4121
 1417SOL    HW215714   2.970   1.427   4.457 -0.5164  3.1785  0.5416
 1418SOL     OW15715   4.408   3.537   4.837 -0.3841 -0.6445 -0.2346
 1418SOL    HW115716   4.413   3.535   4.741 -2.9114 -0.6816 -0.3542
 1418SOL    HW215717   4.348   3.611   4.842 -0.0863 -0.3552 -1.0016
 1419SOL     OW15718   3.708   0.144   6.227  0.1289  0.4144 -0.1720
 1419SOL    HW115719   3.673   0.199   6.297 -0.0978  0.2072 -0.1214
 1419SOL    HW215720   3.726   0.207   6.157  1.7275  0.1236 -0.0105
 1420SOL     OW15721   3.882   2.431   1.685 -0.1302  0.0067  0.6956
 1420SOL    HW115722   3.888   2.360   1.749  2.9090 -1.2862 -1.0307
 1420SOL    HW215723   3.854   2.377   1.611  1.9495  0.6721 -0.5630
 1421SOL     OW15724   4.614   4.685   6.125  0.4019 -0.1197 -0.3031
 1421SOL    HW115725   4.629   0.055   6.095  1.6221 -0.2838 -0.2109
 1421SOL    HW215726   4.654   4.636   6.054 -0.6572 -0.4898 -0.6287
 1422SOL     OW15727   4.307   2.072  10.160 -0.2937 -0.2848  0.1002
 1422SOL    HW115728   4.280   1.981  10.174 -0.9754 -0.5542 -3.0282
 1422SOL    HW215729   4.353   2.068  10.076  0.1349 -1.7191  0.4070
 1423SOL     OW15730   2.096   0.263  12.449  0.6387 -0.2148 -0.6066
 1423SOL    HW115731   2.102   0.355  12.473 -1.7761 -0.2369  0.1453
 1423SOL    HW215732   2.096   0.212  12.529  0.4282  1.3120  0.3631
 1424SOL     OW15733   4.508   1.918  12.769  0.0466 -0.4917 -0.1204
 1424SOL    HW115734   4.543   1.857  12.834 -1.1358  0.2803  1.2589
 1424SOL    HW215735   4.515   1.873  12.685 -2.8392 -0.0113 -0.6353
 1425SOL     OW15736   0.656   4.182   7.882 -0.0792 -0.0816 -0.1771
 1425SOL    HW115737   0.638   4.275   7.896  0.2372 -0.2624  1.4285
 1425SOL    HW215738   0.591   4.134   7.934  1.4901 -1.3077  0.6496
 1426SOL     OW15739   3.642   4.688   7.932 -0.0259 -0.2358  0.1903
 1426SOL    HW115740   3.673   0.026   7.862  0.7253 -2.7096 -1.4866
 1426SOL    HW215741   3.557   4.664   7.895 -0.8479  1.4332  0.9839
 1427SOL     OW15742   4.561   3.539  12.534 -0.0701 -0.5604 -0.6475
 1427SOL    HW115743   4.600   3.626  12.538  0.7913 -0.8157 -3.3755
 1427SOL    HW215744   4.578   3.498  12.618 -0.2453  0.7189  0.0175
 1428SOL     OW15745   0.504   0.933   2.580  0.1500  0.7114 -0.7262
 1428SOL    HW115746   0.458   1.017   2.580 -1.3657 -0.1322 -1.0831
 1428SOL    HW215747   0.435   0.877   2.614  0.2658  0.9552 -0.0972
 1429SOL     OW15748   3.718   1.478   5.695  0.0564 -0.3223  0.5844
 1429SOL    HW115749   3.776   1.553   5.711 -0.7890  0.4326  0.1761
 1429SOL    HW215750   3.757   1.434   5.620  1.0523  0.3671  0.6987
 1430SOL     OW15751   3.928   2.578   2.622 -0.6563 -0.0516 -1.0378
 1430SOL    HW115752   3.939   2.559   2.715 -0.2388  0.2735 -1.0237
 1430SOL    HW215753   3.878   2.500   2.598 -0.4709 -0.3530 -0.4521
 1431SOL     OW15754   0.014   2.014   5.121  0.2880  0.5812 -0.4780
 1431SOL    HW115755   0.083   1.949   5.138 -1.3272 -1.3321 -1.2667
 1431SOL    HW215756   0.053   2.099   5.142 -0.6145  0.8961 -0.1140
 1432SOL     OW15757   0.068   2.323  16.067  0.3161 -0.2503  0.1271
 1432SOL    HW115758   0.142   2.301  16.011  0.6336  1.2894 -0.0519
 1432SOL    HW215759   0.105   2.318  16.155  0.3649  0.1181  0.1249
 1433SOL     OW15760   2.225   1.215   6.366 -0.5115 -0.3331 -0.2340
 1433SOL    HW115761   2.294   1.281   6.371  0.1542 -1.1013  0.6981
 1433SOL    HW215762   2.225   1.182   6.456  1.0056 -0.4005 -0.2634
 1434SOL     OW15763   0.787   4.294  11.159  0.6379  0.0875  0.1731
 1434SOL    HW115764   0.770   4.266  11.249  2.4299 -1.2645  0.0943
 1434SOL    HW215765   0.759   4.385  11.172  0.0597 -0.0852  0.1283
 1435SOL     OW15766   4.608   1.068   2.168  0.3576  0.0411  0.4405
 1435SOL    HW115767   4.613   1.158   2.135 -4.3821  1.0020  2.2690
 1435SOL    HW215768   4.535   1.031   2.119  1.4254 -2.4824  0.7601
 1436SOL     OW15769   1.466   2.707  17.626 -0.4063  0.2773  0.2827
 1436SOL    HW115770   1.393   2.739  17.574 -0.4811 -0.6298 -0.1735
 1436SOL    HW215771   1.536   2.719  17.562 -2.5937  1.3830 -1.8961
 1437SOL     OW15772   1.099   0.274  16.966  0.1250 -0.3681  0.0919
 1437SOL    HW115773   1.004   0.267  16.962 -0.0588  2.3625 -0.2477
 1437SOL    HW215774   1.116   0.279  16.872  0.8034 -0.3880  0.2142
 1438SOL     OW15775   1.497   2.260   9.378  0.3378 -0.4027  0.6999
 1438SOL    HW115776   1.514   2.331   9.317  0.2432  1.7186  3.1429
 1438SOL    HW215777   1.412   2.289   9.412 -1.0303 -2.2680 -1.0911
 1439SOL     OW15778   4.085   4.159   8.025  0.0065 -0.5450 -0.3435
 1439SOL    HW115779   4.102   4.071   8.059 -0.3004 -0.0334  1.1068
 1439SOL    HW215780   4.026   4.187   8.096 -0.7097 -0.5317 -0.9402
 1440SOL     OW15781   1.866   3.463   4.299 -0.1013 -0.0573  0.0076
 1440SOL    HW115782   1.865   3.550   4.259 -2.1694  0.0826  0.3898
 1440SOL    HW215783   1.778   3.428   4.283  0.1656 -0.8577  0.2890
 1441SOL     OW15784   2.791   4.384   4.225  0.4261 -0.4554  0.4012
 1441SOL    HW115785   2.784   4.461   4.170  1.5835  0.9633  2.2243
 1441SOL    HW215786   2.729   4.320   4.191  0.6218 -0.8353  0.7568
 1442SOL     OW15787   2.628   2.720  15.064 -0.1703  0.2859 -0.0807
 1442SOL    HW115788   2.594   2.807  15.044 -0.6887  0.1700  0.2855
 1442SOL    HW215789   2.552   2.673  15.097 -0.4375  0.8235  0.0701
 1443SOL     OW15790   3.314   2.743   4.451 -0.6491  0.4225  0.0458
 1443SOL    HW115791   3.357   2.700   4.377 -1.0393  0.0054  0.0629
 1443SOL    HW215792   3.392   2.780   4.493 -0.6009 -0.5442  0.7945
 1444SOL     OW15793   0.737   0.317   8.886 -0.1967  0.3272 -0.4874
 1444SOL    HW115794   0.821   0.288   8.851 -0.1121 -0.4766  0.3558
 1444SOL    HW215795   0.717   0.225   8.905 -1.6879  0.7243 -0.1292
 1445SOL     OW15796   4.556   0.383  13.868 -0.4223  0.4730 -0.2770
 1445SOL    HW115797   4.544   0.288  13.861  0.5694  0.2897  0.5151
 1445SOL    HW215798   4.625   0.407  13.806  1.0098  0.4902  1.3047
 1446SOL     OW15799   0.698   3.031   1.510  0.7966 -0.5280 -0.4559
 1446SOL    HW115800   0.690   2.965   1.579 -0.3986  1.5409  1.3694
 1446SOL    HW215801   0.719   3.105   1.566  0.5608 -0.4410 -0.4842
 1447SOL     OW15802   1.522   1.714   0.305 -0.0860  0.0358  0.1052
 1447SOL    HW115803   1.475   1.667   0.373 -0.9307  0.8005  0.0459
 1447SOL    HW215804   1.568   1.639   0.266  0.3086  0.6670 -0.6540
 1448SOL     OW15805   3.949   2.024   9.302 -0.5258 -0.0474 -0.7146
 1448SOL    HW115806   4.019   2.023   9.367  0.0349  3.7740 -1.2858
 1448SOL    HW215807   3.893   1.956   9.339  1.3717 -0.8141  0.7457
 1449SOL     OW15808   2.872   1.808  11.994 -0.4139  0.2953  0.2581
 1449SOL    HW115809   2.827   1.885  12.028  0.6507  0.9437  0.1798
 1449SOL    HW215810   2.806   1.749  12.030  1.4698  1.1555  5.1020
 1450SOL     OW15811   4.677   2.378  10.177  0.5701 -0.3832 -0.9977
 1450SOL    HW115812   4.698   2.370  10.270 -1.3154 -1.3996 -0.6674
 1450SOL    HW215813   4.582   2.370  10.169  0.4483  1.4353 -1.4235
 1451SOL     OW15814   3.407   0.940   2.659 -0.3896 -0.0424  0.1059
 1451SOL    HW115815   3.449   0.883   2.594  2.3221  1.7392  0.2685
 1451SOL    HW215816   3.322   0.958   2.619 -0.4119 -2.0308 -0.7490
 1452SOL     OW15817   3.412   0.020   4.157  0.7453 -0.0962  0.0974
 1452SOL    HW115818   3.466   0.095   4.183 -0.1844  1.3885 -2.2242
 1452SOL    HW215819   3.326   0.061   4.161  0.3584 -1.1770  2.4787
 1453SOL     OW15820   3.778   3.103   1.887 -0.3667 -0.0447  0.2397
 1453SOL    HW115821   3.786   3.067   1.799  2.6981  1.4432 -0.0843
 1453SOL    HW215822   3.683   3.111   1.898 -0.1865  0.2441  1.6483
 1454SOL     OW15823   2.588   0.234  15.356  0.2529  0.0899 -0.9457
 1454SOL    HW115824   2.581   0.247  15.261 -1.4488 -2.2432 -1.1688
 1454SOL    HW215825   2.653   0.296  15.386  0.4057 -0.9663  0.8852
 1455SOL     OW15826   2.770   4.561  15.540 -0.0653  0.0789 -0.0344
 1455SOL    HW115827   2.737   4.523  15.459  2.4711 -0.6221 -0.7380
 1455SOL    HW215828   2.855   4.595  15.510 -0.0103 -0.7049 -0.7739
 1456SOL     OW15829   1.914   4.195   5.989  0.3069  0.6106 -0.2368
 1456SOL    HW115830   1.953   4.118   6.030 -0.5186  1.2105  1.6593
 1456SOL    HW215831   1.949   4.187   5.900  1.3899 -3.2647  0.5308
 1457SOL     OW15832   3.321   0.370  17.550  0.2883  0.2272  0.9040
 1457SOL    HW115833   3.346   0.304  17.485  4.7894 -0.0094  2.8813
 1457SOL    HW215834   3.389   0.352  17.614  0.7945  0.9599  0.5700
 1458SOL     OW15835   4.639   3.511   2.094  0.4743 -0.8267 -0.0098
 1458SOL    HW115836   4.547   3.518   2.070 -0.1573 -2.5152  1.8725
 1458SOL    HW215837   4.675   3.500   2.006 -0.4024 -1.0534 -0.3446
 1459SOL     OW15838   0.395   2.380   2.948 -0.7611  0.6417  0.4838
 1459SOL    HW115839   0.366   2.298   2.989 -1.3967  0.3345 -0.5782
 1459SOL    HW215840   0.329   2.401   2.881 -1.3927 -0.9236  0.5965
 1460SOL     OW15841   4.102   2.550  14.699  0.0271 -0.1461  0.3022
 1460SOL    HW115842   4.019   2.585  14.666  0.6013  0.5251 -0.4234
 1460SOL    HW215843   4.140   2.622  14.749  0.8129  0.0162 -0.5202
 1461SOL     OW15844   0.315   1.608   0.101  0.1852 -0.1960 -0.0326
 1461SOL    HW115845   0.284   1.553   0.173  0.3372 -2.7527 -1.8869
 1461SOL    HW215846   0.332   1.540   0.035 -2.3728 -0.4206 -0.4720
 1462SOL     OW15847   4.332   1.322   0.409  0.1352  0.2916  0.0440
 1462SOL    HW115848   4.332   1.416   0.426 -1.6188  0.6936 -2.1142
 1462SOL    HW215849   4.241   1.306   0.382 -0.3155  0.9258  1.1901
 1463SOL     OW15850   4.588   0.914  10.939 -0.0316  0.3807  0.1396
 1463SOL    HW115851   4.679   0.934  10.915 -0.1008  0.4497 -0.0650
 1463SOL    HW215852   4.540   0.967  10.875 -0.3045  2.6596  2.2116
 1464SOL     OW15853   2.904   1.642   7.089 -0.6911  0.1623  0.0712
 1464SOL    HW115854   2.902   1.730   7.051 -3.2147 -0.4300 -1.1815
 1464SOL    HW215855   2.967   1.600   7.030  1.1279  1.8049  0.8522
 1465SOL     OW15856   0.846   3.922  10.960  0.2178  0.3026  0.8685
 1465SOL    HW115857   0.780   3.882  11.016 -0.5206  0.4412  0.1019
 1465SOL    HW215858   0.877   3.838  10.927 -0.7171  0.3817 -0.2144
 1466SOL     OW15859   1.596   0.576   5.506 -0.2553 -0.1170 -0.7139
 1466SOL    HW115860   1.641   0.517   5.445 -0.2506 -0.9605  0.0924
 1466SOL    HW215861   1.580   0.507   5.571  1.2423 -0.0637 -0.2880
 1467SOL     OW15862   0.247   3.806  13.949  0.4405 -0.2177  0.0581
 1467SOL    HW115863   0.253   3.756  14.030  1.5256 -0.6998 -0.3085
 1467SOL    HW215864   0.314   3.873  13.965 -0.0851  0.2577  0.2249
 1468SOL     OW15865   2.541   3.810   8.752 -0.2409  0.0671 -0.2861
 1468SOL    HW115866   2.557   3.891   8.702 -3.3134  1.2154  0.5909
 1468SOL    HW215867   2.627   3.786   8.786 -0.3829 -1.2726 -0.8660
 1469SOL     OW15868   1.421   3.008   1.926 -0.0363  0.2202  0.2324
 1469SOL    HW115869   1.502   3.037   1.883 -0.0360  0.0713  0.1289
 1469SOL    HW215870   1.452   2.938   1.984  1.8109 -0.6647 -1.8333
 1470SOL     OW15871   2.242   4.656   3.733 -0.1557  0.2532 -0.2419
 1470SOL    HW115872   2.174   4.692   3.676 -0.6535  0.3259  0.4061
 1470SOL    HW215873   2.187   4.596   3.783  0.2006  0.4267  0.3496
 1471SOL     OW15874   1.906   3.723   8.798  0.6609 -0.2650 -0.1921
 1471SOL    HW115875   1.922   3.632   8.775 -2.2599 -1.1508  1.2828
 1471SOL    HW215876   1.819   3.720   8.758 -0.2579  0.1909  1.7365
 1472SOL     OW15877   4.158   1.287  14.478 -0.0747 -0.0968 -0.3938
 1472SOL    HW115878   4.108   1.213  14.444 -1.5762  1.1356 -0.8629
 1472SOL    HW215879   4.097   1.342  14.528  1.2534  1.6822 -0.7418
 1473SOL     OW15880   3.660   1.221   0.075  0.0241 -0.4134  0.8859
 1473SOL    HW115881   3.581   1.192   0.029  1.0155 -1.3387 -0.2430
 1473SOL    HW215882   3.646   1.315   0.082  1.1282 -0.1166 -0.9341
 1474SOL     OW15883   4.680   3.928   3.925 -0.0357 -0.4252  0.3339
 1474SOL    HW115884   4.605   3.978   3.958 -0.1000 -0.5393  0.3600
 1474SOL    HW215885   4.718   3.992   3.865 -0.8057 -0.5640 -0.3006
 1475SOL     OW15886   4.223   1.401   7.179  0.0281  0.1478  0.2258
 1475SOL    HW115887   4.193   1.348   7.105  0.4456 -0.2639  0.3523
 1475SOL    HW215888   4.260   1.332   7.234  2.4674  0.1526 -1.3916
 1476SOL     OW15889   0.841   4.149  10.798  0.0660 -0.4725  0.3679
 1476SOL    HW115890   0.912   4.206  10.829  2.1861 -2.6200 -0.4959
 1476SOL    HW215891   0.850   4.066  10.846 -1.7613 -1.5860 -1.2356
 1477SOL     OW15892   3.483   1.474   7.720 -0.4687 -0.3837  0.3322
 1477SOL    HW115893   3.450   1.563   7.704 -1.4037 -0.7406  0.2690
 1477SOL    HW215894   3.453   1.466   7.811 -1.6895 -2.7409 -0.2795
 1478SOL     OW15895   0.578   1.464   1.825  0.0129  0.1853  0.1017
 1478SOL    HW115896   0.569   1.539   1.765  0.6933  2.1521  2.4819
 1478SOL    HW215897   0.662   1.492   1.862  0.9264 -3.3916  0.7497
 1479SOL     OW15898   3.331   0.412   6.193 -0.4690 -0.2155 -0.2184
 1479SOL    HW115899   3.268   0.368   6.136 -1.8086  1.0338  0.2947
 1479SOL    HW215900   3.337   0.345   6.262 -0.6016 -0.2737 -0.2631
 1480SOL     OW15901   3.143   3.815   2.962  0.3636 -0.0086 -0.0715
 1480SOL    HW115902   3.061   3.807   3.011  0.5732  0.1674  0.3145
 1480SOL    HW215903   3.157   3.742   2.901 -0.3339 -1.2527  1.2294
 1481SOL     OW15904   2.832   3.827   6.300 -0.0641 -0.3293  0.0617
 1481SOL    HW115905   2.917   3.828   6.343 -0.8151  2.8315  1.4076
 1481SOL    HW215906   2.851   3.776   6.221 -0.7581  2.2008 -1.7238
 1482SOL     OW15907   1.934   0.059  12.974  0.1974 -0.3582 -0.8160
 1482SOL    HW115908   1.924   0.097  13.061 -0.3831 -2.1382 -0.1237
 1482SOL    HW215909   1.973   4.696  13.001 -0.4285 -0.3200  0.2045
 1483SOL     OW15910   3.575   4.564  14.603  0.0107 -0.2718  0.0120
 1483SOL    HW115911   3.626   4.640  14.631 -1.0336 -0.1586  1.6322
 1483SOL    HW215912   3.612   4.539  14.519  0.5007  0.7363 -0.0669
 1484SOL     OW15913   0.141   0.439  17.457 -0.2368  0.2428  0.1922
 1484SOL    HW115914   0.190   0.402  17.383 -1.5026  0.1122 -0.5858
 1484SOL    HW215915   0.218   0.472  17.503  0.0255 -0.0134 -0.0583
 1485SOL     OW15916   1.474   1.587   2.717  0.3619 -0.0187  0.2429
 1485SOL    HW115917   1.564   1.620   2.713  0.3751  0.1608  2.2004
 1485SOL    HW215918   1.470   1.532   2.638  0.8743 -0.2013  0.3405
 1486SOL     OW15919   2.758   3.008   7.559  0.4409  0.1247 -0.1953
 1486SOL    HW115920   2.816   3.082   7.578 -0.7174  1.4050 -1.6791
 1486SOL    HW215921   2.799   2.934   7.604 -0.5552  0.0883  0.6634
 1487SOL     OW15922   4.680   0.456   0.548  0.3657  0.1061 -0.1402
 1487SOL    HW115923   4.697   0.541   0.508  0.2725  0.2494  0.1260
 1487SOL    HW215924   4.637   0.416   0.472 -1.2895 -0.8879  1.2978
 1488SOL     OW15925   3.499   4.029   2.274  0.4253 -0.4557 -0.0196
 1488SOL    HW115926   3.561   4.046   2.345  1.9828 -0.6658 -1.3321
 1488SOL    HW215927   3.534   4.091   2.211  0.3658 -2.4038 -1.9642
 1489SOL     OW15928   3.293   4.713  14.505 -0.0952 -1.0605  0.2230
 1489SOL    HW115929   3.371   0.015  14.453 -1.7127 -1.2235 -2.2483
 1489SOL    HW215930   3.247   4.661  14.439 -1.2565  2.0485 -1.4101
 1490SOL     OW15931   0.823   3.021   4.877  0.1049  0.0826 -0.3699
 1490SOL    HW115932   0.748   2.962   4.879  1.6636 -1.9668 -0.7173
 1490SOL    HW215933   0.835   3.029   4.782  0.6446 -0.7762 -0.3775
 1491SOL     OW15934   2.074   2.055  10.844 -0.3538 -0.1217  0.0651
 1491SOL    HW115935   2.095   2.148  10.849  0.9551 -0.3378 -1.1504
 1491SOL    HW215936   2.091   2.036  10.936  1.6447 -2.4778 -0.7801
 1492SOL     OW15937   4.471   0.080   6.845 -0.4768 -0.2624 -0.3039
 1492SOL    HW115938   4.482   0.001   6.898 -0.7224  1.3127  2.0708
 1492SOL    HW215939   4.548   0.132   6.870 -0.6570 -1.1180  2.0097
 1493SOL     OW15940   1.011   3.415  12.690  0.0790  0.0949  0.3698
 1493SOL    HW115941   1.019   3.326  12.724 -1.4678 -0.3576 -0.4728
 1493SOL    HW215942   0.989   3.394  12.599  0.5450  0.5473  0.1514
 1494SOL     OW15943   3.298   0.624   7.723 -0.2487  0.1373  0.4634
 1494SOL    HW115944   3.392   0.615   7.740 -0.4260 -0.7644  0.9773
 1494SOL    HW215945   3.287   0.542   7.675  1.6189 -0.2644  0.7084
 1495SOL     OW15946   3.142   3.319   0.195 -0.4656  0.0797 -0.3661
 1495SOL    HW115947   3.097   3.292   0.275 -1.3967 -1.3631 -1.3753
 1495SOL    HW215948   3.103   3.252   0.139 -3.8215  1.5243  0.2937
 1496SOL     OW15949   1.762   2.922   6.827  0.0033  0.0068  0.1899
 1496SOL    HW115950   1.701   2.958   6.891 -0.0678 -0.9524  0.6557
 1496SOL    HW215951   1.819   2.996   6.803 -0.5572 -0.2309 -1.8468
 1497SOL     OW15952   2.799   4.713   2.826  0.0398 -0.3247 -0.6066
 1497SOL    HW115953   2.743   0.009   2.902  1.7457  2.1604  0.1113
 1497SOL    HW215954   2.760   0.060   2.770  0.9426  0.5785 -0.1449
 1498SOL     OW15955   0.426   4.273   4.937  0.3905 -0.4189  0.0700
 1498SOL    HW115956   0.367   4.250   4.865 -0.3120  1.2930  0.1100
 1498SOL    HW215957   0.375   4.338   4.985  0.5513  0.1355 -0.5167
 1499SOL     OW15958   2.064   3.633   2.558 -0.2475 -0.3671 -0.3202
 1499SOL    HW115959   2.067   3.713   2.610  2.4412 -0.3915 -0.4805
 1499SOL    HW215960   2.150   3.600   2.582 -0.0197  0.7612  0.4441
 1500SOL     OW15961   3.762   1.519  14.322  0.0765  0.7372  0.2140
 1500SOL    HW115962   3.835   1.537  14.381 -0.3873  2.5847  0.2211
 1500SOL    HW215963   3.747   1.602  14.276 -1.0624  1.1590  1.3639
 1501SOL     OW15964   0.652   3.243   6.661 -0.4560  0.0771 -0.1923
 1501SOL    HW115965   0.672   3.315   6.602 -2.7699 -0.7770 -2.0167
 1501SOL    HW215966   0.557   3.236   6.652 -0.3777 -0.3128 -0.6992
 1502SOL     OW15967   1.123   0.460   6.432  0.2175  0.5228 -0.1998
 1502SOL    HW115968   1.144   0.370   6.411  0.1717  0.2348  0.9539
 1502SOL    HW215969   1.030   0.451   6.456 -0.1358  2.0367 -0.9632
 1503SOL     OW15970   2.766   4.334   1.601 -0.3509 -0.8082  0.0008
 1503SOL    HW115971   2.772   4.420   1.560 -3.5292 -0.4893  0.1928
 1503SOL    HW215972   2.829   4.292   1.543 -1.3028 -0.6375 -1.1481
 1504SOL     OW15973   0.941   3.210   8.591  0.1475 -0.0358  0.2679
 1504SOL    HW115974   0.929   3.242   8.502  1.9359  0.5852  0.2336
 1504SOL    HW215975   0.984   3.282   8.638 -0.1219  0.4633 -0.2454
 1505SOL     OW15976   2.147   0.961  12.991  1.1509 -0.4480  0.1740
 1505SOL    HW115977   2.185   0.999  13.069 -4.0155  1.0057  1.9955
 1505SOL    HW215978   2.222   0.918  12.951 -0.5756 -0.6636 -2.9341
 1506SOL     OW15979   1.788   4.088   9.172 -0.4613  0.2029  0.1128
 1506SOL    HW115980   1.787   4.018   9.107 -1.5540  2.0119 -1.8557
 1506SOL    HW215981   1.881   4.103   9.184 -0.3793  0.5796 -1.0298
 1507SOL     OW15982   3.598   4.100   4.939  0.2183 -0.0382  0.2735
 1507SOL    HW115983   3.568   4.017   4.976  0.6120 -0.0565  0.5459
 1507SOL    HW215984   3.620   4.152   5.017 -0.0247  1.1858 -0.4669
 1508SOL     OW15985   0.788   1.074   7.126  0.2282  0.1697  0.3745
 1508SOL    HW115986   0.727   1.095   7.197 -3.0970 -2.0747 -1.8123
 1508SOL    HW215987   0.864   1.118   7.163 -0.0987  1.2383 -0.2377
 1509SOL     OW15988   3.559   3.017   8.513  0.3704 -0.1978 -0.3285
 1509SOL    HW115989   3.653   3.031   8.525  0.0750 -0.3934  2.2076
 1509SOL    HW215990   3.560   2.935   8.464  1.3636  1.0118 -2.3368
 1510SOL     OW15991   3.364   1.632   5.511 -0.1291  0.6993 -0.1346
 1510SOL    HW115992   3.376   1.581   5.591 -1.4160  1.1817  0.3567
 1510SOL    HW215993   3.456   1.645   5.489  0.1275 -0.4804  0.2281
 1511SOL     OW15994   1.884   1.313   8.114  0.1344  0.3805 -1.0158
 1511SOL    HW115995   1.976   1.335   8.122  1.0219 -3.3567 -0.6738
 1511SOL    HW215996   1.847   1.328   8.201  0.3427 -1.4379 -0.6192
 1512SOL     OW15997   4.280   0.770  14.800  0.2771  0.9187 -0.0506
 1512SOL    HW115998   4.306   0.862  14.805 -0.1139  1.0142  0.1930
 1512SOL    HW215999   4.192   0.786  14.835  0.1050 -0.3050  0.0637
 1513SOL     OW16000   4.324   1.652   7.457 -0.2479 -0.2439  0.1614
 1513SOL    HW116001   4.382   1.580   7.431 -0.6143 -0.0012 -1.3454
 1513SOL    HW216002   4.360   1.714   7.394  0.4224 -0.0285  0.7491
 1514SOL     OW16003   3.849   4.014   4.756 -0.6367 -0.4358  0.0153
 1514SOL    HW116004   3.912   4.085   4.766 -0.0458 -0.7579 -1.4066
 1514SOL    HW216005   3.851   3.974   4.844  0.1964 -2.2998 -0.8428
 1515SOL     OW16006   1.467   3.499   1.730 -0.2308  0.0157 -0.7962
 1515SOL    HW116007   1.528   3.428   1.751  0.3754  0.8726  0.3512
 1515SOL    HW216008   1.386   3.452   1.745 -1.0574  1.5037 -0.5675
 1516SOL     OW16009   0.501   2.382   6.549 -0.1316 -0.5963 -0.1753
 1516SOL    HW116010   0.426   2.427   6.587  0.2223  1.0313 -1.4019
 1516SOL    HW216011   0.565   2.388   6.620 -2.1189 -0.6049  1.6168
 1517SOL     OW16012   0.629   0.944   5.959 -0.6632  0.0120  0.3624
 1517SOL    HW116013   0.647   1.018   5.900 -2.5875  1.3672  1.4715
 1517SOL    HW216014   0.717   0.908   5.967 -0.3625  0.5314 -0.5765
 1518SOL     OW16015   1.245   3.860   1.514  0.0057  0.1708  0.0349
 1518SOL    HW116016   1.253   3.767   1.534  0.0208 -0.3471 -2.3830
 1518SOL    HW216017   1.270   3.892   1.600 -0.4818 -2.6513  1.2247
 1519SOL     OW16018   3.530   2.954   2.775 -0.5431  0.1099  0.0105
 1519SOL    HW116019   3.440   2.934   2.800 -0.4070 -0.8833 -0.2862
 1519SOL    HW216020   3.566   2.895   2.842 -2.8021 -0.4959  0.6791
 1520SOL     OW16021   4.517   0.087   7.500  0.3011 -0.4147 -0.0519
 1520SOL    HW116022   4.580   0.149   7.539  0.2987  1.2855 -2.7135
 1520SOL    HW216023   4.466   0.083   7.580 -0.3889  0.7540 -0.4279
 1521SOL     OW16024   4.557   2.822  16.447  0.0593  0.1593  0.0632
 1521SOL    HW116025   4.570   2.917  16.442 -1.9629  0.3592 -1.8311
 1521SOL    HW216026   4.489   2.802  16.382  0.6036  0.1759 -0.5148
 1522SOL     OW16027   4.157   3.301  10.399  0.0875 -0.3350 -1.1188
 1522SOL    HW116028   4.140   3.212  10.369 -1.0783  0.3473 -2.4984
 1522SOL    HW216029   4.220   3.334  10.335 -1.7156  2.5610 -1.4248
 1523SOL     OW16030   0.576   0.352   3.432 -0.0111 -0.0210 -0.1047
 1523SOL    HW116031   0.482   0.365   3.444  0.3559  2.2697  0.2320
 1523SOL    HW216032   0.601   0.435   3.390 -0.9398 -0.3037 -1.2507
 1524SOL     OW16033   3.114   1.120   6.615 -0.0732 -0.0100  0.1078
 1524SOL    HW116034   3.145   1.207   6.642  1.2654 -0.1313 -1.0355
 1524SOL    HW216035   3.149   1.074   6.691 -0.0227  0.2334  0.2324
 1525SOL     OW16036   4.044   1.534   9.667 -0.0054 -0.3075 -0.4924
 1525SOL    HW116037   4.094   1.456   9.643 -0.0262 -0.4844  0.0404
 1525SOL    HW216038   4.071   1.536   9.759 -0.4186 -2.9913 -0.3212
 1526SOL     OW16039   4.008   1.641  10.373  0.0393 -0.1114 -0.6180
 1526SOL    HW116040   4.064   1.697  10.427 -1.7792 -0.1267  1.2415
 1526SOL    HW216041   3.927   1.691  10.379  0.3712  0.4669 -0.9520
 1527SOL     OW16042   0.738   0.427  16.073  0.1541  0.7739 -0.5323
 1527SOL    HW116043   0.805   0.362  16.094  0.1341  0.2511 -2.1167
 1527SOL    HW216044   0.689   0.432  16.155  1.2092 -1.7176  0.2396
 1528SOL     OW16045   2.050   1.692  10.552  0.1959  0.1910 -0.0502
 1528SOL    HW116046   2.105   1.615  10.564 -1.3478 -1.0047 -0.6617
 1528SOL    HW216047   2.103   1.750  10.607  1.0737 -1.0258  0.3792
 1529SOL     OW16048   0.921   3.905  14.460  0.6493 -1.0470 -0.4828
 1529SOL    HW116049   0.851   3.929  14.521  2.4720 -0.1284  1.2202
 1529SOL    HW216050   0.992   3.960  14.492 -0.9678  0.1958  1.0146
 1530SOL     OW16051   2.317   1.183   5.454 -0.1401  1.0913  0.6666
 1530SOL    HW116052   2.236   1.232   5.454 -0.5666  0.3750 -0.2994
 1530SOL    HW216053   2.347   1.199   5.365 -0.3730  2.1748  0.7918
 1531SOL     OW16054   4.516   1.418   6.575 -0.1051 -0.5580 -0.1956
 1531SOL    HW116055   4.448   1.363   6.535 -0.1422 -2.5866  2.6568
 1531SOL    HW216056   4.469   1.500   6.588  1.0968  0.1777 -0.5223
 1532SOL     OW16057   1.294   2.423   6.123 -0.0769 -0.2425  0.3176
 1532SOL    HW116058   1.240   2.477   6.065 -0.6319 -2.2728 -1.0274
 1532SOL    HW216059   1.223   2.402   6.183 -0.4784 -0.4023 -0.2220
 1533SOL     OW16060   3.311   3.900   6.118 -0.2153 -0.0909 -0.4914
 1533SOL    HW116061   3.384   3.848   6.086  0.3000  0.4389 -0.1820
 1533SOL    HW216062   3.330   3.989   6.086 -1.1537  0.1319 -0.4199
 1534SOL     OW16063   3.810   3.414  10.837  0.4025  0.0101  0.3051
 1534SOL    HW116064   3.824   3.384  10.748 -0.1516 -2.2218  0.9670
 1534SOL    HW216065   3.812   3.509  10.837  2.7882 -0.0393  1.3472
 1535SOL     OW16066   4.216   2.062   3.303 -0.4391 -0.0652  1.1077
 1535SOL    HW116067   4.228   2.070   3.208 -0.7642 -0.9380  0.9945
 1535SOL    HW216068   4.186   1.972   3.312 -1.0431 -0.1212 -1.4875
 1536SOL     OW16069   3.186   4.597  12.460 -0.2505  0.1170  0.7091
 1536SOL    HW116070   3.248   4.619  12.529  0.8667 -0.4162 -0.1405
 1536SOL    HW216071   3.192   4.504  12.441  2.3387  0.1848  1.2496
 1537SOL     OW16072   3.394   0.403   6.719 -0.5911  0.4149 -0.6248
 1537SOL    HW116073   3.354   0.345   6.655 -1.0950  1.8697 -1.6390
 1537SOL    HW216074   3.323   0.465   6.706 -0.5435  0.4231 -0.8358
 1538SOL     OW16075   3.464   2.935  13.436  0.1641 -0.5498  0.1262
 1538SOL    HW116076   3.384   2.987  13.438  1.5642  1.6056  0.0229
 1538SOL    HW216077   3.522   3.005  13.406 -2.1669  1.1437 -0.4445
 1539SOL     OW16078   0.179   1.157   4.155 -0.7071  0.2078  0.3390
 1539SOL    HW116079   0.178   1.237   4.207 -1.2016 -0.4735  1.3874
 1539SOL    HW216080   0.254   1.174   4.098 -1.0084 -3.2646 -1.1252
 1540SOL     OW16081   1.139   0.066   6.903 -0.2631 -0.1757 -0.4536
 1540SOL    HW116082   1.198   4.710   6.910 -0.3283 -0.1429  0.5312
 1540SOL    HW216083   1.107   0.077   6.993  1.2549  1.4369 -0.1044
 1541SOL     OW16084   2.027   3.438   5.508 -0.2821 -0.2115 -0.3404
 1541SOL    HW116085   2.054   3.378   5.578  1.3339  0.4200 -0.4049
 1541SOL    HW216086   1.950   3.387   5.485 -0.3943 -0.5428  0.7778
 1542SOL     OW16087   1.516   1.870   4.872  0.5854 -0.4296 -0.1606
 1542SOL    HW116088   1.570   1.796   4.843  0.3724 -0.6723  0.0630
 1542SOL    HW216089   1.583   1.938   4.871  0.1263  0.0282  0.8683
 1543SOL     OW16090   1.614   1.917   9.984  0.2630 -0.3073  0.1661
 1543SOL    HW116091   1.650   1.829   9.991 -0.5840 -0.7268 -0.8896
 1543SOL    HW216092   1.617   1.932   9.890  0.4870  0.2022  0.2531
 1544SOL     OW16093   1.494   1.306   7.643  0.7428  0.4437 -0.2848
 1544SOL    HW116094   1.582   1.343   7.633  0.6803  0.6264 -0.1730
 1544SOL    HW216095   1.437   1.382   7.658 -0.7969 -0.6822 -0.4388
 1545SOL     OW16096   2.449   3.697   3.145 -0.1243  0.1834  0.0215
 1545SOL    HW116097   2.501   3.777   3.146 -0.5861  0.5152 -2.4221
 1545SOL    HW216098   2.477   3.661   3.061 -0.2544  1.4590 -0.5649
 1546SOL     OW16099   4.508   0.353   7.350 -0.2309 -0.0999  0.2746
 1546SOL    HW116100   4.424   0.310   7.336  0.4157 -1.2424 -0.1002
 1546SOL    HW216101   4.493   0.445   7.331  3.0018  0.7390  1.7318
 1547SOL     OW16102   3.688   1.404  14.816  0.1948 -0.3143 -0.3507
 1547SOL    HW116103   3.733   1.346  14.877  0.8133 -0.9910 -1.4424
 1547SOL    HW216104   3.612   1.437  14.864  0.1999 -0.7959 -0.0125
 1548SOL     OW16105   2.581   4.491  12.421  0.0393 -0.0316 -0.6403
 1548SOL    HW116106   2.564   4.585  12.422  1.0365  0.1450 -0.7693
 1548SOL    HW216107   2.516   4.465  12.486  0.9842  0.6918  0.5964
 1549SOL     OW16108   2.537   3.285   5.145 -0.4674  0.1541  0.4174
 1549SOL    HW116109   2.573   3.253   5.228  1.0110 -0.6916 -0.5406
 1549SOL    HW216110   2.525   3.376   5.173  1.3335  0.5759 -0.1939
 1550SOL     OW16111   4.180   3.168   5.962  0.3963  0.0651 -0.4930
 1550SOL    HW116112   4.244   3.097   5.951  0.0858 -0.3744  0.5880
 1550SOL    HW216113   4.214   3.221   6.034  0.2226 -1.0700  0.4141
 1551SOL     OW16114   0.957   1.715  15.456 -0.5454 -0.3723  0.2018
 1551SOL    HW116115   1.009   1.636  15.472 -0.7369 -0.4895  0.2372
 1551SOL    HW216116   0.998   1.761  15.382 -1.7769 -1.7208 -1.3280
 1552SOL     OW16117   2.348   3.220   7.777 -0.1558 -0.0099  0.9800
 1552SOL    HW116118   2.300   3.290   7.732 -0.7903 -0.8685  0.3147
 1552SOL    HW216119   2.424   3.220   7.719 -1.5094 -0.0120 -0.7968
 1553SOL     OW16120   1.001   3.665   6.483  0.1856 -0.1364 -0.6460
 1553SOL    HW116121   1.076   3.712   6.447 -0.6898  0.4762 -1.6444
 1553SOL    HW216122   1.018   3.580   6.444  0.8847 -0.5652  0.5710
 1554SOL     OW16123   4.117   4.165   4.812 -0.3896 -0.5203  0.2908
 1554SOL    HW116124   4.191   4.207   4.768 -0.4988  0.5995  1.1585
 1554SOL    HW216125   4.144   4.188   4.901 -0.8670 -0.7576  0.4953
 1555SOL     OW16126   0.184   0.244   7.849 -0.2089 -0.1146  0.2004
 1555SOL    HW116127   0.161   0.184   7.777 -0.4468 -0.0780  0.2476
 1555SOL    HW216128   0.235   0.183   7.902 -1.6657 -0.6122  1.0291
 1556SOL     OW16129   1.201   0.307   5.503  0.2011 -0.4083  0.0745
 1556SOL    HW116130   1.251   0.322   5.423  0.0251  0.4037  0.1090
 1556SOL    HW216131   1.163   0.219   5.502  0.4343 -0.4714 -1.8711
 1557SOL     OW16132   3.002   1.264  15.076 -0.4982 -0.1917 -1.3204
 1557SOL    HW116133   3.043   1.187  15.035 -1.3504 -0.4610 -1.6567
 1557SOL    HW216134   2.910   1.251  15.054 -0.1829 -1.3108 -1.9597
 1558SOL     OW16135   3.930   0.429   6.752  0.0912  0.8508  0.2560
 1558SOL    HW116136   3.948   0.350   6.802 -0.1250  0.3864 -0.4129
 1558SOL    HW216137   3.842   0.408   6.719  0.1411  0.0056  0.6855
 1559SOL     OW16138   1.097   0.978   1.097 -0.1188 -0.4191  0.1417
 1559SOL    HW116139   1.103   1.070   1.124  1.8604 -0.1377 -1.2124
 1559SOL    HW216140   1.002   0.983   1.091 -0.1366 -1.4422 -0.4696
 1560SOL     OW16141   3.797   3.890  17.355  0.1039 -0.0085 -0.3636
 1560SOL    HW116142   3.728   3.924  17.298 -0.8248  0.1286  0.8353
 1560SOL    HW216143   3.841   3.973  17.375 -1.0221  0.5192 -0.0506
 1561SOL     OW16144   2.944   4.464   4.746 -0.4455  0.0618 -0.1749
 1561SOL    HW116145   2.992   4.395   4.792 -0.6505 -0.7555 -1.1904
 1561SOL    HW216146   2.919   4.425   4.662  2.5487 -1.9914 -0.0918
 1562SOL     OW16147   3.229   2.760   5.651  0.0078  0.0082 -0.1422
 1562SOL    HW116148   3.158   2.802   5.699  1.5340  1.1162  1.1487
 1562SOL    HW216149   3.248   2.683   5.705  0.2987 -1.7745 -2.8331
 1563SOL     OW16150   4.605   4.365  12.695  0.5034 -0.3342  0.3025
 1563SOL    HW116151   4.522   4.399  12.660  0.1337 -0.9282  0.5940
 1563SOL    HW216152   4.608   4.421  12.773 -0.8958 -0.6125  0.5544
 1564SOL     OW16153   0.557   2.040   6.622 -0.2859 -0.9503  0.3937
 1564SOL    HW116154   0.535   1.960   6.670 -0.3068 -0.4177  1.2710
 1564SOL    HW216155   0.617   2.083   6.683  0.9011 -2.0933  0.0596
 1565SOL     OW16156   0.609   1.809   8.928  0.1072  0.1651 -0.4081
 1565SOL    HW116157   0.604   1.734   8.987 -1.8891 -0.1844 -1.0421
 1565SOL    HW216158   0.682   1.779   8.873  0.8868 -0.3897  0.9400
 1566SOL     OW16159   1.955   1.560   8.915 -0.0784  0.0136  0.4729
 1566SOL    HW116160   2.029   1.504   8.891 -0.5370 -0.4995  0.2598
 1566SOL    HW216161   1.891   1.541   8.846 -0.4358  2.0316  0.2492
 1567SOL     OW16162   0.718   1.912  10.235 -0.2832  0.1236  0.4465
 1567SOL    HW116163   0.742   2.005  10.234 -2.5906  0.7328  1.6487
 1567SOL    HW216164   0.641   1.915  10.179  0.4214  1.6063 -0.4432
 1568SOL     OW16165   0.434   2.977   5.208  0.1673  0.1590  0.2108
 1568SOL    HW116166   0.357   2.924   5.186  1.6988 -1.9669  0.0190
 1568SOL    HW216167   0.424   2.974   5.303  3.1802  0.9810  0.5261
 1569SOL     OW16168   2.333   3.200   8.363 -0.3865 -0.3503  0.2509
 1569SOL    HW116169   2.320   3.284   8.319  1.3550 -0.9310 -1.3333
 1569SOL    HW216170   2.425   3.201   8.388 -0.7040  0.9206  1.4271
 1570SOL     OW16171   1.220   1.359   5.554 -0.3882 -0.2740 -0.1189
 1570SOL    HW116172   1.183   1.355   5.466  1.7287  0.1423 -1.0262
 1570SOL    HW216173   1.161   1.417   5.602 -0.4150 -1.3344  1.1243
 1571SOL     OW16174   4.610   3.215  13.391 -0.3385  0.5303 -0.3610
 1571SOL    HW116175   4.553   3.262  13.451  2.0444  0.9138  1.6060
 1571SOL    HW216176   4.626   3.136  13.443  0.0942  0.8768  0.0277
 1572SOL     OW16177   3.806   3.552  14.374  0.6855  0.4578  0.0238
 1572SOL    HW116178   3.874   3.585  14.432  1.4739 -0.3609 -0.4362
 1572SOL    HW216179   3.844   3.469  14.347  0.1610  1.0349 -2.4657
 1573SOL     OW16180   2.271   0.088   8.778  0.1298  0.1937 -0.9083
 1573SOL    HW116181   2.178   0.085   8.800  0.4103  1.8570  0.4820
 1573SOL    HW216182   2.303   0.091   8.868  0.4132  0.3790 -1.0148
 1574SOL     OW16183   1.275   3.475   3.968 -0.7695 -0.0644 -0.2297
 1574SOL    HW116184   1.302   3.387   3.941 -0.2577 -0.5424  1.9155
 1574SOL    HW216185   1.228   3.439   4.043  0.0623 -2.4349 -0.8578
 1575SOL     OW16186   1.128   3.488  10.674 -0.5278 -0.1686  0.2321
 1575SOL    HW116187   1.157   3.469  10.764 -0.1906 -0.7590 -0.0008
 1575SOL    HW216188   1.037   3.460  10.671 -0.5915  0.2886 -1.6212
 1576SOL     OW16189   4.677   2.926   0.812  0.1593 -0.4199 -0.1385
 1576SOL    HW116190   0.009   2.917   0.731 -0.3555  0.5708 -0.5789
 1576SOL    HW216191   0.009   2.878   0.876  0.1532  0.5153  0.5670
 1577SOL     OW16192   0.527   2.335   5.167  0.3459  0.2176 -0.3965
 1577SOL    HW116193   0.555   2.419   5.203  0.7515 -0.4575  0.8764
 1577SOL    HW216194   0.473   2.356   5.091  0.5716 -2.3883 -1.2883
 1578SOL     OW16195   0.120   4.710   3.744  0.4115  0.1189  0.3048
 1578SOL    HW116196   0.191   0.052   3.765  0.5205 -0.8066  2.6718
 1578SOL    HW216197   0.076   0.031   3.669  1.1413  0.3450 -0.0114
 1579SOL     OW16198   2.692   3.833   5.736 -0.7249  0.5427 -0.6473
 1579SOL    HW116199   2.755   3.893   5.776  2.6535 -0.8787 -3.7960
 1579SOL    HW216200   2.739   3.749   5.740  1.5481  1.8049 -1.0236
 1580SOL     OW16201   0.092   1.929   6.495 -0.4175 -0.5389  0.0515
 1580SOL    HW116202   0.058   2.004   6.445 -0.5626 -0.1511  0.7329
 1580SOL    HW216203   0.156   1.970   6.552  0.0530  0.1402 -0.9496
 1581SOL     OW16204   1.010   3.704  10.849 -0.9453  0.5637  0.2920
 1581SOL    HW116205   1.093   3.706  10.897 -0.5719  0.3832 -0.3504
 1581SOL    HW216206   0.969   3.625  10.886  1.3719 -0.4300  0.7192
 1582SOL     OW16207   0.377   1.093   9.684  0.3756 -0.0776 -0.3155
 1582SOL    HW116208   0.447   1.141   9.727  0.2056  0.7854 -0.9888
 1582SOL    HW216209   0.368   1.144   9.603 -1.5416  1.4242  0.8400
 1583SOL     OW16210   1.055   4.557  15.605  0.2204  0.6581 -0.5198
 1583SOL    HW116211   0.960   4.550  15.597  0.5086 -2.0687 -1.4836
 1583SOL    HW216212   1.056   4.617  15.680  1.3615  0.7444 -0.6122
 1584SOL     OW16213   2.812   0.043  13.762  0.1824  0.2118  0.1484
 1584SOL    HW116214   2.838   0.124  13.718 -0.8775  1.3016  1.4852
 1584SOL    HW216215   2.878   4.710  13.719 -1.5430 -2.1499  0.3903
 1585SOL     OW16216   2.006   0.141   3.795  0.3985 -0.0990 -0.5699
 1585SOL    HW116217   1.951   0.112   3.867 -1.4502  0.0494 -1.9258
 1585SOL    HW216218   2.080   0.080   3.805 -0.7125 -1.4659 -0.7218
 1586SOL     OW16219   4.244   1.872   9.354 -0.5496  0.1661 -0.0307
 1586SOL    HW116220   4.180   1.895   9.421  0.2975 -3.2255  1.9972
 1586SOL    HW216221   4.246   1.776   9.355 -2.5701  0.1417  0.1383
 1587SOL     OW16222   1.491   3.398   5.267  0.2115 -0.6115  0.0525
 1587SOL    HW116223   1.553   3.398   5.194 -2.1064  0.3132 -1.9530
 1587SOL    HW216224   1.437   3.476   5.249  2.8095  1.2734  0.4516
 1588SOL     OW16225   0.369   0.864   1.442 -0.1620  0.4856 -0.0675
 1588SOL    HW116226   0.348   0.940   1.388  0.6828 -0.1729 -1.3342
 1588SOL    HW216227   0.289   0.849   1.491  0.4506  0.0818  0.8064
 1589SOL     OW16228   1.177   4.355   8.517 -0.2386  0.2824  0.2269
 1589SOL    HW116229   1.152   4.446   8.501 -0.0558  0.0846 -1.2207
 1589SOL    HW216230   1.239   4.368   8.588  1.9308 -2.6447 -1.1312
 1590SOL     OW16231   0.997   4.403  13.124  0.4290 -0.0042 -0.1788
 1590SOL    HW116232   1.007   4.471  13.191 -1.7464  1.3242 -1.1998
 1590SOL    HW216233   0.959   4.329  13.169 -1.3733  0.5713 -0.7758
 1591SOL     OW16234   3.198   0.491  10.064 -0.2799 -0.2385 -0.0814
 1591SOL    HW116235   3.155   0.406  10.060 -1.5040  0.3950 -0.3022
 1591SOL    HW216236   3.266   0.462  10.125  0.3501  0.3670 -0.4853
 1592SOL     OW16237   0.546   3.753  14.931  0.5890  0.0597  0.1305
 1592SOL    HW116238   0.550   3.699  15.010  0.2564  0.4336  0.4074
 1592SOL    HW216239   0.599   3.696  14.876  1.8498 -0.7580  2.2211
 1593SOL     OW16240   4.122   1.187   3.138 -0.6730  0.0117  0.4811
 1593SOL    HW116241   4.030   1.211   3.150 -0.6729 -0.0009  0.5059
 1593SOL    HW216242   4.120   1.119   3.205 -1.4598  0.8768  1.3343
 1594SOL     OW16243   1.071   2.664   8.147 -0.6099  0.3445 -0.0982
 1594SOL    HW116244   0.998   2.703   8.100 -0.9356  1.5602  1.3994
 1594SOL    HW216245   1.131   2.738   8.138  2.1716 -1.7197  1.5205
 1595SOL     OW16246   4.322   1.170  11.014 -0.3666  0.4648 -0.2224
 1595SOL    HW116247   4.261   1.243  11.027  0.0560  0.8547 -0.4506
 1595SOL    HW216248   4.254   1.103  11.021  0.0548  0.2838  1.9041
 1596SOL     OW16249   0.691   3.816  16.715  0.3985  0.0490  0.2400
 1596SOL    HW116250   0.679   3.786  16.805  0.1280  1.3770  0.6375
 1596SOL    HW216251   0.647   3.751  16.661  2.4320 -0.5147 -0.7645
 1597SOL     OW16252   3.655   1.368   6.783  0.3845 -0.2182 -0.3140
 1597SOL    HW116253   3.605   1.367   6.702 -2.7833 -0.6939  1.6442
 1597SOL    HW216254   3.627   1.452   6.820  1.7822  1.1704 -2.3940
 1598SOL     OW16255   3.819   0.241   8.400 -0.4282  0.2217 -0.2604
 1598SOL    HW116256   3.743   0.294   8.378 -0.0124 -0.0352 -2.3526
 1598SOL    HW216257   3.812   0.169   8.336  0.6887 -0.2065  0.0993
 1599SOL     OW16258   3.045   3.090  13.144  0.3254 -0.2798  0.5752
 1599SOL    HW116259   3.072   3.000  13.126  0.1622  0.1202 -1.6199
 1599SOL    HW216260   3.088   3.138  13.073  0.2125 -3.2670 -1.5326
 1600SOL     OW16261   1.000   1.862   9.354  0.0871 -0.0731 -0.7137
 1600SOL    HW116262   0.982   1.956   9.345 -0.2895 -0.0542  0.2264
 1600SOL    HW216263   1.029   1.859   9.445  1.1159  1.5091 -0.9705
 1601SOL     OW16264   0.262   0.119  17.475 -0.0875 -0.4465 -0.1745
 1601SOL    HW116265   0.185   0.105  17.419 -0.1173  0.5395 -0.3828
 1601SOL    HW216266   0.330   0.082  17.419  1.7630 -1.3616  2.6772
 1602SOL     OW16267   4.248   0.483   4.062 -0.1739 -0.1475 -0.1463
 1602SOL    HW116268   4.339   0.478   4.031 -0.4324  0.0297 -0.9376
 1602SOL    HW216269   4.222   0.565   4.019  0.2121  0.3577  0.5667
 1603SOL     OW16270   4.222   4.226   5.414 -0.5301  0.0500 -0.5789
 1603SOL    HW116271   4.293   4.270   5.461  0.0184 -0.9769 -0.4426
 1603SOL    HW216272   4.242   4.132   5.409  2.4227  0.7047 -1.0439
 1604SOL     OW16273   3.550   1.205  11.278  0.5633  0.1146 -0.1394
 1604SOL    HW116274   3.462   1.170  11.263 -0.2935  2.8354 -1.3854
 1604SOL    HW216275   3.568   1.147  11.352  1.4333 -1.2737 -1.4478
 1605SOL     OW16276   1.868   2.117   0.206  0.4635 -0.0738  0.8946
 1605SOL    HW116277   1.905   2.032   0.230 -0.1109 -0.2761  1.0729
 1605SOL    HW216278   1.833   2.137   0.293 -0.8862  2.4522 -0.2265
 1606SOL     OW16279   1.588   2.654   6.499 -0.1936 -0.0231  0.2910
 1606SOL    HW116280   1.674   2.616   6.481 -0.0628  0.4519 -0.0831
 1606SOL    HW216281   1.580   2.715   6.426  1.5704 -0.4391 -0.2664
 1607SOL     OW16282   3.898   2.448   5.104  0.8715 -0.2718 -0.2854
 1607SOL    HW116283   3.813   2.406   5.093  0.2202  1.1528 -0.6444
 1607SOL    HW216284   3.930   2.390   5.173 -1.3071  0.1374  1.0745
 1608SOL     OW16285   1.218   1.440   4.573  0.5702  0.3724 -0.0441
 1608SOL    HW116286   1.262   1.356   4.585 -1.2966 -0.7304 -1.0183
 1608SOL    HW216287   1.134   1.429   4.618  0.6351  1.6195  0.3962
 1609SOL     OW16288   0.882   0.584   9.749 -0.0914  0.5855  0.0420
 1609SOL    HW116289   0.970   0.617   9.729 -0.9074  1.0158 -2.8127
 1609SOL    HW216290   0.827   0.628   9.685 -0.2920  0.7931  0.3562
 1610SOL     OW16291   0.171   4.001   3.360 -0.4235 -0.0905  0.7748
 1610SOL    HW116292   0.080   3.985   3.334 -0.3286  1.5833 -0.6025
 1610SOL    HW216293   0.202   3.912   3.341  0.3923  0.4566 -0.4487
 1611SOL     OW16294   3.756   2.118   1.219 -0.0051  0.3310 -0.4122
 1611SOL    HW116295   3.762   2.200   1.169  1.6304 -0.6552 -1.8162
 1611SOL    HW216296   3.837   2.069   1.217 -0.0797  0.2206 -0.7741
 1612SOL     OW16297   3.309   1.431  14.711  0.3539  0.0284  0.4261
 1612SOL    HW116298   3.295   1.413  14.618 -1.4935 -0.5425  0.8266
 1612SOL    HW216299   3.363   1.510  14.699  0.8616 -0.5665 -1.1588
 1613SOL     OW16300   1.702   2.694   7.097 -0.0578 -0.4434 -0.2139
 1613SOL    HW116301   1.709   2.785   7.126 -1.7127 -0.1522 -0.7581
 1613SOL    HW216302   1.787   2.680   7.054  0.1252  1.7832 -0.5576
 1614SOL     OW16303   3.386   2.441   6.533 -0.3924 -0.3075 -0.4396
 1614SOL    HW116304   3.413   2.459   6.623 -1.7564  0.9378 -0.2826
 1614SOL    HW216305   3.469   2.413   6.494  0.8529  1.7228  0.7915
 1615SOL     OW16306   1.450   3.819  10.174  0.3136 -0.5906 -0.2139
 1615SOL    HW116307   1.472   3.860  10.257  0.2989  0.0164 -0.5094
 1615SOL    HW216308   1.533   3.793  10.134  0.4523 -2.2667  1.1624
 1616SOL     OW16309   1.927   0.454   6.290  0.4158  0.2300  1.4466
 1616SOL    HW116310   1.865   0.427   6.223  0.2482  0.1934  1.6157
 1616SOL    HW216311   1.908   0.548   6.286 -1.1984 -0.1613 -0.0571
 1617SOL     OW16312   1.853   2.555   9.899 -0.3097 -0.4269  0.5055
 1617SOL    HW116313   1.878   2.505   9.821 -1.1781 -1.0521  0.6228
 1617SOL    HW216314   1.769   2.515   9.922  0.3556 -1.0144  1.8734
 1618SOL     OW16315   2.661   2.033   6.326  0.7032  0.0954  0.2469
 1618SOL    HW116316   2.647   2.104   6.389 -0.3814  0.8123 -0.7852
 1618SOL    HW216317   2.719   2.068   6.258  0.0128  0.9830  0.1038
 1619SOL     OW16318   0.965   0.395   7.206  0.1991  0.4938  0.1391
 1619SOL    HW116319   0.958   0.473   7.152 -0.1169 -0.6276 -1.4452
 1619SOL    HW216320   1.046   0.372   7.159 -0.5293  0.6663 -1.1839
 1620SOL     OW16321   1.702   3.182   3.754 -0.3151 -0.1042 -0.4826
 1620SOL    HW116322   1.755   3.120   3.704 -0.2987 -0.3479 -0.1662
 1620SOL    HW216323   1.741   3.160   3.839  0.1041 -0.2736 -0.7182
 1621SOL     OW16324   1.191   0.329   3.202  0.2681 -0.2488 -0.0623
 1621SOL    HW116325   1.248   0.253   3.218  1.2300  0.5934  0.5133
 1621SOL    HW216326   1.146   0.309   3.284  0.7441 -2.7927 -0.4141
 1622SOL     OW16327   1.840   2.835  11.036  0.4970 -0.1852 -0.0649
 1622SOL    HW116328   1.748   2.848  11.059  0.1376 -0.8867 -1.0847
 1622SOL    HW216329   1.841   2.748  10.995 -2.0354 -1.0210  1.6953
 1623SOL     OW16330   3.292   0.437   7.270  0.4308 -0.1484 -0.0689
 1623SOL    HW116331   3.222   0.495   7.301 -0.3711  0.5017 -3.0062
 1623SOL    HW216332   3.360   0.503   7.258  0.1873 -0.0141 -0.7601
 1624SOL     OW16333   1.336   0.924   7.970  0.3117  0.2457 -0.3304
 1624SOL    HW116334   1.393   0.992   7.934 -1.4915  1.0825 -1.6633
 1624SOL    HW216335   1.337   0.953   8.061 -0.8918  0.8801 -0.5101
 1625SOL     OW16336   2.968   1.088  11.518 -0.2093  0.3218  0.3669
 1625SOL    HW116337   2.948   1.020  11.454  4.2950  0.6545 -1.3414
 1625SOL    HW216338   2.890   1.143  11.529 -1.5939 -1.7153  0.8418
 1626SOL     OW16339   4.118   3.674  12.943 -0.3390 -0.3493 -0.2030
 1626SOL    HW116340   4.138   3.760  12.981  2.2164 -0.9744 -0.1563
 1626SOL    HW216341   4.202   3.648  12.907 -0.2880 -0.8407  0.2597
 1627SOL     OW16342   4.235   0.239   2.725  0.7340 -0.7408 -0.2895
 1627SOL    HW116343   4.158   0.266   2.677  0.7300 -0.7789 -0.3042
 1627SOL    HW216344   4.218   0.146   2.739 -1.1297 -0.0401  2.1441
 1628SOL     OW16345   2.810   2.212   1.677 -0.0558  0.0979 -0.3133
 1628SOL    HW116346   2.748   2.140   1.688 -1.4161  1.1687 -0.9426
 1628SOL    HW216347   2.895   2.168   1.665  0.5354  1.9218 -2.8088
 1629SOL     OW16348   1.518   3.471   3.760 -0.0534 -0.5092  0.0296
 1629SOL    HW116349   1.519   3.490   3.854  0.6618  0.0129 -0.0830
 1629SOL    HW216350   1.461   3.398   3.738 -0.7270  0.0721 -0.1351
 1630SOL     OW16351   1.016   2.956   3.866 -0.3751  0.9239  0.1078
 1630SOL    HW116352   1.053   2.884   3.917  0.0177  0.3960 -0.9134
 1630SOL    HW216353   0.929   2.954   3.904 -0.4203 -0.9798 -0.0528
 1631SOL     OW16354   1.662   0.295   5.856  0.1664  0.1977 -0.3357
 1631SOL    HW116355   1.697   0.209   5.832 -0.9770 -0.5103  0.5150
 1631SOL    HW216356   1.602   0.314   5.784  1.5394  3.4273 -0.6389
 1632SOL     OW16357   1.386   2.464   6.779 -0.5423 -0.0939 -0.1654
 1632SOL    HW116358   1.447   2.500   6.844 -0.7417  0.5990 -0.3572
 1632SOL    HW216359   1.372   2.373   6.806 -0.7485  0.3199  1.1388
 1633SOL     OW16360   4.075   1.526   7.345 -0.3452 -0.6640 -0.0814
 1633SOL    HW116361   4.126   1.489   7.273 -0.8072  0.1401 -0.8293
 1633SOL    HW216362   4.113   1.614   7.350  0.1733 -0.7914 -1.6074
 1634SOL     OW16363   2.648   0.897   9.494 -0.1678 -0.0679 -0.1590
 1634SOL    HW116364   2.584   0.967   9.479 -1.8944 -1.3224  1.2516
 1634SOL    HW216365   2.592   0.821   9.509 -1.7091  1.1260  0.2035
 1635SOL     OW16366   1.401   2.424   9.588 -0.6512  0.1321  0.0176
 1635SOL    HW116367   1.334   2.454   9.650  1.6896 -0.3092  2.7569
 1635SOL    HW216368   1.474   2.419   9.650 -0.7739  1.1951  0.2605
 1636SOL     OW16369   0.380   4.689   4.218  0.0736 -0.1607 -0.1132
 1636SOL    HW116370   0.419   4.684   4.131 -0.3567  1.1907 -0.3864
 1636SOL    HW216371   0.417   0.044   4.264 -2.1107  1.2872 -0.7007
 1637SOL     OW16372   3.983   3.649   7.959 -0.1904  0.5673  0.1347
 1637SOL    HW116373   3.987   3.599   7.878 -1.2249  2.9877 -1.3942
 1637SOL    HW216374   3.910   3.709   7.946 -1.5380 -1.2990 -0.8505
 1638SOL     OW16375   2.221   0.279  13.128 -0.1228  0.1348 -0.0371
 1638SOL    HW116376   2.125   0.287  13.134 -0.0698  0.8401 -0.1807
 1638SOL    HW216377   2.241   0.362  13.169  1.8461  0.3843 -1.5171
 1639SOL     OW16378   3.827   3.138   4.220  0.5754 -0.3307 -0.3536
 1639SOL    HW116379   3.908   3.189   4.221  1.4483 -1.7127  0.8768
 1639SOL    HW216380   3.767   3.188   4.276  0.5224 -1.9946  1.0631
 1640SOL     OW16381   0.150   3.344   2.448  0.0835  0.1486 -0.0666
 1640SOL    HW116382   0.243   3.357   2.464 -0.0607  2.7397 -1.3006
 1640SOL    HW216383   0.152   3.299   2.364 -0.5058  0.1352 -0.0784
 1641SOL     OW16384   3.989   1.498   4.755 -0.2613 -0.6690  0.3091
 1641SOL    HW116385   3.897   1.495   4.782 -0.8136  3.0112 -1.1446
 1641SOL    HW216386   3.983   1.566   4.689  0.3728 -2.0127 -1.1348
 1642SOL     OW16387   3.835   4.711   7.209 -0.3512  0.2688  0.4506
 1642SOL    HW116388   3.805   0.073   7.171  0.4793 -0.4388 -1.7449
 1642SOL    HW216389   3.901   0.025   7.270  0.4037  1.0408 -0.7960
 1643SOL     OW16390   2.817   3.177   1.242  0.2637 -0.2139  0.6739
 1643SOL    HW116391   2.907   3.172   1.272 -0.1002 -0.1366  1.7637
 1643SOL    HW216392   2.776   3.184   1.328 -0.8911  0.1501  0.0944
 1644SOL     OW16393   2.010   3.312  10.115 -0.2188  0.3315  0.1335
 1644SOL    HW116394   2.094   3.314  10.070 -0.4022 -4.5755 -0.4882
 1644SOL    HW216395   1.993   3.403  10.093  0.0741  0.1503 -0.8593
 1645SOL     OW16396   1.945   2.571   7.939  0.3925 -0.4868 -0.1647
 1645SOL    HW116397   1.864   2.560   7.988  0.3154  0.0460 -0.1701
 1645SOL    HW216398   1.975   2.480   7.939 -2.1555 -1.3127 -1.7355
 1646SOL     OW16399   2.635   1.576   4.786 -0.3226 -0.2267 -0.0296
 1646SOL    HW116400   2.662   1.509   4.848  0.1447  0.2263  0.2469
 1646SOL    HW216401   2.572   1.531   4.730 -0.7916  1.6503 -1.0324
 1647SOL     OW16402   4.421   3.307   5.358 -0.1361 -0.6662 -0.0007
 1647SOL    HW116403   4.376   3.388   5.384 -0.0338 -0.5509 -0.1812
 1647SOL    HW216404   4.343   3.253   5.368 -1.1388  0.7840  0.1722
 1648SOL     OW16405   1.285   3.032   0.226  0.1310  0.6595 -0.3314
 1648SOL    HW116406   1.263   2.939   0.236 -0.6817  0.8595 -0.3105
 1648SOL    HW216407   1.200   3.061   0.195  0.8214  0.9017 -1.9764
 1649SOL     OW16408   1.526   2.874  13.753  0.8930 -0.1320  0.3166
 1649SOL    HW116409   1.511   2.785  13.721 -0.7647 -0.2311  1.3472
 1649SOL    HW216410   1.607   2.869  13.803  0.2802 -1.1252  1.2249
 1650SOL     OW16411   2.458   1.639  11.188  0.1599  0.2064 -0.4894
 1650SOL    HW116412   2.389   1.574  11.186 -0.9196  1.2851  1.4384
 1650SOL    HW216413   2.530   1.584  11.157 -0.0397 -0.5796  0.4844
 1651SOL     OW16414   0.532   2.651   8.874  0.2257  0.4289  0.1005
 1651SOL    HW116415   0.486   2.579   8.830  0.6302 -0.3549  0.9617
 1651SOL    HW216416   0.523   2.714   8.802  1.0436  0.6451  0.1918
 1652SOL     OW16417   1.261   1.909   4.724  0.3493  0.2598  0.1113
 1652SOL    HW116418   1.310   1.972   4.671  0.2409 -0.3532 -0.7245
 1652SOL    HW216419   1.331   1.865   4.771  0.0659 -0.6699 -0.3303
 1653SOL     OW16420   1.894   2.699   2.219  0.1201  0.2340  0.4495
 1653SOL    HW116421   1.984   2.676   2.195 -0.4563 -1.3464 -0.2077
 1653SOL    HW216422   1.856   2.617   2.249  1.7363  0.0977  2.1463
 1654SOL     OW16423   3.354   4.518   4.034  0.6504  0.2204  0.0777
 1654SOL    HW116424   3.416   4.463   4.083  0.3558  0.1636  0.3822
 1654SOL    HW216425   3.372   4.597   4.084  2.1279 -0.0468 -0.0216
 1655SOL     OW16426   2.292   3.043   0.918 -0.4464  0.3538 -0.0538
 1655SOL    HW116427   2.206   3.001   0.914  0.6628 -1.9431 -0.1557
 1655SOL    HW216428   2.318   3.037   0.826 -0.3768  1.5157 -0.1053
 1656SOL     OW16429   2.961   1.820  10.032 -0.3313  0.0932  0.0438
 1656SOL    HW116430   2.978   1.893   9.972 -2.7560 -1.0524 -2.0459
 1656SOL    HW216431   2.933   1.870  10.108  0.3441  1.7847 -0.8155
 1657SOL     OW16432   0.734   4.630   4.473  0.4384 -1.0214  0.1170
 1657SOL    HW116433   0.798   4.648   4.405  0.4095  2.4239  1.0110
 1657SOL    HW216434   0.657   4.602   4.424  0.0472  2.2587 -1.1230
 1658SOL     OW16435   4.629   3.467   6.804  0.0772  0.0985  0.1979
 1658SOL    HW116436   4.681   3.531   6.756 -1.0661  0.8194 -0.0846
 1658SOL    HW216437   4.556   3.519   6.838 -0.0263 -1.5139  2.3971
 1659SOL     OW16438   1.219   1.604   0.844  0.3699 -0.1847 -0.2711
 1659SOL    HW116439   1.137   1.597   0.796 -1.0253 -0.0447  2.0814
 1659SOL    HW216440   1.288   1.590   0.780  1.1705 -3.0660  1.1842
 1660SOL     OW16441   2.106   2.702   6.066  0.0248  0.0897 -0.4985
 1660SOL    HW116442   2.160   2.623   6.063 -1.0557 -0.6470 -0.6041
 1660SOL    HW216443   2.094   2.705   5.971  0.4551  1.3397 -0.5129
 1661SOL     OW16444   4.572   2.540   3.403 -0.5473  0.0703 -0.2072
 1661SOL    HW116445   4.571   2.593   3.483  0.1729  2.4126 -1.7340
 1661SOL    HW216446   4.662   2.511   3.409 -0.9440 -1.0155  0.3937
 1662SOL     OW16447   0.981   1.629  11.352 -0.0152  0.3889 -0.0815
 1662SOL    HW116448   0.923   1.589  11.416  0.5140  0.6131  0.5389
 1662SOL    HW216449   1.067   1.630  11.394 -0.4453 -0.2810  0.8249
 1663SOL     OW16450   3.051   0.784   7.986  0.7144  0.0507 -0.0961
 1663SOL    HW116451   3.036   0.697   7.948 -3.1656 -0.0483  1.7491
 1663SOL    HW216452   3.019   0.773   8.075 -1.8325  1.5672 -0.8317
 1664SOL     OW16453   1.366   0.660   7.874 -0.4771  0.4610  0.3636
 1664SOL    HW116454   1.341   0.750   7.896  0.8190  1.1380 -0.9762
 1664SOL    HW216455   1.346   0.616   7.957 -1.1991 -0.1103 -0.1025
 1665SOL     OW16456   3.326   1.462   3.639  0.0550 -0.6923  0.1200
 1665SOL    HW116457   3.232   1.460   3.658 -0.3280  0.8490 -1.5331
 1665SOL    HW216458   3.363   1.382   3.675  0.2248 -0.2843  0.8384
 1666SOL     OW16459   1.114   1.159   6.431  0.1994  0.6766 -0.0471
 1666SOL    HW116460   1.137   1.130   6.343  0.2500 -0.4476  0.3396
 1666SOL    HW216461   1.022   1.184   6.427 -0.9343 -3.3574  0.4943
 1667SOL     OW16462   3.912   0.938   7.741 -0.4206 -0.8215 -0.0641
 1667SOL    HW116463   3.823   0.902   7.741 -1.1189  0.9051  0.2057
 1667SOL    HW216464   3.953   0.913   7.824 -1.8966  0.1393  0.9454
 1668SOL     OW16465   3.144   4.317  11.505 -0.2499 -0.0093  0.3497
 1668SOL    HW116466   3.134   4.228  11.470 -1.6343  0.5867 -0.7785
 1668SOL    HW216467   3.238   4.327  11.513 -0.2166  1.2582 -1.3898
 1669SOL     OW16468   2.185   1.809   3.015 -0.0234  0.0420  0.2235
 1669SOL    HW116469   2.261   1.854   2.979 -0.6022  1.5515  0.9029
 1669SOL    HW216470   2.183   1.821   3.110  0.6807  0.1153  0.2259
 1670SOL     OW16471   1.546   0.732   3.572  0.6840  0.2200  0.1843
 1670SOL    HW116472   1.464   0.733   3.522  0.7339 -3.2316  0.0291
 1670SOL    HW216473   1.609   0.752   3.502  2.5230  0.5690  1.9505
 1671SOL     OW16474   1.858   0.219  13.163 -0.4411  0.6406 -0.3473
 1671SOL    HW116475   1.818   0.229  13.249  1.2004 -2.5149  0.7753
 1671SOL    HW216476   1.810   0.280  13.107 -0.2646 -0.2402 -1.4661
 1672SOL     OW16477   0.646   2.284   6.343 -0.3894  1.0365 -0.0680
 1672SOL    HW116478   0.590   2.314   6.415  0.0936  0.4855  0.5394
 1672SOL    HW216479   0.636   2.350   6.274  0.0088  1.0210 -0.1407
 1673SOL     OW16480   4.060   2.450   7.827  0.1200 -0.2945 -0.1443
 1673SOL    HW116481   3.988   2.415   7.880 -1.2354 -0.6129 -2.2066
 1673SOL    HW216482   4.138   2.415   7.870  0.6789  0.1096 -0.8216
 1674SOL     OW16483   4.706   2.974  13.534 -0.1323 -0.3198  0.6537
 1674SOL    HW116484   0.065   2.946  13.581 -0.9051 -0.0839  2.0697
 1674SOL    HW216485   4.668   2.894  13.495 -0.8717 -0.8101  2.3897
 1675SOL     OW16486   3.124   2.798   3.427  0.3908 -0.1615 -0.1364
 1675SOL    HW116487   3.185   2.733   3.391 -0.5167 -0.4738 -1.1371
 1675SOL    HW216488   3.115   2.766   3.517  0.7999 -1.6323 -0.6204
 1676SOL     OW16489   4.641   4.148   6.372  0.5180  0.0479 -0.0235
 1676SOL    HW116490   4.643   4.231   6.420 -0.1673 -0.7113  1.3080
 1676SOL    HW216491   4.566   4.173   6.318  0.0502 -0.9981  0.1554
 1677SOL     OW16492   2.881   0.747   5.814  0.0653 -0.1343  0.4247
 1677SOL    HW116493   2.795   0.790   5.818 -0.0955 -0.3455 -0.8782
 1677SOL    HW216494   2.867   0.701   5.731  0.6655 -0.4751  0.5126
 1678SOL     OW16495   0.172   3.414   3.566  0.1023 -0.3692 -0.1417
 1678SOL    HW116496   0.171   3.331   3.612  1.6666 -0.5312 -0.3781
 1678SOL    HW216497   0.115   3.464   3.624  1.8429  1.0903  0.3161
 1679SOL     OW16498   1.798   1.188   3.470 -0.0169  0.2098 -0.1027
 1679SOL    HW116499   1.828   1.179   3.380 -0.6547  3.1976 -0.5977
 1679SOL    HW216500   1.874   1.231   3.508 -0.2139  2.3566 -2.1276
 1680SOL     OW16501   2.024   3.804  16.180 -0.3394  0.0315  0.3400
 1680SOL    HW116502   2.042   3.739  16.112 -0.2213  0.7639 -0.3194
 1680SOL    HW216503   1.941   3.773  16.216 -0.2524 -0.7266 -0.1142
 1681SOL     OW16504   0.446   4.545   6.879 -0.1264 -0.9792 -0.2655
 1681SOL    HW116505   0.524   4.502   6.843  0.3743  0.8060 -1.3060
 1681SOL    HW216506   0.487   4.580   6.958 -0.2577  1.1555 -1.1410
 1682SOL     OW16507   1.752   2.797   0.253 -0.7301  0.2306 -0.4253
 1682SOL    HW116508   1.689   2.857   0.213  1.2127  2.3647 -0.3040
 1682SOL    HW216509   1.801   2.773   0.174 -0.7726 -0.4921 -0.2287
 1683SOL     OW16510   2.721   1.419  16.474 -0.2029 -0.3232  0.0209
 1683SOL    HW116511   2.669   1.439  16.551 -0.4207 -1.1519  0.0888
 1683SOL    HW216512   2.735   1.324  16.474 -1.1931 -0.4697 -0.6639
 1684SOL     OW16513   4.113   1.664   9.206  0.0279  1.1706  0.1307
 1684SOL    HW116514   4.031   1.622   9.233  0.4410  0.9292  1.0133
 1684SOL    HW216515   4.180   1.596   9.210  0.6819  1.7033 -2.0018
 1685SOL     OW16516   3.971   3.262   1.116 -0.1446  0.2857 -0.4852
 1685SOL    HW116517   3.892   3.209   1.111 -0.1875  0.3472 -0.4686
 1685SOL    HW216518   4.010   3.208   1.184  2.1579 -0.9555 -2.8180
 1686SOL     OW16519   2.397   0.889  12.888  0.6895 -0.9153  0.4677
 1686SOL    HW116520   2.493   0.897  12.890  0.8071 -1.9992 -1.2162
 1686SOL    HW216521   2.386   0.828  12.815 -2.0199  0.9152 -0.6508
 1687SOL     OW16522   3.450   0.576   3.750 -0.3450 -0.0223 -0.3752
 1687SOL    HW116523   3.476   0.551   3.839 -0.3927 -0.6239 -0.5287
 1687SOL    HW216524   3.470   0.670   3.750 -0.9304  0.0976 -0.0936
 1688SOL     OW16525   3.613   1.709  12.138  0.5984  0.1442  0.1463
 1688SOL    HW116526   3.635   1.621  12.165  0.2377  0.0836  0.2484
 1688SOL    HW216527   3.687   1.737  12.084 -0.8579  1.3347 -1.2794
 1689SOL     OW16528   1.823   1.578  11.714  0.1595  0.3327  0.7656
 1689SOL    HW116529   1.769   1.502  11.693 -1.5324  1.8522 -0.3310
 1689SOL    HW216530   1.913   1.546  11.719  0.0696  0.1193  0.9987
 1690SOL     OW16531   2.774   0.167   4.506 -0.5561 -0.0327 -0.4876
 1690SOL    HW116532   2.825   0.234   4.551 -2.3766  0.6544  0.5190
 1690SOL    HW216533   2.735   0.120   4.579  0.2688 -0.3274 -0.2320
 1691SOL     OW16534   4.054   2.892   4.144  0.1130 -0.5567 -0.0778
 1691SOL    HW116535   4.010   2.910   4.061 -1.3729 -0.0462  0.8339
 1691SOL    HW216536   4.056   2.796   4.148 -1.4805 -0.5992 -0.5606
 1692SOL     OW16537   4.193   3.402   2.890  0.1115 -0.2542  0.4230
 1692SOL    HW116538   4.170   3.375   2.801 -2.4262  3.8049 -0.1731
 1692SOL    HW216539   4.133   3.347   2.939 -2.1383  1.5296 -0.3337
 1693SOL     OW16540   2.192   3.668   9.989  0.5046 -0.6026  0.2635
 1693SOL    HW116541   2.163   3.695  10.077 -1.9237  0.4051 -0.8360
 1693SOL    HW216542   2.131   3.595   9.977  0.8450 -1.1029  1.5079
 1694SOL     OW16543   3.033   3.302   0.587 -0.2220  0.0006 -0.5096
 1694SOL    HW116544   2.994   3.275   0.504 -1.7196 -0.1243  0.2229
 1694SOL    HW216545   3.035   3.223   0.642 -0.8917  0.2384 -0.1463
 1695SOL     OW16546   1.958   1.145   1.974  0.0026  0.3867 -0.3838
 1695SOL    HW116547   1.922   1.059   1.951  0.8429 -0.4443  1.3828
 1695SOL    HW216548   2.001   1.175   1.894  3.7823  3.5979  2.8528
 1696SOL     OW16549   0.523   1.354   5.641  0.3790 -0.0058 -0.1995
 1696SOL    HW116550   0.481   1.393   5.718  2.5999  1.9042  0.0375
 1696SOL    HW216551   0.446   1.323   5.594 -1.4209  0.3727  2.5211
 1697SOL     OW16552   3.057   3.302  17.210  0.2425 -0.1365  0.0975
 1697SOL    HW116553   3.069   3.353  17.290 -0.1031 -0.6016  0.4533
 1697SOL    HW216554   3.131   3.242  17.222 -0.3068 -0.4793  1.8973
 1698SOL     OW16555   0.912   1.449   0.460  0.4947 -0.1252 -0.0472
 1698SOL    HW116556   0.858   1.418   0.386  2.3122 -0.2416 -1.3112
 1698SOL    HW216557   0.944   1.530   0.420  1.7585 -1.1460 -1.0894
 1699SOL     OW16558   2.566   1.136   6.559 -0.1013 -0.5599  0.3305
 1699SOL    HW116559   2.593   1.166   6.472  0.2856  0.9396  0.9750
 1699SOL    HW216560   2.644   1.108   6.606  0.8133  1.5357  0.0764
 1700SOL     OW16561   2.881   1.468  12.746  0.0951  0.1974  0.4075
 1700SOL    HW116562   2.863   1.404  12.815  0.2980 -0.4169 -0.1047
 1700SOL    HW216563   2.881   1.549  12.798 -1.6357  1.9222 -2.2806
 1701SOL     OW16564   0.835   0.440   9.973  0.6295  0.5473  0.1177
 1701SOL    HW116565   0.906   0.474  10.028  0.3831 -0.0511  0.7940
 1701SOL    HW216566   0.851   0.501   9.901 -1.2455 -0.9107 -1.5307
 1702SOL     OW16567   0.608   0.704   1.261  0.8297 -0.2976 -0.2134
 1702SOL    HW116568   0.526   0.662   1.286  0.7552  0.4865  0.8640
 1702SOL    HW216569   0.668   0.631   1.280  1.0323 -0.2559 -0.6868
 1703SOL     OW16570   1.145   1.864   9.599  0.3302 -0.0188 -0.0319
 1703SOL    HW116571   1.113   1.803   9.665  0.6948 -0.1608  0.0102
 1703SOL    HW216572   1.125   1.943   9.650 -1.5080 -0.2643 -0.3809
 1704SOL     OW16573   1.123   3.669   5.644  0.4881  0.0769  0.3106
 1704SOL    HW116574   1.038   3.625   5.638  0.4021  0.0320  1.9922
 1704SOL    HW216575   1.128   3.724   5.566  2.0872  1.4343  1.3752
 1705SOL     OW16576   0.945   3.769   4.971 -0.2723  0.3418  0.0762
 1705SOL    HW116577   0.941   3.705   4.899  3.9682 -1.1600  1.1448
 1705SOL    HW216578   1.020   3.822   4.943 -1.7791  2.7486  0.5992
 1706SOL     OW16579   1.995   4.166  12.086 -0.4261 -0.3424 -0.8201
 1706SOL    HW116580   2.045   4.089  12.059  1.9424  0.5359  1.0496
 1706SOL    HW216581   1.937   4.185  12.012 -0.5108  0.8380 -0.4500
 1707SOL     OW16582   0.802   2.637   2.650  0.0562  0.1716 -0.0654
 1707SOL    HW116583   0.860   2.714   2.650 -1.1652  1.1093 -1.2059
 1707SOL    HW216584   0.738   2.665   2.585  1.3517 -0.5475 -1.6647
 1708SOL     OW16585   4.046   0.352   5.401  0.3424 -0.5561 -0.3217
 1708SOL    HW116586   4.126   0.362   5.451 -0.2509 -0.6282  0.6364
 1708SOL    HW216587   3.982   0.382   5.465 -1.2001 -4.0122 -0.2413
 1709SOL     OW16588   3.088   3.431  12.394  0.0814 -0.0208 -0.5437
 1709SOL    HW116589   3.147   3.505  12.400  1.6824 -1.3427 -0.0740
 1709SOL    HW216590   3.045   3.439  12.309 -2.3221  0.8136  0.7315
 1710SOL     OW16591   0.882   3.407   9.376  0.1945 -1.0070 -0.3092
 1710SOL    HW116592   0.962   3.436   9.333  0.4998 -1.3763  0.0067
 1710SOL    HW216593   0.912   3.332   9.428  1.1350  0.2210  0.9276
 1711SOL     OW16594   3.106   1.562   5.518 -0.4167 -0.2020  0.0702
 1711SOL    HW116595   3.141   1.473   5.514  2.0294  0.6591  2.1084
 1711SOL    HW216596   3.179   1.619   5.542 -0.1852 -1.0621  1.4260
 1712SOL     OW16597   1.874   0.993   5.876 -0.1136  0.2592  0.1007
 1712SOL    HW116598   1.929   0.982   5.799  0.5608  0.3522  0.5629
 1712SOL    HW216599   1.919   0.948   5.948 -0.5059  0.8479  0.7112
 1713SOL     OW16600   2.363   3.732   1.637 -0.3852  0.0181 -0.3418
 1713SOL    HW116601   2.328   3.817   1.608  0.0468  1.3315  2.9273
 1713SOL    HW216602   2.366   3.748   1.732  1.0090 -1.1505 -0.2115
 1714SOL     OW16603   2.651   3.371   0.388 -0.4464 -0.8813  0.2662
 1714SOL    HW116604   2.594   3.371   0.465 -2.6121 -1.1190 -1.3282
 1714SOL    HW216605   2.607   3.299   0.342  1.3057 -2.4824  1.0656
 1715SOL     OW16606   2.051   3.148   8.466  0.0131 -0.3362 -0.1268
 1715SOL    HW116607   2.047   3.089   8.541 -1.6563 -0.4852 -0.3192
 1715SOL    HW216608   2.143   3.144   8.440 -0.6286 -0.1713 -2.4864
 1716SOL     OW16609   4.270   3.718   2.102 -0.5474  0.2842  0.1121
 1716SOL    HW116610   4.324   3.667   2.042 -0.2045 -2.5412  2.8330
 1716SOL    HW216611   4.220   3.640   2.128 -0.1128 -0.0464 -0.0545
 1717SOL     OW16612   1.928   0.139  12.724  0.2270  0.6069 -0.3378
 1717SOL    HW116613   1.960   0.060  12.680  1.2693  0.5526  0.5344
 1717SOL    HW216614   1.944   0.121  12.816 -0.2382 -0.2725 -0.4327
 1718SOL     OW16615   4.073   2.395   4.900  0.0010  0.0933 -0.2760
 1718SOL    HW116616   4.005   2.427   4.959 -0.0058  1.4392 -1.0152
 1718SOL    HW216617   4.151   2.429   4.943  0.1645 -0.7818  0.1095
 1719SOL     OW16618   3.122   0.495   3.614 -0.1931 -0.4231 -0.0935
 1719SOL    HW116619   3.122   0.589   3.597 -1.3156 -0.3060  0.5689
 1719SOL    HW216620   3.208   0.474   3.577  0.1191  1.2968 -0.3087
 1720SOL     OW16621   1.563   2.897   0.634  0.0086 -0.7501 -0.4539
 1720SOL    HW116622   1.502   2.864   0.567  1.8425  0.5653 -2.7688
 1720SOL    HW216623   1.568   2.812   0.678 -2.8513 -0.4502  0.4587
 1721SOL     OW16624   4.656   4.594   0.750  0.1395 -0.6126  0.4154
 1721SOL    HW116625   4.565   4.612   0.729  0.9435 -1.7056 -3.9891
 1721SOL    HW216626   4.660   4.616   0.843 -1.5220  0.9425  0.1198
 1722SOL     OW16627   2.033   0.131   8.893 -0.0716 -0.3537  0.6642
 1722SOL    HW116628   1.952   0.082   8.875 -0.2561 -0.0650  0.7080
 1722SOL    HW216629   2.015   0.172   8.977 -0.2333  0.7230  0.1056
 1723SOL     OW16630   0.032   4.714   6.453 -0.3428  0.6212 -0.0321
 1723SOL    HW116631   4.689   0.025   6.387 -0.9880  0.2731  0.4221
 1723SOL    HW216632   0.114   0.040   6.435 -1.9411  3.2950 -0.6176
 1724SOL     OW16633   1.317   2.409   4.492  0.2166  0.1263 -0.4837
 1724SOL    HW116634   1.284   2.372   4.409 -0.3625 -1.7771  0.5997
 1724SOL    HW216635   1.341   2.496   4.462  0.4794 -0.3357 -1.6318
 1725SOL     OW16636   3.986   0.125   3.735 -0.2756  0.1584 -0.1549
 1725SOL    HW116637   3.913   0.088   3.685  1.8858 -1.5786 -1.9792
 1725SOL    HW216638   4.038   0.049   3.762 -0.2434  0.1911 -0.1249
 1726SOL     OW16639   4.053   2.386   9.253  0.3616 -0.3822  0.0383
 1726SOL    HW116640   4.045   2.462   9.196 -3.2238 -0.1043  0.9366
 1726SOL    HW216641   3.961   2.361   9.252  0.8354 -2.0891  0.0208
 1727SOL     OW16642   4.200   3.325   0.995 -0.0772 -0.0028 -0.6755
 1727SOL    HW116643   4.213   3.420   0.986 -1.0341 -0.0383 -2.3993
 1727SOL    HW216644   4.130   3.321   1.060  1.7776  0.8557  1.3942
 1728SOL     OW16645   3.543   0.055   6.729 -0.0961 -0.4394 -0.1232
 1728SOL    HW116646   3.606   4.707   6.752  1.7344  2.0766  2.3644
 1728SOL    HW216647   3.508   0.078   6.815  0.3850  0.4914 -0.1772
 1729SOL     OW16648   4.155   0.339   1.333 -0.0866 -0.1119 -0.0040
 1729SOL    HW116649   4.069   0.375   1.311  0.9857  1.5994 -1.4315
 1729SOL    HW216650   4.147   0.299   1.419  0.4474 -0.4413 -0.1013
 1730SOL     OW16651   0.695   4.405   5.650 -0.3466 -0.0627 -0.4120
 1730SOL    HW116652   0.620   4.365   5.695  0.6150  0.0405  1.2806
 1730SOL    HW216653   0.681   4.361   5.567 -0.6243  1.5562 -1.2175
 1731SOL     OW16654   3.587   4.230   5.186  0.6757  0.6881  0.3668
 1731SOL    HW116655   3.640   4.196   5.259  1.9439  1.3946 -0.2408
 1731SOL    HW216656   3.567   4.318   5.219  2.7542  0.5808  1.9548
 1732SOL     OW16657   4.448   3.035   4.309  0.1100 -0.2232 -0.1424
 1732SOL    HW116658   4.483   3.041   4.398 -1.0907 -0.9258  0.3852
 1732SOL    HW216659   4.455   2.942   4.288 -0.3865 -0.8452  2.4645
 1733SOL     OW16660   0.888   3.981  13.676  0.4617  0.2625 -0.3609
 1733SOL    HW116661   0.952   4.050  13.654  1.1211  0.0588  0.9203
 1733SOL    HW216662   0.913   3.975  13.768 -2.0122  0.3510  0.2954
 1734SOL     OW16663   1.877   3.773   3.392 -0.1693  0.2877 -0.2271
 1734SOL    HW116664   1.946   3.832   3.423  0.1394 -0.4176  0.4228
 1734SOL    HW216665   1.891   3.755   3.299  1.4391 -0.8702  0.2269
 1735SOL     OW16666   4.354   2.992  14.104 -0.4415 -0.3033  0.3316
 1735SOL    HW116667   4.400   2.918  14.144 -1.8701 -0.1948  2.1452
 1735SOL    HW216668   4.402   3.071  14.129  0.1347 -0.1229 -1.3133
 1736SOL     OW16669   2.941   3.708   6.072  0.3197  0.1906  0.5803
 1736SOL    HW116670   2.916   3.623   6.035  0.6399 -0.2188  1.2967
 1736SOL    HW216671   3.021   3.677   6.115  0.6938  1.2760  0.6633
 1737SOL     OW16672   4.238   2.638   2.789  0.0404 -0.0027  0.2402
 1737SOL    HW116673   4.264   2.565   2.734  0.5966 -1.0388  1.8815
 1737SOL    HW216674   4.203   2.589   2.863 -0.8186  2.1667  1.2732
 1738SOL     OW16675   2.318   3.859   5.399 -0.0170 -0.1363  0.2028
 1738SOL    HW116676   2.346   3.936   5.349 -2.9775  0.3938 -0.6244
 1738SOL    HW216677   2.398   3.829   5.441 -0.3977  0.3942  1.2901
 1739SOL     OW16678   1.515   0.332   5.629  0.2217  0.5969 -0.2257
 1739SOL    HW116679   1.507   0.249   5.583 -2.6487 -0.0498  1.4716
 1739SOL    HW216680   1.425   0.346   5.659  0.3889  1.3870 -0.0991
 1740SOL     OW16681   4.101   4.096   4.119 -0.3558  0.0146  0.0067
 1740SOL    HW116682   4.027   4.106   4.179 -0.6311 -1.4611 -0.0934
 1740SOL    HW216683   4.175   4.109   4.179  1.0372  0.2369 -1.7687
 1741SOL     OW16684   1.909   2.814  16.780  1.0075 -0.5078  0.3905
 1741SOL    HW116685   1.836   2.863  16.817  2.8576  1.7906  1.0546
 1741SOL    HW216686   1.961   2.802  16.859  1.5499 -2.8551 -0.3104
 1742SOL     OW16687   3.386   4.626   7.303 -0.4170  0.0108 -0.3340
 1742SOL    HW116688   3.370   4.564   7.374  0.6987  0.7802  0.5883
 1742SOL    HW216689   3.354   4.570   7.231  3.1342 -1.3938 -0.8291
 1743SOL     OW16690   2.965   2.053   6.847 -0.1055 -0.3069  0.0172
 1743SOL    HW116691   3.051   2.073   6.884 -0.4421 -0.4938  0.9074
 1743SOL    HW216692   2.995   1.978   6.797  1.8528 -0.3348  1.2452
 1744SOL     OW16693   4.385   4.652   0.741 -0.2502 -0.5685 -0.0339
 1744SOL    HW116694   4.339   4.711   0.682  0.7288 -0.4610 -0.6982
 1744SOL    HW216695   4.346   4.682   0.824 -2.7134 -2.6439 -0.4772
 1745SOL     OW16696   4.670   0.148   7.977 -0.3861  0.0199 -0.1216
 1745SOL    HW116697   4.680   0.104   7.893 -1.4721 -0.8224  0.2081
 1745SOL    HW216698   0.036   0.192   7.981 -2.0860  3.2312  0.7224
 1746SOL     OW16699   2.383   3.967   4.887 -0.1027 -0.0121  0.2147
 1746SOL    HW116700   2.444   3.993   4.955  0.5817 -0.6267 -0.1516
 1746SOL    HW216701   2.306   4.017   4.912 -1.0141 -0.7286 -1.1204
 1747SOL     OW16702   0.332   0.750   2.726 -0.4176 -0.2962  0.0570
 1747SOL    HW116703   0.252   0.759   2.673 -1.0343  0.1436  1.0587
 1747SOL    HW216704   0.292   0.730   2.810 -1.0212 -0.4927 -0.2733
 1748SOL     OW16705   3.681   2.387   3.038 -0.3123  0.0291 -0.5104
 1748SOL    HW116706   3.708   2.335   2.963 -2.1507 -0.3094 -0.9194
 1748SOL    HW216707   3.679   2.326   3.112 -0.9033 -0.6293 -1.0781
 1749SOL     OW16708   1.616   3.912  17.309 -0.3645  0.5598  0.2584
 1749SOL    HW116709   1.619   3.998  17.269 -0.9681  0.3431 -0.2555
 1749SOL    HW216710   1.613   3.857  17.231 -1.2661  1.2692 -0.2082
 1750SOL     OW16711   1.107   0.095   2.941  0.2060 -0.5253 -0.5038
 1750SOL    HW116712   1.038   0.146   2.899  1.8332  2.2591  0.2062
 1750SOL    HW216713   1.188   0.140   2.919  0.9481 -0.9881  1.2391
 1751SOL     OW16714   1.437   2.727   0.476  0.9698 -0.1591  0.2675
 1751SOL    HW116715   1.509   2.699   0.420  0.5275 -1.8890  0.5631
 1751SOL    HW216716   1.365   2.729   0.413  0.1342 -0.8981  1.2004
 1752SOL     OW16717   0.215   2.144  10.338  0.4993 -0.5379 -0.1635
 1752SOL    HW116718   0.278   2.075  10.357  1.5061  0.3124 -0.3993
 1752SOL    HW216719   0.279   2.210  10.311  0.7447 -1.4429 -1.7623
 1753SOL     OW16720   4.710   2.466   0.793  0.4301  0.4022 -0.8238
 1753SOL    HW116721   0.016   2.494   0.705 -1.4364  2.2615 -0.7812
 1753SOL    HW216722   4.681   2.375   0.784 -1.4102  1.0517 -1.4603
 1754SOL     OW16723   3.123   4.318   7.380 -0.4096 -0.0171 -0.4168
 1754SOL    HW116724   3.106   4.226   7.400  0.0466 -0.1181 -0.4853
 1754SOL    HW216725   3.086   4.362   7.457  0.9837  0.2081  0.1195
 1755SOL     OW16726   1.268   3.474   0.935  0.2700  0.4809 -0.0189
 1755SOL    HW116727   1.330   3.520   0.879 -0.0044  1.0907  0.1795
 1755SOL    HW216728   1.317   3.395   0.957 -1.0482 -0.3672 -0.1083
 1756SOL     OW16729   2.332   3.515  10.540 -0.1667  0.0280  0.2978
 1756SOL    HW116730   2.323   3.583  10.472  3.3989 -1.8868 -2.0811
 1756SOL    HW216731   2.397   3.565  10.590  1.1013 -0.0636 -1.2456
 1757SOL     OW16732   3.740   2.480  12.874  0.1362 -0.8023 -0.3495
 1757SOL    HW116733   3.777   2.567  12.855  0.8470 -1.5898 -2.5144
 1757SOL    HW216734   3.824   2.434  12.872 -1.2193 -3.2881  1.0835
 1758SOL     OW16735   3.307   3.598   0.801  0.0082 -0.2034 -0.4036
 1758SOL    HW116736   3.231   3.541   0.812  0.3453  0.1633  3.7850
 1758SOL    HW216737   3.313   3.604   0.706  2.0146  1.5393 -0.1735
 1759SOL     OW16738   4.636   0.812   9.033 -0.0609 -0.3373 -0.1370
 1759SOL    HW116739   4.575   0.762   8.978  2.0264  0.2301 -2.9832
 1759SOL    HW216740   4.694   0.825   8.958 -0.3005 -1.2572 -0.4843
 1760SOL     OW16741   1.473   2.411   8.242 -0.2420 -0.2776  0.3114
 1760SOL    HW116742   1.450   2.322   8.270  0.2040 -0.9503 -1.4112
 1760SOL    HW216743   1.523   2.380   8.166  0.4872  0.5724  0.4413
 1761SOL     OW16744   3.703   2.081  12.275 -0.1238 -0.1244  0.0745
 1761SOL    HW116745   3.740   2.126  12.351  0.8416 -1.0716  0.1587
 1761SOL    HW216746   3.769   2.111  12.213 -0.3359  0.0739 -0.0526
 1762SOL     OW16747   2.680   4.444   7.109  0.1115  0.1367  0.1996
 1762SOL    HW116748   2.703   4.377   7.173  2.4361 -0.6649 -1.4924
 1762SOL    HW216749   2.675   4.526   7.159 -0.1226  0.3561 -0.1801
 1763SOL     OW16750   0.453   2.339  10.407  0.6117  0.3148  0.9394
 1763SOL    HW116751   0.468   2.419  10.457 -0.1629  0.2285  1.3101
 1763SOL    HW216752   0.520   2.276  10.436 -0.1914 -2.1747 -2.5483
 1764SOL     OW16753   0.844   3.226   7.093  0.4018 -0.2242  0.4003
 1764SOL    HW116754   0.803   3.221   7.180 -2.3053  1.9592 -0.7486
 1764SOL    HW216755   0.827   3.137   7.064  2.2003 -0.7264  0.8954
 1765SOL     OW16756   0.167   3.992   2.233 -0.1096 -0.5355 -0.7227
 1765SOL    HW116757   0.131   3.903   2.238  0.6654 -0.7366  1.1547
 1765SOL    HW216758   0.183   4.009   2.140  0.2740 -1.2056 -0.7755
 1766SOL     OW16759   0.590   2.218   8.869  0.0102 -0.4756  0.2262
 1766SOL    HW116760   0.679   2.187   8.885  0.6238  0.9725 -0.3942
 1766SOL    HW216761   0.533   2.142   8.880  0.1365 -0.4639  0.9982
 1767SOL     OW16762   0.713   0.370   2.935 -0.0512 -0.1080 -0.4951
 1767SOL    HW116763   0.757   0.397   3.016  1.3078 -0.2101 -1.1909
 1767SOL    HW216764   0.687   0.452   2.893 -2.5922 -0.5539  0.2313
 1768SOL     OW16765   3.330   1.952  13.072 -0.0891 -0.4522 -0.2981
 1768SOL    HW116766   3.319   1.982  13.162  1.7286 -1.3670  0.2444
 1768SOL    HW216767   3.303   2.037  13.038 -0.1360  0.1577  1.2948
 1769SOL     OW16768   4.400   2.874   5.596 -0.4004 -0.0832 -0.2020
 1769SOL    HW116769   4.316   2.847   5.557 -1.4808  2.0315  0.6286
 1769SOL    HW216770   4.415   2.798   5.651 -2.8413 -0.3141  0.1446
 1770SOL     OW16771   2.854   2.047   3.969 -0.4355 -0.1230 -0.4838
 1770SOL    HW116772   2.842   2.141   3.954  0.6187 -0.0878 -1.0466
 1770SOL    HW216773   2.893   2.016   3.888  0.3057  1.3583 -0.6959
 1771SOL     OW16774   3.181   4.301   3.354 -0.3260 -0.5312 -0.6489
 1771SOL    HW116775   3.088   4.312   3.330 -0.5323  0.0718  0.4205
 1771SOL    HW216776   3.228   4.337   3.279 -1.0049  2.2582  0.2540
 1772SOL     OW16777   4.089   4.646  10.092  0.0061 -0.7374 -0.2353
 1772SOL    HW116778   4.049   4.679  10.012  3.2533  2.1633 -0.6623
 1772SOL    HW216779   4.163   4.707  10.092  0.2919 -1.0748 -1.7764
 1773SOL     OW16780   0.295   0.770   4.723 -0.2066  0.2921  0.2624
 1773SOL    HW116781   0.235   0.836   4.688  0.8549  1.1350  0.0589
 1773SOL    HW216782   0.287   0.786   4.817  0.3890 -0.4607  0.4438
 1774SOL     OW16783   4.650   1.761   8.453  0.3101 -0.4742 -0.6879
 1774SOL    HW116784   4.610   1.681   8.487 -1.4586  0.9392  0.5614
 1774SOL    HW216785   4.710   1.784   8.523 -2.1929  1.2058  0.8817
 1775SOL     OW16786   3.730   3.506   9.660 -0.3412  0.0713  0.5548
 1775SOL    HW116787   3.754   3.434   9.601  0.6022  0.6731  0.2100
 1775SOL    HW216788   3.814   3.522   9.703  0.3255  1.7587 -1.3541
 1776SOL     OW16789   0.689   0.560  10.269 -0.0107 -0.0932  0.0209
 1776SOL    HW116790   0.691   0.464  10.273 -0.8696 -0.1204 -0.3257
 1776SOL    HW216791   0.742   0.595  10.341 -0.3077  0.0980  0.1472
 1777SOL     OW16792   1.726   3.912   0.782 -0.0586  0.0545  0.9694
 1777SOL    HW116793   1.756   3.889   0.870 -0.7917 -1.6063  0.7696
 1777SOL    HW216794   1.757   4.003   0.785 -1.5706  0.6246 -0.6500
 1778SOL     OW16795   1.862   0.457  13.986  0.3456 -0.0601  0.0333
 1778SOL    HW116796   1.956   0.470  13.995  0.1053  3.5302 -2.7782
 1778SOL    HW216797   1.821   0.542  13.967  1.6319  0.9702  1.9646
 1779SOL     OW16798   4.308   4.065   2.702  0.4061  0.5804 -0.4672
 1779SOL    HW116799   4.384   4.093   2.754  0.2899  0.3403 -0.1711
 1779SOL    HW216800   4.339   3.981   2.669 -1.2195  0.1396 -0.8432
 1780SOL     OW16801   2.326   0.249  11.645 -0.4219  0.7882 -0.4814
 1780SOL    HW116802   2.387   0.220  11.713 -0.0164  2.5903 -0.0713
 1780SOL    HW216803   2.383   0.258  11.569  1.2403  0.2784  0.7048
 1781SOL     OW16804   0.991   4.352  17.142 -0.5555  0.1089 -0.4656
 1781SOL    HW116805   0.964   4.321  17.228  3.1933 -0.5099  0.4918
 1781SOL    HW216806   1.022   4.435  17.177 -1.3933  0.3715 -0.3563
 1782SOL     OW16807   3.645   4.436  17.470  0.5148  0.3564 -1.0444
 1782SOL    HW116808   3.640   4.342  17.482  1.9169  0.5032  0.6547
 1782SOL    HW216809   3.564   4.459  17.517  1.4420 -0.8573  1.1349
 1783SOL     OW16810   3.533   4.635   3.814  0.3383 -0.1026  0.1391
 1783SOL    HW116811   3.502   4.641   3.724  1.3769  3.4315  0.0077
 1783SOL    HW216812   3.449   4.615   3.855 -0.9014  0.7902 -1.9595
 1784SOL     OW16813   2.271   0.829   6.031 -0.1985  0.4714  0.3512
 1784SOL    HW116814   2.334   0.761   6.055 -1.3315 -0.0219  1.9499
 1784SOL    HW216815   2.306   0.900   6.084 -1.2801  2.2523 -1.3348
 1785SOL     OW16816   0.008   4.062   3.013  0.0950  0.4429  0.1344
 1785SOL    HW116817   4.703   3.976   2.980  1.0693  0.2068 -0.0088
 1785SOL    HW216818   0.104   4.060   3.013  0.0697 -1.8326 -2.8399
 1786SOL     OW16819   0.338   1.492  17.337  0.0286  0.4028 -0.0147
 1786SOL    HW116820   0.274   1.563  17.332  0.2729  0.5386 -1.1499
 1786SOL    HW216821   0.377   1.498  17.425 -0.9603  1.4494  0.3465
 1787SOL     OW16822   2.994   3.313   2.829  0.0889  0.1638 -0.2299
 1787SOL    HW116823   3.071   3.272   2.869  0.4503 -1.5992 -2.7687
 1787SOL    HW216824   3.030   3.299   2.742 -1.0698  0.9005 -0.8327
 1788SOL     OW16825   3.685   3.312   4.411  0.3585 -0.2252  0.2123
 1788SOL    HW116826   3.773   3.343   4.391  1.7700 -3.6268  1.2908
 1788SOL    HW216827   3.697   3.291   4.504 -0.7562 -0.5760  0.2745
 1789SOL     OW16828   2.682   2.278   7.671 -0.0674  0.2494 -0.5797
 1789SOL    HW116829   2.716   2.217   7.737  0.0210  1.3392  0.3790
 1789SOL    HW216830   2.755   2.270   7.609  0.8391 -1.3408  0.7089
 1790SOL     OW16831   4.117   4.202   6.003 -0.4006 -0.0305 -0.0211
 1790SOL    HW116832   4.188   4.247   6.050 -0.1323 -1.8163  1.2632
 1790SOL    HW216833   4.053   4.270   5.982  1.2457  1.5817  0.0672
 1791SOL     OW16834   4.261   4.016   1.147  0.2063 -0.6595  0.4239
 1791SOL    HW116835   4.272   4.052   1.059 -0.8563 -0.2991  0.4359
 1791SOL    HW216836   4.340   3.964   1.161  2.0192  2.3435  1.3990
 1792SOL     OW16837   3.281   3.444   8.208  0.4906  0.1524 -1.0524
 1792SOL    HW116838   3.206   3.387   8.225  0.9887  0.3576  1.9415
 1792SOL    HW216839   3.247   3.532   8.221  2.9171  1.2320 -2.1353
 1793SOL     OW16840   1.394   4.292   6.833 -0.1957  0.5880  0.1342
 1793SOL    HW116841   1.310   4.279   6.790  1.6691 -2.2432 -2.6755
 1793SOL    HW216842   1.444   4.305   6.753  0.3723  0.3040  0.4382
 1794SOL     OW16843   1.338   1.802   2.320  0.1377  0.0996 -0.0888
 1794SOL    HW116844   1.272   1.733   2.319  0.9708 -0.7089  1.0633
 1794SOL    HW216845   1.343   1.838   2.409  1.3944 -0.9694  0.2617
 1795SOL     OW16846   1.079   0.012   1.232 -0.1611  0.0856 -0.5007
 1795SOL    HW116847   1.142   4.713   1.162  0.3746  0.3335 -0.0844
 1795SOL    HW216848   0.997   0.025   1.184  1.1804  0.0548 -2.8262
 1796SOL     OW16849   0.353   0.784  11.548 -0.3366  0.1336  0.6420
 1796SOL    HW116850   0.298   0.774  11.625 -1.1625  1.6882  0.2646
 1796SOL    HW216851   0.311   0.858  11.504 -0.8084 -0.6588 -0.2382
 1797SOL     OW16852   1.472   2.851  10.012  0.3080 -0.2037 -0.6062
 1797SOL    HW116853   1.501   2.781   9.954  2.4254  2.1527 -2.3765
 1797SOL    HW216854   1.556   2.869  10.054  0.4270 -0.9231 -0.5288
 1798SOL     OW16855   4.359   0.752   6.179  0.4875  0.0287  0.1955
 1798SOL    HW116856   4.273   0.747   6.221  0.3491  0.0252 -0.0891
 1798SOL    HW216857   4.359   0.847   6.166  0.9172 -0.3961 -2.8823
 1799SOL     OW16858   3.336   0.591   3.037 -0.5595  0.4525  0.1633
 1799SOL    HW116859   3.316   0.522   2.973 -0.8474  1.7769 -1.1609
 1799SOL    HW216860   3.245   0.616   3.054 -0.7588  0.4667 -0.9335
 1800SOL     OW16861   0.036   2.528   9.547 -0.0376  0.4118  0.7134
 1800SOL    HW116862   4.660   2.536   9.542  0.0732  1.2509 -0.1546
 1800SOL    HW216863   0.057   2.603   9.603  1.0334  2.4418 -2.3997
 1801SOL     OW16864   0.577   1.037  16.241 -0.1341  0.1770 -0.1802
 1801SOL    HW116865   0.664   0.997  16.232 -1.3452 -2.3172 -0.6002
 1801SOL    HW216866   0.591   1.088  16.321 -0.7663 -0.0559  0.0710
 1802SOL     OW16867   4.020   3.822  17.581  0.4846  0.0412 -0.2216
 1802SOL    HW116868   3.927   3.813  17.601  0.4646  0.2138 -0.2349
 1802SOL    HW216869   4.012   3.850  17.490  0.1776  0.6395 -0.0085
 1803SOL     OW16870   2.256   0.453   4.137 -0.1677 -0.1192 -0.3033
 1803SOL    HW116871   2.178   0.502   4.164 -0.0568  1.8829 -3.6482
 1803SOL    HW216872   2.289   0.521   4.079  0.3814 -0.5042 -0.4446
 1804SOL     OW16873   2.993   0.726   5.391  0.2158 -0.1089 -0.4209
 1804SOL    HW116874   3.083   0.753   5.372  0.1177 -0.3768 -1.2255
 1804SOL    HW216875   2.968   0.692   5.306 -0.9887 -1.0184  0.2937
 1805SOL     OW16876   2.146   0.941   5.484  0.2822  0.2302  0.1642
 1805SOL    HW116877   2.187   1.000   5.548 -0.1952 -1.1551  1.7282
 1805SOL    HW216878   2.167   0.981   5.399  0.3233 -3.2747 -1.4519
 1806SOL     OW16879   3.100   2.458   0.734  0.4118 -0.3225 -0.5260
 1806SOL    HW116880   3.037   2.466   0.806 -0.5954 -0.9184 -1.3520
 1806SOL    HW216881   3.154   2.535   0.754 -1.6857  0.8730  0.4953
 1807SOL     OW16882   0.241   0.616   9.704  0.0433 -0.3322  0.2618
 1807SOL    HW116883   0.233   0.712   9.705  1.0193 -0.2564  0.1628
 1807SOL    HW216884   0.336   0.618   9.709  0.1398  1.9986 -2.5144
 1808SOL     OW16885   1.839   2.014  12.171 -0.2200 -0.0501  0.3638
 1808SOL    HW116886   1.911   1.971  12.124 -0.6074  2.4772 -2.5275
 1808SOL    HW216887   1.838   1.953  12.244 -2.5572 -0.0769  0.2973
 1809SOL     OW16888   3.285   3.898   3.200 -0.5625  0.6413 -0.1792
 1809SOL    HW116889   3.376   3.922   3.185 -0.0549  0.3194  2.4601
 1809SOL    HW216890   3.254   3.870   3.113  1.5910  0.2685 -0.8159
 1810SOL     OW16891   3.247   1.334  15.156 -0.2011 -0.2878  0.0276
 1810SOL    HW116892   3.249   1.417  15.203 -2.0551 -0.5388  0.5324
 1810SOL    HW216893   3.154   1.320  15.142  0.0701 -2.6180  0.6607
 1811SOL     OW16894   1.953   1.108  15.934 -0.0453  0.5008 -0.9239
 1811SOL    HW116895   1.914   1.155  16.008 -2.5181 -3.5539  0.3530
 1811SOL    HW216896   1.901   1.028  15.935 -0.3322  0.6965  0.6460
 1812SOL     OW16897   1.615   3.110   9.058  0.1563  0.3010 -0.1056
 1812SOL    HW116898   1.687   3.097   9.119 -1.5339 -0.1058  1.7909
 1812SOL    HW216899   1.584   3.200   9.067  0.2818  0.4069 -0.6877
 1813SOL     OW16900   2.319   2.404   1.924 -0.3759 -0.4225  0.0526
 1813SOL    HW116901   2.245   2.358   1.961 -0.3167 -0.8743 -0.3931
 1813SOL    HW216902   2.367   2.331   1.884 -0.4216  0.9079 -2.4691
 1814SOL     OW16903   2.613   0.904  15.826  0.2185 -0.0091  0.3703
 1814SOL    HW116904   2.570   0.826  15.792 -0.7427  0.3466  0.7452
 1814SOL    HW216905   2.706   0.886  15.818  0.0788 -1.1261  1.2330
 1815SOL     OW16906   1.073   0.994   6.060 -0.0604  0.0576  0.3039
 1815SOL    HW116907   1.063   1.087   6.079 -1.4435 -0.1877  0.7205
 1815SOL    HW216908   1.138   0.971   6.126  1.0770 -2.0428 -1.5353
 1816SOL     OW16909   0.197   0.245   3.199  1.3783  0.0279 -0.1270
 1816SOL    HW116910   0.154   0.189   3.134 -1.9411  0.5955  1.5903
 1816SOL    HW216911   0.144   0.324   3.191 -0.4704 -1.2013  0.0171
 1817SOL     OW16912   1.914   2.027   7.281 -0.3350  0.2096 -1.0683
 1817SOL    HW116913   1.938   2.050   7.371 -0.3880  0.5597 -1.1438
 1817SOL    HW216914   1.948   2.102   7.232  3.1078 -0.5474  0.1801
 1818SOL     OW16915   3.092   1.687   8.392  0.2347 -0.0005  0.3216
 1818SOL    HW116916   3.015   1.714   8.342  0.3169 -2.5581 -1.1842
 1818SOL    HW216917   3.137   1.626   8.333 -2.2704  0.3896 -1.9896
 1819SOL     OW16918   1.106   2.315   9.464  0.1963  0.0285  0.2060
 1819SOL    HW116919   1.045   2.250   9.431  0.0869  0.0149  0.4336
 1819SOL    HW216920   1.116   2.372   9.388 -0.5212  2.4198  1.8843
 1820SOL     OW16921   2.183   0.649   8.649 -0.8594  0.0524  0.2454
 1820SOL    HW116922   2.173   0.558   8.675  0.9924 -0.6113 -1.4366
 1820SOL    HW216923   2.191   0.690   8.736 -1.2825 -0.1795  0.3921
 1821SOL     OW16924   1.408   3.085  16.944  0.5702 -0.0326 -0.5251
 1821SOL    HW116925   1.345   3.156  16.959 -0.9477 -0.8587 -3.0515
 1821SOL    HW216926   1.396   3.043  17.029 -1.6329 -0.7005 -1.1712
 1822SOL     OW16927   2.538   3.180   4.682 -1.0379  0.0055  0.2772
 1822SOL    HW116928   2.596   3.202   4.754 -0.4765  0.2285 -0.2384
 1822SOL    HW216929   2.547   3.259   4.629  0.8316 -0.1077  0.4122
 1823SOL     OW16930   1.623   3.192   7.743  0.0292 -0.3771 -0.2600
 1823SOL    HW116931   1.706   3.146   7.733  1.9019  3.1315 -0.7168
 1823SOL    HW216932   1.598   3.158   7.829  1.1543 -2.9605 -0.9673
 1824SOL     OW16933   1.794   3.195  15.216  0.1132 -0.4248 -0.2911
 1824SOL    HW116934   1.829   3.106  15.210  1.0475 -0.0716 -0.1282
 1824SOL    HW216935   1.730   3.200  15.144 -0.5421  0.6551  0.3751
 1825SOL     OW16936   1.849   0.954  17.387 -0.1827 -0.2584  0.4243
 1825SOL    HW116937   1.849   0.878  17.445 -0.4639 -0.9039 -0.4248
 1825SOL    HW216938   1.754   0.966  17.376 -0.1998  1.5865  2.4496
 1826SOL     OW16939   3.569   2.780   4.223 -0.1760  0.5177 -0.2646
 1826SOL    HW116940   3.574   2.835   4.301 -0.7352  1.1308 -0.6615
 1826SOL    HW216941   3.519   2.834   4.162  0.9324  0.4500 -1.2324
 1827SOL     OW16942   0.176   4.501  15.997 -0.0271  0.3205  0.1092
 1827SOL    HW116943   0.216   4.444  15.932 -3.2913  0.2864 -1.8672
 1827SOL    HW216944   0.180   4.580  15.943 -0.3232  1.8091  2.2224
 1828SOL     OW16945   3.988   0.817   4.255 -0.1238  0.5767 -0.2130
 1828SOL    HW116946   3.953   0.902   4.283  1.0585  0.6985  0.9338
 1828SOL    HW216947   3.966   0.813   4.162 -2.3493 -0.2553  0.3619
 1829SOL     OW16948   4.371   1.813   4.348 -0.2915 -0.0941  0.5009
 1829SOL    HW116949   4.382   1.753   4.421  2.2265 -1.4837 -1.0371
 1829SOL    HW216950   4.283   1.790   4.317  0.5032  0.3294 -2.0899
 1830SOL     OW16951   1.737   4.556   4.567 -0.3586  0.4524 -0.1042
 1830SOL    HW116952   1.670   4.542   4.633 -0.1723 -0.0973 -0.0326
 1830SOL    HW216953   1.709   4.496   4.498  1.9662  0.4581 -1.0457
 1831SOL     OW16954   2.958   0.827   8.262  0.0378  0.2885  0.1078
 1831SOL    HW116955   2.979   0.900   8.321  0.7886  0.8912 -0.8951
 1831SOL    HW216956   3.012   0.758   8.300  0.0066 -1.9511 -3.9074
 1832SOL     OW16957   2.983   1.667   5.899 -0.2764 -0.6410  0.6012
 1832SOL    HW116958   3.005   1.753   5.862 -0.2455 -1.1213 -0.4865
 1832SOL    HW216959   2.941   1.691   5.982 -0.8437  1.1320 -0.1810
 1833SOL     OW16960   4.445   1.538  13.966 -0.8324  0.3306  0.2103
 1833SOL    HW116961   4.424   1.521  14.058  1.4656 -2.5797  0.1736
 1833SOL    HW216962   4.540   1.549  13.965 -1.0587  2.2309 -1.1835
 1834SOL     OW16963   4.673   3.884   6.388 -0.0932 -0.4017 -0.0426
 1834SOL    HW116964   4.655   3.978   6.398 -0.3417 -0.6964  2.2631
 1834SOL    HW216965   0.008   3.882   6.467 -0.7024 -0.2336  0.3803
 1835SOL     OW16966   0.653   3.969   4.356  0.1828  0.6403 -0.3405
 1835SOL    HW116967   0.663   3.897   4.417 -1.1255  0.2247 -0.6030
 1835SOL    HW216968   0.581   4.018   4.396  0.2355  0.4183  0.0257
 1836SOL     OW16969   2.410   4.445   8.147  0.0778 -0.3362  0.4065
 1836SOL    HW116970   2.349   4.452   8.074  0.8758 -0.4680 -0.2816
 1836SOL    HW216971   2.357   4.416   8.221  1.6190  0.6811  1.9055
 1837SOL     OW16972   3.667   3.030   3.985  0.5226  0.2155  0.0429
 1837SOL    HW116973   3.703   3.071   4.064 -2.0900  2.2965  0.1432
 1837SOL    HW216974   3.578   3.012   4.015 -0.1497  1.0241 -1.4273
 1838SOL     OW16975   1.102   1.641   6.800 -0.5757 -0.0640 -0.1763
 1838SOL    HW116976   1.054   1.582   6.742  0.4204 -1.7137  0.6891
 1838SOL    HW216977   1.174   1.661   6.740  0.1362 -0.6533  0.4911
 1839SOL     OW16978   1.083   2.527   7.360 -0.2123 -0.0114 -0.6943
 1839SOL    HW116979   1.052   2.469   7.430 -1.1028  0.0576 -1.0338
 1839SOL    HW216980   1.179   2.522   7.356 -0.1551 -0.3428  0.8274
 1840SOL     OW16981   4.092   4.654  11.180 -0.6765 -1.1490  0.2728
 1840SOL    HW116982   4.133   4.658  11.094 -1.6812  2.3871 -0.0494
 1840SOL    HW216983   4.048   0.020  11.184  0.3414 -0.6667  1.2385
 1841SOL     OW16984   1.972   2.430  11.026  0.0729  0.1813 -0.2297
 1841SOL    HW116985   1.936   2.342  11.035  1.2589 -0.2765  0.0437
 1841SOL    HW216986   2.064   2.425  11.054 -0.4119  0.4345  1.4192
 1842SOL     OW16987   2.378   2.562   7.422 -0.1024  0.2643 -0.0187
 1842SOL    HW116988   2.356   2.644   7.379  4.1620  0.9099 -0.9842
 1842SOL    HW216989   2.474   2.568   7.414 -0.1827  1.4599 -0.0993
 1843SOL     OW16990   1.045   1.975   4.938 -0.3938  0.4436 -0.2057
 1843SOL    HW116991   1.023   2.065   4.915 -0.2488 -0.0622 -2.3045
 1843SOL    HW216992   1.140   1.986   4.936 -0.1639 -1.7788 -1.5567
 1844SOL     OW16993   1.743   4.183   0.897 -0.1150 -0.2499 -0.3543
 1844SOL    HW116994   1.686   4.186   0.974  0.5032  0.1152  0.0875
 1844SOL    HW216995   1.832   4.174   0.933  0.2508  1.1932 -0.8941
 1845SOL     OW16996   0.809   3.745   1.686 -0.3457  0.1826  0.2774
 1845SOL    HW116997   0.739   3.794   1.729 -1.0607 -0.5244 -0.0784
 1845SOL    HW216998   0.821   3.681   1.756 -1.3478  1.9274  2.0477
 1846SOL     OW16999   1.318   0.607   0.458  0.2445 -0.2049  0.9114
 1846SOL    HW117000   1.350   0.679   0.513 -0.1070  0.0922  0.7188
 1846SOL    HW217001   1.397   0.575   0.414  0.2157  0.7475  0.1851
 1847SOL     OW17002   3.694   3.438   1.642 -0.5362 -0.5337  0.3017
 1847SOL    HW117003   3.598   3.441   1.641 -0.5399 -0.5445  0.8759
 1847SOL    HW217004   3.714   3.398   1.557 -2.5608 -2.5464  0.7635
 1848SOL     OW17005   4.211   1.446   5.649  0.0279  0.2980 -0.1571
 1848SOL    HW117006   4.307   1.452   5.646  0.0347 -0.1747 -0.9489
 1848SOL    HW217007   4.204   1.434   5.743 -1.0651  0.5206 -0.2175
 1849SOL     OW17008   0.697   4.611   7.504 -0.3268 -0.5337  0.0584
 1849SOL    HW117009   0.638   4.593   7.430  0.3917 -0.7004 -0.4674
 1849SOL    HW217010   0.774   4.557   7.491  0.9360  1.5633 -1.2046
 1850SOL     OW17011   3.521   1.929  14.352 -0.2375  0.1358  0.2750
 1850SOL    HW117012   3.569   1.992  14.298 -1.4046  1.0679  0.3241
 1850SOL    HW217013   3.471   1.884  14.284 -0.9887 -0.4161  1.1942
 1851SOL     OW17014   2.820   2.213   2.764 -0.2467  0.2054 -0.5159
 1851SOL    HW117015   2.808   2.285   2.703 -0.3969  1.2156  0.7106
 1851SOL    HW217016   2.913   2.213   2.785 -0.3019  0.6021 -0.2752
 1852SOL     OW17017   0.122   0.897   3.347 -0.1344 -0.1477  0.3923
 1852SOL    HW117018   0.127   0.887   3.252 -3.3751  0.4937  0.1364
 1852SOL    HW217019   0.064   0.826   3.374 -0.8886 -0.2920 -1.6000
 1853SOL     OW17020   0.675   0.093   5.956 -0.5159 -0.7161  0.5503
 1853SOL    HW117021   0.641   0.144   6.029 -0.4994 -3.3705  2.4026
 1853SOL    HW217022   0.755   0.062   6.000  0.4065  0.8494 -0.0015
 1854SOL     OW17023   2.010   3.992   3.868 -0.1517 -0.1040 -0.5074
 1854SOL    HW117024   1.961   3.912   3.886 -1.7092  0.5111 -2.0054
 1854SOL    HW217025   2.017   3.996   3.772  0.5540  0.4257 -0.4383
 1855SOL     OW17026   1.567   3.766  17.088  0.2168 -0.7458  0.1334
 1855SOL    HW117027   1.627   3.705  17.044 -0.7029  0.8238 -3.2832
 1855SOL    HW217028   1.499   3.785  17.024 -0.2966 -0.8082  0.6540
 1856SOL     OW17029   2.587   2.363  17.481 -0.0454  0.2733 -0.0402
 1856SOL    HW117030   2.626   2.291  17.530 -0.9280  0.2095  0.5603
 1856SOL    HW217031   2.502   2.322  17.469  1.3106 -1.9375 -2.1587
 1857SOL     OW17032   3.713   0.108  11.300 -0.1495  0.1383 -0.2347
 1857SOL    HW117033   3.652   0.050  11.256 -0.2903  0.0914  0.0244
 1857SOL    HW217034   3.745   0.047  11.367 -0.5119  0.0728 -0.1206
 1858SOL     OW17035   1.156   0.434   3.689  0.0558 -0.2911 -0.2155
 1858SOL    HW117036   1.088   0.471   3.745 -0.4492  0.5487 -1.3975
 1858SOL    HW217037   1.227   0.450   3.752  0.0629 -3.7066  0.6590
 1859SOL     OW17038   2.507   2.837   3.387 -0.0850  0.1507  0.6859
 1859SOL    HW117039   2.480   2.924   3.358  0.8055  0.3845  0.5416
 1859SOL    HW217040   2.432   2.816   3.443  0.4591  1.9098  2.0936
 1860SOL     OW17041   0.742   4.557  17.502 -0.8269 -0.1189  0.4762
 1860SOL    HW117042   0.811   4.548  17.568 -0.3746  2.6334  0.3987
 1860SOL    HW217043   0.688   4.626  17.541 -0.5549 -0.3033  1.1801
 1861SOL     OW17044   3.507   3.838   8.277  0.2525 -0.0956  0.2352
 1861SOL    HW117045   3.603   3.838   8.268  0.3381  2.5624  1.0113
 1861SOL    HW217046   3.478   3.819   8.188  0.1796 -0.1748  0.2757
 1862SOL     OW17047   0.794   3.843   3.025  0.0391 -0.9421 -0.2943
 1862SOL    HW117048   0.879   3.839   3.070 -0.0548 -2.1926 -0.2166
 1862SOL    HW217049   0.793   3.750   3.000  2.5788 -1.0556  0.0364
 1863SOL     OW17050   0.091   4.036   7.084 -0.1127  0.2687  0.3594
 1863SOL    HW117051   0.056   4.096   7.018  2.2349 -1.4764 -2.4875
 1863SOL    HW217052   0.049   3.950   7.074  3.1412 -1.0870 -1.8317
 1864SOL     OW17053   3.046   0.251   3.961 -0.3494  0.1026  0.2754
 1864SOL    HW117054   3.120   0.218   3.909 -0.6704  0.2236 -0.2536
 1864SOL    HW217055   3.072   0.233   4.052 -0.6617  2.3627  0.8090
 1865SOL     OW17056   1.667   4.162   4.435 -0.4423 -0.1649 -0.2819
 1865SOL    HW117057   1.730   4.186   4.502  0.2836 -0.0438 -1.0129
 1865SOL    HW217058   1.712   4.103   4.374 -0.5139  0.3171 -0.8021
 1866SOL     OW17059   3.695   1.981   9.596  0.5933  0.9504  0.0619
 1866SOL    HW117060   3.600   1.987   9.590  0.4867 -0.7360  0.1970
 1866SOL    HW217061   3.713   1.913   9.532 -0.0824  0.8197  0.0161
 1867SOL     OW17062   4.471   1.584   2.729 -0.5413 -0.5921  0.0811
 1867SOL    HW117063   4.397   1.523   2.729  0.1151 -1.3915  0.9466
 1867SOL    HW217064   4.540   1.526   2.695  0.1406 -0.3301  1.0001
 1868SOL     OW17065   2.824   4.445  14.047 -0.2237  0.2239  0.3085
 1868SOL    HW117066   2.741   4.419  14.086  0.1564  0.3196  1.1769
 1868SOL    HW217067   2.894   4.457  14.111 -2.3631 -1.3761  2.9104
 1869SOL     OW17068   3.407   1.120  13.579 -0.5095 -0.3458 -0.2662
 1869SOL    HW117069   3.393   1.127  13.485  0.3728 -0.5767 -0.4190
 1869SOL    HW217070   3.456   1.200  13.595  0.1196 -0.5655 -1.0706
 1870SOL     OW17071   1.997   1.451  11.297  0.5044 -0.0849 -0.8481
 1870SOL    HW117072   1.934   1.509  11.253 -0.7157  0.9286  2.1874
 1870SOL    HW217073   1.946   1.372  11.317 -2.1227  2.2157  1.6819
 1871SOL     OW17074   0.414   0.993   8.874 -0.2147 -0.0349  0.2826
 1871SOL    HW117075   0.454   0.945   8.802  1.0862  0.9209  0.3768
 1871SOL    HW217076   0.460   0.963   8.952 -0.5618 -0.0928  0.4680
 1872SOL     OW17077   0.095   3.581   7.371  0.2345  0.5418 -0.2953
 1872SOL    HW117078   0.040   3.587   7.293  0.0845 -1.2679 -0.3404
 1872SOL    HW217079   0.026   3.582   7.436  0.3131  0.1677 -0.2037
 1873SOL     OW17080   0.845   0.297   2.373 -0.0136 -0.0383 -0.5714
 1873SOL    HW117081   0.935   0.301   2.343 -0.2892  1.3938 -1.1841
 1873SOL    HW217082   0.824   0.388   2.391  3.3122  0.8432 -1.1628
 1874SOL     OW17083   0.216   3.703   3.918 -0.0304 -1.0795  0.0022
 1874SOL    HW117084   0.284   3.719   3.852  0.3505 -0.7091  0.4864
 1874SOL    HW217085   0.137   3.715   3.864  0.0552 -1.9594 -0.3112
 1875SOL     OW17086   1.486   2.122   5.197 -0.1123  0.6706  0.1357
 1875SOL    HW117087   1.451   2.187   5.257 -1.7006 -0.8635  0.8567
 1875SOL    HW217088   1.559   2.167   5.154 -0.4114  1.3297  0.3231
 1876SOL     OW17089   0.863   3.455   3.972 -0.2781  0.1014  0.2366
 1876SOL    HW117090   0.915   3.430   3.895 -0.0962  1.9465 -0.2280
 1876SOL    HW217091   0.780   3.410   3.959 -0.0811 -0.0963 -0.3321
 1877SOL     OW17092   0.787   0.620   1.041 -0.6175 -0.7980  0.0512
 1877SOL    HW117093   0.870   0.612   0.995 -0.0034  1.2960  0.7509
 1877SOL    HW217094   0.744   0.671   0.972  1.2108 -0.5776 -0.9257
 1878SOL     OW17095   0.648   2.966   2.755  0.5183 -0.3025 -0.4148
 1878SOL    HW117096   0.707   2.907   2.802 -2.0273 -1.6471  1.0822
 1878SOL    HW217097   0.705   3.004   2.688  0.3119 -0.1809 -0.5205
 1879SOL     OW17098   3.705   1.121  13.426 -0.3442 -0.3152 -0.7186
 1879SOL    HW117099   3.654   1.181  13.480  0.1049  0.4995 -1.1914
 1879SOL    HW217100   3.718   1.042  13.478  2.0553 -0.1361 -1.0107
 1880SOL     OW17101   3.864   3.010   2.343  0.7033  0.6769  0.6139
 1880SOL    HW117102   3.900   3.080   2.397 -1.5674  1.6565  0.8775
 1880SOL    HW217103   3.837   2.955   2.416  0.1418  2.1047  1.4851
 1881SOL     OW17104   3.568   3.502   7.279  0.1088  0.1387 -0.0364
 1881SOL    HW117105   3.550   3.572   7.215 -0.2711  1.0734  1.1027
 1881SOL    HW217106   3.544   3.540   7.363 -2.4416 -2.0919  0.2471
 1882SOL     OW17107   0.090   0.329   8.164  0.2797 -0.3229  0.3300
 1882SOL    HW117108   0.013   0.386   8.156  1.0025  0.8157  1.4045
 1882SOL    HW217109   0.147   0.351   8.090  0.5478  1.6520  1.1097
 1883SOL     OW17110   1.079   1.025   9.464  0.4664  0.2065 -0.9916
 1883SOL    HW117111   1.081   1.026   9.368 -0.6006  0.5716 -1.0141
 1883SOL    HW217112   1.135   1.102   9.474  0.5229  0.0993 -0.5002
 1884SOL     OW17113   0.431   2.284   7.559  0.1324  0.1093  0.2109
 1884SOL    HW117114   0.345   2.259   7.525  0.4689 -0.4163 -0.2496
 1884SOL    HW217115   0.490   2.218   7.522 -2.6210 -1.8538 -0.6471
 1885SOL     OW17116   2.906   4.247   2.494  0.0117  0.0469 -0.0997
 1885SOL    HW117117   2.952   4.262   2.412 -0.5530  0.4040 -0.3490
 1885SOL    HW217118   2.932   4.332   2.529  1.0410 -0.5901  0.6953
 1886SOL     OW17119   0.253   3.196   5.095 -0.0820  0.1072  0.2877
 1886SOL    HW117120   0.318   3.166   5.158 -1.0536 -0.1902  1.1395
 1886SOL    HW217121   0.268   3.137   5.021 -2.4473 -1.7886  1.3535
 1887SOL     OW17122   2.496   2.842  14.791  1.1137  0.2361 -0.3224
 1887SOL    HW117123   2.485   2.889  14.873  3.0941 -0.3919  0.2859
 1887SOL    HW217124   2.432   2.875  14.728  0.0499 -0.1069  0.5863
 1888SOL     OW17125   4.055   1.455   4.361 -0.8363 -0.1260  0.6773
 1888SOL    HW117126   4.106   1.452   4.280 -1.4189  1.9564  0.2250
 1888SOL    HW217127   4.057   1.365   4.394  0.4208  0.1726  1.4163
 1889SOL     OW17128   0.066   3.290   8.361  0.7049 -0.2357  0.1556
 1889SOL    HW117129   0.086   3.384   8.354  0.9461 -0.3826 -1.1229
 1889SOL    HW217130   0.122   3.269   8.435 -2.8409  1.0442  3.1635
 1890SOL     OW17131   2.952   2.845  13.550 -0.5663  0.5296  0.0042
 1890SOL    HW117132   2.891   2.772  13.562 -0.1187  0.2649  0.6850
 1890SOL    HW217133   2.922   2.908  13.616  0.5241  0.1675  0.8463
 1891SOL     OW17134   1.335   0.899   8.491 -0.3459 -0.2901 -0.2643
 1891SOL    HW117135   1.396   0.900   8.565 -1.3377 -2.4201  0.5918
 1891SOL    HW217136   1.268   0.838   8.522 -2.6431  1.1433 -2.5201
 1892SOL     OW17137   2.146   2.045  12.188 -0.1395 -0.3789  0.0256
 1892SOL    HW117138   2.089   2.110  12.146  0.2223  0.3579  0.6795
 1892SOL    HW217139   2.168   2.096  12.265  3.9166  0.1118 -1.4648
 1893SOL     OW17140   0.215   0.394  16.569  1.0413  0.1628 -0.7478
 1893SOL    HW117141   0.292   0.339  16.578  0.0312 -0.8100  1.9535
 1893SOL    HW217142   0.265   0.476  16.572 -2.8472  2.5061  0.1713
 1894SOL     OW17143   0.523   3.351   9.421 -0.0406 -0.1297 -0.6361
 1894SOL    HW117144   0.585   3.305   9.364  1.5691  2.3198 -0.8477
 1894SOL    HW217145   0.499   3.282   9.483 -0.9326 -1.2612 -2.2515
 1895SOL     OW17146   4.558   2.714  15.229 -0.0287  0.3422  0.3717
 1895SOL    HW117147   4.646   2.746  15.249 -0.1414  1.2779 -0.5757
 1895SOL    HW217148   4.552   2.741  15.137 -2.0844  0.5736  0.5777
 1896SOL     OW17149   0.123   3.887  12.766  0.0039 -0.3747 -0.2532
 1896SOL    HW117150   0.190   3.892  12.833 -0.1037  1.8327 -0.3146
 1896SOL    HW217151   0.079   3.969  12.787  1.8353  0.7966 -1.0334
 1897SOL     OW17152   1.511   3.610  17.672  0.3421  0.2974 -0.0033
 1897SOL    HW117153   1.545   3.550  17.605 -0.7550  1.6242 -1.7449
 1897SOL    HW217154   1.475   3.681  17.619 -2.6891 -0.7488  0.6810
 1898SOL     OW17155   1.868   3.091   7.676 -0.2229  0.5120  0.3651
 1898SOL    HW117156   1.928   3.050   7.614  0.6445  2.3651 -0.0314
 1898SOL    HW217157   1.824   3.151   7.615 -2.3619  1.1977  2.5927
 1899SOL     OW17158   2.661   2.531   7.734 -0.0922  0.4399  0.0181
 1899SOL    HW117159   2.601   2.535   7.809 -0.7401 -0.6167 -0.4389
 1899SOL    HW217160   2.667   2.439   7.709  2.2581  0.5705  0.1250
 1900SOL     OW17161   4.647   4.423  13.175 -0.2740 -0.0795  0.1710
 1900SOL    HW117162   4.662   4.512  13.143  0.5897 -0.1329  0.4234
 1900SOL    HW217163   0.004   4.413  13.231 -1.1593 -0.3319  1.3453
 1901SOL     OW17164   3.280   0.113   5.867 -0.1736 -0.0850  0.0020
 1901SOL    HW117165   3.266   0.045   5.800 -1.2310 -0.9443  1.0898
 1901SOL    HW217166   3.254   0.190   5.817  3.1344  0.7104 -0.4860
 1902SOL     OW17167   3.161   2.305   4.514 -0.2033 -0.8921 -0.2741
 1902SOL    HW117168   3.163   2.316   4.419 -2.9113  1.0044 -0.1414
 1902SOL    HW217169   3.160   2.396   4.546 -2.0423 -1.5280  1.4976
 1903SOL     OW17170   3.352   1.069   9.488  0.4987  0.3869  0.7764
 1903SOL    HW117171   3.388   1.154   9.463 -0.4325 -0.1353 -2.3575
 1903SOL    HW217172   3.339   1.074   9.582 -1.5899  1.8751  0.4092
 1904SOL     OW17173   1.413   0.109   5.517 -0.0938 -0.2366 -0.0882
 1904SOL    HW117174   1.462   0.027   5.514  2.2517  1.1630 -0.4611
 1904SOL    HW217175   1.341   0.097   5.455  1.3775  1.0600 -2.0773
 1905SOL     OW17176   0.792   0.101   4.195 -0.6117 -0.1507 -0.4083
 1905SOL    HW117177   0.729   0.156   4.241  0.5014  0.0593  0.8945
 1905SOL    HW217178   0.743   0.087   4.115  0.1944  1.2358 -1.1316
 1906SOL     OW17179   1.717   0.692   6.906  0.6178  0.1871 -0.2419
 1906SOL    HW117180   1.809   0.698   6.930  0.1878  2.9248  0.6410
 1906SOL    HW217181   1.684   0.756   6.969  0.0102 -0.2227 -0.1361
 1907SOL     OW17182   2.725   0.468   2.864 -0.2851  0.5988  0.4103
 1907SOL    HW117183   2.770   0.428   2.938  0.1069  1.1161  0.4517
 1907SOL    HW217184   2.637   0.488   2.896  0.3662  0.6996  2.0910
 1908SOL     OW17185   1.868   1.834   6.953  0.0001  0.3188 -0.2018
 1908SOL    HW117186   1.867   1.927   6.929  1.0835  0.5110  0.4910
 1908SOL    HW217187   1.776   1.813   6.968  0.5022 -1.5604  0.2153
 1909SOL     OW17188   3.452   2.090   9.671 -0.6493  0.4356  0.0083
 1909SOL    HW117189   3.438   2.138   9.753  2.5556  2.0727 -0.4081
 1909SOL    HW217190   3.390   2.138   9.617 -1.7895 -0.6315  0.3528
 1910SOL     OW17191   1.914   1.220   0.420  0.1802  0.1176 -0.1632
 1910SOL    HW117192   1.979   1.153   0.399 -0.1760 -0.2790 -0.0165
 1910SOL    HW217193   1.878   1.175   0.496  1.5149  0.1597  0.4987
 1911SOL     OW17194   1.854   4.205  14.623 -0.3971  0.0661 -0.2604
 1911SOL    HW117195   1.924   4.154  14.663 -0.4326  1.0666  1.0583
 1911SOL    HW217196   1.894   4.291  14.635 -1.8646  0.2559  3.2533
 1912SOL     OW17197   1.507   4.508   3.559  0.2315  0.5492 -0.2842
 1912SOL    HW117198   1.490   4.603   3.561  1.0645  0.6890  0.1652
 1912SOL    HW217199   1.572   4.500   3.628 -0.6851 -1.6736  0.3120
 1913SOL     OW17200   2.632   4.342   8.496 -0.3803 -0.0892 -0.2969
 1913SOL    HW117201   2.631   4.399   8.419  1.2132  1.0696  0.5460
 1913SOL    HW217202   2.545   4.306   8.478 -1.5767  1.7768  1.8983
 1914SOL     OW17203   2.163   4.185  13.983  0.0758  0.3715 -0.2041
 1914SOL    HW117204   2.112   4.130  13.924  2.7420  0.3819 -2.5007
 1914SOL    HW217205   2.149   4.157  14.074 -4.8059 -0.1138 -1.0826
 1915SOL     OW17206   3.526   2.427   8.071  0.3225  0.2412  0.9629
 1915SOL    HW117207   3.463   2.358   8.092  0.3164  0.5523  1.9362
 1915SOL    HW217208   3.480   2.498   8.115 -0.2298  1.4147 -1.5224
 1916SOL     OW17209   1.902   3.519   7.376 -1.0001  0.7514  0.0762
 1916SOL    HW117210   1.917   3.614   7.370 -1.4648  0.9595  2.0290
 1916SOL    HW217211   1.876   3.506   7.285 -0.1956  3.0526 -0.5034
 1917SOL     OW17212   2.324   1.702   6.173  0.6584  0.6094 -0.5142
 1917SOL    HW117213   2.342   1.796   6.176 -0.2733  0.7456  0.9925
 1917SOL    HW217214   2.232   1.696   6.200  0.6787  0.9739 -0.3651
 1918SOL     OW17215   4.432   4.497   4.920  0.0365  0.1399 -0.9332
 1918SOL    HW117216   4.417   4.402   4.926  0.3800  0.0851 -0.9705
 1918SOL    HW217217   4.401   4.506   4.830 -1.4022  0.0189 -0.4523
 1919SOL     OW17218   1.427   4.267   1.877  0.2929  0.3061  0.2074
 1919SOL    HW117219   1.520   4.256   1.895 -0.0583 -1.5255  0.8922
 1919SOL    HW217220   1.422   4.363   1.871  0.9515  0.2567 -1.1650
 1920SOL     OW17221   4.051   0.009   4.637 -0.5041 -0.6412 -0.5638
 1920SOL    HW117222   4.111   4.710   4.565  0.5760 -0.3554  0.2577
 1920SOL    HW217223   4.089   0.093   4.664 -2.3322  0.3013 -0.8799
 1921SOL     OW17224   3.887   3.161  13.381  0.4185  0.1732  0.3133
 1921SOL    HW117225   3.853   3.241  13.340  1.1957  0.0066 -0.6385
 1921SOL    HW217226   3.979   3.175  13.363  0.7835 -1.1845  1.1239
 1922SOL     OW17227   0.038   2.115   9.719  0.0997  0.5327  0.4307
 1922SOL    HW117228   0.121   2.077   9.746 -0.1278  0.9827  1.8010
 1922SOL    HW217229   4.718   2.139   9.803  0.2421  1.0036  0.3634
 1923SOL     OW17230   1.791   3.889   1.956  1.0358 -0.2448 -0.2421
 1923SOL    HW117231   1.826   3.868   1.869 -1.5840  0.2465 -1.4074
 1923SOL    HW217232   1.703   3.852   1.955  0.7176  0.5159  0.1381
 1924SOL     OW17233   3.547   2.746  14.751 -0.7161  0.5931  0.1408
 1924SOL    HW117234   3.615   2.703  14.804 -0.7501  2.9894  2.1247
 1924SOL    HW217235   3.474   2.747  14.812 -1.6674 -0.8237 -0.9808
 1925SOL     OW17236   0.789   0.554   6.537 -0.4499 -0.1041 -0.5567
 1925SOL    HW117237   0.827   0.492   6.599 -2.1769  1.4786  2.0803
 1925SOL    HW217238   0.796   0.640   6.579  0.8400  0.1945 -1.3633
 1926SOL     OW17239   2.516   4.079   4.374  0.1724 -0.1295 -0.4466
 1926SOL    HW117240   2.529   3.991   4.339  2.3897 -0.6735  1.7308
 1926SOL    HW217241   2.577   4.082   4.448 -0.5437  1.2375  0.0965
 1927SOL     OW17242   4.487   3.952   5.045  0.5925 -0.3042 -0.4278
 1927SOL    HW117243   4.537   3.931   5.124  0.9777  0.9216 -0.3404
 1927SOL    HW217244   4.563   3.944   4.987 -1.8910  2.9296 -4.1126
 1928SOL     OW17245   1.651   0.676   9.763  0.0948  0.2737  0.0382
 1928SOL    HW117246   1.627   0.759   9.806  0.3066  0.2004  0.2994
 1928SOL    HW217247   1.574   0.624   9.784  0.2479  0.3372  0.7647
 1929SOL     OW17248   2.896   4.218   2.813  0.1976  0.2211  0.5098
 1929SOL    HW117249   2.826   4.260   2.863  1.8383  1.2237  2.0050
 1929SOL    HW217250   2.931   4.282   2.751  1.3420 -0.7412  0.1586
 1930SOL     OW17251   3.850   1.100   4.926 -0.4758 -0.6035  0.0394
 1930SOL    HW117252   3.773   1.058   4.963  0.8529 -0.4566  3.0256
 1930SOL    HW217253   3.885   1.140   5.006  1.8450  1.8936 -2.2650
 1931SOL     OW17254   1.096   2.232   6.966  0.1889 -0.0469  0.3749
 1931SOL    HW117255   1.042   2.180   7.027  1.1590 -0.1975  1.1011
 1931SOL    HW217256   1.054   2.316   6.983 -2.8248 -1.2099 -1.3062
 1932SOL     OW17257   4.357   1.345   2.376 -0.0229  0.1601  0.4322
 1932SOL    HW117258   4.335   1.266   2.327 -0.3383  0.1366  0.6117
 1932SOL    HW217259   4.274   1.391   2.361  0.2057  0.8618  1.3030
 1933SOL     OW17260   1.067   1.813   4.205 -0.8099  0.1933 -0.1395
 1933SOL    HW117261   1.119   1.869   4.147  0.1916 -0.3147  0.2705
 1933SOL    HW217262   1.124   1.825   4.281 -0.3951  0.3740 -0.4781
 1934SOL     OW17263   0.178   2.290   8.625  0.3802 -0.1557 -0.2181
 1934SOL    HW117264   0.103   2.232   8.621 -1.0929  1.5809  2.1425
 1934SOL    HW217265   0.200   2.314   8.535  2.1367 -1.5537 -0.1654
 1935SOL     OW17266   0.643   1.426   4.067 -0.1710  0.0526 -0.0718
 1935SOL    HW117267   0.706   1.370   4.022 -0.7618 -1.1740  0.6238
 1935SOL    HW217268   0.704   1.485   4.113 -0.9589  0.5045  0.3851
 1936SOL     OW17269   2.216   2.587   1.557  0.4449 -0.1119 -0.0397
 1936SOL    HW117270   2.181   2.584   1.467  1.6694 -0.1045 -0.5151
 1936SOL    HW217271   2.286   2.522   1.558  0.8742  0.3235 -1.3462
 1937SOL     OW17272   2.256   3.265   5.840  0.2322 -0.1641  0.1712
 1937SOL    HW117273   2.341   3.304   5.859 -0.6736  2.0510 -0.3346
 1937SOL    HW217274   2.264   3.180   5.883  3.1104 -1.3436 -2.7464
 1938SOL     OW17275   4.682   0.422   7.536  0.5788 -0.8760 -0.3458
 1938SOL    HW117276   4.609   0.382   7.491 -0.5466  0.5297  0.2222
 1938SOL    HW217277   4.652   0.513   7.537  1.5049 -0.5601 -2.6461
 1939SOL     OW17278   4.645   0.496   4.789 -0.1967  0.4947  0.0324
 1939SOL    HW117279   4.559   0.513   4.829 -0.6497  1.3794 -1.3141
 1939SOL    HW217280   4.697   0.488   4.869  1.7137 -0.6127 -1.3393
 1940SOL     OW17281   3.711   0.355   8.968  0.4530  0.5128  0.0218
 1940SOL    HW117282   3.637   0.414   8.982  0.1855  0.3422 -0.6934
 1940SOL    HW217283   3.674   0.279   9.011 -3.1083  1.2750 -1.7566
 1941SOL     OW17284   1.584   1.679   6.496 -0.1495  0.3610 -0.5707
 1941SOL    HW117285   1.646   1.731   6.546 -0.0344  0.6667 -1.0313
 1941SOL    HW217286   1.632   1.603   6.461 -1.0978 -0.4715 -0.0596
 1942SOL     OW17287   2.141   1.044   8.840  0.2538  0.2675 -0.2176
 1942SOL    HW117288   2.054   1.080   8.821 -0.2805 -1.0141 -0.2726
 1942SOL    HW217289   2.122   0.976   8.906  1.8503  0.6900  0.6705
 1943SOL     OW17290   4.655   1.761  17.023 -0.4293 -0.4409 -0.4899
 1943SOL    HW117291   4.621   1.672  17.011  0.9032 -0.8626 -1.2129
 1943SOL    HW217292   4.709   1.747  17.100 -0.1246  0.5890 -0.5197
 1944SOL     OW17293   2.283   3.010   5.599 -0.2798 -0.2684 -0.0860
 1944SOL    HW117294   2.244   2.931   5.636  0.3840  0.0995  1.4113
 1944SOL    HW217295   2.373   2.996   5.570 -1.4445 -0.5009 -3.5543
 1945SOL     OW17296   3.137   3.800   1.615 -0.4027 -0.2224 -0.0480
 1945SOL    HW117297   3.200   3.781   1.546 -2.2570 -2.3765 -1.1290
 1945SOL    HW217298   3.181   3.876   1.655  0.0899  0.2613 -1.5077
 1946SOL     OW17299   3.633   3.416   7.599  0.3648 -0.3349  0.4636
 1946SOL    HW117300   3.551   3.445   7.639 -0.0988  1.9344 -2.1031
 1946SOL    HW217301   3.634   3.322   7.617  0.6483 -0.3155  0.5579
 1947SOL     OW17302   2.643   4.034  14.129 -0.6071 -0.8883 -0.5287
 1947SOL    HW117303   2.718   4.018  14.071 -1.0355  1.0995 -1.6248
 1947SOL    HW217304   2.572   4.049  14.068 -0.7224 -1.8002 -0.6248
 1948SOL     OW17305   4.270   3.438  16.134 -0.0049 -0.3931 -0.1748
 1948SOL    HW117306   4.207   3.366  16.139 -2.1284  1.7026  3.3854
 1948SOL    HW217307   4.349   3.387  16.122  2.1900  2.7868  0.7903
 1949SOL     OW17308   4.249   1.063   4.390  0.0381 -0.3644  0.4681
 1949SOL    HW117309   4.236   1.084   4.483  0.2088  1.4159  0.0888
 1949SOL    HW217310   4.225   1.144   4.344 -1.2913 -0.0791  1.6437
 1950SOL     OW17311   1.735   3.579   0.917 -0.4839  0.2515  0.2123
 1950SOL    HW117312   1.823   3.616   0.919 -1.5641  2.9570 -2.5139
 1950SOL    HW217313   1.758   3.490   0.891  1.0189  0.5464  0.5403
 1951SOL     OW17314   0.913   0.651   7.094 -0.1952  0.2317  0.7248
 1951SOL    HW117315   0.960   0.714   7.149 -1.1455 -0.5363  2.4455
 1951SOL    HW217316   0.855   0.709   7.046 -1.7274 -0.4680  1.6981
 1952SOL     OW17317   0.350   4.023  11.711  0.3695 -0.0295 -0.5373
 1952SOL    HW117318   0.255   4.027  11.715  0.3330 -0.0042 -1.5180
 1952SOL    HW217319   0.371   3.935  11.744 -0.0312  0.2740  0.5438
 1953SOL     OW17320   3.181   4.531   4.265 -0.1153  0.3944 -0.0319
 1953SOL    HW117321   3.116   4.527   4.195  0.4954  0.5888 -0.6078
 1953SOL    HW217322   3.182   4.619   4.303 -2.0224 -0.7100  2.5647
 1954SOL     OW17323   3.808   1.474   8.095  0.0850  0.7257 -0.0761
 1954SOL    HW117324   3.726   1.494   8.140  0.4255  3.5358 -0.6865
 1954SOL    HW217325   3.835   1.565   8.082 -1.0522  1.1472  0.5666
 1955SOL     OW17326   2.372   0.728  13.111 -0.1826  0.5157  0.0183
 1955SOL    HW117327   2.406   0.788  13.045  1.1347  0.6286  0.8025
 1955SOL    HW217328   2.444   0.739  13.173 -0.1983  0.2876  0.0768
 1956SOL     OW17329   1.794   4.322   5.157  0.5976 -0.1167 -0.7182
 1956SOL    HW117330   1.875   4.286   5.120 -0.8982 -2.2182 -1.9529
 1956SOL    HW217331   1.813   4.326   5.251 -2.1248 -0.6962 -0.1373
 1957SOL     OW17332   0.669   0.076   8.972 -0.0545 -0.0172  0.2323
 1957SOL    HW117333   0.678   4.707   8.938 -3.5238 -0.8861  1.5470
 1957SOL    HW217334   0.581   0.065   9.009 -0.3060  3.2977  0.6268
 1958SOL     OW17335   4.645   4.377   1.445 -0.3048 -0.0001 -0.3166
 1958SOL    HW117336   4.674   4.332   1.366  1.1620  2.4944 -1.1733
 1958SOL    HW217337   4.685   4.464   1.448 -1.3069  0.4269  1.1125
 1959SOL     OW17338   4.617   0.462  13.143  0.0487  0.0660 -0.6855
 1959SOL    HW117339   4.612   0.380  13.192  0.3376  1.0737  1.0331
 1959SOL    HW217340   4.678   0.510  13.199 -1.4730  1.4183 -0.1627
 1960SOL     OW17341   3.296   4.388   3.605 -0.2207  0.0685  0.2836
 1960SOL    HW117342   3.368   4.425   3.554 -0.2273  0.8497  0.8478
 1960SOL    HW217343   3.239   4.347   3.540 -0.5187 -0.1118  0.6568
 1961SOL     OW17344   0.846   3.480   5.233 -0.0320 -0.3483  0.0190
 1961SOL    HW117345   0.806   3.434   5.306 -1.2490  0.6187 -0.0379
 1961SOL    HW217346   0.795   3.454   5.156  1.7074 -2.8534 -0.3079
 1962SOL     OW17347   0.293   4.653   7.402 -0.6825  0.2980  0.1931
 1962SOL    HW117348   0.280   4.612   7.487 -1.9068  0.8209  0.2545
 1962SOL    HW217349   0.225   4.604   7.356 -1.0868 -2.2921  3.6215
 1963SOL     OW17350   3.738   1.180  14.119 -0.1418  0.0304  0.2607
 1963SOL    HW117351   3.701   1.205  14.204  1.2546  2.0327  0.2987
 1963SOL    HW217352   3.767   1.091  14.138 -0.5417  0.0546  0.9939
 1964SOL     OW17353   3.612   0.927   5.666 -0.0308 -0.2361 -0.1626
 1964SOL    HW117354   3.639   0.839   5.692  1.2330  1.0298  2.7689
 1964SOL    HW217355   3.639   0.919   5.574 -1.2926  1.3972 -0.6747
 1965SOL     OW17356   3.534   4.474   5.269  0.0191 -0.0918  0.3431
 1965SOL    HW117357   3.607   4.516   5.315  0.5911 -1.9081  1.1280
 1965SOL    HW217358   3.465   4.540   5.270 -0.9381 -1.0850  0.5653
 1966SOL     OW17359   3.821   4.475   7.080  0.2074 -0.0677 -0.5461
 1966SOL    HW117360   3.831   4.553   7.134  0.6074  0.3812 -1.2558
 1966SOL    HW217361   3.739   4.449   7.122  0.0485 -1.1361 -1.4957
 1967SOL     OW17362   2.671   0.054  13.057 -0.2093  0.2642 -0.4398
 1967SOL    HW117363   2.643   0.012  12.976  1.4883  0.5470 -1.1700
 1967SOL    HW217364   2.586   0.065  13.101 -0.3667 -1.3662 -0.3566
 1968SOL     OW17365   0.214   3.014   8.598 -0.0833 -0.2911  0.7145
 1968SOL    HW117366   0.223   3.109   8.606  1.1761 -0.4693  1.2654
 1968SOL    HW217367   0.288   3.000   8.539  0.1374 -0.9595  1.1601
 1969SOL     OW17368   1.360   3.125   1.221 -0.3253  0.1512 -0.3077
 1969SOL    HW117369   1.305   3.151   1.147  0.5301  1.5979 -0.4286
 1969SOL    HW217370   1.294   3.090   1.281  0.6699 -0.3763  0.4880
 1970SOL     OW17371   3.670   4.199   4.313 -0.2276 -0.5209  0.2645
 1970SOL    HW117372   3.760   4.203   4.346 -0.0269 -1.0011 -0.2265
 1970SOL    HW217373   3.630   4.153   4.387 -0.4073  0.5523  0.8394
 1971SOL     OW17374   1.055   0.940  11.135 -0.3888  0.2669  0.1256
 1971SOL    HW117375   1.067   0.910  11.045 -1.6553  0.7659 -0.2126
 1971SOL    HW217376   1.146   0.967  11.150  0.4984 -2.4143 -0.3656
 1972SOL     OW17377   2.554   3.116   6.058  0.4708 -0.2098  0.2018
 1972SOL    HW117378   2.525   3.190   6.112  1.0677  0.0992  0.0977
 1972SOL    HW217379   2.470   3.073   6.041  0.5727  0.0761 -1.0072
 1973SOL     OW17380   0.055   2.024   3.584 -0.2136  0.1058 -0.3207
 1973SOL    HW117381   0.020   2.029   3.674  1.1774 -2.5382  0.3612
 1973SOL    HW217382   0.141   1.985   3.596 -0.5956  0.0052  2.1141
 1974SOL     OW17383   0.629   0.341   8.518  0.0773 -0.3693  0.2750
 1974SOL    HW117384   0.591   0.258   8.490  2.5772 -0.4244 -3.0243
 1974SOL    HW217385   0.629   0.383   8.431  3.2351  0.5059  0.6865
 1975SOL     OW17386   2.091   4.091  15.612  0.2025 -0.4751  0.1891
 1975SOL    HW117387   2.024   4.139  15.660  1.5934  0.0747  1.5860
 1975SOL    HW217388   2.146   4.047  15.677  1.0662  2.3596  1.3736
 1976SOL     OW17389   4.422   0.071   7.752  0.0489  0.1626 -0.5815
 1976SOL    HW117390   4.373   0.145   7.787  0.0050 -0.6891  1.1315
 1976SOL    HW217391   4.379   4.713   7.788  0.8139  1.0837  2.3415
 1977SOL     OW17392   3.881   1.042   2.842 -0.2576 -0.7400 -0.8475
 1977SOL    HW117393   3.858   0.985   2.769 -1.2236 -1.1897 -0.1908
 1977SOL    HW217394   3.809   1.106   2.843  1.1174  0.7702  2.0872
 1978SOL     OW17395   2.642   4.577  12.102 -0.2513 -0.3593  0.4019
 1978SOL    HW117396   2.664   4.608  12.190 -0.3527  3.0621 -0.7605
 1978SOL    HW217397   2.571   4.516  12.122 -0.6187 -0.6115 -1.5769
 1979SOL     OW17398   0.745   1.460   9.347 -0.1693  0.1068  0.0517
 1979SOL    HW117399   0.798   1.422   9.277 -2.2376 -2.6252 -0.0476
 1979SOL    HW217400   0.814   1.501   9.399  0.1140  0.2090 -0.4020
 1980SOL     OW17401   3.969   0.359  10.805 -1.1676  0.6248 -0.0056
 1980SOL    HW117402   3.999   0.365  10.895 -1.0147  1.6979 -0.1370
 1980SOL    HW217403   3.878   0.387  10.815 -1.1056  0.8787 -0.1602
 1981SOL     OW17404   0.411   0.950   8.082 -0.0845  0.7750 -0.5977
 1981SOL    HW117405   0.473   0.879   8.095  1.0440  2.0190  0.7601
 1981SOL    HW217406   0.454   1.008   8.144  0.6391  0.8922 -1.2088
 1982SOL     OW17407   1.776   1.972   6.130  0.2454  0.8183 -0.9767
 1982SOL    HW117408   1.837   2.047   6.131  0.9568  0.1686  2.3329
 1982SOL    HW217409   1.708   2.008   6.186 -1.2024  0.1878 -2.3144
 1983SOL     OW17410   1.945   2.585   0.643 -0.3789 -0.2696  0.2423
 1983SOL    HW117411   1.916   2.673   0.618  0.5503  0.2549  1.0247
 1983SOL    HW217412   1.871   2.562   0.699 -2.0014 -0.9335 -2.1647
 1984SOL     OW17413   4.569   3.809  17.471 -0.5290  0.0179 -0.3483
 1984SOL    HW117414   4.511   3.732  17.471  0.3596 -0.6524 -0.4267
 1984SOL    HW217415   4.652   3.764  17.456  0.1680  1.5825 -1.2230
 1985SOL     OW17416   3.822   4.262  12.060 -0.0687  0.8122 -0.0146
 1985SOL    HW117417   3.872   4.195  12.013 -1.3108 -0.2163  0.1264
 1985SOL    HW217418   3.859   4.256  12.148 -0.6692 -2.5453  0.0118
 1986SOL     OW17419   4.478   2.288   2.830 -0.5878  0.2176 -0.1784
 1986SOL    HW117420   4.539   2.354   2.862 -1.4639  2.0281 -2.2892
 1986SOL    HW217421   4.426   2.331   2.762 -2.9338 -0.4564  1.1804
 1987SOL     OW17422   0.798   2.418   3.212  0.0749  0.5824  0.0418
 1987SOL    HW117423   0.824   2.487   3.151 -1.1463  0.8217 -0.2156
 1987SOL    HW217424   0.761   2.468   3.286  0.5238 -0.3587  0.8945
 1988SOL     OW17425   1.377   3.485   7.480  0.0950 -0.2919 -0.5415
 1988SOL    HW117426   1.400   3.397   7.509  1.0812 -0.5501 -2.1063
 1988SOL    HW217427   1.301   3.468   7.423  0.7341 -0.7658 -1.2522
 1989SOL     OW17428   1.416   2.910   3.270 -0.3384  0.2267  0.1206
 1989SOL    HW117429   1.326   2.900   3.238 -0.1543 -1.0791  0.0094
 1989SOL    HW217430   1.450   2.904   3.181 -0.3359 -1.6914  0.2421
 1990SOL     OW17431   0.891   3.625   8.617 -0.4962  0.1063 -0.6961
 1990SOL    HW117432   0.948   3.587   8.684 -2.0434 -0.7535  0.1265
 1990SOL    HW217433   0.959   3.675   8.572  1.6275 -0.5662  1.7740
 1991SOL     OW17434   4.600   2.114   2.341  0.5516  0.2170 -0.0122
 1991SOL    HW117435   4.604   2.069   2.426  0.5239 -1.1940 -0.7681
 1991SOL    HW217436   4.630   2.051   2.276  0.3512  0.3862 -0.2657
 1992SOL     OW17437   0.111   2.839   7.114 -0.3941  0.1045  0.0139
 1992SOL    HW117438   0.093   2.833   7.208 -0.9028  0.6299 -0.0449
 1992SOL    HW217439   0.126   2.934   7.107 -0.2497  0.1939  1.4906
 1993SOL     OW17440   0.157   1.881  12.183  0.0737 -0.3161  0.2468
 1993SOL    HW117441   0.097   1.922  12.119  0.1707 -0.6250 -0.0425
 1993SOL    HW217442   0.131   1.928  12.262 -0.1473  0.5351 -0.3305
 1994SOL     OW17443   0.971   2.733   6.445 -0.1686  0.3590 -0.7992
 1994SOL    HW117444   1.045   2.689   6.402  0.6721  3.8900 -2.9871
 1994SOL    HW217445   0.985   2.825   6.423 -0.3673  0.5548 -0.0817
 1995SOL     OW17446   2.804   0.594   0.358  0.4281  0.2189  0.0573
 1995SOL    HW117447   2.751   0.540   0.416  0.1423  0.6956  0.2368
 1995SOL    HW217448   2.749   0.571   0.283  1.4735 -3.2044  0.3570
 1996SOL     OW17449   3.919   3.184   6.079  0.0374 -0.3716  0.0049
 1996SOL    HW117450   3.965   3.120   6.134  2.6772  1.1454 -0.4530
 1996SOL    HW217451   3.978   3.185   6.004 -0.5951 -0.6489 -0.4943
 1997SOL     OW17452   3.218   2.624   7.709 -0.6926  0.8450 -0.3850
 1997SOL    HW117453   3.238   2.564   7.780  1.1355 -0.1979 -1.7752
 1997SOL    HW217454   3.182   2.702   7.752  2.6419  1.5336  1.1696
 1998SOL     OW17455   3.375   4.131   5.986 -0.1353  0.4173 -0.1198
 1998SOL    HW117456   3.331   4.169   6.063 -0.2720 -0.1247  0.0725
 1998SOL    HW217457   3.324   4.168   5.915  0.9879 -0.1876 -1.2422
 1999SOL     OW17458   0.639   4.679  12.575  0.3474  0.3292  0.3068
 1999SOL    HW117459   0.660   0.032  12.516  4.0966 -1.6643 -0.8339
 1999SOL    HW217460   0.727   4.668  12.612  0.9912  0.9670 -1.0231
 2000SOL     OW17461   0.291   2.131   3.066  0.0449  0.3149 -0.3373
 2000SOL    HW117462   0.200   2.113   3.043  0.3082 -0.2546 -0.9034
 2000SOL    HW217463   0.304   2.073   3.141  0.1816 -0.0860 -0.6729
 2001SOL     OW17464   3.697   3.622   6.006  0.1384 -0.2424 -0.1216
 2001SOL    HW117465   3.742   3.686   5.951  1.3017  0.1289  1.2683
 2001SOL    HW217466   3.774   3.579   6.042 -1.0292 -0.9793  1.5256
 2002SOL     OW17467   1.834   1.949   9.620  0.2145  0.2306 -0.0173
 2002SOL    HW117468   1.887   1.945   9.699 -0.8489  0.4877  0.7057
 2002SOL    HW217469   1.836   1.864   9.577 -0.7072 -0.1227  0.6525
 2003SOL     OW17470   1.937   3.364   7.003  0.6278  0.4763  0.4193
 2003SOL    HW117471   1.974   3.277   6.988 -2.4904 -0.7253 -0.4005
 2003SOL    HW217472   2.000   3.428   6.969 -0.0267  0.9089  0.0105
 2004SOL     OW17473   3.599   4.175  17.553 -0.4628  0.0977 -0.6809
 2004SOL    HW117474   3.635   4.129  17.477 -1.7431  0.7257 -1.6638
 2004SOL    HW217475   3.558   4.101  17.599 -0.6711  1.7773  1.8051
 2005SOL     OW17476   2.572   2.750   3.868 -0.4087  0.7583  0.1194
 2005SOL    HW117477   2.599   2.836   3.900  2.8356 -0.6543  1.1465
 2005SOL    HW217478   2.637   2.741   3.799 -1.2111 -0.6627 -0.4417
 2006SOL     OW17479   4.063   2.415   3.790  0.1029 -0.0120  0.0619
 2006SOL    HW117480   4.062   2.328   3.829 -0.2624 -1.0067 -2.2008
 2006SOL    HW217481   4.014   2.455   3.862  0.5287  0.9406 -0.1676
 2007SOL     OW17482   4.711   4.071   5.944 -0.1809 -0.0947 -0.0163
 2007SOL    HW117483   0.063   4.119   5.985 -0.1562  0.2023 -0.4017
 2007SOL    HW217484   0.024   3.981   5.940 -0.9319 -0.2994 -1.6040
 2008SOL     OW17485   1.119   2.345   5.130  0.6618  0.2419  0.3274
 2008SOL    HW117486   1.147   2.259   5.098 -0.7457 -0.2500  0.4299
 2008SOL    HW217487   1.099   2.377   5.042 -0.4203 -1.4142 -0.0222
 2009SOL     OW17488   1.612   2.029   9.372  0.0570  0.1687  0.1104
 2009SOL    HW117489   1.678   2.054   9.308 -0.6497 -0.9117 -1.0318
 2009SOL    HW217490   1.565   2.112   9.376 -0.1412  0.0262  0.7637
 2010SOL     OW17491   4.299   3.358  14.527 -0.0714 -0.1529 -0.1080
 2010SOL    HW117492   4.286   3.264  14.534 -0.6655 -0.1407 -0.9651
 2010SOL    HW217493   4.304   3.368  14.432 -1.0124  0.2205 -0.1281
 2011SOL     OW17494   1.955   2.086  14.079 -0.0300 -0.2522  0.2336
 2011SOL    HW117495   1.860   2.077  14.078  0.0307 -0.8536 -0.2566
 2011SOL    HW217496   1.981   2.057  13.991 -0.9050  0.2990 -0.2055
 2012SOL     OW17497   0.721   1.858   6.934 -0.3583 -0.1611  0.4464
 2012SOL    HW117498   0.689   1.840   6.846 -0.9016 -1.6012  0.9367
 2012SOL    HW217499   0.745   1.774   6.972 -0.0966 -0.7706 -1.1037
 2013SOL     OW17500   0.231   4.200   6.028 -0.2625 -0.4036  0.5247
 2013SOL    HW117501   0.211   4.288   6.060 -1.5715 -0.3893 -0.3190
 2013SOL    HW217502   0.323   4.186   6.051 -0.1162 -1.6668 -0.8509
 2014SOL     OW17503   3.913   0.153  16.028 -0.2252  0.4724 -0.0840
 2014SOL    HW117504   3.856   0.229  16.021  0.7842  1.4563  2.5432
 2014SOL    HW217505   3.844   0.088  16.014  1.1133 -1.1036  0.5419
 2015SOL     OW17506   0.591   0.965   9.130 -0.1820 -0.1078 -0.2434
 2015SOL    HW117507   0.497   0.947   9.143  0.5708 -1.7205  3.0645
 2015SOL    HW217508   0.589   1.055   9.097  0.8426  0.3999  1.0732
 2016SOL     OW17509   0.295   4.549   7.659  0.7198  0.1723 -0.3870
 2016SOL    HW117510   0.226   4.492   7.692  1.6800 -0.5088  0.4542
 2016SOL    HW217511   0.378   4.512   7.691  2.9375  4.0771 -1.6759
 2017SOL     OW17512   0.181   4.111   6.298 -0.3847  0.1414  1.0317
 2017SOL    HW117513   0.091   4.087   6.320 -1.6593  2.2688 -1.7440
 2017SOL    HW217514   0.160   4.159   6.218  2.7841  1.4994  1.0134
 2018SOL     OW17515   2.607   4.247  11.337  0.3890 -0.4478 -0.5599
 2018SOL    HW117516   2.654   4.184  11.392 -0.9892 -0.6857  0.3377
 2018SOL    HW217517   2.520   4.209  11.329 -0.0678 -0.0728  2.7983
 2019SOL     OW17518   2.214   1.930  11.311 -0.3980 -0.4203  0.0815
 2019SOL    HW117519   2.270   1.953  11.385  0.3950  1.0319 -0.9799
 2019SOL    HW217520   2.170   1.856  11.353 -0.1394 -1.1042 -0.8443
 2020SOL     OW17521   2.308   0.265   4.924 -0.3792  0.0725 -0.1532
 2020SOL    HW117522   2.286   0.179   4.889 -0.9871  0.6443 -1.1859
 2020SOL    HW217523   2.333   0.316   4.847 -0.8802 -0.3900 -0.6225
 2021SOL     OW17524   0.033   2.629   5.218  0.7220  0.3224  0.1216
 2021SOL    HW117525   4.674   2.580   5.241  0.9789  0.0597  0.4413
 2021SOL    HW217526   0.054   2.676   5.299  1.1902  0.0666  0.1509
 2022SOL     OW17527   1.888   0.783  13.190  0.0042  0.0827 -0.1646
 2022SOL    HW117528   1.825   0.853  13.171 -1.2026 -0.4506  1.9258
 2022SOL    HW217529   1.858   0.714  13.132 -2.2799 -0.1378  1.2780
 2023SOL     OW17530   4.683   4.672   7.770  0.2816  0.2442 -0.5805
 2023SOL    HW117531   4.596   4.707   7.752  0.9993  3.2283  1.7008
 2023SOL    HW217532   0.009   4.707   7.695  1.9333 -2.3826 -0.7984
 2024SOL     OW17533   2.953   2.960   4.805  0.1170 -0.5313  0.4492
 2024SOL    HW117534   2.952   2.926   4.716  1.0845  0.3037  0.1157
 2024SOL    HW217535   2.996   3.045   4.796 -0.1635 -0.6359 -1.8651
 2025SOL     OW17536   2.572   1.414  12.566  0.3596  0.2632  0.1975
 2025SOL    HW117537   2.527   1.346  12.615  1.8007 -2.1904 -1.8452
 2025SOL    HW217538   2.591   1.475  12.637  2.6727 -0.1568 -0.0448
 2026SOL     OW17539   4.660   3.642   5.883 -0.2913 -0.3363 -0.1657
 2026SOL    HW117540   0.017   3.649   5.940 -0.0462  0.7100 -0.6267
 2026SOL    HW217541   4.605   3.577   5.927 -1.5090  0.0636 -1.1039
 2027SOL     OW17542   1.141   0.405  13.409 -0.1377  0.3305 -0.0895
 2027SOL    HW117543   1.207   0.336  13.406 -0.4910  0.0610 -1.6087
 2027SOL    HW217544   1.195   0.475  13.444  0.9363 -0.2002 -0.6858
 2028SOL     OW17545   4.040   3.275   4.691 -0.0999  0.4473  0.0171
 2028SOL    HW117546   3.982   3.290   4.766 -0.8740 -2.0105 -0.0990
 2028SOL    HW217547   4.029   3.360   4.648  0.0722  0.0728 -0.7619
 2029SOL     OW17548   3.436   0.866  10.902 -0.3513 -0.3998  0.3654
 2029SOL    HW117549   3.440   0.851  10.996  1.2153 -0.1312  0.3338
 2029SOL    HW217550   3.512   0.921  10.889  0.1957 -0.8412  1.6911
 2030SOL     OW17551   1.617   0.938   7.064  0.2806 -0.7182  0.1037
 2030SOL    HW117552   1.668   0.965   7.140  2.3670 -0.2083 -1.4675
 2030SOL    HW217553   1.546   0.892   7.110 -2.0098  0.0317 -2.6595
 2031SOL     OW17554   2.093   2.598  17.391 -0.2387 -0.2989 -0.2464
 2031SOL    HW117555   2.153   2.625  17.459  1.0744  0.5783 -1.7612
 2031SOL    HW217556   2.122   2.507  17.381  4.7316  1.2192  0.4413
 2032SOL     OW17557   1.407   1.888   6.472 -0.2564  0.1078 -0.0230
 2032SOL    HW117558   1.477   1.823   6.480  0.6385  0.7047 -2.9949
 2032SOL    HW217559   1.381   1.888   6.564  1.5530 -0.5201  0.4851
 2033SOL     OW17560   2.986   0.494   3.847 -0.0878  0.3823 -0.2196
 2033SOL    HW117561   3.051   0.494   3.776  0.8660  0.0124  0.6469
 2033SOL    HW217562   3.002   0.407   3.884 -2.4523  0.8881  1.9132
 2034SOL     OW17563   1.750   4.201   8.797 -0.4178 -0.4009  0.2626
 2034SOL    HW117564   1.690   4.135   8.763  1.3138 -3.0965  2.4555
 2034SOL    HW217565   1.682   4.264   8.821  0.2454  0.2511  0.4552
 2035SOL     OW17566   3.240   2.182   5.625 -0.3726 -0.3328  0.8369
 2035SOL    HW117567   3.157   2.181   5.672 -0.4479 -0.9505  0.6916
 2035SOL    HW217568   3.220   2.249   5.561 -0.2822 -0.6861  0.4417
 2036SOL     OW17569   2.120   3.378   2.001  0.2705  0.3633  0.1506
 2036SOL    HW117570   2.169   3.358   1.921 -0.3830 -1.3121  0.1559
 2036SOL    HW217571   2.192   3.419   2.048 -0.5670  0.5874  1.2347
 2037SOL     OW17572   2.986   1.259   5.457  0.0110 -0.3050  0.0647
 2037SOL    HW117573   3.075   1.294   5.460 -0.4469  1.0568 -1.7922
 2037SOL    HW217574   3.005   1.165   5.464  2.5601  0.0885 -1.3671
 2038SOL     OW17575   1.034   0.297   7.595  0.1387 -0.2724  0.5963
 2038SOL    HW117576   1.044   0.369   7.657 -1.3684 -0.0439  0.5593
 2038SOL    HW217577   1.076   0.226   7.644 -0.4119  0.9286  2.7818
 2039SOL     OW17578   4.054   2.551   5.592 -0.3939 -0.3719  0.3075
 2039SOL    HW117579   4.088   2.519   5.676 -2.2208 -0.0982  1.1511
 2039SOL    HW217580   3.991   2.480   5.578  0.4200 -1.1802  0.7524
 2040SOL     OW17581   4.126   2.177   3.907 -0.1750  0.2628 -0.0739
 2040SOL    HW117582   4.171   2.127   3.839 -0.8073  1.2679 -1.2449
 2040SOL    HW217583   4.162   2.143   3.989 -1.8764 -2.5808 -0.5111
 2041SOL     OW17584   4.534   4.095   0.209  0.7963 -0.2835 -0.2283
 2041SOL    HW117585   4.569   4.113   0.296  2.0642 -2.9371 -0.1757
 2041SOL    HW217586   4.485   4.171   0.178  1.0580  0.6214  1.6138
 2042SOL     OW17587   1.427   2.266   0.252 -0.2066 -0.0525 -1.0962
 2042SOL    HW117588   1.445   2.329   0.183 -0.7183 -0.3445 -1.4956
 2042SOL    HW217589   1.471   2.190   0.212 -0.8260  0.1168 -2.0963
 2043SOL     OW17590   3.910   4.148  10.309 -0.2864  0.1929 -0.4836
 2043SOL    HW117591   3.886   4.239  10.328  1.4688  0.8978 -1.6272
 2043SOL    HW217592   3.878   4.134  10.220 -1.3116  1.7893 -0.3700
 2044SOL     OW17593   3.054   3.116   1.614  0.1636  0.3310 -0.0186
 2044SOL    HW117594   3.067   3.059   1.690 -2.4549  0.3379  0.4290
 2044SOL    HW217595   3.018   3.193   1.659 -1.4555 -0.5662  0.2365
 2045SOL     OW17596   4.697   1.417   8.752 -0.1490 -0.0431  0.7172
 2045SOL    HW117597   4.709   1.330   8.789 -0.0690 -0.2925  0.0967
 2045SOL    HW217598   4.689   1.473   8.830  2.7471  0.0649  0.9337
 2046SOL     OW17599   3.843   2.964   4.426 -0.4389 -0.3487  0.0333
 2046SOL    HW117600   3.918   2.905   4.428 -1.2167 -1.2934  1.5550
 2046SOL    HW217601   3.855   2.998   4.338 -2.8133  1.8151  0.5273
 2047SOL     OW17602   3.699   3.922   1.625 -0.2229 -0.1315  0.1378
 2047SOL    HW117603   3.719   3.983   1.555 -0.4398  1.2250  1.2604
 2047SOL    HW217604   3.662   3.972   1.697 -2.3374 -0.1422 -0.9493
 2048SOL     OW17605   2.239   0.430   6.513 -0.1403 -0.1812  0.5496
 2048SOL    HW117606   2.208   0.346   6.479 -2.4803  1.1255 -0.5877
 2048SOL    HW217607   2.236   0.489   6.437 -3.1232  0.2361  0.9961
 2049SOL     OW17608   3.490   3.402  14.149  0.2221 -0.3772 -0.3335
 2049SOL    HW117609   3.505   3.486  14.192  0.7598 -0.0468 -1.1769
 2049SOL    HW217610   3.430   3.430  14.080  0.0166 -3.1610 -1.2929
 2050SOL     OW17611   2.781   1.681   3.065  0.0156  0.2722  0.3544
 2050SOL    HW117612   2.816   1.770   3.058  2.4540 -0.4388  3.0795
 2050SOL    HW217613   2.845   1.625   3.021 -1.8018  0.2574 -2.2224
 2051SOL     OW17614   0.764   3.943  16.290  0.2382 -0.0610  0.5673
 2051SOL    HW117615   0.711   3.898  16.225 -0.1471  1.1251  0.0504
 2051SOL    HW217616   0.775   3.867  16.347 -0.5243  1.0408  2.1894
 2052SOL     OW17617   1.812   3.605  14.189 -0.0833  0.2391 -0.3550
 2052SOL    HW117618   1.782   3.547  14.259  3.0216  0.0872  0.8230
 2052SOL    HW217619   1.860   3.543  14.134 -1.6663 -1.4851  0.1972
 2053SOL     OW17620   2.097   2.913   5.288 -0.3913 -0.0869  0.0282
 2053SOL    HW117621   2.041   2.885   5.360  1.8828 -0.5985  1.5800
 2053SOL    HW217622   2.168   2.960   5.331 -1.2037  0.1871  1.0619
 2054SOL     OW17623   4.169   2.475   7.542 -0.0073  0.2818 -0.8842
 2054SOL    HW117624   4.152   2.484   7.636  1.5834  2.2952 -0.7753
 2054SOL    HW217625   4.214   2.391   7.535 -1.9158 -0.6302 -2.4948
 2055SOL     OW17626   3.848   2.409   0.335  0.5133 -0.4455  0.7427
 2055SOL    HW117627   3.863   2.403   0.429  1.5769 -0.5245  0.5692
 2055SOL    HW217628   3.789   2.335   0.323 -0.7474  0.6162  0.4650
 2056SOL     OW17629   0.104   0.566   3.805  0.8455  0.3465  0.2236
 2056SOL    HW117630   0.146   0.486   3.836 -0.7095  0.3385  2.3616
 2056SOL    HW217631   0.027   0.527   3.764  0.8211  0.1999  0.4091
 2057SOL     OW17632   0.729   4.370  14.670 -0.1551 -0.8351 -0.6219
 2057SOL    HW117633   0.711   4.415  14.587  0.1786 -0.4831 -0.5011
 2057SOL    HW217634   0.785   4.298  14.641  1.0792 -0.8587  1.8128
 2058SOL     OW17635   2.865   3.692   3.005 -0.2359  0.2802  0.1533
 2058SOL    HW117636   2.813   3.772   3.014 -3.4572 -1.6673 -0.9467
 2058SOL    HW217637   2.844   3.645   3.086  2.8022  2.7485  2.3632
 2059SOL     OW17638   1.098   1.242   6.155 -0.3846  0.3751  0.1270
 2059SOL    HW117639   1.021   1.299   6.156 -0.2936  0.5133 -0.4131
 2059SOL    HW217640   1.173   1.301   6.161 -1.2994  1.7099 -1.5244
 2060SOL     OW17641   1.331   3.814  10.522  0.3597 -0.1869  0.3495
 2060SOL    HW117642   1.406   3.866  10.492  1.5709 -0.4984  2.8328
 2060SOL    HW217643   1.267   3.883  10.543 -1.3763 -1.1905 -1.5827
 2061SOL     OW17644   0.535   4.543   6.080 -0.1660  0.0532  0.0107
 2061SOL    HW117645   0.620   4.525   6.120 -0.8061 -2.3169  0.2590
 2061SOL    HW217646   0.492   4.458   6.080  1.2957 -0.6881 -0.4389
 2062SOL     OW17647   3.300   2.629  11.793  0.2188 -0.2032  0.9157
 2062SOL    HW117648   3.257   2.600  11.712 -1.1646 -1.8997  2.2660
 2062SOL    HW217649   3.376   2.676  11.759 -0.8219 -0.4642 -1.7945
 2063SOL     OW17650   3.052   4.502   9.909  0.3549  0.0977  0.5488
 2063SOL    HW117651   2.958   4.488   9.900  0.3598 -0.3604  1.1998
 2063SOL    HW217652   3.078   4.479   9.999  0.6859 -1.2377  0.1025
 2064SOL     OW17653   2.103   4.108   5.743  0.3601  0.7607  0.3002
 2064SOL    HW117654   2.149   4.045   5.799 -2.0139  1.0258  2.5469
 2064SOL    HW217655   2.180   4.142   5.698  1.4648  0.4240  1.9081
 2065SOL     OW17656   4.594   4.280   4.573 -0.2622 -0.0113  0.1045
 2065SOL    HW117657   4.577   4.274   4.479 -0.0774 -0.0229  0.0711
 2065SOL    HW217658   4.656   4.207   4.581  0.8533  1.1593  2.0198
 2066SOL     OW17659   0.571   1.354   2.573  0.4688 -0.4310 -0.5078
 2066SOL    HW117660   0.602   1.321   2.657 -1.8544 -0.8629  0.1847
 2066SOL    HW217661   0.538   1.277   2.527 -0.4102 -0.5729  0.3607
 2067SOL     OW17662   0.141   3.461  16.311  0.0063 -0.2333 -0.1570
 2067SOL    HW117663   0.222   3.499  16.279  1.6575 -3.4090  0.2242
 2067SOL    HW217664   0.149   3.472  16.406 -0.1017 -0.8895 -0.0657
 2068SOL     OW17665   2.550   1.587   5.880  0.0348 -0.3746 -0.7645
 2068SOL    HW117666   2.642   1.563   5.893 -0.0373 -1.5384 -2.3840
 2068SOL    HW217667   2.538   1.590   5.785  1.8391 -1.2024 -1.0371
 2069SOL     OW17668   2.314   4.435   4.038 -0.3156 -0.5360  0.2574
 2069SOL    HW117669   2.353   4.521   4.023 -0.4740 -0.5633 -0.3144
 2069SOL    HW217670   2.324   4.436   4.133  0.3071 -0.7841  0.1938
 2070SOL     OW17671   1.188   0.159   5.815  0.1062  0.1034 -0.3763
 2070SOL    HW117672   1.246   0.123   5.748  1.3088 -0.4013  0.9355
 2070SOL    HW217673   1.112   0.160   5.757 -0.8593 -0.3888  0.8869
 2071SOL     OW17674   0.369   2.889   4.727 -0.0691 -0.6339 -0.3628
 2071SOL    HW117675   0.385   2.976   4.689  4.7330 -0.7304  1.4745
 2071SOL    HW217676   0.442   2.844   4.685 -1.2873 -3.0824  0.1370
 2072SOL     OW17677   4.481   2.045   5.160 -0.3782  0.2822  0.0646
 2072SOL    HW117678   4.461   1.967   5.212  1.3782 -2.0516 -2.7849
 2072SOL    HW217679   4.574   2.031   5.139 -0.6678 -0.3430 -0.7947
 2073SOL     OW17680   2.499   3.850   2.594  0.4281  0.7338 -0.3531
 2073SOL    HW117681   2.465   3.787   2.658 -1.7563  0.7211 -1.5348
 2073SOL    HW217682   2.427   3.863   2.533 -0.1381 -0.5759  0.0359
 2074SOL     OW17683   1.493   3.382   4.833  0.1653 -0.3778 -0.2619
 2074SOL    HW117684   1.449   3.352   4.913 -2.0183  0.3704 -1.1814
 2074SOL    HW217685   1.586   3.361   4.840  0.0320 -0.2473  2.0598
 2075SOL     OW17686   1.987   3.060  10.001  0.2778 -0.1867 -0.1420
 2075SOL    HW117687   1.969   3.154  10.008 -0.9779 -0.6430  2.8118
 2075SOL    HW217688   1.922   3.030   9.937 -0.6580  0.7971  0.3314
 2076SOL     OW17689   4.078   2.386  11.789  0.1396  0.0663  0.7026
 2076SOL    HW117690   4.004   2.442  11.762 -1.0757 -1.1931  1.4026
 2076SOL    HW217691   4.063   2.317  11.725  1.1017  0.5036  0.0108
 2077SOL     OW17692   3.956   3.125   5.221  0.3954 -0.2427 -0.3157
 2077SOL    HW117693   3.959   3.076   5.139  1.2420  0.7273 -0.8750
 2077SOL    HW217694   3.866   3.104   5.243 -0.1464  1.8853 -0.4722
 2078SOL     OW17695   0.609   2.078   7.423 -0.0878 -0.0407 -0.0830
 2078SOL    HW117696   0.614   1.992   7.382  1.6705  0.1575 -0.3102
 2078SOL    HW217697   0.699   2.084   7.456  0.4020  0.0285 -1.4417
 2079SOL     OW17698   1.155   2.427   8.954  0.1111  0.2350  0.0300
 2079SOL    HW117699   1.160   2.334   8.933 -1.7058  0.2164 -0.3168
 2079SOL    HW217700   1.070   2.427   8.998 -1.0005 -0.9881 -2.1055
 2080SOL     OW17701   3.714   1.079   7.158  0.2545 -0.4974  0.4660
 2080SOL    HW117702   3.808   1.084   7.175  0.2372  0.4984  0.2955
 2080SOL    HW217703   3.697   0.998   7.205  1.4142 -1.2226 -0.3765
 2081SOL     OW17704   1.030   2.664   3.024 -0.3075  0.2879  0.9735
 2081SOL    HW117705   1.043   2.578   2.986 -0.8741  0.5868  0.0914
 2081SOL    HW217706   1.105   2.713   2.990 -1.5961  1.0558 -0.7893
 2082SOL     OW17707   1.045   4.049  10.596 -0.2402 -0.2445  0.2104
 2082SOL    HW117708   1.000   4.119  10.643 -0.5995 -0.9009  0.8461
 2082SOL    HW217709   1.125   4.080  10.554  0.2736 -0.5235  0.9746
 2083SOL     OW17710   3.985   1.442   1.955  0.2217 -0.0277  0.4432
 2083SOL    HW117711   3.981   1.441   1.860 -0.9723  0.5063  0.4988
 2083SOL    HW217712   3.905   1.392   1.974 -0.0774  0.4318  0.3868
 2084SOL     OW17713   1.364   3.959   1.285  0.4711 -0.0373  0.0650
 2084SOL    HW117714   1.355   3.887   1.223 -2.0560 -0.5343  1.0113
 2084SOL    HW217715   1.318   3.927   1.362 -1.5731  0.9532 -0.7447
 2085SOL     OW17716   3.631   0.625   6.473  0.0985  0.0226  0.2135
 2085SOL    HW117717   3.629   0.717   6.447 -1.2432  0.0197  0.3016
 2085SOL    HW217718   3.648   0.570   6.397  0.8096  1.9020 -0.9802
 2086SOL     OW17719   1.832   0.694  12.396  0.0191 -0.2188  0.1257
 2086SOL    HW117720   1.791   0.660  12.476 -0.1707  2.0016  0.9870
 2086SOL    HW217721   1.796   0.783  12.394  3.8148  1.2387 -2.7076
 2087SOL     OW17722   3.802   4.060  13.089 -0.0815 -0.7128 -0.3851
 2087SOL    HW117723   3.836   4.005  13.018 -0.5664 -0.4210 -0.8415
 2087SOL    HW217724   3.876   4.055  13.150 -0.8736 -3.6178  0.3330
 2088SOL     OW17725   1.368   2.513  12.034  0.0537 -0.3233  0.0722
 2088SOL    HW117726   1.301   2.534  12.099 -0.2600 -1.1936  0.0362
 2088SOL    HW217727   1.437   2.477  12.089  0.0953 -0.9218 -0.3647
 2089SOL     OW17728   3.097   2.246   7.231 -0.5898  0.0119 -0.3550
 2089SOL    HW117729   3.122   2.161   7.196  1.1617 -0.8891  3.0492
 2089SOL    HW217730   3.151   2.246   7.310 -1.9324 -1.0833  0.5516
 2090SOL     OW17731   3.255   2.667   0.750  0.1479 -0.0186  0.6411
 2090SOL    HW117732   3.266   2.738   0.686 -1.2794 -0.3077  0.0558
 2090SOL    HW217733   3.290   2.709   0.828  0.7025  1.9163 -0.6238
 2091SOL     OW17734   1.106   2.166   8.887 -0.3453 -0.3111  0.3122
 2091SOL    HW117735   1.065   2.112   8.819 -0.9982 -0.1270  0.5528
 2091SOL    HW217736   1.123   2.095   8.948  0.5520 -0.1012  0.3088
 2092SOL     OW17737   3.240   0.231  11.014 -0.2740 -0.5290 -0.4145
 2092SOL    HW117738   3.246   0.289  11.090  0.2383 -1.0411 -0.0647
 2092SOL    HW217739   3.149   0.205  11.029  0.3646 -0.9559  2.6487
 2093SOL     OW17740   1.690   3.097   2.538  0.4393 -0.3478 -0.2885
 2093SOL    HW117741   1.778   3.133   2.523 -0.6833  2.5382 -0.0688
 2093SOL    HW217742   1.701   3.008   2.505 -0.4778 -0.9925  1.1566
 2094SOL     OW17743   1.598   2.579   0.337  0.8781  0.6680 -0.3032
 2094SOL    HW117744   1.634   2.647   0.280  1.6132 -0.3980 -1.1323
 2094SOL    HW217745   1.674   2.521   0.329  0.4264 -0.0511  0.5571
 2095SOL     OW17746   0.810   1.784   5.304 -0.4300  0.1005  0.0258
 2095SOL    HW117747   0.782   1.751   5.219 -0.6044 -1.1561  0.5739
 2095SOL    HW217748   0.848   1.871   5.289 -1.0846 -0.0732 -2.5512
 2096SOL     OW17749   4.692   3.668  13.467 -0.1521  0.3356  0.3149
 2096SOL    HW117750   0.058   3.692  13.503  0.5071 -0.3731 -0.7750
 2096SOL    HW217751   4.707   3.681  13.374  1.0330  1.6454  0.6915
 2097SOL     OW17752   2.023   3.624  11.780  0.0487 -0.0743  0.0288
 2097SOL    HW117753   2.054   3.542  11.742  1.4618 -0.1808  1.4410
 2097SOL    HW217754   1.941   3.634  11.732  0.9846  2.2120 -1.1088
 2098SOL     OW17755   0.011   3.770   7.042  0.1318  0.0720 -0.7722
 2098SOL    HW117756   0.107   3.770   7.042  0.1341  0.1600  0.1462
 2098SOL    HW217757   4.716   3.679   7.017  3.0024 -0.7562  0.5395
 2099SOL     OW17758   2.038   1.472   7.681 -0.3009  0.3213 -0.0594
 2099SOL    HW117759   2.104   1.457   7.749 -1.9402  2.5203  1.9661
 2099SOL    HW217760   2.091   1.493   7.604  1.4610 -1.2576  0.7107
 2100SOL     OW17761   0.867   1.555   3.727 -0.0543 -0.0957 -0.0465
 2100SOL    HW117762   0.856   1.466   3.761  0.0162 -0.7537 -1.7691
 2100SOL    HW217763   0.948   1.571   3.776 -0.8963  1.9744  0.6483
 2101SOL     OW17764   4.428   4.675   8.631  0.0314 -0.0297  0.8764
 2101SOL    HW117765   4.496   4.697   8.567 -0.2240 -3.0153 -0.3961
 2101SOL    HW217766   4.474   4.604   8.675 -1.2868 -2.4082 -1.5702
 2102SOL     OW17767   0.754   2.963   3.946 -0.7816  0.3592  0.1756
 2102SOL    HW117768   0.732   3.054   3.967 -1.1581  0.4337 -0.5729
 2102SOL    HW217769   0.692   2.917   4.003 -2.0301  0.5665 -1.0337
 2103SOL     OW17770   1.020   1.918   3.227  0.1222  0.2268  0.1893
 2103SOL    HW117771   0.994   1.891   3.139 -0.5814  1.3204  0.0534
 2103SOL    HW217772   1.084   1.985   3.201 -0.8825  1.4843  0.9431
 2104SOL     OW17773   2.664   3.058  17.421  0.5073 -0.7454  0.7159
 2104SOL    HW117774   2.725   3.003  17.469  0.2290 -1.7319 -0.0800
 2104SOL    HW217775   2.727   3.096  17.360  0.4189 -1.0018  0.4689
 2105SOL     OW17776   4.402   4.693  15.514  0.2053 -0.2960 -0.1815
 2105SOL    HW117777   4.486   4.652  15.536  1.6992  2.7050 -0.3296
 2105SOL    HW217778   4.377   4.712  15.604  3.9126 -2.3789  1.2935
 2106SOL     OW17779   1.684   4.717   5.823  0.4595 -0.4403 -0.2985
 2106SOL    HW117780   1.761   4.664   5.803  1.6910  0.2765  2.6533
 2106SOL    HW217781   1.613   4.654   5.828  0.7496 -0.8764 -1.5830
 2107SOL     OW17782   2.768   2.942   7.297 -0.6716  0.3609  0.6927
 2107SOL    HW117783   2.805   3.023   7.263 -1.6780  0.2683 -0.6294
 2107SOL    HW217784   2.731   2.971   7.380 -1.5075 -1.5955  1.0090
 2108SOL     OW17785   3.775   0.454   5.470  0.5142  0.1025 -0.2003
 2108SOL    HW117786   3.743   0.536   5.434  0.5786  1.9509  3.9663
 2108SOL    HW217787   3.725   0.445   5.552 -0.0544  0.7650 -0.4749
 2109SOL     OW17788   1.600   1.319   0.614 -0.3801 -0.0871  0.2305
 2109SOL    HW117789   1.683   1.281   0.642 -0.9450 -1.0105  0.6482
 2109SOL    HW217790   1.629   1.387   0.554 -1.1827 -0.0221 -0.0848
 2110SOL     OW17791   4.393   0.631   4.862 -0.0114 -0.8836 -0.2926
 2110SOL    HW117792   4.333   0.665   4.796 -1.6711 -1.2665  1.0129
 2110SOL    HW217793   4.327   0.572   4.900 -2.3397  0.4982 -2.2553
 2111SOL     OW17794   0.207   1.140   6.677  0.0287 -0.2610 -0.0303
 2111SOL    HW117795   0.273   1.075   6.704 -0.1375 -0.1549  0.6270
 2111SOL    HW217796   0.218   1.152   6.583  2.4709  1.5285  0.4846
 2112SOL     OW17797   2.733   0.733   7.036  0.4359 -0.4987 -0.3412
 2112SOL    HW117798   2.647   0.751   7.076  0.5677 -2.1763  0.6813
 2112SOL    HW217799   2.746   0.638   7.041  0.3117 -0.4533  0.8941
 2113SOL     OW17800   4.399   0.584   7.212 -0.0929  0.2969  0.1209
 2113SOL    HW117801   4.436   0.544   7.133  2.9989  0.4972  1.5036
 2113SOL    HW217802   4.398   0.675   7.183 -0.7085  0.8366  1.8706
 2114SOL     OW17803   2.684   1.839   3.856  0.1821  0.9218  0.3358
 2114SOL    HW117804   2.672   1.876   3.943 -0.6500 -0.5413  0.8408
 2114SOL    HW217805   2.685   1.924   3.812  1.4203  1.1087  0.7354
 2115SOL     OW17806   2.796   1.090  13.294  0.1691 -0.0197 -0.3386
 2115SOL    HW117807   2.723   1.089  13.232 -0.5027 -0.3811  0.4504
 2115SOL    HW217808   2.846   1.012  13.272 -0.1424  0.0172 -1.1805
 2116SOL     OW17809   3.825   1.360   5.445  0.0504  0.0138  0.1436
 2116SOL    HW117810   3.897   1.301   5.465  0.1686 -0.0717 -0.5372
 2116SOL    HW217811   3.770   1.301   5.393  0.7561  0.3077 -0.9400
 2117SOL     OW17812   1.101   1.266   1.129  0.0376  0.0597 -0.0604
 2117SOL    HW117813   1.081   1.285   1.037  0.5577  1.6417  0.1681
 2117SOL    HW217814   1.154   1.344   1.144  1.4877 -0.7741 -0.9083
 2118SOL     OW17815   3.313   2.249   3.546  0.7568  0.0048 -0.3916
 2118SOL    HW117816   3.370   2.325   3.556 -2.4229  2.1881  0.9935
 2118SOL    HW217817   3.351   2.209   3.468 -0.0480 -0.2372 -0.6551
 2119SOL     OW17818   2.867   2.657   5.587  0.3217  0.5138 -0.2879
 2119SOL    HW117819   2.912   2.653   5.672 -0.4788  0.8156  0.1482
 2119SOL    HW217820   2.900   2.587   5.531  0.9985 -0.1300  0.9212
 2120SOL     OW17821   1.057   2.774   4.461 -0.0389  0.2786 -0.2216
 2120SOL    HW117822   1.120   2.830   4.415  1.0732 -0.4443  0.4307
 2120SOL    HW217823   1.010   2.728   4.392 -0.8107  0.7267  0.0055
 2121SOL     OW17824   3.532   3.626   4.099  0.0144 -0.2549  0.1748
 2121SOL    HW117825   3.498   3.554   4.047 -0.1065  0.8370 -1.2771
 2121SOL    HW217826   3.456   3.684   4.087  0.2212 -0.1789 -0.7526
 2122SOL     OW17827   0.997   3.670   4.502  0.3350 -0.3168 -0.2072
 2122SOL    HW117828   1.060   3.741   4.511 -0.3267  0.2275  0.1419
 2122SOL    HW217829   0.912   3.713   4.518  0.6791  0.8970 -1.6581
 2123SOL     OW17830   2.647   2.741  10.175  0.4174 -0.2825 -0.0081
 2123SOL    HW117831   2.636   2.664  10.231  1.5944 -0.1199  0.4467
 2123SOL    HW217832   2.557   2.759  10.149  0.4548 -1.0394 -0.6534
 2124SOL     OW17833   1.535   1.007  16.197  0.4429  0.1146 -0.1030
 2124SOL    HW117834   1.467   1.074  16.201  0.3673  0.1519 -1.9293
 2124SOL    HW217835   1.574   1.019  16.110  0.9228 -1.2527 -0.0809
 2125SOL     OW17836   4.340   2.824  16.299  0.3157  0.1441  0.0657
 2125SOL    HW117837   4.378   2.858  16.218  0.3837  2.8248  1.2031
 2125SOL    HW217838   4.325   2.905  16.348 -0.8636 -0.9676  1.5414
 2126SOL     OW17839   3.382   1.369  14.441 -0.2703 -0.5098 -0.1629
 2126SOL    HW117840   3.321   1.420  14.387 -1.4454 -2.2845 -0.5207
 2126SOL    HW217841   3.417   1.317  14.369  2.8458  2.4872 -0.7628
 2127SOL     OW17842   2.106   4.329  14.578 -0.0659 -0.1222  0.0263
 2127SOL    HW117843   2.150   4.251  14.543 -1.1037  0.1700 -1.9754
 2127SOL    HW217844   2.093   4.397  14.512 -1.7705 -1.5739 -1.1410
 2128SOL     OW17845   2.292   0.354   8.942  0.4755  0.2817  0.2958
 2128SOL    HW117846   2.251   0.424   8.992 -1.8777  0.1036 -1.3496
 2128SOL    HW217847   2.342   0.298   9.002  0.4106 -0.3781 -0.2619
 2129SOL     OW17848   1.083   4.281  10.836 -0.0569  0.4539  0.6977
 2129SOL    HW117849   1.173   4.257  10.815 -1.1006 -0.9531 -2.1284
 2129SOL    HW217850   1.068   4.369  10.801 -0.3513 -0.8498 -2.4682
 2130SOL     OW17851   4.354   0.120   9.075 -0.4951 -0.2326  0.0933
 2130SOL    HW117852   4.355   0.031   9.109  0.7690 -1.1343 -2.2658
 2130SOL    HW217853   4.283   0.116   9.010  2.1635  3.5459 -3.0881
 2131SOL     OW17854   1.012   2.200   3.626 -0.0089 -0.2038  0.1641
 2131SOL    HW117855   1.089   2.155   3.591  1.5448  2.2558  0.3903
 2131SOL    HW217856   0.950   2.196   3.554  1.7774 -0.3591 -1.3618
 2132SOL     OW17857   3.158   4.110   2.857 -0.2528  0.1464 -0.4353
 2132SOL    HW117858   3.064   4.118   2.842 -0.6832 -1.3046  1.3501
 2132SOL    HW217859   3.175   4.016   2.853  0.0849  0.3377 -3.0840
 2133SOL     OW17860   3.285   0.443   5.446  0.0998 -0.4915 -0.3129
 2133SOL    HW117861   3.288   0.519   5.504 -0.2220 -1.7112  1.2917
 2133SOL    HW217862   3.208   0.403   5.486 -0.3396  0.6169 -0.0594
 2134SOL     OW17863   4.716   0.852   3.680  0.2057  0.4845  0.3154
 2134SOL    HW117864   4.640   0.797   3.661  0.9521  0.2997 -2.0891
 2134SOL    HW217865   0.053   0.836   3.605 -0.2418 -1.4687  0.3982
 2135SOL     OW17866   2.518   4.635   4.050 -0.2874  0.0023  0.4262
 2135SOL    HW117867   2.462   4.705   4.017  1.0255  1.6408  1.6511
 2135SOL    HW217868   2.604   4.673   4.068 -0.1758 -0.0705  0.0355
 2136SOL     OW17869   1.030   2.965  16.387 -0.3935 -0.0537 -0.3916
 2136SOL    HW117870   1.004   3.057  16.395 -1.6282 -0.5734  1.7417
 2136SOL    HW217871   1.100   2.965  16.322 -0.2939 -0.6549 -0.2784
 2137SOL     OW17872   1.793   0.207   8.426 -0.5251 -0.5899 -0.4323
 2137SOL    HW117873   1.801   0.266   8.351  1.5861 -1.0655 -0.5850
 2137SOL    HW217874   1.815   0.123   8.387  0.3474 -0.9405  0.8098
 2138SOL     OW17875   1.769   1.132   4.454  0.0616 -0.0440 -0.2218
 2138SOL    HW117876   1.745   1.040   4.464 -0.0745 -0.1672 -1.6231
 2138SOL    HW217877   1.779   1.175   4.539  2.0234 -1.6086  0.3173
 2139SOL     OW17878   4.640   1.801  12.987 -0.1881 -0.1687  0.1313
 2139SOL    HW117879   0.002   1.806  12.938 -0.3399 -1.2382 -0.2275
 2139SOL    HW217880   4.645   1.874  13.049  2.5546  2.1677 -2.8601
 2140SOL     OW17881   4.641   1.785   3.136  0.2060  0.4077  0.1764
 2140SOL    HW117882   4.626   1.879   3.132 -0.0452  0.3859  0.6356
 2140SOL    HW217883   4.553   1.751   3.122  0.0396  0.6081  0.7405
 2141SOL     OW17884   3.180   4.646  13.591 -0.4259  0.1899 -0.0060
 2141SOL    HW117885   3.099   4.614  13.630  0.2670 -1.2580  0.2238
 2141SOL    HW217886   3.184   4.607  13.504  0.7012 -2.6699  1.3306
 2142SOL     OW17887   3.626   2.183   5.591  0.1366 -0.0255  0.1559
 2142SOL    HW117888   3.686   2.113   5.615  1.9010  1.4946  0.1495
 2142SOL    HW217889   3.588   2.212   5.674  1.7875 -1.0707  1.2778
 2143SOL     OW17890   3.804   2.997  17.618  0.2461  0.1216  0.2574
 2143SOL    HW117891   3.817   2.982   0.030 -2.7786 -2.3017  0.2798
 2143SOL    HW217892   3.716   3.034  17.616  1.5823  3.3100  0.8495
 2144SOL     OW17893   2.257   4.191  17.648 -0.5261  0.0808 -0.6749
 2144SOL    HW117894   2.331   4.138  17.678 -0.8668  0.7403  1.3257
 2144SOL    HW217895   2.295   4.237  17.573 -1.4008 -0.1836 -1.2752
 2145SOL     OW17896   0.052   3.518  14.012 -0.1400 -1.0789  0.4548
 2145SOL    HW117897   4.717   3.591  13.985  2.9919  0.3029 -2.1061
 2145SOL    HW217898   0.087   3.545  14.097 -2.8125  2.3891  0.4358
 2146SOL     OW17899   2.585   1.832   9.956 -0.8280 -0.3279  0.0928
 2146SOL    HW117900   2.673   1.845   9.920 -0.8397  1.0152  0.5372
 2146SOL    HW217901   2.545   1.887   9.888  0.0225  2.0429  1.5173
 2147SOL     OW17902   2.314   3.478   4.398  0.5033  0.5631 -0.4383
 2147SOL    HW117903   2.283   3.565   4.373  0.6545  0.5005 -0.8503
 2147SOL    HW217904   2.315   3.428   4.317  2.0922  0.3783 -0.3046
 2148SOL     OW17905   1.520   2.531  11.189 -0.1450 -0.3101  0.1258
 2148SOL    HW117906   1.591   2.542  11.126  0.7813  0.9467  1.3990
 2148SOL    HW217907   1.533   2.612  11.239  0.1672  0.2421 -0.8598
 2149SOL     OW17908   3.166   1.392   3.364  0.1031 -0.2481 -0.0349
 2149SOL    HW117909   3.250   1.403   3.409  0.7949  1.6498 -1.7856
 2149SOL    HW217910   3.126   1.478   3.378  1.3618  0.0427  1.9252
 2150SOL     OW17911   4.279   3.699   7.793 -0.6043 -0.2346  0.7133
 2150SOL    HW117912   4.372   3.717   7.782 -0.7993  1.4790  1.7485
 2150SOL    HW217913   4.258   3.618   7.746 -0.2234 -0.9167  1.7169
 2151SOL     OW17914   0.266   2.753   5.952  0.1455  0.2613  0.2751
 2151SOL    HW117915   0.284   2.833   5.903 -0.8137  0.6458  0.5626
 2151SOL    HW217916   0.354   2.714   5.948  0.1024  0.3504 -1.5621
 2152SOL     OW17917   3.910   4.027  12.711  0.4843 -0.5486 -0.1127
 2152SOL    HW117918   3.820   4.019  12.680  0.4465  1.2364 -0.4254
 2152SOL    HW217919   3.915   3.967  12.785  0.8986 -0.2787  0.0817
 2153SOL     OW17920   3.409   1.073   9.744 -0.1601  0.2938  0.0315
 2153SOL    HW117921   3.494   1.061   9.787 -1.7017  0.7738  3.2446
 2153SOL    HW217922   3.362   1.135   9.800 -0.6257 -0.6747  0.7191
 2154SOL     OW17923   2.769   2.463   6.343  0.1983 -0.0212 -0.2301
 2154SOL    HW117924   2.762   2.536   6.281  0.2911 -0.2220 -0.4776
 2154SOL    HW217925   2.692   2.494   6.391  1.4838  3.5921 -0.4579
 2155SOL     OW17926   3.911   4.435  16.564 -0.0383 -0.2850  0.0237
 2155SOL    HW117927   3.940   4.352  16.601 -1.2716  0.0000  1.6435
 2155SOL    HW217928   3.937   4.427  16.473 -3.8620  3.3189 -1.3951
 2156SOL     OW17929   1.639   2.178   8.760  0.0533 -0.4946  0.1130
 2156SOL    HW117930   1.592   2.101   8.727  2.4487 -1.3678 -1.1961
 2156SOL    HW217931   1.616   2.238   8.689  0.8991 -0.0856  0.1881
 2157SOL     OW17932   2.571   2.639   6.389  0.4087 -0.2361  0.6413
 2157SOL    HW117933   2.493   2.693   6.377 -0.1080 -0.4045  3.2256
 2157SOL    HW217934   2.564   2.631   6.484 -2.0517 -1.4695  0.3514
 2158SOL     OW17935   3.780   0.896   9.731  0.3214 -0.0945  0.1616
 2158SOL    HW117936   3.838   0.903   9.655  0.2786 -0.8119  0.0597
 2158SOL    HW217937   3.721   0.825   9.704 -0.2753  0.3954  0.1763
 2159SOL     OW17938   4.709   1.131  13.916  1.1423  0.1544  0.3062
 2159SOL    HW117939   0.068   1.096  13.958  2.0692  2.1226  0.1926
 2159SOL    HW217940   4.638   1.082  13.958 -0.3826  0.8950 -1.4133
 2160SOL     OW17941   4.300   4.399   2.727 -0.0353  0.1436  0.1040
 2160SOL    HW117942   4.303   4.314   2.684  0.4533 -0.1470  0.7191
 2160SOL    HW217943   4.316   4.380   2.820 -0.2364  1.0196  0.3200
 2161SOL     OW17944   2.085   1.395   7.008  0.3130 -0.0019 -0.0757
 2161SOL    HW117945   2.145   1.465   7.034 -0.2130 -0.3932  2.1629
 2161SOL    HW217946   2.073   1.401   6.913 -0.4652  0.2703  0.0387
 2162SOL     OW17947   0.643   0.604  10.002 -0.5305  0.3405  0.0884
 2162SOL    HW117948   0.629   0.587  10.096 -0.9054  2.0152  0.3318
 2162SOL    HW217949   0.701   0.529   9.987  1.7750  1.9417  1.0303
 2163SOL     OW17950   1.358   3.534   7.140 -0.4729  0.4428 -0.1837
 2163SOL    HW117951   1.288   3.478   7.171  0.9510 -1.3099 -0.1269
 2163SOL    HW217952   1.321   3.573   7.061 -2.6998  0.2767  0.7728
 2164SOL     OW17953   1.367   2.593   9.360  0.2208 -0.1329  0.2818
 2164SOL    HW117954   1.411   2.546   9.431  0.7824 -0.9934 -0.6307
 2164SOL    HW217955   1.360   2.529   9.289 -1.3660 -1.8072  1.9490
 2165SOL     OW17956   0.420   2.870   6.174  0.0375  0.2976  0.7218
 2165SOL    HW117957   0.414   2.936   6.244 -0.4354  1.3423 -0.3048
 2165SOL    HW217958   0.414   2.923   6.095 -0.0465 -0.6332  0.1100
 2166SOL     OW17959   1.899   3.333   1.738  0.0391 -0.0998  0.5683
 2166SOL    HW117960   1.991   3.316   1.757 -0.0472 -1.6319 -0.3183
 2166SOL    HW217961   1.918   3.400   1.673 -1.2457  0.8449  1.1856
 2167SOL     OW17962   2.190   3.037   6.899  0.3265  0.2819 -0.4735
 2167SOL    HW117963   2.218   3.077   6.981 -2.2216 -1.3107  1.1604
 2167SOL    HW217964   2.131   2.973   6.939  3.1827 -1.4358  0.9302
 2168SOL     OW17965   2.000   3.940   6.757 -0.1637  0.3422 -0.3875
 2168SOL    HW117966   1.983   3.958   6.665 -1.9897  3.3094  0.5502
 2168SOL    HW217967   1.910   3.946   6.790 -1.0533 -1.0002 -2.5924
 2169SOL     OW17968   4.482   2.090  16.155 -0.0370 -0.6541 -0.2696
 2169SOL    HW117969   4.401   2.093  16.103 -1.1797  0.5325  1.5754
 2169SOL    HW217970   4.461   2.041  16.234 -0.0206 -0.6609 -0.2696
 2170SOL     OW17971   2.080   3.247   0.493  0.0589 -0.1957  0.1065
 2170SOL    HW117972   2.082   3.173   0.433  3.2201  0.1589 -0.1970
 2170SOL    HW217973   2.166   3.282   0.473 -0.6978 -0.2484 -3.2653
 2171SOL     OW17974   1.090   1.664   9.789  0.1007  0.5502 -0.3249
 2171SOL    HW117975   1.171   1.671   9.839 -1.8129 -0.5669  2.9748
 2171SOL    HW217976   1.034   1.613   9.849 -0.1224  1.4328  0.2225
 2172SOL     OW17977   1.065   4.030   3.161  0.0197 -0.5302  0.3347
 2172SOL    HW117978   1.030   4.094   3.098 -0.8502 -1.8378 -0.4949
 2172SOL    HW217979   1.057   3.950   3.110 -1.4595 -0.2773  0.1885
 2173SOL     OW17980   2.274   1.622   0.219  0.2534 -0.1819 -0.3920
 2173SOL    HW117981   2.274   1.684   0.291  2.2696 -1.4397  0.6925
 2173SOL    HW217982   2.366   1.633   0.196  0.1463  1.1555 -0.1488
 2174SOL     OW17983   2.875   2.868  17.477  0.6120  0.7600 -0.1108
 2174SOL    HW117984   2.953   2.869  17.420  1.9230 -0.4771  1.6772
 2174SOL    HW217985   2.908   2.860  17.566 -1.3588 -4.5303  0.1381
 2175SOL     OW17986   1.118   0.975   0.828 -0.6786  0.6460 -0.3551
 2175SOL    HW117987   1.106   0.967   0.923  0.0203  1.0877 -0.2318
 2175SOL    HW217988   1.176   1.049   0.814 -0.3735  0.4031 -0.3637
 2176SOL     OW17989   3.055   2.048   7.632 -0.7837 -0.8714  0.7585
 2176SOL    HW117990   3.103   1.988   7.576  1.0933  1.3889 -0.0709
 2176SOL    HW217991   3.089   2.028   7.720  1.7216 -2.3303 -0.5473
 2177SOL     OW17992   2.763   1.224   2.485  0.3525  0.2475  0.3243
 2177SOL    HW117993   2.760   1.132   2.513  1.3953  0.2319  0.3710
 2177SOL    HW217994   2.671   1.252   2.483 -0.2565 -1.6998  0.5653
 2178SOL     OW17995   4.426   4.217  17.554 -0.3762  0.3733  0.2730
 2178SOL    HW117996   4.350   4.168  17.523  0.5679 -0.3563 -0.8642
 2178SOL    HW217997   4.387   4.283  17.611 -1.5015 -2.1660  2.4733
 2179SOL     OW17998   4.172   1.017  14.743  0.2947  0.3821 -0.8748
 2179SOL    HW117999   4.142   0.990  14.830 -0.2152  0.1006 -1.1365
 2179SOL    HW218000   4.091   1.063  14.719  0.3823  0.4597 -1.0241
 2180SOL     OW18001   1.337   2.152   9.882 -0.4414 -0.3627  0.0279
 2180SOL    HW118002   1.334   2.247   9.872  0.1811 -0.2851  0.5418
 2180SOL    HW218003   1.418   2.123   9.838 -0.7025  0.1825 -0.8032
 2181SOL     OW18004   4.097   3.518   7.415 -0.7830  0.3081  0.0975
 2181SOL    HW118005   4.006   3.502   7.392 -1.4396  0.8183  2.3149
 2181SOL    HW218006   4.129   3.549   7.330 -1.0125 -0.7346 -0.3636
 2182SOL     OW18007   2.042   3.699  17.372 -0.0723 -0.1055  0.3040
 2182SOL    HW118008   1.993   3.622  17.343 -0.0367  0.1813 -0.5230
 2182SOL    HW218009   2.057   3.747  17.291  1.8219 -0.5406  0.3891
 2183SOL     OW18010   0.178   4.215   0.493 -0.2723 -0.3885  0.3656
 2183SOL    HW118011   0.171   4.120   0.479  0.2990 -0.2246 -1.0208
 2183SOL    HW218012   0.093   4.241   0.527  0.1974  0.5973  0.7854
 2184SOL     OW18013   2.858   3.539   2.752 -0.4527 -0.3137 -0.3083
 2184SOL    HW118014   2.909   3.586   2.818 -0.2883  1.4567 -1.6932
 2184SOL    HW218015   2.863   3.447   2.776  0.2099 -0.4496 -0.9732
 2185SOL     OW18016   2.066   3.839   4.611  0.0911 -0.6532 -0.4386
 2185SOL    HW118017   2.158   3.833   4.639 -0.2090  1.7178  1.0107
 2185SOL    HW218018   2.041   3.749   4.590 -4.3747 -0.0582  2.1853
 2186SOL     OW18019   3.137   0.384  11.808 -0.4729 -0.3525 -0.0653
 2186SOL    HW118020   3.062   0.349  11.857 -0.3506 -1.1717 -0.4579
 2186SOL    HW218021   3.193   0.416  11.878  0.3514 -0.3202 -0.7439
 2187SOL     OW18022   1.053   2.183  16.755 -0.8317  0.0708 -0.0686
 2187SOL    HW118023   1.107   2.182  16.676 -0.2769  1.7679  0.2950
 2187SOL    HW218024   1.111   2.230  16.815 -1.1963 -0.6743  0.8652
 2188SOL     OW18025   1.365   3.994  10.791 -0.3555 -0.5562  0.0434
 2188SOL    HW118026   1.345   4.021  10.880  0.7770 -1.7260  0.6495
 2188SOL    HW218027   1.314   4.059  10.743  0.0726 -0.9325 -0.9412
 2189SOL     OW18028   1.111   3.749  14.304  0.1380 -0.1249  0.2667
 2189SOL    HW118029   1.160   3.685  14.357 -1.6422  0.3114  2.4540
 2189SOL    HW218030   1.074   3.801  14.376 -1.9621 -0.1895 -0.7659
 2190SOL     OW18031   1.702   3.014   9.588 -0.1515  0.2028 -0.1552
 2190SOL    HW118032   1.702   2.918   9.595  1.5587  0.1764 -0.7129
 2190SOL    HW218033   1.726   3.047   9.675 -1.5953  0.8724 -0.0059
 2191SOL     OW18034   4.609   1.448   1.142 -0.2728  0.1521  0.1495
 2191SOL    HW118035   4.559   1.484   1.215  1.3450 -1.5069  2.0819
 2191SOL    HW218036   4.557   1.376   1.108 -1.1167  0.1394  1.4700
 2192SOL     OW18037   3.146   2.589   6.481 -0.2252  0.7754  0.0543
 2192SOL    HW118038   3.144   2.641   6.562  0.8119  1.2851 -0.2501
 2192SOL    HW218039   3.229   2.543   6.485 -1.2101 -1.3659 -3.9024
 2193SOL     OW18040   3.535   0.141   1.851 -0.2751  0.5763 -0.3971
 2193SOL    HW118041   3.453   0.111   1.810  0.1281 -0.9957 -0.0691
 2193SOL    HW218042   3.541   0.231   1.822 -2.2133  1.4245  1.8269
 2194SOL     OW18043   3.398   4.202   8.127 -0.2725 -0.0029  0.1131
 2194SOL    HW118044   3.437   4.289   8.124 -1.5165  0.5001 -1.8914
 2194SOL    HW218045   3.315   4.215   8.172 -1.4099  0.3915 -2.0832
 2195SOL     OW18046   3.264   0.627   2.642 -0.7703  0.6356 -0.3809
 2195SOL    HW118047   3.343   0.580   2.668 -0.8569  0.9071  0.3628
 2195SOL    HW218048   3.245   0.688   2.714  0.8037 -0.4573  0.9492
 2196SOL     OW18049   0.440   3.763  16.538 -0.1957  0.0979 -0.2894
 2196SOL    HW118050   0.439   3.842  16.592 -1.9576 -0.3449  0.3257
 2196SOL    HW218051   0.349   3.778  16.513 -0.5097  2.5447  2.3358
 2197SOL     OW18052   1.443   2.802   3.806  0.4277  0.4002 -0.8698
 2197SOL    HW118053   1.356   2.778   3.838  0.9099  0.3190  0.4008
 2197SOL    HW218054   1.441   2.897   3.801 -0.5417  0.3573 -1.1766
 2198SOL     OW18055   4.425   1.348  11.464 -0.0633 -0.5599 -0.1574
 2198SOL    HW118056   4.361   1.293  11.420  1.5121 -1.5733 -1.1781
 2198SOL    HW218057   4.371   1.357  11.542  2.4153 -1.4311  1.6600
 2199SOL     OW18058   4.249   4.664   9.772 -0.3469 -0.4191 -0.3019
 2199SOL    HW118059   4.310   0.015   9.753  0.2020 -0.7951  0.0670
 2199SOL    HW218060   4.173   4.707   9.812 -0.5576 -1.5225  0.5195
 2200SOL     OW18061   3.792   2.632   6.817 -0.0424  0.6130 -0.1998
 2200SOL    HW118062   3.748   2.588   6.744 -1.5642 -1.8497  2.1929
 2200SOL    HW218063   3.787   2.718   6.774 -1.5664  0.7589  0.2710
 2201SOL     OW18064   1.046   1.509   2.650 -0.3194 -0.4333  0.1838
 2201SOL    HW118065   0.962   1.516   2.606 -0.6086 -0.4442  0.7334
 2201SOL    HW218066   1.016   1.477   2.735 -0.7660  2.1517  0.9782
 2202SOL     OW18067   3.416   4.422   6.837  0.1611 -0.4018  0.1906
 2202SOL    HW118068   3.505   4.426   6.872  0.3463 -1.6166 -0.1564
 2202SOL    HW218069   3.402   4.328   6.849  1.2007 -0.5949 -0.0962
 2203SOL     OW18070   3.701   3.426   5.343 -0.4578  0.0401  0.2001
 2203SOL    HW118071   3.735   3.337   5.344  1.9924  0.9556  0.2629
 2203SOL    HW218072   3.612   3.417   5.309 -0.6084 -0.6839  0.8094
 2204SOL     OW18073   2.243   3.962   8.798 -0.2896  0.1316 -0.2460
 2204SOL    HW118074   2.293   3.979   8.719  0.8605 -0.0835  0.4411
 2204SOL    HW218075   2.156   3.994   8.772 -1.3639 -1.1976  1.6687
 2205SOL     OW18076   4.213   1.013   1.804 -0.0302 -0.1958  0.2006
 2205SOL    HW118077   4.261   1.047   1.729  1.0439 -0.1371  0.9163
 2205SOL    HW218078   4.140   1.076   1.811  0.5257  0.6920 -1.9010
 2206SOL     OW18079   2.502   3.820   2.291 -0.5814  0.1053 -0.8723
 2206SOL    HW118080   2.584   3.870   2.293 -0.0301 -0.7044 -2.3942
 2206SOL    HW218081   2.508   3.754   2.360  0.7187 -1.2198 -2.2399
 2207SOL     OW18082   3.043   1.151   6.007  0.7817  0.0395 -0.1573
 2207SOL    HW118083   2.998   1.227   6.043 -1.0628 -1.2025  0.1082
 2207SOL    HW218084   3.022   1.091   6.078 -0.2781 -1.7021 -1.9453
 2208SOL     OW18085   4.587   2.634   6.191 -0.4255  0.3230  0.4858
 2208SOL    HW118086   4.590   2.717   6.239  0.0148  0.0070  1.0056
 2208SOL    HW218087   4.654   2.659   6.127 -0.2213  1.6757  1.2355
 2209SOL     OW18088   3.187   3.853   3.612 -0.1684  0.1832 -0.6633
 2209SOL    HW118089   3.181   3.917   3.541 -0.2715  0.9549  0.0482
 2209SOL    HW218090   3.281   3.836   3.618 -0.3418  0.1648  1.8797
 2210SOL     OW18091   1.562   3.437   2.918  0.0881  0.1426 -0.1746
 2210SOL    HW118092   1.541   3.430   2.825 -0.4423 -0.1431 -0.0382
 2210SOL    HW218093   1.543   3.529   2.936 -0.6014  0.0334 -0.3376
 2211SOL     OW18094   1.361   4.142   5.152  0.1810 -0.6463  0.2801
 2211SOL    HW118095   1.346   4.086   5.076  0.2176 -1.1187  0.6235
 2211SOL    HW218096   1.353   4.226   5.105  0.2035  0.2108  1.8133
 2212SOL     OW18097   0.772   3.941   8.199 -0.6013 -0.2250 -0.4983
 2212SOL    HW118098   0.698   3.901   8.153 -1.8542  0.8025  0.5862
 2212SOL    HW218099   0.726   3.984   8.272 -1.7117 -0.2652 -1.1759
 2213SOL     OW18100   3.452   0.689   4.672 -0.0512 -0.1371  0.4317
 2213SOL    HW118101   3.397   0.638   4.612  1.7532 -1.5552 -0.0067
 2213SOL    HW218102   3.539   0.654   4.656 -0.2786 -1.2122  1.5069
 2214SOL     OW18103   1.249   3.271  10.513  0.1806  0.3510 -0.3969
 2214SOL    HW118104   1.226   3.362  10.529 -2.2580  0.6035 -5.1442
 2214SOL    HW218105   1.318   3.255  10.577 -0.6129  0.3721  0.4561
 2215SOL     OW18106   0.434   1.725  17.554 -0.1451 -0.0345 -0.2322
 2215SOL    HW118107   0.510   1.759  17.601 -1.1402  0.9767  0.6536
 2215SOL    HW218108   0.387   1.692  17.631 -1.4525  0.0488 -0.9852
 2216SOL     OW18109   2.906   2.252   7.519 -0.3935 -0.0017 -0.1050
 2216SOL    HW118110   2.953   2.189   7.574 -2.9822 -0.3190  1.7319
 2216SOL    HW218111   2.951   2.335   7.534 -1.3750 -0.2470  4.0182
 2217SOL     OW18112   2.464   3.828  10.876 -0.1129  0.2486  0.1545
 2217SOL    HW118113   2.389   3.778  10.906  0.9494 -0.5803  1.4133
 2217SOL    HW218114   2.536   3.780  10.918  0.1822 -0.7332 -1.4518
 2218SOL     OW18115   0.456   4.295   3.436  0.0042  0.0638  0.6684
 2218SOL    HW118116   0.544   4.267   3.413  0.5565  1.7763  0.6777
 2218SOL    HW218117   0.435   4.373   3.384 -0.7745  0.0186  0.9127
 2219SOL     OW18118   2.626   0.598   8.431  0.1840  0.1884 -0.2486
 2219SOL    HW118119   2.531   0.592   8.440  0.1456  1.6428  0.3065
 2219SOL    HW218120   2.667   0.535   8.491  1.1837 -0.6928 -1.8436
 2220SOL     OW18121   1.058   3.837   6.872  0.2029  0.3518  0.5664
 2220SOL    HW118122   1.071   3.902   6.941  2.3774  1.0582 -0.5069
 2220SOL    HW218123   1.126   3.772   6.888 -0.6062 -0.5137  0.5033
 2221SOL     OW18124   3.782   2.888   5.439 -0.2530 -0.0691  0.3500
 2221SOL    HW118125   3.870   2.877   5.402 -0.7780 -1.0306 -0.6298
 2221SOL    HW218126   3.751   2.800   5.417 -1.8821  0.6400 -0.1500
 2222SOL     OW18127   2.312   3.456   4.085  0.2487 -0.0764  0.4409
 2222SOL    HW118128   2.396   3.487   4.119  0.4738  0.6461 -0.7681
 2222SOL    HW218129   2.296   3.378   4.139 -0.7685  1.1957  1.9803
 2223SOL     OW18130   2.304   1.391   7.844 -0.3139  0.3282  0.2054
 2223SOL    HW118131   2.240   1.321   7.828  0.4160 -0.6098  1.4143
 2223SOL    HW218132   2.376   1.338   7.877 -0.4747 -0.2718 -0.4214
 2224SOL     OW18133   4.685   1.330   3.891 -0.1434 -0.4154 -0.4346
 2224SOL    HW118134   4.702   1.415   3.851  1.1817 -0.2625  0.4644
 2224SOL    HW218135   4.705   1.266   3.823 -0.4838  1.3722 -2.2297
 2225SOL     OW18136   3.141   2.641  12.336 -0.4506  0.0008 -0.5318
 2225SOL    HW118137   3.198   2.643  12.413 -0.7403  0.7118 -0.3378
 2225SOL    HW218138   3.199   2.666  12.264 -3.0297  2.9846 -1.5429
 2226SOL     OW18139   2.700   4.014   2.362 -0.1954 -0.5086 -0.3583
 2226SOL    HW118140   2.776   3.967   2.396  1.2541  0.2807 -2.5577
 2226SOL    HW218141   2.672   4.067   2.437  1.7881  1.9363 -1.3765
 2227SOL     OW18142   3.981   0.096   8.069  0.1562  0.1574  0.2205
 2227SOL    HW118143   3.898   0.095   8.117  0.8342  0.1320  1.3848
 2227SOL    HW218144   4.039   0.044   8.124  3.5517  1.0976 -2.5126
 2228SOL     OW18145   0.417   4.250   6.392  0.3898 -0.3600  0.3129
 2228SOL    HW118146   0.482   4.197   6.346 -0.7182 -0.3055 -1.3362
 2228SOL    HW218147   0.345   4.189   6.403  0.4003 -0.2047  1.2892
 2229SOL     OW18148   2.200   1.784   7.965 -0.2692  0.5421  0.7250
 2229SOL    HW118149   2.198   1.878   7.944 -0.1399  0.2642 -0.5185
 2229SOL    HW218150   2.274   1.775   8.025 -0.9165  0.4949  1.5266
 2230SOL     OW18151   2.963   0.639   5.126  0.0403  0.2865  0.2414
 2230SOL    HW118152   2.914   0.645   5.044  2.5884 -1.5134 -1.4423
 2230SOL    HW218153   2.951   0.545   5.141 -1.2025  0.4545  0.3228
 2231SOL     OW18154   2.956   0.032  12.120 -0.9273  0.7232 -0.1442
 2231SOL    HW118155   2.897   0.005  12.049 -1.4080 -0.2489  0.6402
 2231SOL    HW218156   2.906   4.713  12.192  0.1929 -0.1869  0.1316
 2232SOL     OW18157   2.441   4.053   6.620 -0.2259  0.4592 -0.0507
 2232SOL    HW118158   2.504   4.062   6.549 -1.3409  0.8025 -0.9937
 2232SOL    HW218159   2.397   3.969   6.611 -0.4074  0.4983  0.4627
 2233SOL     OW18160   0.419   3.386  10.461  0.0240 -0.1408  0.1121
 2233SOL    HW118161   0.418   3.480  10.444 -2.1621 -0.3263 -0.7434
 2233SOL    HW218162   0.328   3.369  10.485  0.3754 -0.7479  1.0323
 2234SOL     OW18163   0.901   0.756   4.439  0.0744  0.1618  0.0789
 2234SOL    HW118164   0.814   0.739   4.475 -0.8257  0.3070 -2.0272
 2234SOL    HW218165   0.925   0.671   4.401 -0.1319 -0.6092  1.6573
 2235SOL     OW18166   4.127   0.534   4.958  0.3630 -0.2265 -0.3536
 2235SOL    HW118167   4.059   0.487   4.910 -1.6183 -0.3859  2.5907
 2235SOL    HW218168   4.079   0.541   5.041  0.7674  3.8752 -0.4376
 2236SOL     OW18169   2.002   3.888   0.182  0.2350 -0.4649 -0.5008
 2236SOL    HW118170   2.001   3.974   0.140 -1.7045 -0.4270 -0.4062
 2236SOL    HW218171   1.942   3.903   0.255 -1.2347 -1.2352 -1.5273
 2237SOL     OW18172   0.759   3.828  11.645  0.1016  0.0638 -0.1174
 2237SOL    HW118173   0.745   3.777  11.565  1.8892  0.6845 -0.8149
 2237SOL    HW218174   0.792   3.910  11.611  2.4419 -0.7048  0.3334
 2238SOL     OW18175   2.428   1.548   4.244 -0.4817  0.5393  0.2398
 2238SOL    HW118176   2.491   1.490   4.201  0.0487 -0.2254  2.0570
 2238SOL    HW218177   2.428   1.624   4.186  1.3467 -0.5824 -1.2293
 2239SOL     OW18178   3.848   4.610  16.851 -0.2658 -0.2363  0.5780
 2239SOL    HW118179   3.908   4.555  16.902  0.8220  0.6890  0.2961
 2239SOL    HW218180   3.762   4.591  16.889 -1.8523  1.0888 -2.4152
 2240SOL     OW18181   2.478   2.126  10.862  0.0457 -0.0928  0.1191
 2240SOL    HW118182   2.433   2.199  10.905  0.3164  0.8804 -1.2490
 2240SOL    HW218183   2.430   2.132  10.779  0.3070 -0.9764 -0.0894
 2241SOL     OW18184   3.756   1.847   8.405  0.2990 -0.3887 -0.3124
 2241SOL    HW118185   3.680   1.855   8.462  0.6061  2.3323 -0.2589
 2241SOL    HW218186   3.766   1.752   8.403 -1.4084 -0.5014 -2.8304
 2242SOL     OW18187   0.314   0.169  16.937  0.3153 -0.0222 -0.1278
 2242SOL    HW118188   0.247   0.110  16.901  1.0701 -0.0466 -1.4962
 2242SOL    HW218189   0.396   0.131  16.904 -0.4975  0.0798 -2.2738
 2243SOL     OW18190   0.391   1.177   5.425  0.5111  0.3456 -0.2667
 2243SOL    HW118191   0.356   1.234   5.358 -3.6492 -2.9913 -0.9092
 2243SOL    HW218192   0.457   1.128   5.376 -1.2388 -0.3665 -1.8850
 2244SOL     OW18193   2.004   2.788   6.926 -0.1724  0.2732  0.0089
 2244SOL    HW118194   1.924   2.837   6.911 -0.2814  0.6988  1.9807
 2244SOL    HW218195   1.974   2.705   6.891 -1.8042  0.4324  1.0658
 2245SOL     OW18196   0.694   3.434   8.450  0.3644  0.4562  0.0372
 2245SOL    HW118197   0.654   3.507   8.404  0.0750 -2.3017 -4.1005
 2245SOL    HW218198   0.694   3.467   8.540 -0.9795  0.0443  0.2000
 2246SOL     OW18199   0.024   1.841   9.089  0.5646  0.4229  0.2057
 2246SOL    HW118200   0.097   1.857   9.150  0.9478  1.3274 -0.4907
 2246SOL    HW218201   4.682   1.910   9.114 -0.2026 -0.7847  1.6311
 2247SOL     OW18202   4.169   2.414  16.583 -0.1290 -0.0953  0.1087
 2247SOL    HW118203   4.079   2.389  16.564 -0.4194  0.6532  0.4628
 2247SOL    HW218204   4.150   2.508  16.590 -0.2396 -0.1298  0.2879
 2248SOL     OW18205   2.580   0.042   6.085 -0.2587 -0.1967 -0.0200
 2248SOL    HW118206   2.532   4.690   6.125  0.8114  1.0951  3.5603
 2248SOL    HW218207   2.585   0.107   6.155 -1.2354  0.7356 -0.8245
 2249SOL     OW18208   1.389   4.027   6.768 -0.4032  0.0373  0.1544
 2249SOL    HW118209   1.381   3.978   6.686  2.2124  2.1483 -1.3601
 2249SOL    HW218210   1.371   4.110   6.723 -0.4220 -1.2099 -2.1226
 2250SOL     OW18211   4.403   2.207   1.894 -0.1466  0.0394  0.3678
 2250SOL    HW118212   4.385   2.139   1.959  1.9829 -0.7782  0.0738
 2250SOL    HW218213   4.316   2.227   1.858  0.2156  1.8093  0.4535
 2251SOL     OW18214   1.787   3.355   2.218  0.3635  0.0734 -0.2526
 2251SOL    HW118215   1.855   3.289   2.217 -0.8855 -1.2203  0.0479
 2251SOL    HW218216   1.824   3.438   2.250 -0.8175  0.9971 -1.2709
 2252SOL     OW18217   3.956   3.503  14.753  0.4155  0.2391 -0.0564
 2252SOL    HW118218   4.048   3.483  14.770  0.4175  0.9363  0.7366
 2252SOL    HW218219   3.974   3.548  14.670 -1.1351  0.2346 -0.3856
 2253SOL     OW18220   3.602   2.099  13.359 -0.2042 -0.4854  0.3591
 2253SOL    HW118221   3.679   2.124  13.411  1.3573  0.0307 -2.1920
 2253SOL    HW218222   3.550   2.177  13.340  0.5760  0.2019  1.0082
 2254SOL     OW18223   0.264   4.649   1.866  0.1218  0.0236 -0.8832
 2254SOL    HW118224   0.234   4.573   1.817 -0.0379 -0.3929 -0.1412
 2254SOL    HW218225   0.358   4.635   1.882  0.0292 -0.1347 -0.4960
 2255SOL     OW18226   0.365   4.545   1.446  0.3317  0.2900 -0.1194
 2255SOL    HW118227   0.456   4.566   1.422  0.7168 -0.4737  0.6637
 2255SOL    HW218228   0.324   4.611   1.390  0.9982 -1.3526 -2.5908
 2256SOL     OW18229   2.957   2.293  14.724 -0.7595 -0.2155 -0.1911
 2256SOL    HW118230   2.901   2.240  14.668 -1.3306  1.5814 -1.3058
 2256SOL    HW218231   3.043   2.285  14.683  0.8308  3.1426  2.4887
 2257SOL     OW18232   3.132   4.454  14.529 -0.1195 -0.2697 -0.7706
 2257SOL    HW118233   3.068   4.382  14.535 -0.9680  0.6289  0.7708
 2257SOL    HW218234   3.108   4.509  14.603 -0.9916 -0.1132 -1.1660
 2258SOL     OW18235   3.054   2.507   3.084  0.5880  0.0613  0.0495
 2258SOL    HW118236   3.033   2.546   2.999  1.3172 -0.6010 -0.4333
 2258SOL    HW218237   2.969   2.515   3.126  1.9850  2.1878  2.5078
 2259SOL     OW18238   1.628   1.518   3.446 -0.1579 -0.0296  0.2282
 2259SOL    HW118239   1.684   1.474   3.382 -0.0838  2.0211 -1.1128
 2259SOL    HW218240   1.691   1.580   3.482 -2.5830  1.7631  1.4035
 2260SOL     OW18241   2.665   2.557   6.056 -0.2199  0.5728 -0.8880
 2260SOL    HW118242   2.594   2.586   6.112 -0.3584  1.2494 -1.4237
 2260SOL    HW218243   2.616   2.543   5.975 -0.0223 -1.0676 -0.7251
 2261SOL     OW18244   0.413   0.452   7.773  0.2059  0.0705  0.0076
 2261SOL    HW118245   0.347   0.459   7.704 -1.1142  0.1652  1.2827
 2261SOL    HW218246   0.482   0.411   7.722 -0.1139 -2.2607  1.4801
 2262SOL     OW18247   3.736   0.264  11.046 -0.2395 -0.2001 -0.5175
 2262SOL    HW118248   3.757   0.238  11.135 -2.4762 -0.0953  0.0467
 2262SOL    HW218249   3.696   0.350  11.061  2.3328  1.0320 -0.6426
 2263SOL     OW18250   2.317   4.530   4.484 -0.1219  0.2837  0.0072
 2263SOL    HW118251   2.368   4.499   4.409  0.4003  2.5713 -0.5698
 2263SOL    HW218252   2.264   4.599   4.445  2.2676  2.0073 -0.1517
 2264SOL     OW18253   4.323   4.171  12.975  0.0040  0.1503 -0.0266
 2264SOL    HW118254   4.254   4.208  12.921 -1.7763 -2.6492  0.3098
 2264SOL    HW218255   4.281   4.091  13.008  3.3515 -1.7160 -0.2313
 2265SOL     OW18256   0.473   1.458  14.636  0.2820 -0.3909  0.0470
 2265SOL    HW118257   0.419   1.488  14.709  0.0414  0.1435 -0.3464
 2265SOL    HW218258   0.530   1.401  14.688  2.2124  2.3093  0.8924
 2266SOL     OW18259   1.485   0.128  14.917 -0.1773  0.8396 -0.2820
 2266SOL    HW118260   1.574   0.161  14.901  0.2126 -0.3017 -0.4651
 2266SOL    HW218261   1.471   0.081  14.835  2.3811  0.1058 -0.2985
 2267SOL     OW18262   2.429   2.182   4.359  0.1469  0.4021  0.3496
 2267SOL    HW118263   2.440   2.092   4.391 -0.9881  0.0733 -0.1595
 2267SOL    HW218264   2.516   2.220   4.355  1.0284 -1.6021  0.5662
 2268SOL     OW18265   3.677   1.053   1.755 -0.1852  0.1242  0.0996
 2268SOL    HW118266   3.618   1.083   1.824  0.8627 -2.5017  2.1331
 2268SOL    HW218267   3.636   1.048   1.669  0.6882  0.5877 -0.3439
 2269SOL     OW18268   2.500   0.822   6.259 -0.1016 -0.4029 -0.1949
 2269SOL    HW118269   2.482   0.909   6.225  0.8524  0.5849  1.7915
 2269SOL    HW218270   2.501   0.849   6.351 -2.8653 -3.3722  0.7223
 2270SOL     OW18271   0.724   1.423   7.317  0.0155 -0.4477  0.2232
 2270SOL    HW118272   0.719   1.333   7.351 -1.7037 -0.5704 -0.4012
 2270SOL    HW218273   0.645   1.455   7.359  1.3359  0.4379  2.0808
 2271SOL     OW18274   1.774   1.846   5.199 -0.1720  0.6042  0.4025
 2271SOL    HW118275   1.785   1.892   5.283  0.7517  0.8443  0.1480
 2271SOL    HW218276   1.770   1.910   5.128 -1.9367 -0.3583 -0.3618
 2272SOL     OW18277   1.739   0.035  15.124  0.0414 -0.3871 -1.0622
 2272SOL    HW118278   1.805   0.104  15.134 -1.2343  0.4542  1.3693
 2272SOL    HW218279   1.674   0.059  15.189  3.6440 -0.4099  2.5540
 2273SOL     OW18280   1.542   3.575   2.127  0.9085  0.1669  0.6999
 2273SOL    HW118281   1.593   3.597   2.205  0.2426  0.8334  0.9480
 2273SOL    HW218282   1.506   3.495   2.164  1.8739 -1.2520 -1.4093
 2274SOL     OW18283   3.802   4.472   8.012 -0.7083 -0.9320  0.5237
 2274SOL    HW118284   3.820   4.432   7.927 -0.1925 -1.1066  0.7150
 2274SOL    HW218285   3.763   4.554   7.983  0.4142 -1.3381 -2.1635
 2275SOL     OW18286   2.535   2.615   2.157 -0.1079  0.2393 -0.2877
 2275SOL    HW118287   2.604   2.590   2.095 -1.0061  1.3916 -1.7788
 2275SOL    HW218288   2.457   2.576   2.116  0.5889  0.1448 -1.5493
 2276SOL     OW18289   2.930   1.010  12.966  0.1154 -0.0931 -0.6431
 2276SOL    HW118290   2.998   1.069  12.996  0.8273 -1.1648 -0.1614
 2276SOL    HW218291   2.933   1.034  12.873 -1.3885 -1.7580 -1.1262
 2277SOL     OW18292   0.848   0.151   1.167  0.1635  0.4048  0.0675
 2277SOL    HW118293   0.805   0.224   1.123 -2.1768 -0.1512  1.4601
 2277SOL    HW218294   0.767   0.109   1.195 -0.1213 -1.1669 -3.0813
 2278SOL     OW18295   3.873   4.534  11.297  0.2075 -0.1321  0.3272
 2278SOL    HW118296   3.807   4.514  11.230  1.0450 -1.5782 -0.0492
 2278SOL    HW218297   3.940   4.581  11.248 -1.0374  1.2642 -0.0676
 2279SOL     OW18298   2.554   1.097  10.927  0.5690 -0.2030 -0.3518
 2279SOL    HW118299   2.552   1.150  11.007  3.3448 -0.0641 -0.3696
 2279SOL    HW218300   2.559   1.014  10.975 -1.6808 -0.5020 -0.6361
 2280SOL     OW18301   1.319   2.879  16.269  0.4455  0.2916 -0.3551
 2280SOL    HW118302   1.402   2.918  16.242  1.1456 -1.6983 -1.0628
 2280SOL    HW218303   1.296   2.810  16.207  1.6648 -0.3108 -0.1361
 2281SOL     OW18304   4.657   0.929  12.777  0.1264 -0.5521 -0.2793
 2281SOL    HW118305   4.693   1.017  12.768  0.8106 -0.7438  0.6061
 2281SOL    HW218306   0.014   0.872  12.780  0.3124 -0.3551 -1.3267
 2282SOL     OW18307   0.710   3.465   6.858  0.5837  0.0540 -0.2217
 2282SOL    HW118308   0.803   3.451   6.872  0.7612  0.8768 -0.5450
 2282SOL    HW218309   0.701   3.428   6.770 -0.4800  0.4891 -0.2980
 2283SOL     OW18310   3.574   3.901  13.100 -0.0211 -0.2965 -0.2601
 2283SOL    HW118311   3.616   3.837  13.043  0.2257  1.7237 -2.3561
 2283SOL    HW218312   3.641   3.951  13.148  1.5065 -2.8510  0.2672
 2284SOL     OW18313   2.108   0.423  16.996 -0.9916  0.3244 -0.2959
 2284SOL    HW118314   2.135   0.489  17.059 -1.4118 -1.4099  1.7188
 2284SOL    HW218315   2.134   0.343  17.042 -1.8909 -1.4841 -2.8995
 2285SOL     OW18316   3.375   3.172   7.367 -0.0673 -0.1145 -0.1207
 2285SOL    HW118317   3.470   3.180   7.362 -0.0700  0.4982  0.7842
 2285SOL    HW218318   3.356   3.140   7.455  1.2903 -0.9086 -0.1181
 2286SOL     OW18319   1.087   3.684   8.387  0.3350  0.2229 -0.2216
 2286SOL    HW118320   1.048   3.609   8.343 -1.0506  1.2513 -0.7628
 2286SOL    HW218321   1.099   3.740   8.310  2.7664  0.9283  0.6595
 2287SOL     OW18322   0.833   1.417   2.497 -0.1906  0.2471 -0.2997
 2287SOL    HW118323   0.847   1.323   2.489 -0.6918  0.0460  1.1942
 2287SOL    HW218324   0.739   1.416   2.517 -0.5262  1.7658 -1.7436
 2288SOL     OW18325   3.224   1.332   7.671 -0.1098 -0.5367 -0.0894
 2288SOL    HW118326   3.140   1.354   7.712  0.3270  0.3525  0.3249
 2288SOL    HW218327   3.257   1.420   7.657 -1.0342 -0.4566 -1.8052
 2289SOL     OW18328   0.844   0.612  10.517  0.1230 -0.1729 -0.1985
 2289SOL    HW118329   0.757   0.590  10.551  0.6729  0.7678  1.8149
 2289SOL    HW218330   0.912   0.579  10.577  0.6903  3.6105  1.2930
 2290SOL     OW18331   0.342   0.340   4.656  0.1907 -0.2700  0.4228
 2290SOL    HW118332   0.384   0.425   4.667 -0.1918 -0.3805  2.6614
 2290SOL    HW218333   0.342   0.296   4.742  0.2976 -1.2169 -0.0577
 2291SOL     OW18334   3.266   2.108   6.610 -0.1841 -0.3479  0.4992
 2291SOL    HW118335   3.190   2.151   6.648 -0.8637 -0.8886 -0.2588
 2291SOL    HW218336   3.326   2.096   6.684 -0.7923 -0.6742  0.9387
 2292SOL     OW18337   1.018   1.641  10.843 -0.2693 -0.2020 -0.0889
 2292SOL    HW118338   1.047   1.557  10.879  0.6115 -0.8936 -2.4071
 2292SOL    HW218339   0.980   1.669  10.926 -0.9778 -0.0166 -0.4678
 2293SOL     OW18340   3.105   2.734   0.415 -0.1070 -0.4598 -0.2391
 2293SOL    HW118341   3.017   2.759   0.444  0.9155  0.3584  2.1045
 2293SOL    HW218342   3.092   2.647   0.375 -0.2312 -0.4001 -0.3309
 2294SOL     OW18343   3.503   2.044   5.060 -0.0629  0.0138 -0.5960
 2294SOL    HW118344   3.443   2.109   5.023  0.6272  1.4682  0.8453
 2294SOL    HW218345   3.440   1.977   5.084  1.0504 -1.2849 -1.3136
 2295SOL     OW18346   0.391   1.696  14.352 -0.0438  0.2100 -0.3150
 2295SOL    HW118347   0.406   1.754  14.426  0.1810  1.0006 -0.9818
 2295SOL    HW218348   0.318   1.641  14.379  0.2629  1.0893  2.3309
 2296SOL     OW18349   0.818   0.340  11.452  0.0685 -0.7253 -0.0201
 2296SOL    HW118350   0.772   0.376  11.528 -1.2149  1.0128 -1.6282
 2296SOL    HW218351   0.753   0.357  11.383 -0.5642  0.5267  0.8821
 2297SOL     OW18352   1.569   3.534  14.525  0.2473 -0.0237  0.0760
 2297SOL    HW118353   1.565   3.625  14.496  3.3750  0.7536  2.0899
 2297SOL    HW218354   1.626   3.504  14.454  0.3884 -0.2109  0.2695
 2298SOL     OW18355   1.079   4.077   5.719  0.1464 -0.0613 -0.3170
 2298SOL    HW118356   1.056   4.066   5.626  0.2342  0.6897 -0.4281
 2298SOL    HW218357   1.041   4.163   5.738  3.3629  1.0448  1.0526
 2299SOL     OW18358   1.967   1.685  10.287 -0.1189  0.0989  0.1248
 2299SOL    HW118359   1.880   1.717  10.311 -0.6707 -1.3288  0.0714
 2299SOL    HW218360   2.013   1.695  10.370 -0.7674  0.2237  0.4668
 2300SOL     OW18361   2.258   2.489   6.090 -0.2019 -0.3793  0.2885
 2300SOL    HW118362   2.302   2.436   6.156  0.3004 -0.2161  0.0860
 2300SOL    HW218363   2.190   2.431   6.055  0.9925 -2.4165  1.3716
 2301SOL     OW18364   1.191   2.106   7.569 -0.0814 -0.0806  0.0618
 2301SOL    HW118365   1.121   2.072   7.624 -1.0650  1.8152  0.0052
 2301SOL    HW218366   1.262   2.045   7.588  1.2966  1.4289 -0.2748
 2302SOL     OW18367   3.578   0.399   6.316  0.0871 -0.4677 -0.0326
 2302SOL    HW118368   3.506   0.414   6.254  1.3707  2.2673 -0.8649
 2302SOL    HW218369   3.531   0.362   6.391  0.6295 -1.8582 -0.4005
 2303SOL     OW18370   2.042   3.034   1.456  0.0360 -0.1872 -0.2681
 2303SOL    HW118371   2.080   3.122   1.449 -0.1506 -0.3714 -3.2891
 2303SOL    HW218372   2.070   2.984   1.533  0.2232  2.3103  1.2802
 2304SOL     OW18373   0.468   3.082   9.555 -0.0513 -0.1269 -0.4022
 2304SOL    HW118374   0.562   3.093   9.569 -0.2094 -1.6733  1.9048
 2304SOL    HW218375   0.462   2.990   9.528 -0.6666 -0.8417  2.2086
 2305SOL     OW18376   1.366   4.581   6.911  0.7830 -0.1466 -0.2608
 2305SOL    HW118377   1.316   4.506   6.943 -0.0546 -0.3829 -2.1168
 2305SOL    HW218378   1.459   4.575   6.931  0.4917  0.2717  1.1773
 2306SOL     OW18379   3.669   3.096   5.296 -0.0804  0.1457  0.7001
 2306SOL    HW118380   3.575   3.099   5.314 -0.6390 -0.7705 -2.0698
 2306SOL    HW218381   3.706   3.043   5.367  1.4200  2.6735  1.8365
 2307SOL     OW18382   0.015   3.120  11.344  0.2068 -0.3708 -0.4695
 2307SOL    HW118383   0.018   3.062  11.268  0.9447 -1.2798  0.2543
 2307SOL    HW218384   4.715   3.202  11.299 -0.6470  0.0943  0.7595
 2308SOL     OW18385   0.368   2.617   2.373 -0.3724  0.5734 -0.1213
 2308SOL    HW118386   0.284   2.576   2.354  0.1187 -0.0960 -0.8298
 2308SOL    HW218387   0.375   2.577   2.460 -0.2356 -0.2557 -0.5092
 2309SOL     OW18388   4.042   0.853   4.872 -0.0740  0.5045 -0.3567
 2309SOL    HW118389   4.079   0.830   4.957  0.4415 -0.0490 -0.7346
 2309SOL    HW218390   3.958   0.898   4.885  1.6537  3.7799 -0.6173
 2310SOL     OW18391   2.795   0.527  14.547 -0.1451  0.3284 -0.2770
 2310SOL    HW118392   2.703   0.516  14.572  0.4348 -0.7006  1.4414
 2310SOL    HW218393   2.816   0.438  14.518 -0.1314  0.2723 -0.0961
 2311SOL     OW18394   3.235   3.188  16.056 -0.0491  0.4599  0.2654
 2311SOL    HW118395   3.283   3.213  16.135  1.6146 -1.5929 -0.0747
 2311SOL    HW218396   3.252   3.264  16.001  1.3082  1.7378  2.4792
 2312SOL     OW18397   2.483   4.458  11.120 -0.3498  0.2536  0.1971
 2312SOL    HW118398   2.547   4.402  11.074 -2.0276 -2.4411  1.1920
 2312SOL    HW218399   2.427   4.387  11.150  0.3974 -0.2790  0.3581
 2313SOL     OW18400   2.148   2.716   7.149 -0.5175 -0.4986 -0.0037
 2313SOL    HW118401   2.106   2.746   7.068 -1.7201  0.0833  0.8446
 2313SOL    HW218402   2.114   2.778   7.213 -2.1585 -0.6471 -0.7349
 2314SOL     OW18403   3.561   3.842   3.376 -0.0224 -0.0525 -0.0949
 2314SOL    HW118404   3.563   3.933   3.345 -0.4982 -0.2199 -0.6204
 2314SOL    HW218405   3.580   3.799   3.292 -1.0167 -0.5941 -0.0376
 2315SOL     OW18406   0.509   1.050   3.121  0.1693 -0.5655  0.0145
 2315SOL    HW118407   0.580   1.047   3.057  0.5911  1.0148  0.4086
 2315SOL    HW218408   0.446   1.111   3.083  0.2713 -0.6643 -0.3131
 2316SOL     OW18409   0.687   3.586   7.168 -0.0286 -0.1749 -0.4133
 2316SOL    HW118410   0.629   3.655   7.135 -1.6513 -1.2310  0.2088
 2316SOL    HW218411   0.647   3.523   7.108  0.1710  0.4487 -1.1970
 2317SOL     OW18412   0.759   3.858  13.450 -0.7623 -0.1943 -0.7178
 2317SOL    HW118413   0.774   3.905  13.532  0.2256 -1.3228 -0.2567
 2317SOL    HW218414   0.847   3.834  13.420  0.9668  4.6578  0.3349
 2318SOL     OW18415   0.959   3.223   9.749  0.1057  0.2229 -0.1615
 2318SOL    HW118416   1.031   3.244   9.690  1.2845 -2.6346  0.2744
 2318SOL    HW218417   0.900   3.298   9.748 -1.1818 -0.7946 -0.8135
 2319SOL     OW18418   1.655   3.439  11.031 -0.1390  0.6300 -0.5519
 2319SOL    HW118419   1.607   3.516  11.001 -0.9466  0.8060  1.2052
 2319SOL    HW218420   1.706   3.427  10.950  1.1967 -3.5246  0.8923
 2320SOL     OW18421   0.499   1.492   7.475 -0.3349  0.1406 -0.1040
 2320SOL    HW118422   0.421   1.441   7.500  0.0898 -0.1222  0.6989
 2320SOL    HW218423   0.444   1.544   7.417  1.5471  1.1406 -1.0092
 2321SOL     OW18424   4.716   3.783  12.561 -0.6043 -0.1079 -0.2828
 2321SOL    HW118425   0.071   3.725  12.549 -0.2328 -0.2296  2.6332
 2321SOL    HW218426   0.024   3.812  12.648  1.2711 -0.5451 -0.7366
 2322SOL     OW18427   0.658   3.513   3.778  0.7659 -0.7509  0.5112
 2322SOL    HW118428   0.730   3.509   3.716  0.0452  1.7376 -0.4673
 2322SOL    HW218429   0.659   3.608   3.791 -1.9812 -0.7852  1.0135
 2323SOL     OW18430   0.192   2.078   2.392  0.1358  0.0590 -0.3830
 2323SOL    HW118431   0.141   2.053   2.315 -1.6503  0.9657  0.4926
 2323SOL    HW218432   0.127   2.107   2.456 -1.8791  0.6237 -2.7202
 2324SOL     OW18433   0.157   2.285   9.549 -0.4683 -0.6357  0.5168
 2324SOL    HW118434   0.102   2.362   9.563  0.4832  0.0089  0.6597
 2324SOL    HW218435   0.121   2.224   9.614 -1.4241  0.0528  0.6291
 2325SOL     OW18436   2.935   1.277   6.887 -0.0559  0.0968 -0.5606
 2325SOL    HW118437   2.848   1.304   6.917  0.1076 -1.8945  1.6927
 2325SOL    HW218438   2.934   1.308   6.797 -0.3996  3.4886  0.5884
 2326SOL     OW18439   2.912   3.234   0.367  0.2632 -0.5551  0.5044
 2326SOL    HW118440   2.825   3.274   0.370  1.0030  1.2123 -1.4118
 2326SOL    HW218441   2.895   3.151   0.322  2.6570 -0.7008 -0.1219
 2327SOL     OW18442   3.227   2.473  12.027  0.2392 -0.2363  0.0247
 2327SOL    HW118443   3.252   2.506  11.940  1.2188 -0.9721  0.0250
 2327SOL    HW218444   3.244   2.545  12.089  0.1412 -0.3753  0.2109
 2328SOL     OW18445   0.507   4.410  15.650  0.1416  0.4165  0.2556
 2328SOL    HW118446   0.525   4.328  15.603  1.4936  0.0315  1.4575
 2328SOL    HW218447   0.548   4.407  15.737  0.9113  2.9804 -0.0423
 2329SOL     OW18448   1.188   3.678  11.128  0.1460 -0.4586 -0.4101
 2329SOL    HW118449   1.151   3.761  11.097  1.2180  0.2368  0.1673
 2329SOL    HW218450   1.195   3.697  11.221 -1.0987 -2.2461  0.0402
 2330SOL     OW18451   0.928   3.599   4.757  0.3754 -0.6304 -0.0489
 2330SOL    HW118452   0.853   3.544   4.735  0.7698 -0.7940 -1.0045
 2330SOL    HW218453   0.971   3.609   4.672 -0.0539 -0.8782 -0.2933
 2331SOL     OW18454   4.449   4.088   3.975  0.0142 -0.0727  0.3056
 2331SOL    HW118455   4.365   4.073   3.931  0.8607 -0.1472 -1.2983
 2331SOL    HW218456   4.432   4.176   4.009  2.4460  0.6104 -0.2227
 2332SOL     OW18457   0.986   1.623   5.701  1.0119 -0.0757 -0.1428
 2332SOL    HW118458   0.947   1.583   5.623 -0.8618  1.1190  0.1828
 2332SOL    HW218459   0.986   1.706   5.653  1.4502  0.0875  0.1415
 2333SOL     OW18460   0.861   2.637   8.704 -0.4166 -0.1737  0.2530
 2333SOL    HW118461   0.871   2.544   8.723 -0.9955 -0.5446 -1.2131
 2333SOL    HW218462   0.948   2.669   8.728 -0.8798  2.2789 -1.2186
 2334SOL     OW18463   0.834   0.592   1.984 -0.0948 -0.2961 -0.6461
 2334SOL    HW118464   0.752   0.641   1.996  1.4529  2.0797  0.3508
 2334SOL    HW218465   0.813   0.506   2.021  0.8280  0.3445  1.3959
 2335SOL     OW18466   2.109   3.614  15.973  0.0499  0.7017 -0.6698
 2335SOL    HW118467   2.050   3.626  15.899  0.5558 -1.4100 -1.4187
 2335SOL    HW218468   2.062   3.550  16.027  1.7992  0.5107  0.6279
 2336SOL     OW18469   3.856   1.808   8.834 -0.7057 -0.3815 -0.3479
 2336SOL    HW118470   3.877   1.831   8.924 -1.9222 -0.5653 -0.0270
 2336SOL    HW218471   3.770   1.769   8.848 -1.7269  0.9030 -3.2256
 2337SOL     OW18472   2.506   0.222   6.816  0.4243 -0.2544  0.5091
 2337SOL    HW118473   2.526   0.297   6.759  1.3635  0.1381  1.3560
 2337SOL    HW218474   2.411   0.222   6.830  0.2693  3.7818 -0.3900
 2338SOL     OW18475   4.198   1.416   8.273  0.2943  0.0282 -0.3131
 2338SOL    HW118476   4.195   1.510   8.256 -1.2209 -0.3687 -2.2078
 2338SOL    HW218477   4.281   1.385   8.235  0.5859  0.7966 -0.3067
 2339SOL     OW18478   2.830   3.074   6.756 -0.2573 -0.3802  0.0686
 2339SOL    HW118479   2.868   3.036   6.835  1.9189  0.0676 -0.7809
 2339SOL    HW218480   2.908   3.096   6.706 -0.2731 -0.2662  0.0954
 2340SOL     OW18481   0.842   1.306   3.816 -0.1266  0.3022  0.2945
 2340SOL    HW118482   0.841   1.210   3.823  2.7646  0.2832  0.6455
 2340SOL    HW218483   0.756   1.326   3.780  0.7078  2.3147 -0.5885
 2341SOL     OW18484   3.180   3.079  15.659 -0.1762  0.1813 -0.8380
 2341SOL    HW118485   3.249   3.139  15.688 -2.2727  2.4031 -0.4242
 2341SOL    HW218486   3.214   2.993  15.683  1.2388  0.9726 -0.0246
 2342SOL     OW18487   2.951   3.389  12.621 -0.5186 -0.5458 -0.3384
 2342SOL    HW118488   2.984   3.476  12.644 -0.6694 -0.4688 -0.4096
 2342SOL    HW218489   2.981   3.389  12.530 -3.2218 -0.7220 -1.2434
 2343SOL     OW18490   3.087   2.089   2.532 -0.1825  1.2015 -0.4799
 2343SOL    HW118491   3.067   2.160   2.471 -1.2857  0.3928 -1.0604
 2343SOL    HW218492   3.024   2.023   2.504 -0.1636  0.3338  1.5540
 2344SOL     OW18493   1.212   0.559   2.435  0.7852  0.3441  0.2296
 2344SOL    HW118494   1.298   0.521   2.452  1.0476  0.8624  0.0581
 2344SOL    HW218495   1.243   0.633   2.383 -1.1853  0.2904 -1.0269
 2345SOL     OW18496   0.503   1.233  15.068 -0.2339  0.2670  0.4194
 2345SOL    HW118497   0.486   1.195  15.154  0.0812 -0.6687  0.0635
 2345SOL    HW218498   0.553   1.157  15.038  1.4975  1.3360  0.5631
 2346SOL     OW18499   3.683   2.892  14.583 -0.7233  0.0568 -0.2696
 2346SOL    HW118500   3.643   2.864  14.665 -1.9997  1.6792 -0.3275
 2346SOL    HW218501   3.695   2.807  14.540  1.0386 -0.7621  1.8861
 2347SOL     OW18502   2.438   1.798   2.152  0.3734  0.2416  0.4983
 2347SOL    HW118503   2.453   1.771   2.243 -0.2884 -3.2930 -0.4241
 2347SOL    HW218504   2.497   1.873   2.155 -0.0085  0.5246  0.9116
 2348SOL     OW18505   0.304   0.157   8.518 -0.2484 -0.5022 -0.7761
 2348SOL    HW118506   0.238   0.207   8.470  1.4795  2.1498 -0.4015
 2348SOL    HW218507   0.333   0.223   8.581 -0.0679 -1.3734  0.0645
 2349SOL     OW18508   0.712   0.912   9.376 -0.4925  0.1381  0.9131
 2349SOL    HW118509   0.671   0.931   9.292 -1.3590  1.5736  1.6745
 2349SOL    HW218510   0.718   1.000   9.413 -1.0476  1.0932 -1.2957
 2350SOL     OW18511   2.904   0.289  11.922  0.1884 -0.2044 -0.6035
 2350SOL    HW118512   2.907   0.224  11.993 -3.0300 -1.0498 -1.2430
 2350SOL    HW218513   2.822   0.267  11.877 -1.9788  1.4633  2.5458
 2351SOL     OW18514   3.825   0.997  12.027 -0.3706  0.1263 -0.0046
 2351SOL    HW118515   3.750   0.966  12.077  0.0456  0.8750  1.0644
 2351SOL    HW218516   3.789   1.083  12.007  0.4800 -0.2577 -3.2122
 2352SOL     OW18517   1.796   0.700   3.980  0.7722  0.1624 -0.1421
 2352SOL    HW118518   1.742   0.623   3.961 -0.2832  0.9190 -0.2659
 2352SOL    HW218519   1.760   0.755   3.909 -1.0523  1.8257  2.0755
 2353SOL     OW18520   1.506   3.863   6.167  0.0742 -0.0970 -0.2595
 2353SOL    HW118521   1.416   3.830   6.157 -0.2037  0.2939  0.9201
 2353SOL    HW218522   1.492   3.949   6.208  2.2199  0.5950 -0.9810
 2354SOL     OW18523   2.587   2.359  13.035  0.3418  0.0173  0.7426
 2354SOL    HW118524   2.617   2.424  12.972  0.3717 -1.3248 -0.6297
 2354SOL    HW218525   2.640   2.284  13.010  0.9114  1.1356 -1.3630
 2355SOL     OW18526   1.476   0.365   8.662  0.6338 -0.2218  0.6374
 2355SOL    HW118527   1.498   0.390   8.752  1.4240  1.9262 -0.1416
 2355SOL    HW218528   1.540   0.423   8.619  0.6224 -0.1992  0.6511
 2356SOL     OW18529   1.208   1.636   2.948 -0.0246 -0.0075  0.0455
 2356SOL    HW118530   1.263   1.558   2.937  0.0052 -0.4384  3.0759
 2356SOL    HW218531   1.233   1.678   3.030  2.8551 -1.0607 -0.3039
 2357SOL     OW18532   2.677   2.655   5.368 -0.1654  0.2559 -0.5312
 2357SOL    HW118533   2.718   2.670   5.453  0.6970 -0.3610 -0.8357
 2357SOL    HW218534   2.732   2.712   5.315  2.9123 -1.1449  1.1918
 2358SOL     OW18535   0.223   2.820   7.880  0.0885 -0.2944 -0.0745
 2358SOL    HW118536   0.156   2.797   7.944  0.5090 -0.3724  0.3454
 2358SOL    HW218537   0.257   2.905   7.910 -1.2503 -0.8761  3.0924
 2359SOL     OW18538   0.189   2.264   7.466 -0.1796  0.1336  0.0092
 2359SOL    HW118539   0.207   2.316   7.388 -0.8319 -0.6013 -0.6247
 2359SOL    HW218540   0.119   2.316   7.504 -1.1851  0.0067 -1.7044
 2360SOL     OW18541   4.556   0.576   1.037  0.0272  0.0693 -0.2014
 2360SOL    HW118542   4.488   0.554   1.101 -0.8770  2.6288 -0.2820
 2360SOL    HW218543   4.569   0.490   0.997  2.1073 -0.1557  0.9675
 2361SOL     OW18544   3.115   2.875   5.417 -0.2401  0.4839  0.5863
 2361SOL    HW118545   3.168   2.837   5.487  0.1635  1.5679  0.8852
 2361SOL    HW218546   3.036   2.824   5.433 -2.1939  2.3961 -2.8982
 2362SOL     OW18547   0.943   4.611   1.442  0.1269  0.1767  0.0143
 2362SOL    HW118548   0.970   4.662   1.365 -0.8842  0.8207  0.0994
 2362SOL    HW218549   1.013   4.545   1.444 -1.2188 -1.2194  1.3329
 2363SOL     OW18550   1.292   4.411   5.040 -0.0713  0.4011 -0.2212
 2363SOL    HW118551   1.225   4.446   4.981  0.6732 -0.1318 -1.3844
 2363SOL    HW218552   1.358   4.480   5.035 -0.2669  0.7038  1.5620
 2364SOL     OW18553   3.550   2.993   6.188  0.1386  0.2436 -0.5657
 2364SOL    HW118554   3.474   3.037   6.149  0.1349  0.9563  0.2381
 2364SOL    HW218555   3.573   2.932   6.118 -1.0645 -1.0679  0.1963
 2365SOL     OW18556   1.518   0.905  12.969  0.2062 -0.7678  0.5349
 2365SOL    HW118557   1.463   0.834  12.936  1.9376 -1.6042 -0.5903
 2365SOL    HW218558   1.591   0.900  12.907  0.3432  1.2971  0.5263
 2366SOL     OW18559   0.954   1.799   4.657 -0.3500 -0.3178 -0.1195
 2366SOL    HW118560   0.895   1.875   4.651  1.2233  0.8113 -1.3891
 2366SOL    HW218561   1.032   1.840   4.694  0.1672 -1.2820 -0.1423
 2367SOL     OW18562   1.048   0.852  16.063  0.2618 -0.7517 -0.4970
 2367SOL    HW118563   1.043   0.758  16.076  0.3616 -0.7944 -0.7489
 2367SOL    HW218564   0.973   0.883  16.113 -0.3057  0.4012 -2.0422
 2368SOL     OW18565   3.548   1.053   5.888  0.2420  0.2034 -0.0053
 2368SOL    HW118566   3.529   1.028   5.797  2.2515 -0.2983 -0.2965
 2368SOL    HW218567   3.493   0.987   5.931 -0.5779  1.3936  0.7469
 2369SOL     OW18568   0.069   1.776   4.905 -0.8871  0.3626 -0.2619
 2369SOL    HW118569   4.698   1.805   4.914 -2.2253 -3.7523 -0.1152
 2369SOL    HW218570   0.116   1.825   4.972  0.8764 -0.3617 -0.9657
 2370SOL     OW18571   3.540   1.817   2.726 -0.2601  0.0631 -0.2065
 2370SOL    HW118572   3.513   1.785   2.640 -1.6685  1.2157 -0.1916
 2370SOL    HW218573   3.484   1.893   2.742 -0.5633 -0.5453  1.6907
 2371SOL     OW18574   1.632   1.851  11.590  0.4305 -0.2231  0.2279
 2371SOL    HW118575   1.556   1.831  11.536  0.6361  1.2324 -0.6009
 2371SOL    HW218576   1.599   1.808  11.669 -0.9462  1.5127  0.5977
 2372SOL     OW18577   1.391   1.328   8.105 -0.1529 -0.4331 -0.3800
 2372SOL    HW118578   1.420   1.255   8.050  1.2133  0.0195 -0.2608
 2372SOL    HW218579   1.439   1.297   8.182  0.7626  1.3953 -0.2246
 2373SOL     OW18580   1.387   2.031   4.276 -0.0527  0.2508 -0.8143
 2373SOL    HW118581   1.335   2.112   4.276 -1.2044 -0.5056  1.5391
 2373SOL    HW218582   1.465   2.066   4.320  0.3551 -0.7557 -0.7354
 2374SOL     OW18583   1.783   2.807  12.727  0.1276 -0.4860 -0.3826
 2374SOL    HW118584   1.791   2.834  12.636  4.2165  3.1865  1.0665
 2374SOL    HW218585   1.767   2.713  12.719 -1.9882  0.0279 -2.0321
 2375SOL     OW18586   1.347   4.304   4.498 -0.3761  0.3808  0.4359
 2375SOL    HW118587   1.421   4.286   4.439 -1.2873 -0.7503 -0.3548
 2375SOL    HW218588   1.326   4.217   4.530  1.2995 -0.1189  0.1692
 2376SOL     OW18589   2.045   1.148   1.619 -0.1351 -0.0334 -0.1730
 2376SOL    HW118590   2.053   1.185   1.531  1.9705  1.8092  0.7936
 2376SOL    HW218591   2.003   1.062   1.615  1.6140 -0.8151 -1.4269
 2377SOL     OW18592   4.149   3.744  15.228 -0.2092 -0.1598 -0.5551
 2377SOL    HW118593   4.208   3.695  15.170  1.5949  1.9903 -0.5522
 2377SOL    HW218594   4.196   3.821  15.260  0.2378 -0.6484 -0.0339
 2378SOL     OW18595   2.202   3.671   4.958 -0.2678  0.2496  0.2648
 2378SOL    HW118596   2.116   3.641   4.929  0.1139  0.6478 -1.3353
 2378SOL    HW218597   2.236   3.695   4.871  0.1060  2.2441  0.9701
 2379SOL     OW18598   4.451   2.391   4.352 -0.2255 -0.0743 -0.2939
 2379SOL    HW118599   4.404   2.311   4.378  1.5520 -0.7337  0.9436
 2379SOL    HW218600   4.368   2.431   4.327  0.5183  0.0794 -2.4978
 2380SOL     OW18601   1.351   0.515  13.645  0.3019 -0.3461 -0.0782
 2380SOL    HW118602   1.390   0.501  13.559 -1.4963 -0.1515 -0.9280
 2380SOL    HW218603   1.379   0.601  13.674  1.8146 -0.9248  0.1744
 2381SOL     OW18604   1.398   0.725  10.659  0.0395 -0.0742  0.4497
 2381SOL    HW118605   1.333   0.795  10.669  0.3707  0.1385  1.1392
 2381SOL    HW218606   1.382   0.686  10.574 -0.7850  1.6790 -0.2093
 2382SOL     OW18607   0.368   4.412  10.623 -0.4655 -0.6442  0.1858
 2382SOL    HW118608   0.281   4.378  10.604  0.3308 -0.1047 -4.3963
 2382SOL    HW218609   0.410   4.337  10.664  1.3288  1.1237  1.5695
 2383SOL     OW18610   0.383   0.417   6.307 -0.5417  0.0133  0.2779
 2383SOL    HW118611   0.340   0.455   6.383 -2.2258  0.6037 -0.9714
 2383SOL    HW218612   0.462   0.389   6.354 -0.8044 -0.0169  0.6955
 2384SOL     OW18613   0.331   3.038   0.722  0.4384  0.0663  0.4197
 2384SOL    HW118614   0.251   3.011   0.676 -0.0772 -0.4856  1.6416
 2384SOL    HW218615   0.340   2.974   0.793 -0.6587  1.2106  1.5958
 2385SOL     OW18616   1.964   0.518   2.061  0.3540  0.0030 -0.1842
 2385SOL    HW118617   1.930   0.508   1.972  0.5366 -0.7301 -0.1700
 2385SOL    HW218618   2.048   0.559   2.040 -0.9541  1.5902 -2.3196
 2386SOL     OW18619   3.189   1.478  12.714  0.0266  0.3358  0.0611
 2386SOL    HW118620   3.208   1.567  12.683  0.2589  0.6502  1.1349
 2386SOL    HW218621   3.113   1.459  12.659  0.2691  0.3267 -0.2713
 2387SOL     OW18622   3.827   4.403  11.753  0.2850  0.3583 -0.8028
 2387SOL    HW118623   3.877   4.327  11.784  1.7114  0.9135 -1.7335
 2387SOL    HW218624   3.845   4.463  11.825  1.0490  0.4302 -1.0514
 2388SOL     OW18625   1.771   2.834  10.027 -0.3170 -0.0674  0.6852
 2388SOL    HW118626   1.789   2.760   9.969 -0.5228  0.0460  0.4754
 2388SOL    HW218627   1.860   2.865  10.044 -1.3401  1.0633  3.9740
 2389SOL     OW18628   1.544   2.042  17.632  0.4278 -0.6320 -0.1308
 2389SOL    HW118629   1.466   2.094  17.620  1.0658 -0.5801 -4.1366
 2389SOL    HW218630   1.527   2.018   0.041  0.1082  0.3932  0.0714
 2390SOL     OW18631   2.025   3.537  13.865 -0.4671 -0.8146  0.0283
 2390SOL    HW118632   1.984   3.467  13.916  1.6899 -0.3865  2.3551
 2390SOL    HW218633   2.116   3.514  13.849 -0.1557  1.3640 -1.2660
 2391SOL     OW18634   1.601   1.716   7.614 -0.9117  0.6294 -0.0212
 2391SOL    HW118635   1.689   1.726   7.652 -0.3621 -0.1161 -1.1049
 2391SOL    HW218636   1.626   1.664   7.538 -1.4021 -0.9632  0.9141
 2392SOL     OW18637   0.109   0.909  16.973 -0.3369  0.2689  0.1613
 2392SOL    HW118638   0.177   0.960  16.930  0.4302 -1.7080 -0.9577
 2392SOL    HW218639   0.032   0.966  16.969  1.6781  3.0400  1.1722
 2393SOL     OW18640   2.138   1.167   7.784 -1.1520  0.2516  0.0260
 2393SOL    HW118641   2.197   1.148   7.711  0.0198  1.6702  0.6144
 2393SOL    HW218642   2.048   1.162   7.751 -0.3416  2.7975 -2.5669
 2394SOL     OW18643   1.481   2.227   2.541 -0.1356 -0.1109  0.0651
 2394SOL    HW118644   1.513   2.273   2.463  0.5183 -0.5900  0.0493
 2394SOL    HW218645   1.538   2.150   2.538  0.1662  0.1362 -0.6354
 2395SOL     OW18646   2.573   3.680   8.187 -0.4433 -0.0159 -0.0094
 2395SOL    HW118647   2.479   3.680   8.172 -0.4532  0.6524  0.0820
 2395SOL    HW218648   2.601   3.757   8.138  0.5384  0.6991  1.6556
 2396SOL     OW18649   1.933   1.085   6.405  0.8729 -0.0481  0.0968
 2396SOL    HW118650   1.885   1.002   6.411 -1.4414  1.3355  0.7262
 2396SOL    HW218651   1.921   1.100   6.312 -1.9005 -1.3749  0.2646
 2397SOL     OW18652   4.523   4.244   5.474 -0.3353 -0.4303 -0.1193
 2397SOL    HW118653   4.540   4.242   5.568  1.0046  0.1625 -0.3457
 2397SOL    HW218654   4.468   4.167   5.460 -1.3895  0.7167 -2.2213
 2398SOL     OW18655   4.262   2.764  13.298  0.6194  0.7112  0.6156
 2398SOL    HW118656   4.196   2.753  13.230  1.5109 -0.5575 -0.0364
 2398SOL    HW218657   4.219   2.832  13.350  0.1148  2.5860 -2.2481
 2399SOL     OW18658   3.302   0.233  11.347  0.2272  0.6144  0.1216
 2399SOL    HW118659   3.229   0.172  11.361 -0.7350  2.1911  1.9265
 2399SOL    HW218660   3.328   0.250  11.437  0.6060 -0.3087  0.1923
 2400SOL     OW18661   4.680   0.154  15.240 -0.1947  0.4326 -0.3323
 2400SOL    HW118662   0.021   0.208  15.188  0.4610 -0.2918 -0.3134
 2400SOL    HW218663   0.022   0.097  15.285  0.3751  0.6057 -0.8974
 2401SOL     OW18664   4.068   2.427   3.248  0.2326 -0.1783  0.0199
 2401SOL    HW118665   4.126   2.473   3.308 -1.4786  0.3310  1.2628
 2401SOL    HW218666   4.044   2.351   3.300  1.4938 -1.6224 -1.4880
 2402SOL     OW18667   1.495   2.674   2.650 -0.0738 -0.1564  0.0714
 2402SOL    HW118668   1.454   2.616   2.714 -1.8976  0.8141 -0.2176
 2402SOL    HW218669   1.421   2.699   2.594 -0.5793  0.1147  0.8561
 2403SOL     OW18670   0.376   0.688   5.648  0.1044 -0.4532 -0.4003
 2403SOL    HW118671   0.426   0.764   5.677  0.1269 -1.0407  1.1467
 2403SOL    HW218672   0.410   0.614   5.699  0.3465 -1.0728 -1.4616
 2404SOL     OW18673   3.681   1.020   6.838 -0.1257  1.3168  0.1740
 2404SOL    HW118674   3.673   0.989   6.928  1.0301 -1.8579 -0.8275
 2404SOL    HW218675   3.667   1.115   6.847 -0.0953  1.4717 -1.4606
 2405SOL     OW18676   2.052   0.305   9.495 -0.0266 -0.7162 -0.3991
 2405SOL    HW118677   2.055   0.210   9.500 -1.5200 -0.6807  1.1987
 2405SOL    HW218678   2.083   0.326   9.583 -0.0922 -1.7127 -0.1376
 2406SOL     OW18679   1.131   2.222   7.329 -0.2190  0.2435 -0.3590
 2406SOL    HW118680   1.220   2.235   7.298  0.4325 -1.1542  0.9072
 2406SOL    HW218681   1.153   2.165   7.403 -3.2131 -1.6720 -0.9207
 2407SOL     OW18682   2.687   1.838  11.162  0.7456 -0.1785 -0.0352
 2407SOL    HW118683   2.616   1.903  11.167  1.6351  0.7385  0.7631
 2407SOL    HW218684   2.633   1.762  11.184 -0.9816  0.9872 -0.2749
 2408SOL     OW18685   3.669   1.096   6.147  0.4744 -0.0418  0.4709
 2408SOL    HW118686   3.640   1.094   6.056  0.7838  0.0419  0.3671
 2408SOL    HW218687   3.585   1.075   6.185  0.2095 -0.7574 -0.5063
 2409SOL     OW18688   2.248   2.247   5.002  0.3499  0.0099 -0.3031
 2409SOL    HW118689   2.268   2.155   4.986 -0.2037  0.1583 -1.8649
 2409SOL    HW218690   2.181   2.259   4.935  0.2404  0.8158 -0.0504
 2410SOL     OW18691   0.438   4.638   8.685 -0.3802  0.1099 -0.5106
 2410SOL    HW118692   0.395   0.004   8.679 -1.5919 -0.3048  2.3611
 2410SOL    HW218693   0.405   4.611   8.600 -0.8192  1.0178 -0.6295
 2411SOL     OW18694   3.262   4.525   4.983 -0.4677  0.8713 -0.2300
 2411SOL    HW118695   3.169   4.507   4.995  0.3218 -3.6945 -0.9981
 2411SOL    HW218696   3.304   4.442   4.961 -1.2517  0.5181 -0.3747
 2412SOL     OW18697   3.720   2.457   6.608 -0.3831  0.1541 -0.2377
 2412SOL    HW118698   3.770   2.385   6.646  0.5597  1.0494  0.2399
 2412SOL    HW218699   3.712   2.427   6.518 -0.5850 -1.0056  0.1731
 2413SOL     OW18700   1.940   3.703   0.698 -0.3550 -0.0744  0.4187
 2413SOL    HW118701   1.852   3.731   0.673  0.2889 -0.2745 -2.0246
 2413SOL    HW218702   1.973   3.662   0.618  0.7735  2.4768 -0.4295
 2414SOL     OW18703   1.043   0.266   8.451  0.2554 -0.0025  0.4351
 2414SOL    HW118704   1.115   0.277   8.513  1.6109 -1.5651 -0.8301
 2414SOL    HW218705   1.041   0.353   8.410 -2.5722 -0.1554  0.2654
 2415SOL     OW18706   0.036   1.956   4.298 -0.4067 -0.0300 -0.1494
 2415SOL    HW118707   0.033   2.051   4.286  1.3292  0.2024  1.1519
 2415SOL    HW218708   0.128   1.931   4.286  0.3498  1.5821  2.1943
 2416SOL     OW18709   2.023   1.939   0.353 -0.6497 -0.4130 -0.3227
 2416SOL    HW118710   2.017   2.002   0.424  3.8281 -1.9438  1.4175
 2416SOL    HW218711   1.932   1.910   0.348 -0.6420 -0.4253 -0.3904
 2417SOL     OW18712   0.753   3.585  15.248 -0.0006  0.2842  0.0072
 2417SOL    HW118713   0.667   3.545  15.244  0.0137  0.3480 -1.1127
 2417SOL    HW218714   0.763   3.609  15.156  0.4266 -1.1088 -0.3181
 2418SOL     OW18715   1.428   2.434   3.922 -0.3762 -0.3188  0.3122
 2418SOL    HW118716   1.374   2.376   3.868  0.0127 -2.4790  2.2414
 2418SOL    HW218717   1.371   2.510   3.931  1.3894  0.9003  1.3095
 2419SOL     OW18718   4.444   3.081   9.696  0.0804 -0.0998  0.2158
 2419SOL    HW118719   4.372   3.124   9.651  1.7895  0.3264 -2.0782
 2419SOL    HW218720   4.516   3.140   9.676  0.8680 -0.1263  2.9624
 2420SOL     OW18721   0.299   3.755   7.025  0.8011  0.1858 -0.6425
 2420SOL    HW118722   0.350   3.675   7.014  1.3776  0.4036  0.4959
 2420SOL    HW218723   0.359   3.809   7.075  0.3451 -2.1884  2.4813
 2421SOL     OW18724   2.715   4.302   5.021 -0.0688 -0.1977 -0.7925
 2421SOL    HW118725   2.808   4.323   5.011  0.3307 -1.4939  0.3030
 2421SOL    HW218726   2.723   4.245   5.097  1.1927 -1.9083 -2.2000
 2422SOL     OW18727   4.391   2.584   4.653 -0.5383 -0.2169 -0.4521
 2422SOL    HW118728   4.417   2.497   4.682  2.1275  0.1825 -1.5848
 2422SOL    HW218729   4.326   2.564   4.585 -1.4116 -1.7810  0.8324
 2423SOL     OW18730   4.141   4.478  10.285 -0.3091  0.0863 -0.2193
 2423SOL    HW118731   4.113   4.556  10.237  0.8217 -0.6592 -2.1075
 2423SOL    HW218732   4.109   4.410  10.225  0.0728  1.4778 -2.0256
 2424SOL     OW18733   1.026   0.461  12.745 -0.4440  0.4076 -0.3401
 2424SOL    HW118734   0.978   0.500  12.818  1.0269 -0.8473  1.2894
 2424SOL    HW218735   1.026   0.372  12.780 -1.6430  0.4252 -0.2971
 2425SOL     OW18736   4.231   2.096  12.745  0.3457  0.5296  0.4446
 2425SOL    HW118737   4.153   2.072  12.694  0.9406 -0.5633  0.0652
 2425SOL    HW218738   4.249   2.186  12.717  2.0393 -0.6214 -2.2052
 2426SOL     OW18739   1.923   4.139   4.320  0.3334  0.2352 -0.1898
 2426SOL    HW118740   1.924   4.158   4.414 -0.7137 -0.0188 -0.1255
 2426SOL    HW218741   1.935   4.227   4.285  0.1934  0.5634  0.5770
 2427SOL     OW18742   1.386   1.097   3.175  0.8578 -0.0785 -0.0328
 2427SOL    HW118743   1.447   1.137   3.114 -0.5352  0.9554 -0.7545
 2427SOL    HW218744   1.306   1.114   3.124  0.5651  0.0552  0.4642
 2428SOL     OW18745   3.087   0.665   0.517  0.7204 -0.1151  0.3537
 2428SOL    HW118746   3.085   0.612   0.437 -1.7837 -0.8112  0.8956
 2428SOL    HW218747   3.029   0.619   0.577  0.2214  1.7810  1.3033
 2429SOL     OW18748   0.516   0.065   0.493  0.1122  0.1049  0.2146
 2429SOL    HW118749   0.556   0.143   0.532  0.3144  0.4622 -0.7119
 2429SOL    HW218750   0.533   4.709   0.548 -4.6203 -0.0226  1.5517
 2430SOL     OW18751   0.993   4.289  12.781 -0.1012  0.3206 -0.2348
 2430SOL    HW118752   0.958   4.212  12.736 -1.9493  0.0329  1.6741
 2430SOL    HW218753   0.930   4.291  12.853  1.1118 -3.7353  0.9745
 2431SOL     OW18754   0.496   0.844   1.053  0.1613 -0.0176 -0.2991
 2431SOL    HW118755   0.576   0.839   1.001  0.7609 -2.5718  0.8969
 2431SOL    HW218756   0.522   0.795   1.131 -2.3629  0.0037  0.5462
 2432SOL     OW18757   4.493   3.847   0.135  0.2226  0.2718  0.1898
 2432SOL    HW118758   4.491   3.938   0.166 -0.4715 -0.4267  2.1490
 2432SOL    HW218759   4.401   3.826   0.122  0.1440 -0.7780  2.3878
 2433SOL     OW18760   3.569   4.572  16.971  0.8163 -0.3205 -0.0169
 2433SOL    HW118761   3.496   4.598  17.027 -0.3539 -1.1152 -1.1862
 2433SOL    HW218762   3.526   4.570  16.886  1.6463  1.1316 -0.4908
 2434SOL     OW18763   2.080   1.223   4.609  0.5690 -0.0299  0.9646
 2434SOL    HW118764   2.122   1.267   4.682  3.2792  0.2891 -0.7954
 2434SOL    HW218765   2.157   1.177   4.576  0.0459 -1.8313  2.1894
 2435SOL     OW18766   2.186   2.727  17.626 -0.2903 -0.1032 -0.0518
 2435SOL    HW118767   2.258   2.666  17.611 -0.0516  0.2852 -0.4812
 2435SOL    HW218768   2.248   2.801  17.625 -0.3152 -0.0872 -0.9981
 2436SOL     OW18769   3.727   0.301   3.782  0.7772 -0.0207 -0.2626
 2436SOL    HW118770   3.760   0.211   3.773 -1.6713 -1.0021  0.5286
 2436SOL    HW218771   3.729   0.330   3.691 -0.3205  0.2501 -0.2032
 2437SOL     OW18772   1.643   2.298  14.082 -0.0312 -0.0158  0.3722
 2437SOL    HW118773   1.581   2.310  14.153 -0.8761  1.9210 -0.6673
 2437SOL    HW218774   1.717   2.335  14.130  1.0520 -1.9059  0.1634
 2438SOL     OW18775   2.430   1.592   0.523 -0.7896 -0.6757 -0.0514
 2438SOL    HW118776   2.480   1.629   0.450 -0.3336 -0.7036  0.2422
 2438SOL    HW218777   2.497   1.563   0.585 -0.2165 -0.8701 -0.7629
 2439SOL     OW18778   4.443   2.858  13.791  0.8238 -0.6658 -0.0153
 2439SOL    HW118779   4.465   2.783  13.736 -0.2661 -2.2534  1.7399
 2439SOL    HW218780   4.446   2.813  13.875 -0.2280 -0.1630  0.2902
 2440SOL     OW18781   2.401   4.297   7.556  0.0936 -0.5011 -0.4468
 2440SOL    HW118782   2.471   4.349   7.516  0.8504  0.3344  1.9551
 2440SOL    HW218783   2.432   4.207   7.547 -0.4560 -0.5544 -1.7557
 2441SOL     OW18784   1.258   3.089   9.777 -0.1093 -0.0034 -0.1407
 2441SOL    HW118785   1.251   3.184   9.784 -0.4415  0.1011 -2.0557
 2441SOL    HW218786   1.249   3.056   9.867  0.8999  1.7732  0.6056
 2442SOL     OW18787   3.822   0.894   6.188  0.0216 -0.7038  0.6736
 2442SOL    HW118788   3.793   0.981   6.161  1.9008 -0.9401 -2.0156
 2442SOL    HW218789   3.760   0.884   6.261 -0.5861  2.7992  0.6356
 2443SOL     OW18790   2.059   1.872   8.305 -0.3946 -0.5115 -0.3382
 2443SOL    HW118791   2.046   1.780   8.326 -1.0384 -0.0720  1.2498
 2443SOL    HW218792   2.141   1.866   8.257 -1.2037 -2.8402 -1.3903
 2444SOL     OW18793   1.148   2.588   6.316  0.6207  0.2251  0.0707
 2444SOL    HW118794   1.230   2.569   6.363  0.4817  0.7391  0.5228
 2444SOL    HW218795   1.115   2.499   6.327 -1.4583  0.9323 -0.4007
 2445SOL     OW18796   1.722   1.787  14.004  0.7604 -0.1307 -0.2633
 2445SOL    HW118797   1.815   1.795  13.984  1.4714 -1.4978  2.4516
 2445SOL    HW218798   1.704   1.862  14.061 -0.3864 -0.9536  0.4562
 2446SOL     OW18799   2.370   0.563   2.688  0.2272  0.0521  0.0581
 2446SOL    HW118800   2.311   0.495   2.655  2.4735 -1.7113 -0.3869
 2446SOL    HW218801   2.448   0.555   2.632 -1.0096  1.6524 -1.8674
 2447SOL     OW18802   4.169   0.362  13.294  0.2238  0.1075  0.0937
 2447SOL    HW118803   4.098   0.354  13.229 -0.3790 -1.3860  0.9327
 2447SOL    HW218804   4.232   0.418  13.249 -0.0454 -0.3074 -0.8045
 2448SOL     OW18805   4.427   0.515   8.681  0.3707  0.0198  0.3647
 2448SOL    HW118806   4.433   0.508   8.585  2.0005 -2.1091  0.6270
 2448SOL    HW218807   4.383   0.432   8.697 -2.5404  1.3839 -0.5357
 2449SOL     OW18808   0.194   0.319   4.173  0.2852 -0.0293 -0.7679
 2449SOL    HW118809   0.247   0.394   4.199  0.4308  0.0651 -1.3466
 2449SOL    HW218810   0.106   0.354   4.183 -0.2388 -1.8804  1.2022
 2450SOL     OW18811   1.990   3.074   0.283 -0.3033 -0.3935  0.3246
 2450SOL    HW118812   1.896   3.089   0.291  0.0339  1.6195  0.4489
 2450SOL    HW218813   2.001   3.093   0.190 -0.7226 -0.8059  0.1848
 2451SOL     OW18814   3.774   3.705   6.728 -0.1535  0.2046  0.2452
 2451SOL    HW118815   3.688   3.702   6.686  0.8388  0.5062 -1.8339
 2451SOL    HW218816   3.796   3.796   6.710 -0.7314  0.4108  0.5975
 2452SOL     OW18817   0.740   4.350  17.307  0.0655 -0.6348 -0.1872
 2452SOL    HW118818   0.717   4.409  17.235  1.0089 -0.7797 -0.6119
 2452SOL    HW218819   0.747   4.411  17.381 -0.6448  0.5922 -1.1230
 2453SOL     OW18820   4.474   1.551   7.830  0.9619 -0.3269  0.9098
 2453SOL    HW118821   4.444   1.640   7.813  1.7068 -0.1311  0.6337
 2453SOL    HW218822   4.392   1.502   7.835  1.7300 -1.6978  0.3052
 2454SOL     OW18823   4.299   2.343  15.401  0.2229 -0.3707  0.0777
 2454SOL    HW118824   4.341   2.268  15.359  1.2680  0.9922 -1.2938
 2454SOL    HW218825   4.369   2.407  15.413 -0.1696 -0.0912  0.8579
 2455SOL     OW18826   3.344   0.892   6.018  0.5304  0.4474  0.4117
 2455SOL    HW118827   3.302   0.811   6.045 -0.2281  0.6581 -0.1117
 2455SOL    HW218828   3.296   0.930   5.944 -1.4434 -3.0361 -0.0988
 2456SOL     OW18829   3.621   3.011   9.959 -0.0332  0.1751 -0.2508
 2456SOL    HW118830   3.528   2.997   9.947 -0.2394  2.3852 -1.1386
 2456SOL    HW218831   3.651   2.976   9.875  0.1657  1.9753 -0.9189
 2457SOL     OW18832   2.676   2.717   2.513 -0.1860 -0.0393  0.4247
 2457SOL    HW118833   2.721   2.762   2.585 -1.8465  0.1429  1.3685
 2457SOL    HW218834   2.723   2.742   2.434  0.3096 -0.5902  0.5462
 2458SOL     OW18835   4.332   4.711   1.025  0.1809 -0.2206 -0.8861
 2458SOL    HW118836   4.326   0.079   0.988 -0.0970  0.1021 -0.0924
 2458SOL    HW218837   4.269   4.713   1.097  3.6735 -0.2830  2.1677
 2459SOL     OW18838   1.978   2.676   5.089  0.4965  0.6582  0.1488
 2459SOL    HW118839   2.071   2.670   5.067  0.2160 -1.1729 -0.5160
 2459SOL    HW218840   1.983   2.730   5.168  0.7203  1.4986 -0.4433
 2460SOL     OW18841   4.545   2.504  15.404  0.1602  0.6809  0.8433
 2460SOL    HW118842   4.545   2.572  15.337  1.0932 -1.4244 -1.3001
 2460SOL    HW218843   4.632   2.469  15.381 -0.3811  0.0625 -0.2674
 2461SOL     OW18844   2.149   3.453   8.372  0.0412  0.4937  1.1528
 2461SOL    HW118845   2.121   3.462   8.281 -0.0447 -0.5224  1.0863
 2461SOL    HW218846   2.129   3.363   8.396 -0.2889 -0.1069 -1.3861
 2462SOL     OW18847   1.466   0.134   2.874 -0.1367  0.3333 -0.2379
 2462SOL    HW118848   1.515   0.211   2.901 -1.5674  1.2035 -0.1122
 2462SOL    HW218849   1.470   0.087   2.957  3.2889 -0.7302 -0.9949
 2463SOL     OW18850   1.240   3.688   5.886 -0.1054 -0.0864  0.8452
 2463SOL    HW118851   1.210   3.694   5.795  0.2388  1.1506  0.8139
 2463SOL    HW218852   1.333   3.677   5.864 -0.6990 -2.9766 -0.3242
 2464SOL     OW18853   3.413   1.139  17.656 -0.7729  0.3930  0.0725
 2464SOL    HW118854   3.439   1.060  17.610  1.8931  0.8129  0.8415
 2464SOL    HW218855   3.320   1.151  17.641 -0.7582 -1.8719 -1.8321
 2465SOL     OW18856   2.258   4.700   4.828 -1.1524  0.0490  0.2176
 2465SOL    HW118857   2.328   4.636   4.815  0.4372  1.9383 -0.4846
 2465SOL    HW218858   2.215   4.653   4.899 -0.5929 -1.0854 -0.1887
 2466SOL     OW18859   3.060   4.287   6.749 -0.4358  0.1604  0.1100
 2466SOL    HW118860   2.981   4.240   6.722  0.3964  0.0660 -2.1557
 2466SOL    HW218861   3.043   4.322   6.837  3.5526  1.1279  0.5195
 2467SOL     OW18862   3.732   4.336   5.811 -0.1182 -0.1633 -0.0053
 2467SOL    HW118863   3.770   4.249   5.811  1.1948  0.4193  0.5857
 2467SOL    HW218864   3.643   4.312   5.837 -0.1516  0.7420  0.6936
 2468SOL     OW18865   0.267   3.108   4.097  0.0187  0.8166  0.7723
 2468SOL    HW118866   0.286   3.018   4.074  2.8140  2.5032 -3.5166
 2468SOL    HW218867   0.266   3.149   4.010  0.8723  1.6324  1.1503
 2469SOL     OW18868   2.587   3.888   6.811  0.1461 -0.1413 -0.6963
 2469SOL    HW118869   2.565   3.972   6.771  0.3896  0.5523  0.6270
 2469SOL    HW218870   2.631   3.856   6.732 -1.0755 -0.9387 -1.0627
 2470SOL     OW18871   3.477   1.310  11.622  0.0609  0.0304  0.0057
 2470SOL    HW118872   3.460   1.341  11.711  0.5896 -1.2800  0.5804
 2470SOL    HW218873   3.455   1.386  11.569  1.7368 -0.0809 -0.8545
 2471SOL     OW18874   2.797   1.918  10.535 -0.2385  0.2136  0.3060
 2471SOL    HW118875   2.750   1.914  10.619  0.2807 -1.8707  0.5012
 2471SOL    HW218876   2.789   1.827  10.506  0.1721  0.5074 -0.7141
 2472SOL     OW18877   2.336   2.070   2.652  0.1058 -0.0326  0.2518
 2472SOL    HW118878   2.306   2.099   2.738  1.1839  3.0433 -0.4019
 2472SOL    HW218879   2.429   2.074   2.673  0.5842  1.1929 -2.0271
 2473SOL     OW18880   4.239   1.402  10.808  0.6776 -0.6487  0.3924
 2473SOL    HW118881   4.328   1.411  10.841  1.2057  0.0700 -1.2241
 2473SOL    HW218882   4.241   1.318  10.762  1.7946  0.9463 -2.4900
 2474SOL     OW18883   4.137   2.467   2.985 -0.5904 -0.0164  0.7320
 2474SOL    HW118884   4.109   2.466   3.077 -0.4164  1.9954  0.8096
 2474SOL    HW218885   4.134   2.372   2.974  3.3953 -0.2351  1.5326
 2475SOL     OW18886   4.567   0.832   5.962 -0.2237 -0.0021  0.4081
 2475SOL    HW118887   4.638   0.885   5.999  0.4841 -0.3882 -0.3837
 2475SOL    HW218888   4.527   0.793   6.039 -2.5441  0.1421 -0.7301
 2476SOL     OW18889   1.256   2.102   3.564  0.3018 -0.1915 -0.4288
 2476SOL    HW118890   1.288   2.014   3.545  0.3820  0.1127 -1.6900
 2476SOL    HW218891   1.315   2.136   3.632 -1.1587 -1.2623  1.3652
 2477SOL     OW18892   1.200   2.399   2.258  0.1694 -0.0335  0.0468
 2477SOL    HW118893   1.225   2.306   2.258 -1.1098 -0.3913 -2.3846
 2477SOL    HW218894   1.187   2.414   2.351  0.3626 -0.2728  0.1112
 2478SOL     OW18895   3.879   4.650  16.250  0.5453  0.2447  0.1636
 2478SOL    HW118896   3.927   4.568  16.267  0.0846 -0.1441 -0.4147
 2478SOL    HW218897   3.840   4.664  16.337 -0.9047  1.2921 -0.6644
 2479SOL     OW18898   0.339   1.726   4.350 -0.3888  0.5971  0.1754
 2479SOL    HW118899   0.335   1.819   4.374 -0.3874  0.5826  0.2311
 2479SOL    HW218900   0.429   1.708   4.377 -1.3218 -1.1922  2.0441
 2480SOL     OW18901   3.424   2.379   0.424 -0.4758 -0.0686  0.3967
 2480SOL    HW118902   3.454   2.443   0.489  0.6354 -1.4512  1.2592
 2480SOL    HW218903   3.337   2.412   0.404  0.1171  0.0140 -1.9743
 2481SOL     OW18904   0.908   3.291   9.018  0.4772  0.6045 -0.3961
 2481SOL    HW118905   0.878   3.286   8.927 -0.9459 -2.0315  0.2378
 2481SOL    HW218906   0.849   3.359   9.051 -1.4861  0.8008 -4.2580
 2482SOL     OW18907   2.717   0.935   8.763  0.2303 -0.3091 -0.0055
 2482SOL    HW118908   2.705   0.956   8.855  0.0533 -1.7656  0.3000
 2482SOL    HW218909   2.643   0.875   8.756 -1.1266  1.2251  1.0481
 2483SOL     OW18910   2.212   1.223   8.453 -0.0497 -0.1198  0.0818
 2483SOL    HW118911   2.236   1.132   8.434 -2.2416 -0.9114  1.0526
 2483SOL    HW218912   2.291   1.258   8.413  0.2438  0.8027  1.4711
 2484SOL     OW18913   1.556   2.040   9.751 -0.1506 -0.2323  0.0320
 2484SOL    HW118914   1.642   2.029   9.710  0.7747  0.7371  1.6915
 2484SOL    HW218915   1.509   1.984   9.690  0.3182  0.2472 -0.7729
 2485SOL     OW18916   0.193   0.901   5.828  0.3836 -0.2321  0.0939
 2485SOL    HW118917   0.251   0.938   5.762  2.7088 -0.1593  2.1419
 2485SOL    HW218918   0.251   0.840   5.873 -0.4736 -2.6083 -2.0465
 2486SOL     OW18919   0.565   1.907   2.545  0.1305  0.1099 -0.3710
 2486SOL    HW118920   0.586   1.820   2.579 -0.2965 -0.2191 -0.9419
 2486SOL    HW218921   0.473   1.920   2.567  0.8484  0.4481  2.4317
 2487SOL     OW18922   2.646   4.212   2.564 -0.4564 -0.0475  0.5227
 2487SOL    HW118923   2.729   4.248   2.533 -0.2315  0.0256  1.2083
 2487SOL    HW218924   2.621   4.255   2.646  1.3806  1.1047  0.4774
 2488SOL     OW18925   1.707   4.224   1.549  0.0499 -0.3001  0.0354
 2488SOL    HW118926   1.776   4.178   1.597  0.3593  0.5405  0.4067
 2488SOL    HW218927   1.634   4.218   1.609 -0.5712  1.2740 -0.5683
 2489SOL     OW18928   2.871   2.403  10.442  0.2434  0.1573  0.4023
 2489SOL    HW118929   2.822   2.464  10.387 -0.4012 -0.7583 -0.0427
 2489SOL    HW218930   2.814   2.327  10.437 -0.8188  1.1027 -1.8119
 2490SOL     OW18931   0.403   1.945  10.351 -0.0073  0.0959 -0.9417
 2490SOL    HW118932   0.393   1.897  10.269  1.8955 -1.7167 -0.0981
 2490SOL    HW218933   0.429   1.872  10.407 -1.3094  0.2474 -0.1662
 2491SOL     OW18934   2.288   3.839   6.550  0.3197 -0.0514  0.3153
 2491SOL    HW118935   2.263   3.768   6.491 -3.2343  0.8242  0.7782
 2491SOL    HW218936   2.245   3.818   6.633  0.5312  0.8407  0.6496
 2492SOL     OW18937   3.139   0.586   8.282  0.2469 -0.3796  0.3791
 2492SOL    HW118938   3.111   0.511   8.333  0.7909  0.2430  1.5994
 2492SOL    HW218939   3.224   0.603   8.322  0.4078  0.4646 -0.3207
 2493SOL     OW18940   1.266   3.871   5.077 -0.3450  0.3272 -0.2416
 2493SOL    HW118941   1.267   3.775   5.073 -1.0676  0.3863 -1.8069
 2493SOL    HW218942   1.192   3.894   5.133 -0.7475 -2.4031  0.3567
 2494SOL     OW18943   3.812   4.156   1.451 -0.3477  0.2721  0.4443
 2494SOL    HW118944   3.883   4.116   1.400 -2.5452 -0.6490 -1.8805
 2494SOL    HW218945   3.855   4.233   1.488  0.7075 -1.7295  3.3536
 2495SOL     OW18946   2.477   0.634   2.122 -0.1325 -0.3445  0.4089
 2495SOL    HW118947   2.524   0.553   2.102 -0.1425 -0.3230  0.2927
 2495SOL    HW218948   2.538   0.706   2.102 -1.0129  0.5555  0.9544
 2496SOL     OW18949   4.489   4.633   4.518 -0.4979  0.5175 -0.2053
 2496SOL    HW118950   4.546   4.629   4.595 -0.1669  0.5564 -0.4436
 2496SOL    HW218951   4.558   4.661   4.457 -0.6043  0.6809 -0.2494
 2497SOL     OW18952   1.915   0.929   0.569 -0.0346 -0.6545  0.3566
 2497SOL    HW118953   2.005   0.919   0.600  0.8721  2.3551 -1.2648
 2497SOL    HW218954   1.907   0.858   0.505 -0.1880 -1.3724  1.1744
 2498SOL     OW18955   1.898   2.549   8.883 -0.3292 -0.2290 -0.6577
 2498SOL    HW118956   1.945   2.515   8.807 -0.0225 -1.0226 -0.1126
 2498SOL    HW218957   1.972   2.541   8.944 -1.5192 -2.4946  0.4593
 2499SOL     OW18958   3.550   3.007   0.666  0.3174 -0.1207  0.4912
 2499SOL    HW118959   3.626   2.949   0.660 -0.0227 -0.3616 -1.4627
 2499SOL    HW218960   3.474   2.960   0.632 -1.0450  1.4278  1.4073
 2500SOL     OW18961   1.299   4.605   4.099 -0.8206 -0.1167  0.1574
 2500SOL    HW118962   1.226   4.545   4.108 -1.4406  0.4671 -1.0165
 2500SOL    HW218963   1.354   4.580   4.174 -0.6530  2.0378  0.7512
 2501SOL     OW18964   4.075   4.476   7.315 -0.3997 -0.0397 -0.3222
 2501SOL    HW118965   3.979   4.481   7.314 -0.3565  0.7969 -0.4781
 2501SOL    HW218966   4.092   4.503   7.406 -1.0840  1.3358 -0.6093
 2502SOL     OW18967   2.065   2.105   3.332 -0.0162  0.7718 -0.2342
 2502SOL    HW118968   2.133   2.136   3.272 -0.3499  0.5420 -0.7342
 2502SOL    HW218969   2.032   2.185   3.373  1.1441  0.6953  0.8128
 2503SOL     OW18970   2.015   1.655  14.190 -0.6944 -0.5830  0.1001
 2503SOL    HW118971   2.082   1.616  14.135  0.2564  0.0118  0.8308
 2503SOL    HW218972   1.963   1.685  14.115 -0.2050  0.3623  0.1396
 2504SOL     OW18973   0.147   0.396   8.661  0.2464 -0.2612 -0.2679
 2504SOL    HW118974   0.066   0.420   8.707  0.7040 -0.2695  0.5418
 2504SOL    HW218975   0.110   0.363   8.579 -1.2260  0.4267  0.1063
 2505SOL     OW18976   2.426   1.799  10.951  0.0176 -0.7934  0.2116
 2505SOL    HW118977   2.435   1.738  11.025 -0.3330 -0.3550  0.6098
 2505SOL    HW218978   2.432   1.886  10.990 -1.2545 -0.1756 -0.9876
 2506SOL     OW18979   2.932   1.574  12.172  0.0768 -0.4232 -0.3969
 2506SOL    HW118980   2.914   1.509  12.103  1.1797  0.3658 -1.4381
 2506SOL    HW218981   2.854   1.553  12.224  0.1510  3.8727  1.4349
 2507SOL     OW18982   2.201   0.812   7.702  0.0896  0.0222  0.5268
 2507SOL    HW118983   2.254   0.882   7.740  0.8968  0.0059 -0.5725
 2507SOL    HW218984   2.124   0.852   7.661 -0.1819 -3.4382 -2.3555
 2508SOL     OW18985   0.506   1.583  14.037  0.2225 -0.6160 -0.5571
 2508SOL    HW118986   0.414   1.583  14.012 -0.3921  0.8247  1.6696
 2508SOL    HW218987   0.549   1.591  13.952  0.1771  2.4499 -0.3031
 2509SOL     OW18988   2.913   1.031   4.893  0.0163  0.6330 -0.4599
 2509SOL    HW118989   2.942   1.090   4.824  0.1114 -1.0276 -1.8586
 2509SOL    HW218990   2.990   0.975   4.902 -1.4690 -1.3873 -0.2144
 2510SOL     OW18991   1.080   1.259   7.622  0.2065  0.1122  0.0087
 2510SOL    HW118992   1.059   1.340   7.669 -0.1004 -1.3437  2.3989
 2510SOL    HW218993   1.071   1.190   7.687 -2.1909  0.7248  0.3292
 2511SOL     OW18994   0.076   1.989  12.659 -0.6180 -0.0526 -0.0260
 2511SOL    HW118995   0.088   1.901  12.696 -0.3758 -0.3615 -0.8393
 2511SOL    HW218996   0.135   2.041  12.714 -1.1882  0.2059  0.3398
 2512SOL     OW18997   3.944   2.952   3.920  0.9081  0.0534 -0.2253
 2512SOL    HW118998   3.892   2.906   3.853  0.8226 -0.8777  0.4725
 2512SOL    HW218999   3.883   3.017   3.955 -2.2173 -3.2702  0.5168
 2513SOL     OW19000   3.059   4.654  17.087  0.5713 -0.0798  0.2391
 2513SOL    HW119001   3.049   0.010  17.144 -1.0536  1.7125 -2.4081
 2513SOL    HW219002   2.979   4.602  17.099 -0.4767  1.1438 -1.3545
 2514SOL     OW19003   0.371   3.075   6.410  0.5979 -0.1174 -0.5577
 2514SOL    HW119004   0.276   3.079   6.404  0.6621  5.0338  1.3824
 2514SOL    HW219005   0.392   3.161   6.447 -1.3804  0.7004 -1.3106
 2515SOL     OW19006   0.911   1.068   4.642 -0.4563 -0.1500 -0.0606
 2515SOL    HW119007   0.996   1.112   4.645  0.2480 -1.3473 -2.0440
 2515SOL    HW219008   0.929   1.020   4.561  1.6327  1.2252 -0.3992
 2516SOL     OW19009   4.359   3.070   8.487  0.2476 -0.0657  0.4654
 2516SOL    HW119010   4.398   3.140   8.540  0.6053 -1.5078  2.1169
 2516SOL    HW219011   4.364   3.002   8.554 -1.3926 -0.3253  0.3145
 2517SOL     OW19012   1.887   3.959  14.289  0.3832  0.0587 -0.2235
 2517SOL    HW119013   1.851   3.879  14.251 -0.1966 -0.4375  1.3316
 2517SOL    HW219014   1.918   3.999  14.208 -0.2774 -0.8801 -0.9447
 2518SOL     OW19015   3.658   1.726   3.863 -0.2645  0.3078  0.3313
 2518SOL    HW119016   3.598   1.725   3.788 -0.5686 -0.9124  0.5929
 2518SOL    HW219017   3.597   1.680   3.920 -0.3563  0.5703  0.4441
 2519SOL     OW19018   3.300   2.389   1.038 -0.4511 -0.2436  0.3045
 2519SOL    HW119019   3.227   2.338   1.004  1.6259 -1.8167 -1.7259
 2519SOL    HW219020   3.264   2.477   1.051 -2.1992 -0.9988  0.5462
 2520SOL     OW19021   1.119   4.430  14.436  0.6294 -0.8033 -0.0152
 2520SOL    HW119022   1.090   4.516  14.468  2.1288  0.0358 -0.9239
 2520SOL    HW219023   1.184   4.443  14.367  0.6581  1.1500  0.3921
 2521SOL     OW19024   2.776   2.903   1.487 -0.2824  0.6939 -0.1548
 2521SOL    HW119025   2.851   2.878   1.541  0.3450  2.5440 -0.1392
 2521SOL    HW219026   2.759   2.993   1.515 -2.7670 -0.3884  1.7214
 2522SOL     OW19027   0.003   0.130   5.663 -0.6093  0.2122  0.0013
 2522SOL    HW119028   0.066   0.201   5.653  0.0363  0.0966  3.2458
 2522SOL    HW219029   4.695   0.128   5.571 -0.8024 -1.7305  0.0970
 2523SOL     OW19030   1.614   3.224   8.593 -0.0235 -0.5266  0.8734
 2523SOL    HW119031   1.539   3.178   8.630 -0.5529  2.1868  3.1788
 2523SOL    HW219032   1.590   3.311   8.626  0.9001 -0.2073  0.7101
 2524SOL     OW19033   2.563   0.731   6.020  0.5912  0.3270 -0.1809
 2524SOL    HW119034   2.538   0.747   6.111  1.0309  0.9657 -0.1688
 2524SOL    HW219035   2.641   0.678   6.037 -0.6088 -2.5144 -3.7290
 2525SOL     OW19036   4.689   2.781   3.240 -1.0865  0.1622 -0.0347
 2525SOL    HW119037   4.653   2.869   3.252  1.6057  0.9846  2.0522
 2525SOL    HW219038   4.672   2.769   3.146  0.3906 -0.4257 -0.2352
 2526SOL     OW19039   3.335   2.013   2.715  0.0941 -0.4504  0.0879
 2526SOL    HW119040   3.384   2.092   2.693  0.5478 -0.5917  0.5999
 2526SOL    HW219041   3.257   2.018   2.660  1.3814 -0.5386 -1.7730
 2527SOL     OW19042   0.171   0.836   8.888 -0.2205  0.0700 -0.3086
 2527SOL    HW119043   0.250   0.890   8.895 -0.1721  0.1721 -1.6134
 2527SOL    HW219044   0.204   0.752   8.921  1.5651  0.5952 -0.7583
 2528SOL     OW19045   1.551   2.662  14.601  0.5578 -0.6814  0.1870
 2528SOL    HW119046   1.554   2.751  14.636 -3.6537 -0.8197  0.9157
 2528SOL    HW219047   1.471   2.626  14.641 -0.3289  0.2653 -0.7340
 2529SOL     OW19048   4.276   0.055   0.486 -0.2127  0.3867  0.5118
 2529SOL    HW119049   4.353   0.001   0.502 -0.1721  0.1562 -0.4540
 2529SOL    HW219050   4.204   4.717   0.459 -1.0588  2.6316 -2.0723
 2530SOL     OW19051   2.969   3.404   4.713 -0.2819 -0.6316 -0.2269
 2530SOL    HW119052   2.933   3.363   4.792  0.2136 -0.5865  0.0226
 2530SOL    HW219053   2.981   3.495   4.741 -0.2959 -0.7026  0.0148
 2531SOL     OW19054   2.054   4.181   0.787 -0.1824 -0.1073 -0.1039
 2531SOL    HW119055   2.029   4.185   0.880  0.3515  0.8520 -0.0027
 2531SOL    HW219056   2.137   4.137   0.802 -1.1617 -1.1987  2.1180
 2532SOL     OW19057   2.447   3.252   6.270 -0.1897  0.0253  0.6933
 2532SOL    HW119058   2.458   3.311   6.345  0.2416  1.3310 -0.3900
 2532SOL    HW219059   2.361   3.217   6.292  0.5865 -2.1792  0.1779
 2533SOL     OW19060   2.140   4.073   4.094 -0.3944  0.0111  0.0694
 2533SOL    HW119061   2.095   4.029   4.022  0.9447 -0.3676 -0.5244
 2533SOL    HW219062   2.068   4.117   4.141  0.3930  2.2900 -0.8564
 2534SOL     OW19063   2.007   3.067  12.775  0.0308 -0.0284 -0.6888
 2534SOL    HW119064   2.054   2.986  12.754 -0.5655 -1.0110  1.7228
 2534SOL    HW219065   1.951   3.033  12.845 -0.5747  0.8876 -0.7274
 2535SOL     OW19066   2.853   2.237  16.657 -0.4617 -0.0791  0.7035
 2535SOL    HW119067   2.947   2.223  16.647 -0.7698 -2.0215  0.4607
 2535SOL    HW219068   2.859   2.257  16.751 -1.2451  3.2489  0.0425
 2536SOL     OW19069   2.840   3.628   6.941 -0.1670  0.6817 -0.1021
 2536SOL    HW119070   2.774   3.565   6.911  1.3641 -0.8945 -0.0925
 2536SOL    HW219071   2.876   3.574   7.011 -0.8076 -1.4996 -1.4444
 2537SOL     OW19072   1.072   0.653   4.657  0.4510 -0.3656  0.3450
 2537SOL    HW119073   1.012   0.720   4.622  2.1779  0.9449 -0.0868
 2537SOL    HW219074   1.139   0.713   4.689  0.9494 -1.4106  1.2321
 2538SOL     OW19075   4.249   3.957   2.235 -0.2141 -0.3435  0.3529
 2538SOL    HW119076   4.154   3.971   2.228  0.2930  2.8254 -0.1880
 2538SOL    HW219077   4.267   3.881   2.180 -0.7258 -1.0343  1.1529
 2539SOL     OW19078   0.161   1.424   2.258 -0.4526  0.0221 -0.2466
 2539SOL    HW119079   0.102   1.428   2.182 -0.8329  2.5605  0.1825
 2539SOL    HW219080   0.170   1.332   2.283 -1.1481  0.4803  1.7026
 2540SOL     OW19081   4.379   4.087   8.055 -0.5390  0.3806  0.4652
 2540SOL    HW119082   4.314   4.107   8.123 -1.0844  0.1912 -0.0030
 2540SOL    HW219083   4.330   4.059   7.978 -0.4565  0.1482  0.4990
 2541SOL     OW19084   0.753   2.206   4.033  0.4805  0.0937 -0.2950
 2541SOL    HW119085   0.805   2.160   3.967 -0.1714 -0.6195 -0.3122
 2541SOL    HW219086   0.666   2.198   3.995 -1.0850  1.5266  2.9481
 2542SOL     OW19087   3.757   3.836   7.997 -0.2874  0.1262  0.4139
 2542SOL    HW119088   3.726   3.803   7.913 -0.6535  0.5031  0.4028
 2542SOL    HW219089   3.677   3.881   8.024  0.8022  0.7114  2.7199
 2543SOL     OW19090   2.775   2.690  15.990  0.1128 -0.0141  0.3290
 2543SOL    HW119091   2.842   2.672  16.056  0.4177  2.2754  0.6456
 2543SOL    HW219092   2.765   2.608  15.943 -0.4331  1.4886 -2.1331
 2544SOL     OW19093   3.815   0.296  15.372 -0.6941  0.2324  0.2084
 2544SOL    HW119094   3.859   0.348  15.305 -1.1862 -1.2952 -1.3212
 2544SOL    HW219095   3.868   0.218  15.389  0.0188  0.6912  0.0701
 2545SOL     OW19096   3.012   1.415   2.054  0.2640 -0.0342  0.3321
 2545SOL    HW119097   3.097   1.381   2.023  0.0462 -0.7925  0.5582
 2545SOL    HW219098   2.958   1.384   1.981 -0.0175 -0.3453  0.6742
 2546SOL     OW19099   2.387   3.376   5.563  0.2013 -0.0495  0.4714
 2546SOL    HW119100   2.373   3.321   5.640  0.2517 -0.1227  0.4286
 2546SOL    HW219101   2.337   3.324   5.500  0.8734 -0.5592  0.3659
 2547SOL     OW19102   2.549   0.334   4.012 -0.5694  0.3426  0.4854
 2547SOL    HW119103   2.611   0.306   3.945 -3.3680  0.0038 -1.9586
 2547SOL    HW219104   2.486   0.263   4.025 -0.0029 -0.3617 -0.6754
 2548SOL     OW19105   3.262   4.346   5.825  0.2933 -0.5346  0.3166
 2548SOL    HW119106   3.219   4.363   5.741 -2.3046  0.4419  1.8465
 2548SOL    HW219107   3.330   4.414   5.828 -1.3046  1.0497  0.2320
 2549SOL     OW19108   2.983   0.239  11.117 -0.1602  0.2046 -0.0132
 2549SOL    HW119109   2.999   0.326  11.153  0.0180  0.7342 -1.3891
 2549SOL    HW219110   2.931   0.276  11.046 -1.8479 -1.4985  0.3553
 2550SOL     OW19111   2.011   4.334   3.366 -0.0175  0.7162 -0.1326
 2550SOL    HW119112   1.923   4.370   3.378 -0.7253 -1.2795  0.6232
 2550SOL    HW219113   2.060   4.413   3.344  1.7917 -0.3250  0.2039
 2551SOL     OW19114   2.472   1.794   8.141  0.2055 -0.1438  0.1399
 2551SOL    HW119115   2.515   1.710   8.134 -0.2369 -0.5909  2.6221
 2551SOL    HW219116   2.436   1.790   8.230 -0.1134  0.4272  0.0389
 2552SOL     OW19117   3.124   3.430   2.041 -0.9292  0.1841  0.3792
 2552SOL    HW119118   3.047   3.387   2.078 -1.9412  3.4102  1.9536
 2552SOL    HW219119   3.101   3.520   2.021 -0.7001  0.2287  0.3129
 2553SOL     OW19120   4.552   4.299  10.354 -0.1406  0.6733 -0.3531
 2553SOL    HW119121   4.537   4.205  10.365  0.8371  0.2360 -2.7224
 2553SOL    HW219122   4.632   4.303  10.301 -0.6441 -1.0989 -1.2499
 2554SOL     OW19123   2.430   3.143   1.511  0.1149  0.6183 -0.1158
 2554SOL    HW119124   2.428   3.047   1.509 -2.6661  0.6728  0.8539
 2554SOL    HW219125   2.357   3.162   1.452 -2.0675 -1.4210  1.9137
 2555SOL     OW19126   0.964   0.879   1.404 -0.3613 -0.2446  0.3378
 2555SOL    HW119127   0.991   0.880   1.496 -0.6505 -0.1974  0.4229
 2555SOL    HW219128   1.029   0.828   1.356 -2.1111 -1.5145 -0.6482
 2556SOL     OW19129   4.067   2.590   4.133 -0.8261 -0.2040 -0.7334
 2556SOL    HW119130   3.972   2.597   4.126 -1.1502 -0.6517  2.9714
 2556SOL    HW219131   4.084   2.511   4.184 -0.7239  0.5553  0.4036
 2557SOL     OW19132   2.920   3.613  16.857 -0.5571 -0.8554  0.4753
 2557SOL    HW119133   2.926   3.525  16.893  1.7105 -0.1713  1.8111
 2557SOL    HW219134   2.824   3.614  16.858 -0.4830  4.7540  1.6310
 2558SOL     OW19135   0.124   2.593   3.354 -0.3355 -0.1123 -0.0870
 2558SOL    HW119136   0.177   2.582   3.275 -1.1648  0.7694 -0.7592
 2558SOL    HW219137   0.061   2.657   3.322 -1.0917  0.0044  1.6395
 2559SOL     OW19138   3.466   2.685   6.725  0.7948  0.1048  0.1802
 2559SOL    HW119139   3.521   2.761   6.746  0.3704  0.4592 -0.0065
 2559SOL    HW219140   3.386   2.710   6.771  0.1078  0.7589 -1.3700
 2560SOL     OW19141   2.779   3.011   3.944 -0.9702 -0.1439  0.4728
 2560SOL    HW119142   2.718   2.966   4.003 -1.2843 -0.8270 -0.3706
 2560SOL    HW219143   2.749   3.099   3.963 -0.1667  0.4650 -1.0723
 2561SOL     OW19144   4.710   1.289   6.409 -0.4651  0.0262  0.0761
 2561SOL    HW119145   4.656   1.268   6.333 -0.8702 -1.1812  0.7065
 2561SOL    HW219146   4.665   1.358   6.457 -0.8405  0.4235 -0.8461
 2562SOL     OW19147   3.188   0.994  10.863 -0.0456 -0.3820 -0.5843
 2562SOL    HW119148   3.184   1.032  10.775 -0.6609  1.6959  0.3312
 2562SOL    HW219149   3.272   0.949  10.859  1.1603  1.8711 -0.4698
 2563SOL     OW19150   4.693   1.496   7.970 -0.5359 -0.2997 -0.1154
 2563SOL    HW119151   4.631   1.547   7.918 -2.4853  0.4249  2.9217
 2563SOL    HW219152   4.653   1.410   7.956 -0.1464 -0.6260  0.7593
 2564SOL     OW19153   3.801   4.445  15.686 -0.4885  0.4820  0.1408
 2564SOL    HW119154   3.733   4.507  15.661 -0.7466  0.3769  0.5673
 2564SOL    HW219155   3.776   4.432  15.778 -0.2579 -0.1448  0.1130
 2565SOL     OW19156   3.485   3.924   4.382  0.3782 -0.3113  0.0026
 2565SOL    HW119157   3.463   3.938   4.474  0.4189  1.2549 -0.2325
 2565SOL    HW219158   3.574   3.890   4.396 -0.1233 -3.0997 -3.4992
 2566SOL     OW19159   2.722   1.757   6.296 -0.0165  0.2549 -0.0073
 2566SOL    HW119160   2.810   1.729   6.323 -0.6902 -1.9763 -0.1202
 2566SOL    HW219161   2.720   1.846   6.329  0.4033  0.4528 -0.5244
 2567SOL     OW19162   1.504   4.430  17.273  0.3600  0.4572  0.2579
 2567SOL    HW119163   1.497   4.459  17.182  1.9768  1.7004  0.5249
 2567SOL    HW219164   1.538   4.342  17.262 -1.9692 -0.7114  2.4095
 2568SOL     OW19165   0.451   4.014   5.453  0.1321  0.0676  0.1241
 2568SOL    HW119166   0.362   4.033   5.483 -0.8376 -0.4849 -2.3828
 2568SOL    HW219167   0.438   3.931   5.406  1.8711  0.0722 -0.3519
 2569SOL     OW19168   2.717   1.935   2.449  0.1876 -0.2537  0.3170
 2569SOL    HW119169   2.704   1.852   2.403  0.2610  1.0204 -2.0039
 2569SOL    HW219170   2.781   1.977   2.391 -0.9773  2.1915  0.8158
 2570SOL     OW19171   1.368   1.561   7.967  0.0219 -0.0716  0.4421
 2570SOL    HW119172   1.300   1.560   7.900  0.9322  1.4416 -0.4969
 2570SOL    HW219173   1.355   1.483   8.021  0.4859 -0.5832 -0.1843
 2571SOL     OW19174   4.670   3.074  15.968  0.1486  0.0244  0.0602
 2571SOL    HW119175   4.603   3.042  16.027  0.0244  0.5854  0.2311
 2571SOL    HW219176   4.686   3.164  15.999 -0.4454  0.2830 -0.3920
 2572SOL     OW19177   3.815   0.596   5.947 -0.3647 -0.8906  0.0246
 2572SOL    HW119178   3.871   0.623   6.020 -0.0576  0.1698 -0.6005
 2572SOL    HW219179   3.833   0.503   5.961 -0.7491 -0.6048  2.3561
 2573SOL     OW19180   2.264   2.088   6.623 -0.3879  0.2258 -0.4387
 2573SOL    HW119181   2.295   2.001   6.600  0.3532  0.2835  0.3104
 2573SOL    HW219182   2.170   2.088   6.609 -0.3181  0.4444 -0.9075
 2574SOL     OW19183   3.381   3.205  15.770 -0.1076 -0.6173 -0.0502
 2574SOL    HW119184   3.460   3.192  15.717  0.9000  0.6649  1.1531
 2574SOL    HW219185   3.418   3.185  15.856 -2.0992 -3.3490  0.1825
 2575SOL     OW19186   3.809   2.544   4.814  0.1896  0.2647  0.5517
 2575SOL    HW119187   3.799   2.481   4.742 -0.2253  0.4636  0.4339
 2575SOL    HW219188   3.734   2.603   4.802  0.3808  0.2217 -0.9266
 2576SOL     OW19189   3.877   4.174   6.854  0.3238  0.1069 -0.3284
 2576SOL    HW119190   3.900   4.266   6.858  1.3110 -0.1674  0.5064
 2576SOL    HW219191   3.795   4.179   6.903 -0.8316 -2.1118 -1.9975
 2577SOL     OW19192   2.067   4.500   5.966  0.0507  0.6206  0.1377
 2577SOL    HW119193   2.113   4.418   5.947  1.4098  1.7576 -1.4910
 2577SOL    HW219194   2.130   4.550   5.912  0.6618 -1.5424 -1.1468
 2578SOL     OW19195   1.141   2.134   2.876 -0.2883 -0.3617 -0.2055
 2578SOL    HW119196   1.199   2.087   2.935 -0.3564 -2.4222 -1.7994
 2578SOL    HW219197   1.105   2.195   2.940 -1.2880 -0.7210 -0.4247
 2579SOL     OW19198   1.493   2.292   1.191 -0.4235 -0.1679  0.3444
 2579SOL    HW119199   1.408   2.260   1.221 -1.5622  3.2588  0.7894
 2579SOL    HW219200   1.457   2.351   1.125 -0.1141 -0.2293  0.1178
 2580SOL     OW19201   1.928   2.772   5.488 -0.0342  0.2001 -0.5043
 2580SOL    HW119202   1.921   2.700   5.426  0.6770 -1.6635  1.5861
 2580SOL    HW219203   1.835   2.793   5.485 -0.4013 -1.8189 -3.3102
 2581SOL     OW19204   2.526   0.977   8.146 -0.1251  0.2717  0.1753
 2581SOL    HW119205   2.587   0.904   8.158  0.4903  0.3515 -2.3400
 2581SOL    HW219206   2.475   0.961   8.225 -1.3962 -3.1638 -1.3348
 2582SOL     OW19207   0.875   1.201   5.422 -0.3446  0.1792 -0.7568
 2582SOL    HW119208   0.943   1.255   5.383 -0.5042  0.9793  0.0951
 2582SOL    HW219209   0.801   1.260   5.407 -0.9816 -0.7968 -1.4549
 2583SOL     OW19210   3.018   4.476  14.244  0.2887  0.0841 -0.0624
 2583SOL    HW119211   3.046   4.560  14.281 -0.9416  0.5201 -0.1120
 2583SOL    HW219212   2.949   4.450  14.306  0.6579 -0.7595 -0.0072
 2584SOL     OW19213   0.454   3.005   8.427 -0.1626 -0.3552  0.1901
 2584SOL    HW119214   0.521   3.027   8.492  1.4176 -0.6275 -1.3208
 2584SOL    HW219215   0.495   3.028   8.344  1.4160 -0.6431  0.8796
 2585SOL     OW19216   1.763   4.498  10.098 -0.2829 -0.5153 -0.1761
 2585SOL    HW119217   1.722   4.524  10.181 -1.3870 -0.8932 -0.6005
 2585SOL    HW219218   1.741   4.580  10.052  1.1425  0.1896  0.4111
 2586SOL     OW19219   2.488   0.584   2.941  0.3458 -0.2666  0.6670
 2586SOL    HW119220   2.495   0.678   2.929 -1.1194 -0.7552 -3.8901
 2586SOL    HW219221   2.444   0.553   2.862 -0.2675  0.9289  0.5437
 2587SOL     OW19222   2.599   0.820   3.310  0.0942 -0.4383 -0.2200
 2587SOL    HW119223   2.509   0.790   3.326  0.1069 -1.8975 -2.9554
 2587SOL    HW219224   2.646   0.737   3.315  1.9358  0.6943  1.1615
 2588SOL     OW19225   0.531   0.151   2.077 -0.5505  0.2995 -0.3385
 2588SOL    HW119226   0.566   0.096   2.007 -1.0612  1.4448 -1.4858
 2588SOL    HW219227   0.486   0.219   2.027  0.9587 -0.1266 -2.2477
 2589SOL     OW19228   3.932   0.477   1.197  0.1904  0.1089 -0.0098
 2589SOL    HW119229   3.960   0.471   1.106 -0.6929 -0.0663 -0.2722
 2589SOL    HW219230   3.965   0.565   1.210 -1.8894  0.5942  2.0995
 2590SOL     OW19231   1.132   3.383   3.322 -0.0496  0.0530  0.1202
 2590SOL    HW119232   1.153   3.320   3.390  1.4249  0.2317 -0.1729
 2590SOL    HW219233   1.208   3.440   3.331  0.4173 -0.4811 -0.4611
 2591SOL     OW19234   1.239   0.995   5.189 -0.2300 -0.0009  0.2134
 2591SOL    HW119235   1.295   1.069   5.169  0.2771 -0.5791 -0.5268
 2591SOL    HW219236   1.175   0.988   5.118 -1.0076 -2.5983  1.1303
 2592SOL     OW19237   1.095   3.800   2.757  0.2980  0.0465  0.0013
 2592SOL    HW119238   1.060   3.712   2.746  3.5777 -1.2429 -0.1306
 2592SOL    HW219239   1.016   3.852   2.744  0.1513 -0.3958 -0.8495
 2593SOL     OW19240   1.524   4.014  10.376  0.0970  0.2826  0.0982
 2593SOL    HW119241   1.591   3.997  10.442  0.1418 -0.0178 -0.0284
 2593SOL    HW219242   1.561   4.091  10.333  1.5532  0.4029  1.5803
 2594SOL     OW19243   3.944   0.299  10.143  0.5962 -0.3145 -0.2867
 2594SOL    HW119244   4.013   0.233  10.147  0.0954 -1.0640 -3.3661
 2594SOL    HW219245   3.949   0.327  10.051  2.5810 -1.2901 -0.4834
 2595SOL     OW19246   0.946   2.870   8.045  0.5515  0.3603  0.5339
 2595SOL    HW119247   0.859   2.906   8.028  0.5660  0.5570  0.8799
 2595SOL    HW219248   0.979   2.933   8.109  2.8905 -0.6390  0.3081
 2596SOL     OW19249   1.294   1.109   2.125 -0.6363  0.0899 -0.1154
 2596SOL    HW119250   1.266   1.200   2.137  1.6164  1.0282 -1.8473
 2596SOL    HW219251   1.319   1.084   2.214 -0.7319  0.7632  0.1012
 2597SOL     OW19252   4.129   0.132   5.007 -0.3587  0.1636 -0.1868
 2597SOL    HW119253   4.135   0.142   5.102  1.0518  0.4163 -0.2977
 2597SOL    HW219254   4.135   0.037   4.992 -0.0516  0.1948 -0.2734
 2598SOL     OW19255   4.325   0.083   1.671 -0.1916  0.3661 -0.0081
 2598SOL    HW119256   4.405   0.123   1.707 -0.5701  0.7696  0.3847
 2598SOL    HW219257   4.360   0.025   1.604 -2.6793  0.1954 -1.1512
 2599SOL     OW19258   2.552   4.241   6.146  0.1605  0.0192  0.2229
 2599SOL    HW119259   2.487   4.283   6.202  0.3044 -1.6201  1.6302
 2599SOL    HW219260   2.615   4.312   6.137 -1.6601  1.4381 -1.1899
 2600SOL     OW19261   1.581   4.129   9.359  0.4865 -0.2907  0.6322
 2600SOL    HW119262   1.646   4.180   9.407 -0.8483  1.7048  0.3274
 2600SOL    HW219263   1.620   4.089   9.282  1.8895  0.9792  0.6760
 2601SOL     OW19264   3.763   1.331   3.807 -0.7091 -0.0677  0.3174
 2601SOL    HW119265   3.726   1.357   3.891 -2.3564 -2.5033  0.3669
 2601SOL    HW219266   3.726   1.388   3.739  0.6234 -2.0556 -2.1093
 2602SOL     OW19267   2.387   1.734  13.882  0.1694 -0.3302  0.3476
 2602SOL    HW119268   2.315   1.770  13.933  0.7433  0.4357  0.6041
 2602SOL    HW219269   2.449   1.806  13.874  1.3026 -1.0825  2.5161
 2603SOL     OW19270   2.120   0.999   6.589 -0.4288 -0.2904  0.1149
 2603SOL    HW119271   2.071   0.985   6.670  2.3763  1.5988  2.1593
 2603SOL    HW219272   2.046   1.018   6.532 -0.2555  1.0480  0.3452
 2604SOL     OW19273   0.137   2.296   7.805 -0.3582 -0.2765  0.3400
 2604SOL    HW119274   0.095   2.336   7.729  0.4986  0.4647  0.2501
 2604SOL    HW219275   0.085   2.325   7.881  2.0463  3.0645  0.7236
 2605SOL     OW19276   0.616   2.485   1.978 -0.0511 -0.3095 -0.1781
 2605SOL    HW119277   0.603   2.390   1.973 -2.1048  0.1314 -3.0052
 2605SOL    HW219278   0.581   2.511   2.063  0.3725 -3.8915  1.0797
 2606SOL     OW19279   0.647   1.467   6.807 -0.2981  0.6967 -0.1931
 2606SOL    HW119280   0.555   1.488   6.822 -0.1012  1.1028  0.4447
 2606SOL    HW219281   0.696   1.490   6.886  0.6356 -1.8543 -0.0389
 2607SOL     OW19282   3.638   4.107   2.528  0.3351 -0.1974 -0.4434
 2607SOL    HW119283   3.664   4.044   2.595  1.8728 -0.4602 -1.3018
 2607SOL    HW219284   3.691   4.185   2.543 -0.0189  0.3157 -1.8148
 2608SOL     OW19285   3.594   1.359   7.162 -0.3301 -0.2993  0.0682
 2608SOL    HW119286   3.667   1.404   7.206 -0.9308  1.7123 -1.0027
 2608SOL    HW219287   3.627   1.269   7.164 -1.9728 -0.9434 -3.0679
 2609SOL     OW19288   3.462   2.832   1.715  0.4346 -0.4167  0.2218
 2609SOL    HW119289   3.435   2.742   1.736 -0.1498 -0.5124 -0.9784
 2609SOL    HW219290   3.548   2.812   1.679  0.3916 -0.6378  0.2375
 2610SOL     OW19291   0.946   4.468   7.848 -0.2732 -0.0422 -0.4156
 2610SOL    HW119292   0.927   4.562   7.851  0.8137  0.1516  0.2676
 2610SOL    HW219293   0.940   4.445   7.755 -0.7364 -0.2311 -0.3384
 2611SOL     OW19294   4.663   4.204   1.715 -0.2775 -0.5821 -0.2265
 2611SOL    HW119295   4.595   4.239   1.657  1.5489  0.3795 -1.7875
 2611SOL    HW219296   0.024   4.222   1.667 -1.4289  0.1460 -1.9034
 2612SOL     OW19297   1.097   3.995  11.747 -0.0992  0.0656 -0.1494
 2612SOL    HW119298   1.042   3.940  11.802 -1.5711  1.3445 -0.3564
 2612SOL    HW219299   1.046   3.995  11.665  1.0678 -1.2967 -0.8672
 2613SOL     OW19300   2.696   4.316   6.487 -0.7496  0.1471 -0.0253
 2613SOL    HW119301   2.752   4.394   6.489  0.6931 -0.8330 -2.0465
 2613SOL    HW219302   2.644   4.330   6.408  0.0491  0.9625 -0.4137
 2614SOL     OW19303   2.890   4.700   0.173 -0.2890  0.0907  0.1426
 2614SOL    HW119304   2.841   0.059   0.149  0.5599  0.3705 -0.6933
 2614SOL    HW219305   2.966   0.022   0.214  0.3332 -0.8901 -0.0047
 2615SOL     OW19306   4.483   1.995  10.390 -0.2839  0.3506  0.2382
 2615SOL    HW119307   4.555   1.968  10.333 -1.3070  2.6910 -2.1120
 2615SOL    HW219308   4.411   1.941  10.358  1.4651 -0.8368 -1.7272
 2616SOL     OW19309   3.475   3.552   2.740 -0.0278  0.0721  0.1700
 2616SOL    HW119310   3.462   3.472   2.792  0.4629 -0.5673 -0.6867
 2616SOL    HW219311   3.503   3.515   2.656 -0.3966 -0.7587  0.4085
 2617SOL     OW19312   2.238   1.365  12.129  0.0748 -0.1905  0.3044
 2617SOL    HW119313   2.291   1.303  12.181  2.8706  2.2657  0.3637
 2617SOL    HW219314   2.292   1.360  12.050  2.4974  1.0598  1.8873
 2618SOL     OW19315   4.521   3.047   8.833  0.0930 -0.3235  0.0446
 2618SOL    HW119316   4.609   3.055   8.871 -0.6557  0.9963  1.4977
 2618SOL    HW219317   4.521   3.123   8.774  0.0028 -0.6684 -0.4035
 2619SOL     OW19318   2.115   1.699   6.969 -0.5871  0.0536 -0.4414
 2619SOL    HW119319   2.164   1.777   6.943 -0.4329 -0.2212 -0.9790
 2619SOL    HW219320   2.033   1.747   6.981  0.3592  1.0822  1.7802
 2620SOL     OW19321   2.158   1.866   7.494  0.0821  0.3784  0.0207
 2620SOL    HW119322   2.208   1.914   7.559  0.1620 -2.3397  1.9763
 2620SOL    HW219323   2.148   1.936   7.430 -2.0746 -0.8749 -1.0447
 2621SOL     OW19324   3.185   3.811   8.178  0.2383  0.3535 -0.0460
 2621SOL    HW119325   3.270   3.784   8.143 -0.6916 -2.9245  0.2323
 2621SOL    HW219326   3.126   3.790   8.106 -0.2491 -0.6313  0.6339
 2622SOL     OW19327   2.988   1.783   6.713  0.1942 -0.2451 -0.3255
 2622SOL    HW119328   2.971   1.784   6.619 -0.0068  0.8940 -0.2739
 2622SOL    HW219329   3.059   1.718   6.716 -1.8597 -2.4562  0.8165
 2623SOL     OW19330   2.777   1.013   6.671 -0.1253 -0.4010 -0.2802
 2623SOL    HW119331   2.757   1.007   6.765  1.5274 -1.8127 -0.0209
 2623SOL    HW219332   2.862   1.058   6.667 -1.1182  1.5179  0.1195
 2624SOL     OW19333   2.090   0.818   0.726 -0.4270 -0.3321 -0.1405
 2624SOL    HW119334   2.050   0.864   0.800 -2.1535  0.0820 -1.3294
 2624SOL    HW219335   2.176   0.801   0.764 -0.2628  0.0831 -0.3298
 2625SOL     OW19336   4.675   1.827  11.799 -0.0719 -0.0690  0.4468
 2625SOL    HW119337   0.045   1.832  11.766 -0.1864  0.6187  0.2411
 2625SOL    HW219338   4.681   1.880  11.878 -1.5920 -1.2266  1.3300
 2626SOL     OW19339   0.474   2.447   8.417  0.8342  0.4586 -0.1578
 2626SOL    HW119340   0.423   2.395   8.355 -0.7120  3.3918 -1.3331
 2626SOL    HW219341   0.435   2.534   8.415  0.1481  0.1387 -0.5023
 2627SOL     OW19342   2.272   1.993   4.929 -0.4749 -0.1292 -0.4032
 2627SOL    HW119343   2.219   1.919   4.897  0.8597 -1.2757  0.0354
 2627SOL    HW219344   2.312   2.035   4.853  1.1828 -0.1991  0.4328
 2628SOL     OW19345   1.439   2.567   5.520 -0.3995  0.3974 -0.1673
 2628SOL    HW119346   1.448   2.516   5.600 -2.4146  0.9383  0.4121
 2628SOL    HW219347   1.442   2.657   5.552  0.5788  0.2234  0.2359
 2629SOL     OW19348   4.069   1.307   0.858  0.4013 -0.1068  0.4228
 2629SOL    HW119349   4.165   1.305   0.852  0.3839 -0.4334  0.2531
 2629SOL    HW219350   4.064   1.353   0.942 -0.7634 -1.0724  0.8735
 2630SOL     OW19351   4.254   0.793  12.168  0.3379  0.4274  0.4271
 2630SOL    HW119352   4.227   0.707  12.199 -1.2452  0.1537 -1.7667
 2630SOL    HW219353   4.272   0.842  12.249 -0.4574  1.5206 -0.0667
 2631SOL     OW19354   1.478   2.709   3.439 -0.3661  0.5529 -0.7670
 2631SOL    HW119355   1.440   2.766   3.372 -0.0400  0.9387 -0.6216
 2631SOL    HW219356   1.531   2.760   3.501  0.7024  1.8949 -2.7997
 2632SOL     OW19357   1.727   1.893   4.301 -0.2529  0.3733 -0.4927
 2632SOL    HW119358   1.699   1.808   4.266  3.9995 -0.0089 -3.0816
 2632SOL    HW219359   1.689   1.893   4.388 -2.7977  0.1236 -1.6093
 2633SOL     OW19360   1.823   3.046  17.278  0.2521  0.4350  0.2706
 2633SOL    HW119361   1.860   2.977  17.223 -0.3364  0.8517 -0.6510
 2633SOL    HW219362   1.751   3.079  17.224  0.5108 -1.3542 -1.1857
 2634SOL     OW19363   0.702   3.769  10.034  0.3371 -0.3005 -0.1996
 2634SOL    HW119364   0.785   3.801  10.069  0.1320  0.8758 -0.7778
 2634SOL    HW219365   0.709   3.682  10.073  2.4494  0.2732  0.7010
 2635SOL     OW19366   1.697   0.326   1.695  0.5576 -0.0888 -0.4687
 2635SOL    HW119367   1.670   0.237   1.717  2.8587 -0.2464  1.7423
 2635SOL    HW219368   1.710   0.322   1.601 -0.6344  0.6424 -0.6621
 2636SOL     OW19369   1.682   2.044  10.515  0.5395  0.2042 -0.0250
 2636SOL    HW119370   1.733   2.034  10.595 -2.0511  1.1682  1.7166
 2636SOL    HW219371   1.696   2.138  10.501  0.3746  0.3468  0.7870
 2637SOL     OW19372   2.473   2.226   1.752 -0.0069  0.2240  0.1993
 2637SOL    HW119373   2.502   2.151   1.700  0.9813 -1.2028  2.8257
 2637SOL    HW219374   2.490   2.297   1.689  1.7184 -0.9221 -0.6278
 2638SOL     OW19375   4.531   3.578   7.440 -0.0398 -0.2637 -0.2142
 2638SOL    HW119376   4.466   3.610   7.378 -2.6115 -0.3168  2.5174
 2638SOL    HW219377   4.493   3.569   7.527 -2.2401 -0.4533 -1.1996
 2639SOL     OW19378   3.621   1.437   1.456 -0.2007  0.3943 -0.6811
 2639SOL    HW119379   3.662   1.366   1.407 -2.4096 -2.7531  2.0961
 2639SOL    HW219380   3.568   1.479   1.387  0.1125 -1.2626 -1.9167
 2640SOL     OW19381   2.491   4.054   5.769  0.9463  0.0001  0.1283
 2640SOL    HW119382   2.433   4.103   5.828  1.2087  2.0983 -1.3504
 2640SOL    HW219383   2.429   3.984   5.746 -1.1919  1.8680  0.2232
 2641SOL     OW19384   3.072   4.445   6.018  0.2019  0.1143 -0.3212
 2641SOL    HW119385   3.103   4.377   5.959  1.4659  1.6960 -1.4745
 2641SOL    HW219386   3.148   4.501   6.030 -1.6016  2.5592 -0.2455
 2642SOL     OW19387   2.777   3.600   3.262 -0.2956 -0.6296 -0.1048
 2642SOL    HW119388   2.776   3.647   3.346 -1.1789 -2.1364  0.7160
 2642SOL    HW219389   2.685   3.581   3.246  0.1459 -0.5866 -2.5914
 2643SOL     OW19390   0.854   0.805   6.679  0.4750  0.9189  0.1794
 2643SOL    HW119391   0.844   0.884   6.625 -1.2951  0.6750  0.1547
 2643SOL    HW219392   0.946   0.778   6.677 -0.4256 -2.0353 -0.3245
 2644SOL     OW19393   4.031   4.210   3.874  0.1288 -0.1496  0.3128
 2644SOL    HW119394   4.092   4.178   3.942 -0.7598  1.1600  1.7293
 2644SOL    HW219395   3.978   4.131   3.861  0.8241 -0.4782 -0.5524
 2645SOL     OW19396   0.684   2.948  10.682 -0.1508 -0.4592 -0.1709
 2645SOL    HW119397   0.680   2.867  10.630 -0.4253  0.3505 -1.4341
 2645SOL    HW219398   0.650   3.006  10.613 -1.4140 -0.9077  0.0603
 2646SOL     OW19399   1.087   0.661   8.055  0.9415 -0.2148 -0.4095
 2646SOL    HW119400   1.164   0.622   8.095  0.9842 -1.4450 -1.6803
 2646SOL    HW219401   1.046   0.705   8.130 -1.4440 -0.2056 -1.7037
 2647SOL     OW19402   3.546   1.402  14.190  0.0334  0.3891  0.0731
 2647SOL    HW119403   3.516   1.485  14.228  0.6512  1.3879 -1.6219
 2647SOL    HW219404   3.638   1.416  14.212  0.0607  0.4361 -0.0736
 2648SOL     OW19405   4.568   1.023   2.854 -0.3411  0.5563  0.6500
 2648SOL    HW119406   4.533   1.110   2.872 -1.6029 -0.8220  4.8893
 2648SOL    HW219407   4.573   0.987   2.943 -0.4364  1.2068  0.9160
 2649SOL     OW19408   0.529   1.315   2.228  0.3830  0.2206 -0.1076
 2649SOL    HW119409   0.608   1.368   2.216  0.6297 -0.3262 -0.9102
 2649SOL    HW219410   0.464   1.364   2.178 -0.2394 -0.7121 -0.2100
 2650SOL     OW19411   0.970   3.004   8.765 -0.2682  0.0578  0.0850
 2650SOL    HW119412   1.040   2.955   8.721 -1.9927 -0.9747 -1.5186
 2650SOL    HW219413   0.958   3.079   8.706  2.2611 -1.2905 -2.1633
 2651SOL     OW19414   2.007   4.001   6.159  0.0672 -0.3348 -0.0080
 2651SOL    HW119415   1.994   3.920   6.111 -1.8177  0.0285 -0.1101
 2651SOL    HW219416   2.058   3.972   6.235  0.8276  0.0651 -0.3578
 2652SOL     OW19417   4.428   3.587  17.417  0.1713  0.0065  0.3861
 2652SOL    HW119418   4.386   3.502  17.422 -1.9847  1.1722  2.3109
 2652SOL    HW219419   4.352   3.645  17.418  1.9020  2.3209 -0.7206
 2653SOL     OW19420   3.472   2.081   3.340 -0.1746  0.8418 -0.2993
 2653SOL    HW119421   3.383   2.074   3.305 -0.5839 -0.0386  0.9460
 2653SOL    HW219422   3.525   2.056   3.264  0.0177 -0.7095  0.3417
 2654SOL     OW19423   2.782   4.681   4.080 -0.7948  0.2560  0.3507
 2654SOL    HW119424   2.862   4.642   4.044  0.0739  2.0781  0.3565
 2654SOL    HW219425   2.815   0.029   4.139 -0.0166  0.1699  0.0144
 2655SOL     OW19426   3.933   4.213   4.384  0.5694 -0.6225 -0.2934
 2655SOL    HW119427   4.020   4.214   4.344  0.7744 -1.5947  0.1219
 2655SOL    HW219428   3.946   4.211   4.479 -0.6730  1.9631 -0.0791
 2656SOL     OW19429   4.238   3.017  10.228 -0.0559  0.0234  0.3738
 2656SOL    HW119430   4.223   3.001  10.322  1.4133  2.3863  0.9995
 2656SOL    HW219431   4.217   2.929  10.196  2.5695 -0.6313  0.4594
 2657SOL     OW19432   2.084   4.347  15.396 -0.0424 -0.2354  0.1113
 2657SOL    HW119433   2.083   4.252  15.395 -0.9096 -0.2158 -1.6870
 2657SOL    HW219434   2.082   4.364  15.301  2.6086  1.3222  0.3429
 2658SOL     OW19435   3.852   1.811   4.061  0.1034  0.5757  0.4355
 2658SOL    HW119436   3.784   1.811   3.993 -2.0342 -1.4583  2.5904
 2658SOL    HW219437   3.816   1.740   4.114  1.3346 -1.5651 -1.6096
 2659SOL     OW19438   3.008   1.509   5.260  0.3929 -0.1223 -0.1748
 2659SOL    HW119439   3.016   1.497   5.355 -0.7454 -0.6341 -0.1484
 2659SOL    HW219440   3.086   1.559   5.236 -0.1335 -0.2635 -2.1735
 2660SOL     OW19441   2.682   3.253   4.921  0.2917 -0.0202 -0.1440
 2660SOL    HW119442   2.755   3.252   4.984  0.8503 -0.1397 -0.7961
 2660SOL    HW219443   2.612   3.277   4.982 -0.9453 -1.4249 -1.0265
 2661SOL     OW19444   4.458   3.004   5.337 -0.0468  0.0201 -0.4307
 2661SOL    HW119445   4.438   2.935   5.400  0.3024 -0.5089 -0.8973
 2661SOL    HW219446   4.380   3.058   5.348 -0.3533  0.1866 -3.2627
 2662SOL     OW19447   3.564   0.779   3.394 -0.1411  0.0599  0.3493
 2662SOL    HW119448   3.565   0.751   3.303  0.6693  3.6925 -0.7602
 2662SOL    HW219449   3.499   0.848   3.380 -1.0531 -0.4719  1.9787
 2663SOL     OW19450   3.678   2.632   5.351  0.0196  0.1872  0.0353
 2663SOL    HW119451   3.745   2.565   5.366 -0.6392 -0.1994  1.2418
 2663SOL    HW219452   3.609   2.576   5.314 -1.0326  1.3099  0.2935
 2664SOL     OW19453   1.619   3.263   3.162 -0.6094 -0.0052 -0.7825
 2664SOL    HW119454   1.558   3.329   3.128 -1.5610  0.4360  1.7366
 2664SOL    HW219455   1.675   3.251   3.086 -1.4752  1.4629 -1.6649
 2665SOL     OW19456   3.961   3.743   0.749  0.5084  0.5387  0.2986
 2665SOL    HW119457   3.869   3.753   0.771  0.9987  2.5191  1.3823
 2665SOL    HW219458   3.965   3.652   0.718 -0.6082  1.7163 -3.3422
 2666SOL     OW19459   4.271   2.019  15.554 -0.3870  0.3159 -0.3528
 2666SOL    HW119460   4.299   2.010  15.463  1.3805  3.5977 -0.1378
 2666SOL    HW219461   4.176   2.021  15.543 -0.6716  1.3825  2.2223
 2667SOL     OW19462   0.876   3.927   4.175 -0.5351 -0.3319 -0.1489
 2667SOL    HW119463   0.809   3.952   4.112  0.2856 -1.1212 -1.3448
 2667SOL    HW219464   0.846   3.953   4.262 -1.8748  0.5608 -0.8838
 2668SOL     OW19465   4.126   1.901   7.830 -0.4211 -0.1209 -0.3454
 2668SOL    HW119466   4.036   1.930   7.814 -1.2026 -2.3470  0.0244
 2668SOL    HW219467   4.126   1.846   7.751 -2.3212 -0.2191 -0.2787
 2669SOL     OW19468   2.654   0.735  16.514 -0.0147  0.2553  0.1233
 2669SOL    HW119469   2.650   0.681  16.435 -1.6709 -1.9643  1.7268
 2669SOL    HW219470   2.565   0.770  16.508 -0.1977 -0.3275 -0.5337
 2670SOL     OW19471   3.120   0.210  10.294  0.1293 -0.0088 -0.3653
 2670SOL    HW119472   3.139   0.219  10.200  0.9612  0.1620 -0.1780
 2670SOL    HW219473   3.040   0.159  10.278  0.0581  0.0941 -0.3400
 2671SOL     OW19474   2.056   1.862   3.490 -0.3213  0.1097 -0.4436
 2671SOL    HW119475   2.031   1.953   3.471  1.8376  1.1110  1.4172
 2671SOL    HW219476   1.985   1.815   3.446 -1.5606 -0.5760  2.2814
 2672SOL     OW19477   4.116   4.372   3.495 -0.4908  0.2884 -0.7707
 2672SOL    HW119478   4.199   4.410   3.467 -0.5037 -0.6074 -2.0313
 2672SOL    HW219479   4.110   4.407   3.584 -2.6077  0.5370 -1.0082
 2673SOL     OW19480   4.029   3.330  12.519  0.0197  0.2249  0.0649
 2673SOL    HW119481   3.991   3.342  12.432 -0.9657 -0.8350  0.3442
 2673SOL    HW219482   4.080   3.251  12.497  0.7381  0.5977  0.3821
 2674SOL     OW19483   2.745   2.242   3.109 -0.5418  0.1926 -0.1538
 2674SOL    HW119484   2.838   2.236   3.086 -0.0122 -1.9084  2.5845
 2674SOL    HW219485   2.706   2.207   3.029 -2.4988  0.3638  0.7267
 2675SOL     OW19486   3.539   3.714  13.537 -0.1287 -0.5153  0.5733
 2675SOL    HW119487   3.543   3.808  13.553 -0.3208 -0.8498  2.5940
 2675SOL    HW219488   3.535   3.708  13.441 -3.0759 -1.9549  0.7912
 2676SOL     OW19489   0.200   1.600   8.069  0.3589 -0.7000  0.4730
 2676SOL    HW119490   0.112   1.584   8.035  0.2333  0.1405  0.3950
 2676SOL    HW219491   0.214   1.513   8.104  0.5027 -0.3120  1.3659
 2677SOL     OW19492   2.250   1.972  10.133 -0.5330 -0.1931  0.0056
 2677SOL    HW119493   2.157   1.957  10.147 -0.6848  0.0299 -0.7646
 2677SOL    HW219494   2.284   1.883  10.126 -0.2811 -0.0057 -1.1261
 2678SOL     OW19495   2.830   3.581   7.867  0.2412  0.9112 -1.2964
 2678SOL    HW119496   2.755   3.640   7.863 -0.0891  0.5860  0.3064
 2678SOL    HW219497   2.795   3.517   7.929  2.3072 -0.2987 -1.3939
 2679SOL     OW19498   4.458   0.392   1.928 -0.2197 -0.2881  0.3184
 2679SOL    HW119499   4.463   0.375   2.022 -3.9095  1.0125  0.7394
 2679SOL    HW219500   4.493   0.310   1.893  0.2546  0.0330  0.0330
 2680SOL     OW19501   3.303   3.184   7.634 -0.3983  0.1376  0.2078
 2680SOL    HW119502   3.298   3.278   7.618 -0.1068  0.2501  0.7791
 2680SOL    HW219503   3.375   3.168   7.695  0.2619  0.2085 -0.5504
 2681SOL     OW19504   0.661   4.323   2.636 -0.4582  0.0782 -0.3094
 2681SOL    HW119505   0.606   4.249   2.660  0.1679 -0.1700  0.3838
 2681SOL    HW219506   0.730   4.286   2.581 -0.7195  0.4397 -0.8715
 2682SOL     OW19507   4.719   0.863  10.392 -0.0629  0.6579 -0.2507
 2682SOL    HW119508   0.058   0.788  10.383  0.3530  0.5155  3.4437
 2682SOL    HW219509   4.660   0.830  10.461  1.0260 -0.2761  0.2344
 2683SOL     OW19510   0.768   0.356   2.097 -0.4953  0.2721 -0.0084
 2683SOL    HW119511   0.771   0.372   2.191 -1.3822  0.3759  0.0042
 2683SOL    HW219512   0.691   0.299   2.087  1.4120 -2.3168 -0.1544
 2684SOL     OW19513   0.105   3.049   7.662  1.0563 -0.0172  0.1447
 2684SOL    HW119514   0.175   3.041   7.597 -0.6259  0.0286 -1.6849
 2684SOL    HW219515   0.125   3.138   7.693 -1.8890  0.8889 -0.5396
 2685SOL     OW19516   3.949   4.171  11.826 -0.0255  0.2522  0.8359
 2685SOL    HW119517   4.029   4.217  11.803 -1.0333  1.4277 -0.2838
 2685SOL    HW219518   3.979   4.080  11.819 -0.5085  0.1444  0.0804
 2686SOL     OW19519   1.531   1.669   6.937  0.2654 -0.1743  0.2541
 2686SOL    HW119520   1.583   1.608   6.989  4.0998  3.8025  1.0897
 2686SOL    HW219521   1.554   1.754   6.974  0.7572 -0.7230  1.1926
 2687SOL     OW19522   3.660   2.551  13.670  0.0414 -0.4118 -0.0902
 2687SOL    HW119523   3.670   2.617  13.602 -1.3922 -2.3754 -2.2356
 2687SOL    HW219524   3.564   2.549  13.678  0.1099 -1.0292  0.5987
 2688SOL     OW19525   2.499   3.193   1.759 -0.2529  0.3221 -0.3953
 2688SOL    HW119526   2.467   3.187   1.669 -0.9723  2.1522 -0.2586
 2688SOL    HW219527   2.484   3.287   1.765  1.4386  0.4717  1.4603
 2689SOL     OW19528   3.512   4.625   4.890  0.4083 -0.3982 -0.1913
 2689SOL    HW119529   3.443   4.581   4.940 -1.4936  0.9568 -1.6419
 2689SOL    HW219530   3.586   4.602   4.947  1.0980  1.0169 -0.5160
 2690SOL     OW19531   1.074   0.006   7.179 -0.2762 -0.2727  0.7070
 2690SOL    HW119532   1.140   4.679   7.229 -0.7843 -2.2298 -0.4631
 2690SOL    HW219533   1.044   0.073   7.241  2.4985  1.1187  0.5414
 2691SOL     OW19534   0.698   4.612   8.489 -0.1685  0.0356  0.0112
 2691SOL    HW119535   0.625   4.583   8.434  1.0883 -0.3985 -1.4333
 2691SOL    HW219536   0.684   4.546   8.557 -0.3811  0.0899  0.0209
 2692SOL     OW19537   3.584   0.556  13.101 -0.0321 -0.1212 -0.5124
 2692SOL    HW119538   3.663   0.506  13.125 -0.5732 -0.2217  1.0609
 2692SOL    HW219539   3.600   0.642  13.141 -1.3317  0.0332 -0.3546
 2693SOL     OW19540   2.541   4.383   6.860  0.1917  0.7760  0.0211
 2693SOL    HW119541   2.586   4.399   6.943 -0.2287  0.2000  0.3588
 2693SOL    HW219542   2.605   4.321   6.824 -1.5254 -1.4270  0.7829
 2694SOL     OW19543   0.583   0.393   9.106 -0.0357 -0.1098  0.3711
 2694SOL    HW119544   0.620   0.375   9.020  2.5788  2.4619  0.9543
 2694SOL    HW219545   0.660   0.430   9.150  0.5343  0.3272 -0.9980
 2695SOL     OW19546   1.533   4.440  17.647  0.0621  0.2477  0.6292
 2695SOL    HW119547   1.556   4.472   0.052 -0.7527 -1.1263  1.3464
 2695SOL    HW219548   1.537   4.348  17.672 -3.4535 -0.3097 -0.7642
 2696SOL     OW19549   0.666   1.950   9.744  0.2633 -0.1287 -0.0400
 2696SOL    HW119550   0.672   1.868   9.793  0.0780  1.7943  3.1793
 2696SOL    HW219551   0.694   1.918   9.658 -0.2885 -2.0713  0.4839
 2697SOL     OW19552   0.195   4.400   4.798  0.2336  0.2241  0.2074
 2697SOL    HW119553   0.230   4.487   4.815  1.0633 -0.0441 -0.1461
 2697SOL    HW219554   0.237   4.389   4.713  3.2709 -0.1029  1.7692
 2698SOL     OW19555   4.101   1.761   7.599 -0.3409 -0.1123 -0.4450
 2698SOL    HW119556   4.183   1.722   7.567  0.0416 -0.3361  0.8209
 2698SOL    HW219557   4.068   1.779   7.511 -0.7107  1.7349  0.0785
 2699SOL     OW19558   3.628   0.805  13.171  0.1309 -0.0281  0.0905
 2699SOL    HW119559   3.559   0.834  13.231  0.2414 -1.5149  0.9181
 2699SOL    HW219560   3.641   0.877  13.108  3.1513 -1.2512 -0.6666
 2700SOL     OW19561   3.351   3.953  12.598 -0.3775 -0.2680  0.0170
 2700SOL    HW119562   3.362   4.028  12.656 -0.5328 -1.0399  1.0379
 2700SOL    HW219563   3.285   3.907  12.650  0.7157  0.7458  2.2726
 2701SOL     OW19564   1.763   0.630   8.790 -0.2680 -0.3869  0.3939
 2701SOL    HW119565   1.727   0.550   8.829  1.1983 -1.4742 -0.5078
 2701SOL    HW219566   1.802   0.595   8.711 -2.0012  1.8825 -1.4777
 2702SOL     OW19567   1.643   4.496   7.601  0.6767 -0.4241  0.0633
 2702SOL    HW119568   1.733   4.464   7.602  0.7409 -0.3190 -2.5063
 2702SOL    HW219569   1.617   4.464   7.515  1.3594  1.6324 -0.8884
 2703SOL     OW19570   1.356   1.254   7.076 -0.0799 -0.1980 -0.0221
 2703SOL    HW119571   1.440   1.261   7.122 -0.0826 -1.0005  0.1121
 2703SOL    HW219572   1.376   1.304   6.997 -3.8978 -0.6942 -1.3174
 2704SOL     OW19573   1.157   0.911   7.507 -0.5548  0.0603  0.0195
 2704SOL    HW119574   1.113   0.834   7.542 -1.8343  0.2314 -1.2008
 2704SOL    HW219575   1.137   0.974   7.577 -0.5818 -1.1935  1.1327
 2705SOL     OW19576   2.947   3.021   2.562  0.3114 -0.1341 -0.1702
 2705SOL    HW119577   3.030   3.049   2.601  0.4565  0.9751 -1.2756
 2705SOL    HW219578   2.943   3.080   2.487  0.4329  0.3382  0.1952
 2706SOL     OW19579   3.785   0.674   6.720 -0.2133 -0.3105  0.1593
 2706SOL    HW119580   3.734   0.654   6.642  0.3554 -1.5291  0.0935
 2706SOL    HW219581   3.839   0.597   6.736 -2.6621 -1.7607  1.5485
 2707SOL     OW19582   4.440   2.436   7.146 -0.5155  0.1520  0.3323
 2707SOL    HW119583   4.501   2.494   7.191  0.3635  1.3039 -2.3283
 2707SOL    HW219584   4.355   2.475   7.165 -0.7534 -1.7983  3.1666
 2708SOL     OW19585   0.149   1.131  14.535 -0.0338 -0.9204 -0.0462
 2708SOL    HW119586   0.208   1.131  14.460  1.0130 -0.9291  0.7714
 2708SOL    HW219587   0.211   1.079  14.587 -1.1189 -2.8651 -0.7029
 2709SOL     OW19588   1.890   0.653   0.473 -1.0545 -0.2534  0.2017
 2709SOL    HW119589   1.928   0.588   0.415 -0.7487  0.5578 -0.5065
 2709SOL    HW219590   1.932   0.629   0.555  0.4170  0.1201 -0.4380
 2710SOL     OW19591   1.966   1.836  15.678 -0.2467  0.1487 -0.0376
 2710SOL    HW119592   1.904   1.909  15.677 -1.6539 -1.0432 -0.0639
 2710SOL    HW219593   1.939   1.802  15.763 -1.0779 -0.9226 -0.7349
 2711SOL     OW19594   0.889   1.466   3.160  0.3062  0.3117 -0.5550
 2711SOL    HW119595   0.828   1.517   3.213 -0.4428 -1.8131  0.5751
 2711SOL    HW219596   0.936   1.400   3.210  1.2107  0.9973 -0.4896
 2712SOL     OW19597   0.485   3.826  16.171 -0.4889 -0.8025  0.2814
 2712SOL    HW119598   0.445   3.874  16.097  2.3312  2.0904  0.6377
 2712SOL    HW219599   0.421   3.864  16.232 -2.5416  0.0808 -2.3996
 2713SOL     OW19600   3.902   1.096   3.866 -1.0470 -0.0759 -0.1319
 2713SOL    HW119601   3.947   1.127   3.945  0.9921 -1.0627 -0.9103
 2713SOL    HW219602   3.865   1.179   3.836 -0.2678  0.2788 -0.0876
 2714SOL     OW19603   3.552   1.457   8.234 -0.1485  0.1355  0.4291
 2714SOL    HW119604   3.495   1.450   8.157  0.0296 -3.0359  0.5784
 2714SOL    HW219605   3.535   1.372   8.276 -0.6025 -0.3732 -0.7804
 2715SOL     OW19606   4.614   0.424   5.065 -0.3852  0.2215  0.1176
 2715SOL    HW119607   4.519   0.422   5.078 -0.1083  2.0444  2.4765
 2715SOL    HW219608   4.637   0.495   5.125 -2.1796 -0.9998  2.2721
 2716SOL     OW19609   0.468   2.421  10.144  0.3252  0.2888  0.2120
 2716SOL    HW119610   0.432   2.344  10.099  1.3904 -0.6064  0.8751
 2716SOL    HW219611   0.458   2.392  10.235 -1.6587 -1.2739 -0.4956
 2717SOL     OW19612   2.376   3.084   3.390  0.3150 -0.2084 -0.3083
 2717SOL    HW119613   2.334   3.166   3.368  0.4976 -0.7603 -2.6476
 2717SOL    HW219614   2.460   3.121   3.419 -0.4075  2.2997 -1.4592
 2718SOL     OW19615   2.448   2.137   7.796  0.0036  0.4443  0.3198
 2718SOL    HW119616   2.426   2.058   7.746  2.2351 -0.2317  0.4038
 2718SOL    HW219617   2.511   2.175   7.734  0.4363  0.4071  0.7392
 2719SOL     OW19618   4.455   3.022   8.250 -0.6807 -0.0994  0.6478
 2719SOL    HW119619   4.426   3.104   8.209 -1.9055 -0.7033  0.3196
 2719SOL    HW219620   4.405   3.019   8.331 -2.1079  1.3451 -0.1878
 2720SOL     OW19621   1.418   2.384   0.786 -0.0598 -0.2357 -0.1740
 2720SOL    HW119622   1.332   2.364   0.749  0.0898  0.5454 -0.9375
 2720SOL    HW219623   1.466   2.406   0.706 -3.1944 -1.8692 -2.5101
 2721SOL     OW19624   4.436   2.213   5.374  0.2566  0.3203 -0.6719
 2721SOL    HW119625   4.460   2.163   5.296  1.6944  0.7697 -0.5277
 2721SOL    HW219626   4.482   2.297   5.367 -0.5071  0.7176 -0.9790
 2722SOL     OW19627   3.102   4.195   8.168 -0.3915 -0.3854 -0.2810
 2722SOL    HW119628   3.057   4.175   8.251 -0.4437 -0.0704 -0.2345
 2722SOL    HW219629   3.087   4.289   8.158  1.4948 -0.0119  0.4125
 2723SOL     OW19630   0.415   3.543  15.066  0.0922 -0.3482 -1.0588
 2723SOL    HW119631   0.374   3.625  15.039  1.5052  0.9619  0.7992
 2723SOL    HW219632   0.422   3.564  15.159 -0.9606  1.2012 -1.3334
 2724SOL     OW19633   4.531   4.664   0.481 -0.0939 -0.1406 -0.1492
 2724SOL    HW119634   4.583   4.639   0.404 -0.5592 -0.7985 -0.2525
 2724SOL    HW219635   4.570   0.023   0.519  0.9693 -0.5605 -0.3709
 2725SOL     OW19636   2.938   2.272  10.908  0.0716 -0.0883 -0.2073
 2725SOL    HW119637   3.009   2.258  10.970 -0.1885  0.5480  0.2418
 2725SOL    HW219638   2.881   2.204  10.944  0.0878 -0.9933 -1.9154
 2726SOL     OW19639   2.238   1.145  15.841 -0.2945  0.4464  0.1713
 2726SOL    HW119640   2.157   1.121  15.885 -0.9670  1.8914 -0.2652
 2726SOL    HW219641   2.224   1.239  15.832  0.2852  0.3821 -1.4060
 2727SOL     OW19642   1.669   1.062   8.085 -0.1423 -0.1941 -0.3054
 2727SOL    HW119643   1.687   1.114   8.007  0.1280  1.2357  0.7127
 2727SOL    HW219644   1.757   1.059   8.123  0.8146 -0.1545 -2.5134
 2728SOL     OW19645   3.301   0.966   5.604  0.7078 -0.2269 -0.3081
 2728SOL    HW119646   3.213   0.994   5.577  1.3419 -0.1286 -2.2808
 2728SOL    HW219647   3.300   0.992   5.696 -0.6422  0.6070 -0.5538
 2729SOL     OW19648   0.322   4.003   4.762  0.5906  0.0282 -0.0555
 2729SOL    HW119649   0.232   4.024   4.737  0.6458 -1.4803 -1.5076
 2729SOL    HW219650   0.309   3.955   4.845 -0.8484  1.3071  0.4708
 2730SOL     OW19651   3.503   0.723   1.795  0.5832  0.2106  0.2258
 2730SOL    HW119652   3.517   0.653   1.859  0.7167  0.2394  0.2281
 2730SOL    HW219653   3.418   0.761   1.813 -0.0165 -0.4285 -1.2467
 2731SOL     OW19654   0.490   4.445   4.326 -0.4676  0.2824  0.7203
 2731SOL    HW119655   0.439   4.525   4.311  0.5323  0.5077 -1.3732
 2731SOL    HW219656   0.440   4.370   4.295 -1.3685  0.2160  2.3476
 2732SOL     OW19657   1.336   1.441   8.400  0.4411 -0.7164  0.2338
 2732SOL    HW119658   1.264   1.469   8.343 -0.3550 -3.4085 -0.0881
 2732SOL    HW219659   1.390   1.390   8.338  2.0369 -1.1669  2.0055
 2733SOL     OW19660   3.804   2.891  13.317  0.4220  0.3719  0.2783
 2733SOL    HW119661   3.861   2.878  13.241  0.8718  1.1964  0.4750
 2733SOL    HW219662   3.814   2.985  13.331 -1.2682  1.0838 -3.4585
 2734SOL     OW19663   3.304   0.970   7.083  0.3974 -0.6794 -0.5427
 2734SOL    HW119664   3.307   0.875   7.070  0.1799 -0.6746 -0.6300
 2734SOL    HW219665   3.218   0.983   7.123  0.1497  0.1364 -1.3327
 2735SOL     OW19666   0.653   1.138   7.331 -0.4820  0.1727  0.5188
 2735SOL    HW119667   0.680   1.122   7.421  0.1404  0.4316  0.3751
 2735SOL    HW219668   0.560   1.137   7.356  0.0182 -1.6570  2.3135
 2736SOL     OW19669   2.625   2.174   1.959  0.0077  0.1490 -0.0779
 2736SOL    HW119670   2.565   2.200   1.889  0.7160 -1.3693 -1.2560
 2736SOL    HW219671   2.711   2.194   1.922 -1.7760  4.7923 -1.7241
 2737SOL     OW19672   3.582   4.687  13.778 -0.6383  0.1755  0.4825
 2737SOL    HW119673   3.576   4.692  13.873 -0.5385 -0.7908  0.5424
 2737SOL    HW219674   3.646   0.034  13.752 -1.9080  0.8822 -0.8052
 2738SOL     OW19675   3.733   3.797   9.412  0.2729 -0.5016 -0.9082
 2738SOL    HW119676   3.771   3.884   9.398  0.5899 -0.3579  0.7801
 2738SOL    HW219677   3.653   3.821   9.459  1.1791 -0.3751  0.5798
 2739SOL     OW19678   1.965   0.704   7.293  0.4246 -0.2969  0.0080
 2739SOL    HW119679   1.873   0.681   7.279 -0.0733  0.3314  2.2175
 2739SOL    HW219680   1.957   0.772   7.361  3.9071  1.4748 -1.3609
 2740SOL     OW19681   1.809   4.283  11.892  1.0825 -0.1240 -0.2493
 2740SOL    HW119682   1.842   4.277  11.802 -3.4624 -1.9587 -1.7736
 2740SOL    HW219683   1.718   4.312  11.886  1.4114  0.8016 -0.7315
 2741SOL     OW19684   1.452   2.051  13.257 -0.0002 -0.0946  0.6433
 2741SOL    HW119685   1.372   2.000  13.269  0.2040 -1.0927 -2.4663
 2741SOL    HW219686   1.441   2.096  13.341 -1.5881 -0.4280  0.6146
 2742SOL     OW19687   2.516   2.203  10.323  0.1165  0.2949 -0.9811
 2742SOL    HW119688   2.561   2.287  10.312 -1.3993  1.2529  0.1448
 2742SOL    HW219689   2.581   2.143  10.284 -0.5757  0.4815 -2.4325
 2743SOL     OW19690   3.949   0.727  13.193  0.1247 -0.5391  0.1589
 2743SOL    HW119691   3.856   0.731  13.216  0.9756  0.2746  3.5048
 2743SOL    HW219692   3.957   0.822  13.183  0.8138 -0.5742  0.3333
 2744SOL     OW19693   4.164   3.666   6.075  0.3275  0.2451  0.2473
 2744SOL    HW119694   4.191   3.662   6.166  0.0997 -0.7547  0.2616
 2744SOL    HW219695   4.116   3.749   6.073 -0.3732 -0.1074  3.0371
 2745SOL     OW19696   4.510   0.501   5.664  0.1337 -0.1530  0.7670
 2745SOL    HW119697   4.544   0.479   5.751  1.4464 -0.7877  0.0899
 2745SOL    HW219698   4.553   0.586   5.662 -1.8140  0.7132 -3.6383
 2746SOL     OW19699   2.665   1.818  10.222 -0.1249  0.1873 -0.0821
 2746SOL    HW119700   2.741   1.871  10.243  1.4340 -2.3744  0.7843
 2746SOL    HW219701   2.691   1.775  10.140  0.3147 -0.1754  0.2447
 2747SOL     OW19702   2.555   0.287   1.081 -0.0852  0.4129 -0.2669
 2747SOL    HW119703   2.477   0.245   1.047 -0.0695 -1.7703  2.3627
 2747SOL    HW219704   2.608   0.208   1.095 -0.0355  0.4449 -0.2773
 2748SOL     OW19705   2.718   3.443   1.645  0.1327  0.2487  0.1676
 2748SOL    HW119706   2.744   3.495   1.721  2.1775  0.0923 -0.4222
 2748SOL    HW219707   2.770   3.488   1.578  2.4195 -0.0577  1.7623
 2749SOL     OW19708   2.103   1.668   5.279 -0.2210  0.0919 -0.1099
 2749SOL    HW119709   2.162   1.624   5.218 -0.6311 -1.1530  0.3921
 2749SOL    HW219710   2.135   1.640   5.364 -0.0812  0.3643 -0.0708
 2750SOL     OW19711   0.335   1.788  17.291  0.3768  0.2055 -0.0766
 2750SOL    HW119712   0.367   1.756  17.375  1.4994  2.6071  0.4242
 2750SOL    HW219713   0.367   1.878  17.295 -1.5033  1.0036 -3.1120
 2751SOL     OW19714   0.412   0.680   7.213  0.3403  0.1292 -0.0590
 2751SOL    HW119715   0.365   0.707   7.135  1.9115 -0.9683 -1.3921
 2751SOL    HW219716   0.504   0.702   7.197  0.3492 -0.2445 -0.5198
 2752SOL     OW19717   1.927   2.538   4.823  0.5944 -0.3832  0.4295
 2752SOL    HW119718   2.013   2.497   4.832  0.5997 -0.6252 -0.6885
 2752SOL    HW219719   1.921   2.578   4.910  3.5825  1.5040 -0.2621
 2753SOL     OW19720   1.352   2.132   2.226  0.1211  0.2359 -0.1152
 2753SOL    HW119721   1.417   2.068   2.195 -0.5882  0.2586 -1.6317
 2753SOL    HW219722   1.283   2.093   2.173 -0.6101  2.3432 -0.6827
 2754SOL     OW19723   1.291   1.901   4.058 -0.1256 -0.4514  0.3478
 2754SOL    HW119724   1.381   1.914   4.030 -0.5186  1.8986  0.1522
 2754SOL    HW219725   1.304   1.938   4.146  2.0530  0.1041 -0.2115
 2755SOL     OW19726   4.052   3.101   2.887  0.1242  0.3836  0.3427
 2755SOL    HW119727   4.100   3.031   2.842  1.6619  1.6687 -0.0352
 2755SOL    HW219728   3.980   3.119   2.827 -0.2041  2.9707  1.5153
 2756SOL     OW19729   1.827   2.439   0.328 -0.4080 -0.0317 -0.3196
 2756SOL    HW119730   1.821   2.363   0.386  0.0599 -0.3422 -0.6863
 2756SOL    HW219731   1.891   2.501   0.364  0.6143 -1.4781  0.3416
 2757SOL     OW19732   1.381   4.317  12.231 -0.4794 -0.1291  0.3190
 2757SOL    HW119733   1.390   4.370  12.152 -3.9226 -1.1151 -0.7281
 2757SOL    HW219734   1.469   4.282  12.223  0.6006  2.2291  2.0854
 2758SOL     OW19735   1.258   3.883   0.869 -0.2179  0.4946  0.0240
 2758SOL    HW119736   1.269   3.857   0.960  3.4848  2.4930  0.1620
 2758SOL    HW219737   1.223   3.804   0.827 -1.6101  1.2802 -0.2639
 2759SOL     OW19738   3.400   1.465   7.989 -0.2706  0.0702  0.6298
 2759SOL    HW119739   3.310   1.433   7.998 -0.8441  1.4034 -0.3777
 2759SOL    HW219740   3.402   1.558   8.014 -1.5176  0.3796 -0.4090
 2760SOL     OW19741   0.551   3.981  14.777 -0.2479  0.4549  0.2681
 2760SOL    HW119742   0.537   3.915  14.846 -1.3810 -0.3146 -0.6947
 2760SOL    HW219743   0.645   3.977  14.761 -0.3802 -3.3610  0.2814
 2761SOL     OW19744   2.145   1.409   0.549  0.5095  0.3849  0.1981
 2761SOL    HW119745   2.137   1.343   0.481 -0.5504  0.7957 -0.0720
 2761SOL    HW219746   2.241   1.406   0.560  0.1160 -0.0685  3.6995
 2762SOL     OW19747   0.122   2.558   3.659  0.1270  0.4616  0.3117
 2762SOL    HW119748   0.119   2.473   3.615  0.8167  1.5539 -1.8918
 2762SOL    HW219749   0.119   2.613   3.580 -0.8781 -1.1345 -0.7682
 2763SOL     OW19750   0.933   0.496   4.327  0.7367 -0.0227  0.0506
 2763SOL    HW119751   0.952   0.431   4.395 -2.8331 -0.7846  0.3392
 2763SOL    HW219752   0.924   0.446   4.247 -2.2071  1.6755 -0.6678
 2764SOL     OW19753   1.005   2.966   9.593  0.3010  1.0068  0.2361
 2764SOL    HW119754   1.015   3.010   9.677 -0.5087 -3.7304  2.8008
 2764SOL    HW219755   1.021   2.874   9.614 -0.0169  0.3593 -2.3475
 2765SOL     OW19756   3.807   0.573   2.781  0.4709 -0.3321 -0.2057
 2765SOL    HW119757   3.775   0.581   2.691 -1.4880  1.2275  0.6390
 2765SOL    HW219758   3.748   0.642   2.810 -0.4112 -0.0906 -2.5474
 2766SOL     OW19759   2.422   0.487  16.681 -0.4671 -0.5081 -0.1244
 2766SOL    HW119760   2.346   0.546  16.683  0.2466  0.4418 -0.6206
 2766SOL    HW219761   2.486   0.532  16.736 -0.4429 -2.4038  1.4024
 2767SOL     OW19762   0.663   4.453   4.852 -0.2769  0.2633  0.2812
 2767SOL    HW119763   0.615   4.522   4.804 -2.3734 -2.1770 -1.1177
 2767SOL    HW219764   0.595   4.387   4.864  0.1517  0.1008  1.7354
 2768SOL     OW19765   2.639   0.579   5.142 -0.4569 -0.4236 -0.2105
 2768SOL    HW119766   2.676   0.515   5.202  1.8444  1.0751 -0.0074
 2768SOL    HW219767   2.621   0.518   5.070  0.3493 -2.7590  1.5751
 2769SOL     OW19768   1.339   1.434   6.835 -0.6780 -0.2868 -0.5954
 2769SOL    HW119769   1.300   1.473   6.756 -0.3068  2.1528  0.4307
 2769SOL    HW219770   1.396   1.507   6.858 -1.5717  0.4408 -0.6862
 2770SOL     OW19771   1.480   4.674   3.912  0.7595 -0.2839 -0.0601
 2770SOL    HW119772   1.424   4.626   3.972  0.6086 -0.6806 -0.5196
 2770SOL    HW219773   1.437   4.664   3.827  1.1204 -0.7849 -0.1822
 2771SOL     OW19774   0.859   4.628   3.891 -0.2534  0.2281 -0.2441
 2771SOL    HW119775   0.876   4.648   3.799 -1.3821  2.4561  0.0437
 2771SOL    HW219776   0.764   4.622   3.885 -0.2398  0.3583 -0.5652
 2772SOL     OW19777   0.579   4.128   7.137  0.0325 -0.6973 -0.0873
 2772SOL    HW119778   0.634   4.205   7.149 -0.9361 -0.4096  2.5483
 2772SOL    HW219779   0.491   4.157   7.163  0.1915 -1.0137  0.7930
 2773SOL     OW19780   4.152   3.455   4.110 -0.3482 -0.1462  0.0465
 2773SOL    HW119781   4.145   3.367   4.145  2.1729 -0.3163  0.1472
 2773SOL    HW219782   4.113   3.448   4.023 -2.8559 -2.9451  1.4383
 2774SOL     OW19783   1.831   3.388  10.847  0.0684 -0.1436 -0.5731
 2774SOL    HW119784   1.905   3.438  10.812  1.3841 -0.9693  1.0399
 2774SOL    HW219785   1.854   3.307  10.803  0.8338 -0.2768  0.0837
 2775SOL     OW19786   2.986   0.144   9.450  0.6630 -0.4706  0.0875
 2775SOL    HW119787   2.990   0.050   9.466 -1.9549 -0.4995  0.5735
 2775SOL    HW219788   2.897   0.157   9.416  0.3041 -1.7103  0.5520
 2776SOL     OW19789   3.542   1.903   3.100 -0.4212 -0.8214 -0.0862
 2776SOL    HW119790   3.526   1.816   3.136 -0.6418 -0.4234  0.7789
 2776SOL    HW219791   3.463   1.919   3.049  1.5578  0.8897 -2.6472
 2777SOL     OW19792   0.582   1.710   1.679 -0.3130 -0.4981 -0.5525
 2777SOL    HW119793   0.524   1.724   1.604 -1.0143 -0.2968  0.0187
 2777SOL    HW219794   0.660   1.763   1.661  0.6240 -1.8248 -0.3210
 2778SOL     OW19795   1.992   2.238   1.069  0.4248 -0.0392 -0.4534
 2778SOL    HW119796   1.927   2.306   1.087  2.2472  1.5872  0.0480
 2778SOL    HW219797   1.938   2.162   1.090 -1.8144  0.8502 -3.0273
 2779SOL     OW19798   2.429   1.960   6.168  0.5211  0.4207  0.5455
 2779SOL    HW119799   2.475   2.010   6.100 -0.0802 -1.7312 -1.4314
 2779SOL    HW219800   2.500   1.964   6.233  1.1533 -2.3121 -0.0068
 2780SOL     OW19801   3.188   3.123   8.203 -0.7416 -0.2477 -0.1438
 2780SOL    HW119802   3.146   3.082   8.278 -0.3054 -1.8947 -0.8075
 2780SOL    HW219803   3.278   3.125   8.233 -0.3311 -0.0189 -1.3889
 2781SOL     OW19804   1.175   0.939  16.519  0.3217 -0.3882  0.4422
 2781SOL    HW119805   1.205   0.848  16.518  0.7109 -0.2582  0.2085
 2781SOL    HW219806   1.196   0.974  16.433  0.3877  0.6367  0.8788
 2782SOL     OW19807   3.498   4.201   1.781  0.6515 -0.0079 -0.2625
 2782SOL    HW119808   3.573   4.177   1.835  0.3577  2.0309  1.0264
 2782SOL    HW219809   3.526   4.273   1.724 -1.7407  2.7243  2.0158
 2783SOL     OW19810   1.401   0.376   2.527  0.5464  0.1858 -0.2717
 2783SOL    HW119811   1.458   0.417   2.593 -2.4201  2.6356  0.7854
 2783SOL    HW219812   1.445   0.296   2.500  1.0235  0.7194 -1.0651
 2784SOL     OW19813   3.808   4.711   5.114 -0.4245 -0.1739 -0.0240
 2784SOL    HW119814   3.899   4.708   5.085 -0.3626  1.5704  0.0167
 2784SOL    HW219815   3.808   4.691   5.208 -0.6533  3.5778  0.7671
 2785SOL     OW19816   4.370   4.297   4.110  0.0392  0.1265 -0.3989
 2785SOL    HW119817   4.413   4.367   4.060 -0.2207 -1.0856 -2.3125
 2785SOL    HW219818   4.281   4.332   4.099 -0.9414 -2.3383 -0.3614
 2786SOL     OW19819   3.953   3.996   7.702  0.1997 -0.3625 -0.4674
 2786SOL    HW119820   4.027   3.982   7.761 -1.7980 -2.0772  1.6552
 2786SOL    HW219821   3.958   3.923   7.640  1.2666 -2.8292  2.4794
 2787SOL     OW19822   2.319   3.049   4.594  0.0279 -0.7908  0.1788
 2787SOL    HW119823   2.329   3.025   4.502 -1.2315 -0.3087 -0.0968
 2787SOL    HW219824   2.380   3.122   4.606  0.7171 -1.6111  1.6453
 2788SOL     OW19825   3.311   2.857   0.549  0.4451  0.0139 -0.1408
 2788SOL    HW119826   3.253   2.932   0.559  1.3019  0.6220  0.2091
 2788SOL    HW219827   3.265   2.809   0.480 -1.2396  0.4639  0.6764
 2789SOL     OW19828   1.245   3.786   6.140  0.2425  0.2570 -0.2492
 2789SOL    HW119829   1.244   3.774   6.045 -0.0262  0.4923 -0.2771
 2789SOL    HW219830   1.156   3.814   6.159  0.5669 -0.0481  1.6820
 2790SOL     OW19831   3.707   0.691   0.464  0.1777  0.0029 -0.0701
 2790SOL    HW119832   3.762   0.615   0.442 -0.0403 -0.5652  1.3368
 2790SOL    HW219833   3.628   0.639   0.477  0.7343 -0.4257  1.6093
 2791SOL     OW19834   4.639   0.440   4.257  0.0820  0.6032 -0.2442
 2791SOL    HW119835   4.602   0.421   4.344  0.1601 -1.5181 -0.6779
 2791SOL    HW219836   4.697   0.515   4.272  0.3011  0.1045  1.4274
 2792SOL     OW19837   1.610   2.951   3.533  0.2476 -0.0315  0.0008
 2792SOL    HW119838   1.550   2.996   3.474 -0.3169 -1.9275 -0.8856
 2792SOL    HW219839   1.682   3.013   3.539  1.2415 -1.0338 -1.8560
 2793SOL     OW19840   3.975   0.499  12.705  0.8155 -0.4839  0.3711
 2793SOL    HW119841   3.976   0.531  12.795 -1.5952 -0.5928  0.4499
 2793SOL    HW219842   4.064   0.463  12.702  0.2953 -1.7678  0.1172
 2794SOL     OW19843   1.720   2.965  16.950 -0.3304  0.2217 -0.2052
 2794SOL    HW119844   1.674   3.031  17.003 -0.7788 -0.2265 -0.0290
 2794SOL    HW219845   1.676   2.888  16.988 -2.3065  0.9073 -1.0967
 2795SOL     OW19846   4.411   3.180  17.290 -0.6919 -0.1267 -0.3540
 2795SOL    HW119847   4.335   3.123  17.279 -1.3489  0.7501 -0.2728
 2795SOL    HW219848   4.449   3.140  17.369 -1.7618 -0.0600  0.1970
 2796SOL     OW19849   0.671   0.442  16.831  0.2478 -0.5901 -0.3143
 2796SOL    HW119850   0.663   0.537  16.845  1.3547 -0.1982 -2.3457
 2796SOL    HW219851   0.579   0.423  16.809 -0.4515  1.4058  0.8446
 2797SOL     OW19852   3.542   2.150   6.135  0.4820 -0.0805  0.9119
 2797SOL    HW119853   3.599   2.075   6.118 -0.0274 -0.1555 -0.4969
 2797SOL    HW219854   3.478   2.115   6.197  0.1278 -1.2805 -0.1360
 2798SOL     OW19855   4.250   2.690  15.604  0.1688  0.0613 -0.2298
 2798SOL    HW119856   4.226   2.721  15.517 -0.7967 -3.2059 -1.1353
 2798SOL    HW219857   4.181   2.625  15.619 -0.2924  0.8992  1.3340
 2799SOL     OW19858   3.006   4.109  11.344 -0.3146  0.1459  0.6776
 2799SOL    HW119859   2.930   4.072  11.388  0.5731 -2.3867  0.0921
 2799SOL    HW219860   2.963   4.162  11.276  0.4106  0.9815  0.8677
 2800SOL     OW19861   2.296   0.671   7.372 -0.5693 -0.5783 -0.1799
 2800SOL    HW119862   2.232   0.715   7.317  0.4281  0.3054 -0.6186
 2800SOL    HW219863   2.233   0.616   7.418 -0.2997 -1.2255 -0.5886
 2801SOL     OW19864   2.615   0.907   5.493 -0.9479 -0.5542 -0.0257
 2801SOL    HW119865   2.614   0.994   5.533  4.2242 -0.4290 -0.2294
 2801SOL    HW219866   2.587   0.928   5.404  0.4333  1.6845  0.0544
 2802SOL     OW19867   4.066   2.937   6.670  0.2810 -0.1271 -0.1256
 2802SOL    HW119868   4.077   2.959   6.578 -0.6138  1.2159  0.1060
 2802SOL    HW219869   4.154   2.904   6.690 -0.2192 -1.2413  0.2442
 2803SOL     OW19870   3.865   2.559  11.697  0.1002  0.3618 -1.1237
 2803SOL    HW119871   3.823   2.584  11.615  1.2949  1.6963 -1.3229
 2803SOL    HW219872   3.797   2.578  11.761  2.6449  1.5152  1.2501
 2804SOL     OW19873   3.966   0.129  11.791  0.5905 -0.1858 -0.3948
 2804SOL    HW119874   3.995   0.203  11.844  0.2662 -0.2055 -0.1937
 2804SOL    HW219875   3.871   0.143  11.794  0.4757 -1.2178  0.7894
 2805SOL     OW19876   0.648   2.211   3.085 -0.4498 -1.0927 -0.5024
 2805SOL    HW119877   0.703   2.285   3.108  1.2503 -2.6152  0.3456
 2805SOL    HW219878   0.579   2.225   3.149  0.8234  0.8716  0.4112
 2806SOL     OW19879   1.328   1.818   6.179  0.0116 -0.8678 -0.4321
 2806SOL    HW119880   1.363   1.838   6.266 -0.8646 -0.7752 -0.1058
 2806SOL    HW219881   1.307   1.901   6.138  0.3576  1.8296  4.8157
 2807SOL     OW19882   0.948   4.339   3.289 -0.2929  0.0799  0.2840
 2807SOL    HW119883   1.035   4.333   3.251 -1.1028 -3.3825 -1.0105
 2807SOL    HW219884   0.910   4.409   3.236  0.9136  0.8013  0.3800
 2808SOL     OW19885   0.866   0.964  11.347 -0.1682 -0.2248  0.0364
 2808SOL    HW119886   0.939   0.981  11.407  1.6775 -0.3505 -2.1755
 2808SOL    HW219887   0.912   0.940  11.266 -0.2923  1.4790 -0.5438
 2809SOL     OW19888   3.321   0.193  15.752 -0.4041 -0.1325 -0.0987
 2809SOL    HW119889   3.261   0.245  15.698 -0.5519  0.6798  0.8508
 2809SOL    HW219890   3.401   0.244  15.739 -0.1011 -0.1856  1.6537
 2810SOL     OW19891   3.084   3.658  13.084  0.1269  0.2480 -0.7019
 2810SOL    HW119892   3.028   3.728  13.050  0.4486  0.3298 -1.0590
 2810SOL    HW219893   3.050   3.635  13.171  0.9839  0.6779 -0.2616
 2811SOL     OW19894   0.326   1.088  14.359 -0.2308  0.2467 -0.4016
 2811SOL    HW119895   0.327   1.007  14.308 -0.3205 -0.2736  0.4265
 2811SOL    HW219896   0.417   1.109  14.378 -0.4343  1.2110 -0.4880
 2812SOL     OW19897   0.125   1.346   2.726  0.0711  0.2008 -0.0634
 2812SOL    HW119898   0.162   1.377   2.808 -1.4216  0.0824  0.6391
 2812SOL    HW219899   0.107   1.426   2.676 -0.0164  0.2805  0.0983
 2813SOL     OW19900   3.962   0.414   9.032 -0.4427  0.3984  0.1055
 2813SOL    HW119901   3.870   0.392   9.023  0.1440 -1.9270 -0.1777
 2813SOL    HW219902   3.977   0.461   8.951  3.4320  2.0670  1.7443
 2814SOL     OW19903   0.867   3.990   2.780 -0.1795  0.5897  0.2737
 2814SOL    HW119904   0.884   4.066   2.836 -0.4575 -0.8916  2.3690
 2814SOL    HW219905   0.820   3.940   2.847  0.6269 -2.8490 -1.7439
 2815SOL     OW19906   1.175   2.633   5.920  0.2474 -0.3217  0.2608
 2815SOL    HW119907   1.082   2.653   5.927  0.4436  0.6576 -0.0394
 2815SOL    HW219908   1.202   2.724   5.912 -0.9393 -0.2148 -2.5701
 2816SOL     OW19909   1.260   2.233   7.953  0.4250 -0.1781 -0.1795
 2816SOL    HW119910   1.230   2.266   7.868  1.2556  3.5358  0.9580
 2816SOL    HW219911   1.235   2.307   8.009 -0.3852  0.5799 -1.5521
 2817SOL     OW19912   3.849   2.496   9.924  0.7447  0.5708  0.5961
 2817SOL    HW119913   3.873   2.405   9.940  0.4310  0.0106 -2.1396
 2817SOL    HW219914   3.789   2.491   9.850  1.9260  0.4915 -0.3592
 2818SOL     OW19915   2.189   2.300   4.295  0.0389 -0.4456 -0.2803
 2818SOL    HW119916   2.176   2.378   4.351 -1.0783 -1.8311  1.3999
 2818SOL    HW219917   2.273   2.270   4.329 -0.3973 -0.9954  0.3177
 2819SOL     OW19918   3.266   0.790   5.320  0.2029  0.1984 -0.2979
 2819SOL    HW119919   3.311   0.827   5.397  0.2943  0.1370 -0.3217
 2819SOL    HW219920   3.332   0.733   5.281 -1.1845 -2.4723  1.2576
 2820SOL     OW19921   0.095   0.446   9.560 -0.3020 -0.0671 -0.3589
 2820SOL    HW119922   0.151   0.517   9.591 -0.3364 -0.6183  0.9811
 2820SOL    HW219923   0.058   0.432   9.648 -0.7260 -2.4062 -0.8928
 2821SOL     OW19924   4.278   3.205   7.862 -0.8472  0.0345  0.4895
 2821SOL    HW119925   4.235   3.291   7.868 -2.0158 -0.6227  1.7605
 2821SOL    HW219926   4.236   3.154   7.932  0.7737 -0.3449  1.1834
 2822SOL     OW19927   4.716   3.110   4.769  0.5658  0.3560  0.0265
 2822SOL    HW119928   0.055   3.079   4.837  1.9015 -0.0151 -1.2824
 2822SOL    HW219929   0.060   3.133   4.702  0.8426  0.7416  0.4340
 2823SOL     OW19930   1.324   2.962   2.312  0.0227 -0.0710 -0.0886
 2823SOL    HW119931   1.408   2.999   2.284  0.9404 -2.0810  0.0182
 2823SOL    HW219932   1.307   2.900   2.241  1.9355  0.9134 -1.4302
 2824SOL     OW19933   1.605   2.427   0.562  0.1085  0.0918 -0.6966
 2824SOL    HW119934   1.592   2.496   0.496 -1.7194  1.0620  0.6845
 2824SOL    HW219935   1.554   2.354   0.528  0.5327 -0.5711  0.0902
 2825SOL     OW19936   2.443   1.731  10.667 -0.8337 -0.2278 -0.2202
 2825SOL    HW119937   2.418   1.739  10.575  0.1402 -0.3182 -0.4958
 2825SOL    HW219938   2.354   1.746  10.700 -0.8086 -0.8848  0.1363
 2826SOL     OW19939   0.830   1.148   3.016  0.0016  0.0090 -0.1089
 2826SOL    HW119940   0.917   1.162   3.052 -0.6902  2.5864  0.5163
 2826SOL    HW219941   0.813   1.055   3.029  0.1780 -0.0283 -0.1417
 2827SOL     OW19942   0.981   2.831  12.088  0.2970  0.0448 -0.5607
 2827SOL    HW119943   1.003   2.853  11.998  0.4981 -1.9809 -0.9950
 2827SOL    HW219944   1.044   2.764  12.115  0.2913  0.8595  1.5109
 2828SOL     OW19945   2.815   0.366   4.121 -0.0514  0.6758  0.4077
 2828SOL    HW119946   2.826   0.275   4.150  5.0084  0.8943 -0.8099
 2828SOL    HW219947   2.788   0.352   4.031  2.2811  1.3619 -0.3892
 2829SOL     OW19948   3.109   0.256   5.255 -0.6667  1.0278  0.2539
 2829SOL    HW119949   3.099   0.277   5.348 -2.8402  3.2441 -0.4989
 2829SOL    HW219950   3.039   0.304   5.211 -1.0368  0.4083  0.1729
 2830SOL     OW19951   2.811   0.319   6.123  0.0181  0.3092 -0.6450
 2830SOL    HW119952   2.839   0.228   6.121  1.2022  0.6581  0.3641
 2830SOL    HW219953   2.771   0.304   6.210  0.7602 -1.9679 -0.7029
 2831SOL     OW19954   1.060   3.592   1.078  0.3173  0.4854 -0.3348
 2831SOL    HW119955   1.115   3.543   1.017  1.7053 -0.0210  1.2911
 2831SOL    HW219956   1.052   3.527   1.149 -0.1972 -1.6958 -2.3850
 2832SOL     OW19957   0.208   4.272   5.770  0.1970 -0.2417  0.3419
 2832SOL    HW119958   0.125   4.320   5.776 -0.1284 -0.7097 -0.3364
 2832SOL    HW219959   0.224   4.248   5.861 -1.9678 -0.2715  0.7114
 2833SOL     OW19960   1.521   1.477   4.435  0.3632  0.1289 -0.1554
 2833SOL    HW119961   1.453   1.540   4.413 -0.9472 -1.8967 -1.8525
 2833SOL    HW219962   1.530   1.430   4.352  0.4699 -0.6140  0.2737
 2834SOL     OW19963   1.099   1.991   6.773 -0.5943 -0.0288  0.3757
 2834SOL    HW119964   1.094   2.087   6.775 -0.6224 -0.0352  0.5525
 2834SOL    HW219965   1.012   1.972   6.737 -1.3549 -0.3833  2.4452
 2835SOL     OW19966   1.511   2.878   7.692  0.0152 -0.0998  0.4825
 2835SOL    HW119967   1.574   2.835   7.749 -0.3040 -0.6685  0.4082
 2835SOL    HW219968   1.430   2.850   7.735 -2.2531  0.5737 -3.2989
 2836SOL     OW19969   1.528   0.367   9.157 -0.1903 -0.3535 -0.2375
 2836SOL    HW119970   1.560   0.426   9.225  0.1024 -0.5898 -0.1699
 2836SOL    HW219971   1.575   0.292   9.194  1.3384  0.0860 -1.3062
 2837SOL     OW19972   2.986   2.803   0.047 -0.0675 -0.1870 -0.3039
 2837SOL    HW119973   2.950   2.717   0.029  0.6615 -0.9323  1.8444
 2837SOL    HW219974   2.980   2.804   0.143  1.7931  0.1705 -0.1878
 2838SOL     OW19975   4.055   4.597   5.024 -0.1327  0.2129 -1.1534
 2838SOL    HW119976   4.072   4.580   4.931 -0.7256  0.1198 -1.2460
 2838SOL    HW219977   4.000   4.522   5.048 -0.1952 -0.2783 -2.7802
 2839SOL     OW19978   0.936   3.954   4.483 -0.0140 -0.5112  0.1993
 2839SOL    HW119979   0.882   3.985   4.556 -0.4423 -1.4200  0.2664
 2839SOL    HW219980   0.997   4.027   4.478 -1.6280  0.8249 -0.2595
 2840SOL     OW19981   1.372   0.307   7.259  0.0052 -0.0615  0.1709
 2840SOL    HW119982   1.441   0.269   7.204 -0.2963  2.6762 -2.1089
 2840SOL    HW219983   1.305   0.327   7.194  0.2921  0.5214  0.0549
 2841SOL     OW19984   1.610   0.399   8.900  0.2024 -0.0655 -0.2845
 2841SOL    HW119985   1.586   0.414   8.992 -2.8714  0.2804 -1.1314
 2841SOL    HW219986   1.683   0.340   8.917  0.8364  1.0240  0.8043
 2842SOL     OW19987   2.582   2.509  10.303 -0.3286 -0.0169  0.4923
 2842SOL    HW119988   2.498   2.538  10.266 -0.1874 -1.2690 -0.8084
 2842SOL    HW219989   2.564   2.477  10.391  0.2635 -1.0165  0.2542
 2843SOL     OW19990   2.970   0.015   2.500 -0.8714 -0.5635 -0.4275
 2843SOL    HW119991   2.946   4.668   2.435 -3.0224 -0.2949  0.0997
 2843SOL    HW219992   2.887   0.063   2.506 -0.8710 -0.7273  0.8445
 2844SOL     OW19993   3.765   2.059   8.741 -0.5727  0.7064 -0.3522
 2844SOL    HW119994   3.814   1.998   8.796 -0.3856  0.3396 -0.9263
 2844SOL    HW219995   3.784   2.136   8.795 -0.1250 -1.1898  2.1999
 2845SOL     OW19996   3.802   3.549   5.585 -0.1795  0.0970  0.2501
 2845SOL    HW119997   3.776   3.487   5.517  1.2639  0.9625 -1.0715
 2845SOL    HW219998   3.896   3.538   5.575 -0.3533 -0.3131 -0.8881
 2846SOL     OW19999   0.352   0.105   3.762 -0.3064 -0.2463  0.6372
 2846SOL    HW120000   0.412   0.069   3.697 -0.4000 -2.3324  1.7239
 2846SOL    HW220001   0.390   0.192   3.778 -0.0961 -0.8547  3.5240
 2847SOL     OW20002   0.629   4.016   7.644  0.7243 -0.2633  0.2608
 2847SOL    HW120003   0.663   4.063   7.720  1.6266 -0.0338 -0.2812
 2847SOL    HW220004   0.542   4.054   7.630  0.5164 -0.8722 -0.0832
 2848SOL     OW20005   2.604   3.176   8.366  0.2924  0.1899  0.2458
 2848SOL    HW120006   2.640   3.101   8.318  1.8796  0.2357  1.3648
 2848SOL    HW220007   2.677   3.204   8.421  0.1565 -1.1453  1.0946
 2849SOL     OW20008   0.937   0.285   1.395  0.2799  0.6581 -0.5199
 2849SOL    HW120009   0.924   0.223   1.323 -0.2162 -0.2005  0.3254
 2849SOL    HW220010   0.899   0.240   1.470 -3.5088  1.7018 -1.7939
 2850SOL     OW20011   0.904   0.984  14.519  0.2393 -0.0553 -0.3759
 2850SOL    HW120012   0.894   0.893  14.494 -0.5481  0.9308 -3.6759
 2850SOL    HW220013   0.996   0.996  14.494  0.0398  1.4511 -0.3883
 2851SOL     OW20014   0.925   1.737  11.097  0.0351 -0.1544 -0.1143
 2851SOL    HW120015   0.968   1.822  11.106  0.8864 -0.6077 -0.0083
 2851SOL    HW220016   0.957   1.696  11.177 -0.8742 -0.9369 -0.1432
 2852SOL     OW20017   1.095   1.335   5.309  0.7036 -0.4750 -0.1731
 2852SOL    HW120018   1.164   1.293   5.257  0.7002 -0.1857 -0.4075
 2852SOL    HW220019   1.106   1.426   5.284 -1.6461 -0.2665 -0.3875
 2853SOL     OW20020   2.450   2.010  11.194  0.2139 -0.2275  0.0303
 2853SOL    HW120021   2.457   2.102  11.221  0.2443 -0.3223  0.3454
 2853SOL    HW220022   2.365   1.990  11.231 -0.5518  1.3985 -0.8609
 2854SOL     OW20023   4.217   3.959   7.850 -0.0885  0.0645  0.0570
 2854SOL    HW120024   4.217   3.910   7.932 -1.5037  0.5650  0.3556
 2854SOL    HW220025   4.227   3.884   7.792  0.5348 -0.4293  0.8036
 2855SOL     OW20026   2.606   4.463   2.202 -0.1900 -0.4520 -0.4197
 2855SOL    HW120027   2.569   4.387   2.248  1.3801 -0.7703  0.3230
 2855SOL    HW220028   2.659   4.421   2.135  0.0103 -2.2875  0.8770
 2856SOL     OW20029   2.131   1.718  12.947  0.3415 -0.1780  0.0918
 2856SOL    HW120030   2.115   1.634  12.905 -1.3068  0.3214 -0.2780
 2856SOL    HW220031   2.063   1.782  12.924  1.1902  0.9485  0.6816
 2857SOL     OW20032   0.260   3.537  13.286 -0.1436  0.6426 -0.0731
 2857SOL    HW120033   0.211   3.618  13.278  1.8285  1.9065  0.4680
 2857SOL    HW220034   0.331   3.568  13.343  0.8706 -2.9710  0.6587
 2858SOL     OW20035   0.926   3.879   5.798 -0.0240 -0.1507  0.0587
 2858SOL    HW120036   0.923   3.842   5.710 -2.6710  2.9916 -1.1384
 2858SOL    HW220037   0.996   3.943   5.783 -1.1591  0.8638 -0.9074
 2859SOL     OW20038   3.662   1.180   2.871 -0.1930  0.1650  0.0774
 2859SOL    HW120039   3.634   1.221   2.952 -2.1912  0.2472 -0.6628
 2859SOL    HW220040   3.600   1.222   2.812 -0.2016 -0.3105 -0.2560
 2860SOL     OW20041   1.112   3.365   5.247 -0.4940  0.1561 -0.7392
 2860SOL    HW120042   1.039   3.427   5.248  0.0742  0.7521  2.1022
 2860SOL    HW220043   1.071   3.279   5.246 -0.4254  0.1254 -1.2816
 2861SOL     OW20044   0.345   0.185   4.899  0.1403 -0.3791 -0.1299
 2861SOL    HW120045   0.407   0.186   4.972  0.3750  0.8979 -0.3414
 2861SOL    HW220046   0.264   0.211   4.943  0.3285 -1.2668  0.7371
 2862SOL     OW20047   4.435   4.370   2.979 -0.0891  0.2606 -0.5363
 2862SOL    HW120048   4.388   4.448   3.007 -0.6880 -1.2412  2.7742
 2862SOL    HW220049   4.473   4.357   3.066 -0.0727  2.0989 -0.2818
 2863SOL     OW20050   0.738   4.676   5.281 -0.4617 -0.0809  0.4640
 2863SOL    HW120051   0.692   4.599   5.250 -1.8945  0.5455  1.0138
 2863SOL    HW220052   0.817   4.693   5.230 -1.7168  1.2746 -1.0513
 2864SOL     OW20053   1.774   1.127  12.213 -0.1611 -0.1488  0.0735
 2864SOL    HW120054   1.816   1.202  12.171 -1.3299  0.0532 -0.7509
 2864SOL    HW220055   1.732   1.096  12.132  0.7613 -0.1796 -0.3956
 2865SOL     OW20056   3.433   1.698   2.950  0.2707 -0.3566 -0.2318
 2865SOL    HW120057   3.482   1.751   2.887 -0.0264  0.1844 -0.0067
 2865SOL    HW220058   3.510   1.652   2.986  0.8137 -0.0288 -0.9803
 2866SOL     OW20059   2.920   0.791  12.617 -0.3448 -0.8881 -0.6542
 2866SOL    HW120060   2.966   0.873  12.633 -0.2582 -1.2724  1.0547
 2866SOL    HW220061   2.999   0.736  12.615  1.4973  1.7611  0.0706
 2867SOL     OW20062   0.916   2.053   5.221  0.2631  0.4416 -0.0287
 2867SOL    HW120063   0.876   2.140   5.214 -0.9343 -0.0349  0.8655
 2867SOL    HW220064   0.926   2.032   5.128 -0.0522 -0.7036  0.1968
 2868SOL     OW20065   3.531   1.969   5.851  0.0476 -0.1568  0.0187
 2868SOL    HW120066   3.457   1.943   5.797  0.2856  0.9836 -0.8513
 2868SOL    HW220067   3.516   2.063   5.864  0.7974 -0.0195 -0.1020
 2869SOL     OW20068   0.614   4.533  15.431  0.0633 -0.0118 -0.1631
 2869SOL    HW120069   0.561   4.504  15.505  0.1643  0.6313  0.1616
 2869SOL    HW220070   0.669   4.456  15.414 -2.2127 -1.7008  0.2392
 2870SOL     OW20071   0.141   0.205   4.495 -0.3310 -0.5858  0.1521
 2870SOL    HW120072   0.068   0.266   4.505 -0.9426 -1.5222  1.3018
 2870SOL    HW220073   0.212   0.250   4.542 -1.3600 -0.7795  1.8883
 2871SOL     OW20074   2.241   1.119  15.217  0.5837  0.1372  0.2752
 2871SOL    HW120075   2.253   1.098  15.310  0.3313  0.1284  0.3069
 2871SOL    HW220076   2.184   1.196  15.221  0.1244 -0.3198  3.1989
 2872SOL     OW20077   2.615   1.056   3.475 -0.0162 -0.0950 -0.6194
 2872SOL    HW120078   2.619   0.970   3.434 -0.8009 -0.7446  0.6936
 2872SOL    HW220079   2.556   1.029   3.545 -0.1237  0.5761 -0.4492
 2873SOL     OW20080   2.170   3.720   6.771 -0.4169 -0.1932 -0.0377
 2873SOL    HW120081   2.116   3.798   6.784 -1.7664 -1.0597 -0.4138
 2873SOL    HW220082   2.133   3.655   6.831 -3.0958  1.3863  0.0196
 2874SOL     OW20083   0.928   1.147   8.463 -0.0259  0.0212 -0.1157
 2874SOL    HW120084   0.991   1.120   8.529  0.5208  0.6893 -0.3620
 2874SOL    HW220085   0.879   1.212   8.514  0.0355 -0.9380  1.1344
 2875SOL     OW20086   2.835   0.409  10.955 -0.4134 -0.1441 -0.0323
 2875SOL    HW120087   2.799   0.496  10.935 -0.9451 -0.5813 -0.9262
 2875SOL    HW220088   2.824   0.371  10.868  3.5305 -1.1751 -0.0754
 2876SOL     OW20089   0.994   4.563   8.212  0.4324 -0.7419  0.1656
 2876SOL    HW120090   0.932   4.509   8.163  1.2287 -1.4500 -0.0718
 2876SOL    HW220091   1.080   4.548   8.173  0.3190 -2.8243  0.7044
 2877SOL     OW20092   3.149   1.677   3.016  0.2875  0.3580  0.1495
 2877SOL    HW120093   3.240   1.668   2.987  0.5600  1.5500  0.6279
 2877SOL    HW220094   3.150   1.772   3.027 -2.4596  0.3241  0.6300
 2878SOL     OW20095   1.344   4.349  11.551 -0.0883 -0.5174 -0.2795
 2878SOL    HW120096   1.347   4.298  11.632 -2.0205 -0.3810 -0.1220
 2878SOL    HW220097   1.385   4.431  11.577  1.5810 -1.8270  1.2183
 2879SOL     OW20098   4.710   2.738   9.714 -1.0039 -0.0606  0.1420
 2879SOL    HW120099   4.676   2.674   9.775 -0.5760 -1.6103 -1.2584
 2879SOL    HW220100   0.036   2.799   9.772  0.4993 -0.8379 -0.2139
 2880SOL     OW20101   4.119   2.651  13.107  0.7369  0.4787  0.3841
 2880SOL    HW120102   4.062   2.575  13.116  0.8022  0.4033  0.1541
 2880SOL    HW220103   4.168   2.636  13.026  0.4161  1.6931 -0.0349
 2881SOL     OW20104   1.871   2.618  11.293  0.2050  0.0609 -0.3693
 2881SOL    HW120105   1.868   2.523  11.301 -0.2326 -0.0474 -1.7096
 2881SOL    HW220106   1.785   2.649  11.322  1.2447  1.9707  0.6859
 2882SOL     OW20107   1.202   1.284  11.175 -0.3931  0.4637  0.0109
 2882SOL    HW120108   1.188   1.365  11.126  1.5925  1.7787  1.5993
 2882SOL    HW220109   1.245   1.327  11.249 -1.3097 -0.0996  0.8705
 2883SOL     OW20110   4.143   0.247   0.100 -0.4512  0.4164 -0.7725
 2883SOL    HW120111   4.185   0.162   0.084 -1.7081 -0.4474  0.5392
 2883SOL    HW220112   4.216   0.292   0.142 -1.8754  0.5453  1.5814
 2884SOL     OW20113   2.038   3.646   0.936 -0.5153 -0.1002 -0.9246
 2884SOL    HW120114   2.103   3.714   0.954  0.3794 -1.6929  1.7322
 2884SOL    HW220115   1.999   3.695   0.863 -1.8671  0.6231  0.2745
 2885SOL     OW20116   0.058   3.062   8.937 -0.4433  0.0875 -0.1401
 2885SOL    HW120117   0.089   2.975   8.960 -0.4173  0.8986  2.9140
 2885SOL    HW220118   0.114   3.117   8.993 -1.3709 -0.1780  1.0421
 2886SOL     OW20119   2.025   3.261   4.380  0.0920  0.0271 -0.0269
 2886SOL    HW120120   1.974   3.196   4.429 -3.7863  0.3763 -3.5711
 2886SOL    HW220121   1.962   3.326   4.349  0.2681 -1.5266 -3.5778
 2887SOL     OW20122   4.124   3.168   4.183  0.5336 -0.2062 -0.6832
 2887SOL    HW120123   4.181   3.173   4.260  0.9626  1.5195 -1.1193
 2887SOL    HW220124   4.120   3.073   4.173 -0.7869 -0.3781  1.3875
 2888SOL     OW20125   1.015   4.215   6.846 -0.2324 -0.5371 -0.4696
 2888SOL    HW120126   0.946   4.171   6.797 -1.4142  0.4294  0.3261
 2888SOL    HW220127   1.086   4.208   6.782  1.7307  0.1616  1.6247
 2889SOL     OW20128   2.193   3.400   6.843  0.2149  0.5338 -0.0814
 2889SOL    HW120129   2.238   3.461   6.784  1.3683 -0.8321 -0.6277
 2889SOL    HW220130   2.149   3.343   6.780  0.5955 -1.5749  1.5460
 2890SOL     OW20131   0.965   0.167  17.314  0.4607  0.1546  0.0948
 2890SOL    HW120132   1.050   0.203  17.292  0.4990 -0.5438 -0.9060
 2890SOL    HW220133   0.922   0.189  17.232 -1.9879  0.7584  1.5185
 2891SOL     OW20134   1.869   0.034   7.222  0.0347 -0.5756 -0.3193
 2891SOL    HW120135   1.780   0.042   7.187 -0.6501  1.0804  1.7995
 2891SOL    HW220136   1.851   0.047   7.315  0.8391  0.9561 -0.3845
 2892SOL     OW20137   1.757   3.066  10.340 -0.0041  0.2388 -0.2671
 2892SOL    HW120138   1.670   3.071  10.299 -0.7550  1.2814  1.4448
 2892SOL    HW220139   1.773   2.972  10.333  0.4490  0.3515 -0.7375
 2893SOL     OW20140   2.364   4.488   5.158 -0.4200 -0.0112 -0.1616
 2893SOL    HW120141   2.335   4.424   5.093 -1.0679 -0.9610  1.0592
 2893SOL    HW220142   2.397   4.429   5.225  0.2382  0.8519  0.2622
 2894SOL     OW20143   1.384   2.347  17.185 -0.2128  0.3504  0.3556
 2894SOL    HW120144   1.441   2.311  17.253 -0.9006 -2.0733 -0.3547
 2894SOL    HW220145   1.445   2.366  17.113 -0.4089  0.6648  0.2746
 2895SOL     OW20146   3.892   3.989   3.826 -1.1253 -0.5233 -0.0268
 2895SOL    HW120147   3.901   4.021   3.736 -1.9894  0.2939  0.1837
 2895SOL    HW220148   3.924   3.899   3.819 -0.4644 -0.3350  0.5344
 2896SOL     OW20149   4.277   3.857   6.613  0.2243  0.7242 -0.4854
 2896SOL    HW120150   4.241   3.920   6.551  1.2187  1.6968 -0.0516
 2896SOL    HW220151   4.212   3.788   6.629  0.6502  0.2616 -0.7662
 2897SOL     OW20152   2.888   0.436   5.634  0.1803  0.3724  0.0996
 2897SOL    HW120153   2.841   0.512   5.601  1.3580  1.3288  0.5981
 2897SOL    HW220154   2.814   0.376   5.647 -0.0829  0.7478  0.3330
 2898SOL     OW20155   3.389   4.167  14.741 -0.2433  0.0696  0.1187
 2898SOL    HW120156   3.357   4.208  14.661  2.0013  2.3160  0.3777
 2898SOL    HW220157   3.403   4.079  14.706 -0.8070  0.6007 -1.4364
 2899SOL     OW20158   4.079   0.034   3.184 -0.0582  0.1632 -0.4166
 2899SOL    HW120159   4.092   0.128   3.170  1.8664 -0.3022 -1.7810
 2899SOL    HW220160   4.035   0.038   3.269  0.7574  0.6947 -0.0171
 2900SOL     OW20161   3.112   3.916  14.976 -0.0792 -0.7936  0.2194
 2900SOL    HW120162   3.146   3.905  15.064 -2.6729 -1.7855  1.0856
 2900SOL    HW220163   3.028   3.956  14.997  1.1672  2.0710 -0.2923
 2901SOL     OW20164   4.637   0.730  17.139 -0.2465  0.0091  0.0944
 2901SOL    HW120165   4.694   0.782  17.082  0.1831 -0.3324  0.2170
 2901SOL    HW220166   4.695   0.717  17.215  1.1000  1.1568 -0.7323
 2902SOL     OW20167   3.698   3.239   4.682  0.5301  0.3257 -0.1377
 2902SOL    HW120168   3.716   3.257   4.774  0.2569 -1.1264  0.1911
 2902SOL    HW220169   3.726   3.148   4.686 -1.0740 -0.1209  0.8032
 2903SOL     OW20170   4.477   1.524   0.535 -0.4781 -0.5610 -0.2779
 2903SOL    HW120171   4.456   1.564   0.620 -0.5943  0.8530 -0.9765
 2903SOL    HW220172   4.480   1.600   0.478 -2.1864 -0.0496  0.3029
 2904SOL     OW20173   1.375   2.646   4.381  0.1320 -0.1345 -0.3283
 2904SOL    HW120174   1.349   2.733   4.411  1.1223 -0.6198  1.9638
 2904SOL    HW220175   1.325   2.639   4.300  1.0560  0.2702 -0.9274
 2905SOL     OW20176   1.454   1.988   0.191  0.0371  0.5229 -0.1781
 2905SOL    HW120177   1.483   1.898   0.204 -1.0303  0.4061  1.3977
 2905SOL    HW220178   1.368   1.993   0.233  0.7666 -2.0882  1.6321
 2906SOL     OW20179   1.599   1.602   0.928 -0.1916  0.2493  0.3674
 2906SOL    HW120180   1.692   1.614   0.908 -0.5761  0.0822 -1.5273
 2906SOL    HW220181   1.580   1.668   0.994 -1.7109 -0.5489  0.7242
 2907SOL     OW20182   0.409   3.862   7.371 -0.1488  0.8503 -0.4897
 2907SOL    HW120183   0.480   3.848   7.308  0.3089 -1.5246  0.5916
 2907SOL    HW220184   0.409   3.777   7.413  1.5492  2.0277  1.8505
 2908SOL     OW20185   0.347   4.687   5.902 -0.1959  0.0400 -0.6621
 2908SOL    HW120186   0.402   4.663   5.976 -1.9136 -3.3566 -0.5106
 2908SOL    HW220187   0.409   4.666   5.832 -0.9690 -1.5800 -0.8526
 2909SOL     OW20188   1.987   3.551   2.321 -0.2019 -0.0807 -0.1116
 2909SOL    HW120189   2.077   3.560   2.290 -0.1119  0.7957  0.4181
 2909SOL    HW220190   2.003   3.565   2.415 -1.5768 -1.4899  0.3390
 2910SOL     OW20191   4.616   1.236   7.964 -0.2090  0.1083  0.2044
 2910SOL    HW120192   4.590   1.190   8.044 -2.1142 -0.5241 -0.7862
 2910SOL    HW220193   4.695   1.184   7.949  0.4274  1.2739 -0.4156
 2911SOL     OW20194   0.216   0.841   7.507  0.1554  0.3838  0.1056
 2911SOL    HW120195   0.294   0.785   7.506  0.4701  0.8136 -0.0322
 2911SOL    HW220196   0.175   0.830   7.592 -1.2981  0.6602 -0.5682
 2912SOL     OW20197   1.658   1.135   3.708  0.0391 -0.0876 -0.0696
 2912SOL    HW120198   1.665   1.137   3.613 -1.4048  0.1988 -0.1667
 2912SOL    HW220199   1.652   1.230   3.719 -1.0670 -0.0751 -0.7891
 2913SOL     OW20200   1.663   0.450   7.489  0.0468  0.1059 -0.3724
 2913SOL    HW120201   1.604   0.511   7.533  1.0654  0.5814  0.3119
 2913SOL    HW220202   1.692   0.396   7.562 -1.5278  0.9965  0.8999
 2914SOL     OW20203   2.588   2.946  16.150  0.1221  0.0644  0.8271
 2914SOL    HW120204   2.572   2.903  16.234  0.2031  0.2642  0.9468
 2914SOL    HW220205   2.624   3.031  16.176  0.1280  0.2155  0.3226
 2915SOL     OW20206   3.131   0.336   3.003  0.3508  0.5873  0.5351
 2915SOL    HW120207   3.101   0.246   2.991  0.7236  0.5819 -0.4457
 2915SOL    HW220208   3.225   0.316   3.004  0.0186 -0.8082  2.1402
 2916SOL     OW20209   2.071   1.954  11.093  0.0339 -0.2018 -0.0054
 2916SOL    HW120210   2.074   1.862  11.067  1.1699  0.6095 -2.7421
 2916SOL    HW220211   2.129   1.943  11.168 -1.6196 -2.0752  0.9830
 2917SOL     OW20212   3.344   4.490   6.584  0.7357  0.2264  0.0557
 2917SOL    HW120213   3.325   4.582   6.567 -2.4428  0.2147  3.7203
 2917SOL    HW220214   3.372   4.502   6.674  1.5871 -0.0395 -0.1748
 2918SOL     OW20215   0.642   3.231   5.897 -0.4715  0.2796  0.1461
 2918SOL    HW120216   0.688   3.225   5.981 -0.2884  2.2103  0.1900
 2918SOL    HW220217   0.703   3.181   5.843 -2.2829 -2.0778  0.3106
 2919SOL     OW20218   1.885   4.282   6.278  0.9431  0.2764 -0.5775
 2919SOL    HW120219   1.895   4.224   6.354  1.1552  0.7063 -0.2808
 2919SOL    HW220220   1.890   4.227   6.200 -0.0765 -2.0153  0.9762
 2920SOL     OW20221   4.686   3.497  12.276  0.3956  0.5942 -0.5172
 2920SOL    HW120222   0.046   3.543  12.302 -0.2108  1.7422 -0.6833
 2920SOL    HW220223   4.640   3.488  12.360 -2.3824  2.2763 -1.8426
 2921SOL     OW20224   0.234   1.052  16.756  0.7007 -0.2443 -0.2219
 2921SOL    HW120225   0.172   1.102  16.703  1.4952  2.7821  1.6972
 2921SOL    HW220226   0.258   1.108  16.830  0.9886 -1.9028  0.9515
 2922SOL     OW20227   4.572   3.262   2.195  0.0431  0.8763 -0.7846
 2922SOL    HW120228   4.607   3.343   2.158  2.8158 -0.3327 -0.8483
 2922SOL    HW220229   4.600   3.263   2.286 -2.0236  0.8102 -0.1461
 2923SOL     OW20230   3.431   3.347   5.881  0.1928  0.5283 -0.1927
 2923SOL    HW120231   3.459   3.411   5.816 -1.7098  1.0797 -0.4458
 2923SOL    HW220232   3.512   3.313   5.920 -0.0142  1.2818  0.8953
 2924SOL     OW20233   2.995   0.213   3.333  0.4888 -0.0713 -0.2072
 2924SOL    HW120234   2.970   0.249   3.418 -1.1660  2.4340 -1.7316
 2924SOL    HW220235   3.067   0.273   3.312  0.1957  0.3223 -0.1045
 2925SOL     OW20236   0.361   4.451   0.916  0.1443  0.3111 -0.1048
 2925SOL    HW120237   0.456   4.448   0.915  0.0865 -2.6270  1.8585
 2925SOL    HW220238   0.330   4.436   0.826 -0.0873  0.3186 -0.0274
 2926SOL     OW20239   0.058   1.402   0.734  0.1820  0.0096  0.1773
 2926SOL    HW120240   4.690   1.439   0.734 -0.7246 -2.1326 -1.4127
 2926SOL    HW220241   0.101   1.487   0.732 -1.9409  1.0683 -0.3744
 2927SOL     OW20242   4.131   3.036   0.480  0.3245 -0.5996 -0.1267
 2927SOL    HW120243   4.068   2.965   0.474 -0.1832 -0.0348 -1.4873
 2927SOL    HW220244   4.207   2.980   0.491 -0.3480 -1.5101 -0.1056
 2928SOL     OW20245   2.848   1.052   3.335 -0.0284 -0.2226 -0.0679
 2928SOL    HW120246   2.768   1.059   3.387  0.0058 -2.0770  0.2143
 2928SOL    HW220247   2.879   0.966   3.361  1.0886 -0.3300 -1.7901
 2929SOL     OW20248   1.879   2.103   6.869 -0.5068 -0.2049 -0.3792
 2929SOL    HW120249   1.798   2.151   6.886  0.3833  0.6438  1.4224
 2929SOL    HW220250   1.943   2.151   6.921 -0.0540  0.3885 -1.4856
 2930SOL     OW20251   1.775   2.892   4.911 -0.0421 -0.0150  0.3954
 2930SOL    HW120252   1.862   2.927   4.928  0.1512 -0.2363 -0.1449
 2930SOL    HW220253   1.794   2.799   4.912 -0.5365 -0.1227 -1.2816
 2931SOL     OW20254   1.230   1.597   3.383  0.3292 -0.3661 -0.1492
 2931SOL    HW120255   1.216   1.514   3.337 -1.1008 -0.7422  0.9706
 2931SOL    HW220256   1.145   1.617   3.422  0.0835 -1.5623 -0.0763
 2932SOL     OW20257   1.365   2.944   4.827  0.4700 -0.7047  0.2632
 2932SOL    HW120258   1.423   2.869   4.840 -1.2061 -2.0437  0.1397
 2932SOL    HW220259   1.422   3.007   4.870  0.2816 -1.8407  2.1737
 2933SOL     OW20260   2.585   3.301   2.713 -0.1661 -0.4640 -0.4013
 2933SOL    HW120261   2.662   3.307   2.657 -0.3292 -0.7576 -0.6574
 2933SOL    HW220262   2.628   3.249   2.780 -2.0979 -0.7002  0.6634
 2934SOL     OW20263   1.291   0.290  14.481  0.1664 -0.6173 -0.0227
 2934SOL    HW120264   1.282   0.211  14.533 -0.4803 -0.5416 -0.0197
 2934SOL    HW220265   1.204   0.301  14.443 -0.3211 -1.3311  0.8972
 2935SOL     OW20266   0.340   3.625   8.907  0.2028  0.5049  0.2546
 2935SOL    HW120267   0.358   3.595   8.996 -1.2578  0.1252  0.4346
 2935SOL    HW220268   0.341   3.544   8.855 -1.4116  0.9740 -0.5132
 2936SOL     OW20269   1.063   0.501   8.953 -0.4090  0.2842  0.5008
 2936SOL    HW120270   1.123   0.428   8.945 -1.1552 -0.2865  0.1409
 2936SOL    HW220271   1.129   0.569   8.969  0.3580 -0.5929  1.0308
 2937SOL     OW20272   0.658   1.169   9.427 -0.2189 -0.5367  1.1496
 2937SOL    HW120273   0.566   1.191   9.414 -0.4749 -1.0376  2.1103
 2937SOL    HW220274   0.689   1.239   9.369 -0.2511 -0.9786  0.6033
 2938SOL     OW20275   2.451   1.671   3.219  0.3142  0.6738 -0.0521
 2938SOL    HW120276   2.519   1.732   3.245 -0.2248  2.0235 -1.7821
 2938SOL    HW220277   2.371   1.724   3.229 -1.0550 -1.0352 -1.9646
 2939SOL     OW20278   1.263   3.069   5.770 -0.8137  0.5704 -0.1411
 2939SOL    HW120279   1.203   3.101   5.703 -0.3332  1.9912  0.1052
 2939SOL    HW220280   1.322   3.143   5.782  1.2441 -0.9092 -1.1647
 2940SOL     OW20281   3.293   0.930   8.041  0.0134 -0.7158  0.5896
 2940SOL    HW120282   3.348   0.860   8.077  1.4894  0.6513  1.0138
 2940SOL    HW220283   3.207   0.889   8.047 -0.0495 -0.7018 -0.2819
 2941SOL     OW20284   4.669   2.464  10.444 -0.7794 -0.3005 -0.0785
 2941SOL    HW120285   4.661   2.525  10.518 -0.8092  0.4573 -0.7055
 2941SOL    HW220286   0.014   2.404  10.480 -1.7062 -0.7767  0.8128
 2942SOL     OW20287   0.506   1.729   5.307  0.7209 -0.0873 -0.0401
 2942SOL    HW120288   0.498   1.712   5.401 -2.5638 -1.3190 -0.5365
 2942SOL    HW220289   0.588   1.778   5.302  0.8029 -0.0846  1.3957
 2943SOL     OW20290   3.421   3.551   5.242 -0.2854 -0.2893 -0.1935
 2943SOL    HW120291   3.485   3.581   5.177 -1.9245 -0.0507 -1.7078
 2943SOL    HW220292   3.405   3.631   5.292  2.2733  2.1655 -3.2719
 2944SOL     OW20293   2.314   3.795   8.165  0.1285 -0.4913 -0.0486
 2944SOL    HW120294   2.316   3.890   8.169 -0.3022 -0.4496 -0.6860
 2944SOL    HW220295   2.290   3.788   8.257  2.6576  1.1128  0.7112
 2945SOL     OW20296   0.505   4.188  14.220 -0.3139  0.0661  0.0715
 2945SOL    HW120297   0.567   4.196  14.292  0.4858  1.8969 -0.8226
 2945SOL    HW220298   0.546   4.258  14.168  0.9665 -1.0772 -0.4759
 2946SOL     OW20299   2.160   3.187   3.920  0.4659 -0.2336  0.4575
 2946SOL    HW120300   2.133   3.236   3.998 -0.8177 -4.4755  2.6881
 2946SOL    HW220301   2.169   3.256   3.855  0.6397  0.1690  0.9137
 2947SOL     OW20302   3.722   3.593   8.450  0.1017 -0.4353 -0.0202
 2947SOL    HW120303   3.767   3.642   8.381  1.1198  1.0255  1.6677
 2947SOL    HW220304   3.673   3.658   8.500  2.0763  1.0859 -0.0507
 2948SOL     OW20305   0.775   4.488   6.228  0.6097 -0.5852  0.5647
 2948SOL    HW120306   0.752   4.422   6.293  1.3823 -1.6574 -0.2499
 2948SOL    HW220307   0.863   4.456   6.210  1.2170  1.1661  0.4068
 2949SOL     OW20308   1.894   3.902   1.031  0.2227  0.2798 -0.4508
 2949SOL    HW120309   1.846   3.924   1.110 -0.7510 -2.0839 -0.3701
 2949SOL    HW220310   1.982   3.902   1.069  0.9548 -1.7268 -2.1093
 2950SOL     OW20311   3.120   3.701   0.984 -0.3322 -0.0173  0.1568
 2950SOL    HW120312   3.087   3.630   0.928 -1.0469 -0.5496  1.2541
 2950SOL    HW220313   3.203   3.723   0.941 -0.3843  1.2552  0.7250
 2951SOL     OW20314   0.701   4.525   1.430  0.0283  0.2351  0.0114
 2951SOL    HW120315   0.703   4.440   1.386  0.8268  1.2344 -1.8575
 2951SOL    HW220316   0.794   4.544   1.444 -0.0462 -0.1721  1.1240
 2952SOL     OW20317   4.627   3.772   3.363 -0.0462  0.3183  0.2694
 2952SOL    HW120318   4.628   3.760   3.268  1.3279 -0.0621  0.3347
 2952SOL    HW220319   4.617   3.680   3.386  2.4690  0.0790  0.4740
 2953SOL     OW20320   0.535   2.018   1.275 -0.2825 -0.4280  0.5653
 2953SOL    HW120321   0.503   1.938   1.317 -0.3204 -2.0706 -2.5763
 2953SOL    HW220322   0.532   2.082   1.346  1.5859  0.1079  0.1567
 2954SOL     OW20323   3.752   3.141  11.597  0.3728 -0.4546  0.8079
 2954SOL    HW120324   3.796   3.209  11.649 -0.9279 -0.8880  2.4837
 2954SOL    HW220325   3.671   3.141  11.647  0.3948  1.9213  0.8277
 2955SOL     OW20326   2.945   0.163   8.555 -0.6711 -0.2388 -0.4859
 2955SOL    HW120327   2.980   0.098   8.616  2.2567  2.1201  0.3311
 2955SOL    HW220328   2.853   0.163   8.581 -0.8703 -1.1249 -1.2104
 2956SOL     OW20329   1.342   2.112  13.911  0.6508 -0.0579 -0.3518
 2956SOL    HW120330   1.297   2.196  13.902 -1.0622 -0.8744  0.7669
 2956SOL    HW220331   1.348   2.097  14.005 -3.8588 -1.2058 -0.2581
 2957SOL     OW20332   0.410   0.444  10.170  0.4164 -0.8104  0.1097
 2957SOL    HW120333   0.355   0.367  10.186  1.3396 -1.6388 -0.6225
 2957SOL    HW220334   0.493   0.404  10.144  0.4345 -0.9073  0.3122
 2958SOL     OW20335   1.818   3.944   0.368 -0.1276 -0.1644 -0.0880
 2958SOL    HW120336   1.776   3.859   0.380 -1.3862  0.7293  1.7373
 2958SOL    HW220337   1.820   3.983   0.455  1.1596  2.7661 -1.4140
 2959SOL     OW20338   3.973   2.469   6.221 -0.5011 -0.1272 -0.0763
 2959SOL    HW120339   3.967   2.418   6.302  2.2824 -0.0121  0.2047
 2959SOL    HW220340   3.957   2.553   6.264 -1.1115  0.0580 -0.6610
 2960SOL     OW20341   4.400   3.792   5.926 -0.5458  0.8987  0.0248
 2960SOL    HW120342   4.356   3.795   6.010 -1.6818 -0.8537 -0.5085
 2960SOL    HW220343   4.443   3.706   5.918 -3.1387 -0.2241 -1.9286
 2961SOL     OW20344   3.477   2.229   6.807 -0.2740 -0.3035  0.0501
 2961SOL    HW120345   3.530   2.308   6.811 -0.4627 -0.2392  1.3044
 2961SOL    HW220346   3.454   2.222   6.900 -1.6703  1.6535 -0.1656
 2962SOL     OW20347   4.058   0.669   4.460 -0.1599  0.2725  0.0899
 2962SOL    HW120348   4.035   0.714   4.380  1.8509  0.5377 -0.3337
 2962SOL    HW220349   4.143   0.636   4.433  0.0552  1.0681 -0.1896
 2963SOL     OW20350   1.896   2.151  11.121 -0.2764  0.4978  0.0432
 2963SOL    HW120351   1.965   2.085  11.119 -1.7558 -1.0461  0.6452
 2963SOL    HW220352   1.821   2.095  11.139  1.7368 -1.4572  2.4133
 2964SOL     OW20353   1.001   2.161   2.348  0.3375 -0.4961 -0.2288
 2964SOL    HW120354   0.928   2.191   2.295 -0.3027 -0.6648  0.5665
 2964SOL    HW220355   1.016   2.073   2.311  0.8502  0.2619 -1.8421
 2965SOL     OW20356   0.312   1.607  12.492  0.3257  0.4102 -0.2154
 2965SOL    HW120357   0.407   1.611  12.479  0.3163 -0.0965 -0.4631
 2965SOL    HW220358   0.278   1.613  12.403  2.0896  1.7058 -0.7884
 2966SOL     OW20359   4.518   3.806   2.247 -0.0262 -0.4294 -0.3832
 2966SOL    HW120360   4.436   3.758   2.231  0.6755 -2.0735  1.0692
 2966SOL    HW220361   4.563   3.752   2.312  0.0409  0.3848  0.2431
 2967SOL     OW20362   1.895   1.130   5.511  0.0847  0.4882 -0.6784
 2967SOL    HW120363   1.800   1.124   5.519  0.2983 -0.5456  1.0949
 2967SOL    HW220364   1.924   1.110   5.422 -0.1034 -0.4181 -0.5371
 2968SOL     OW20365   3.991   4.293   5.536 -0.5941 -0.0408 -0.0780
 2968SOL    HW120366   4.009   4.217   5.592 -0.7193  0.3552  0.4973
 2968SOL    HW220367   4.053   4.271   5.466  0.2995 -0.9390  0.9959
 2969SOL     OW20368   3.304   0.392   7.581  0.1066 -0.3160  0.2017
 2969SOL    HW120369   3.371   0.413   7.517 -0.4054 -1.3061 -0.6708
 2969SOL    HW220370   3.244   0.346   7.521 -0.9655  3.5309 -1.6663
 2970SOL     OW20371   4.579   2.106  10.635  0.0849 -0.4602  0.1932
 2970SOL    HW120372   4.662   2.139  10.601 -0.1366  0.6057  0.6941
 2970SOL    HW220373   4.543   2.055  10.563 -0.7229  2.1818 -1.2419
 2971SOL     OW20374   0.041   4.185  16.875 -0.1945  0.0897  0.1848
 2971SOL    HW120375   0.087   4.189  16.791  0.1524  0.9103  0.4059
 2971SOL    HW220376   4.720   4.271  16.885  1.2431  0.6814  1.1422
 2972SOL     OW20377   3.852   4.092   0.101  0.3112 -0.1181  0.2178
 2972SOL    HW120378   3.790   4.020   0.110  0.0552 -0.0977 -1.4481
 2972SOL    HW220379   3.934   4.050   0.129 -0.1001  0.3107  2.0416
 2973SOL     OW20380   2.608   0.817   4.633 -0.2615  0.3183  0.1287
 2973SOL    HW120381   2.627   0.820   4.727  2.7398  1.5619 -0.5092
 2973SOL    HW220382   2.652   0.733   4.620 -1.4022  0.0339 -1.8722
 2974SOL     OW20383   0.351   1.160   2.552 -0.2007  0.0422  0.5423
 2974SOL    HW120384   0.273   1.181   2.603 -0.5149 -1.2247  0.5873
 2974SOL    HW220385   0.314   1.152   2.464 -0.5793 -1.8752  0.8672
 2975SOL     OW20386   3.148   1.101   0.184  0.4948  0.5419 -0.2801
 2975SOL    HW120387   3.198   1.180   0.205 -0.5782  1.0016  0.5197
 2975SOL    HW220388   3.127   1.119   0.092  0.9133  2.2402 -0.0304
 2976SOL     OW20389   2.044   2.370  10.446 -0.3875  0.4852  0.0566
 2976SOL    HW120390   2.134   2.356  10.418  0.4891  2.8954  1.5985
 2976SOL    HW220391   1.991   2.368  10.367 -1.6797  0.4030  0.9169
 2977SOL     OW20392   1.461   0.388  13.434  0.2053  0.2865 -0.0696
 2977SOL    HW120393   1.440   0.305  13.390 -1.0563  0.8856 -0.6009
 2977SOL    HW220394   1.555   0.395  13.419  0.1801  1.4602  0.3416
 2978SOL     OW20395   0.255   0.396   7.493 -0.0997 -0.5805  0.0677
 2978SOL    HW120396   0.176   0.426   7.536  0.1288  0.5487 -0.3121
 2978SOL    HW220397   0.296   0.478   7.467  0.1844 -0.3635  1.2042
 2979SOL     OW20398   1.803   2.353   5.972  0.5968  0.3033  0.3197
 2979SOL    HW120399   1.720   2.307   5.961  1.3123 -0.7397 -0.7678
 2979SOL    HW220400   1.794   2.420   5.903  0.5707 -0.3602 -0.3267
 2980SOL     OW20401   2.073   0.038   9.513  0.1643 -0.0595 -0.4163
 2980SOL    HW120402   2.151   0.010   9.464  1.9201  0.6098  2.0089
 2980SOL    HW220403   2.102   4.705   9.587 -1.9317  1.9559  1.8387
 2981SOL     OW20404   2.336   2.318   7.959  0.4458  0.7549 -0.3486
 2981SOL    HW120405   2.370   2.271   7.883 -0.3859 -1.2063  0.4854
 2981SOL    HW220406   2.351   2.411   7.940 -0.5734  0.9431 -0.2231
 2982SOL     OW20407   0.857   1.537  17.038  0.2182  0.4373 -0.5747
 2982SOL    HW120408   0.815   1.548  17.124 -1.1517  3.4107 -1.6318
 2982SOL    HW220409   0.853   1.628  17.007 -0.1581  1.0726  1.3252
 2983SOL     OW20410   1.378   3.360   6.556 -0.0622 -0.4803  0.3929
 2983SOL    HW120411   1.457   3.306   6.553  1.5949  2.0685 -1.7273
 2983SOL    HW220412   1.378   3.397   6.643  0.7510  0.2592  0.0716
 2984SOL     OW20413   1.663   3.727   0.182 -0.0686 -0.5249 -0.3861
 2984SOL    HW120414   1.640   3.794   0.118  0.5117  0.2163  0.1901
 2984SOL    HW220415   1.711   3.672   0.121  1.9130  0.6665  0.1096
 2985SOL     OW20416   1.715   3.284   4.598  0.1044 -0.5030  0.0890
 2985SOL    HW120417   1.679   3.197   4.579  0.4980 -0.6047 -0.1930
 2985SOL    HW220418   1.672   3.333   4.527 -1.3614 -0.2634  1.1378
 2986SOL     OW20419   0.161   4.596  10.193 -0.6600 -0.2240 -0.5195
 2986SOL    HW120420   0.154   4.502  10.180 -0.1622 -0.5420  1.4267
 2986SOL    HW220421   0.251   4.610  10.164  0.4544 -0.3041  2.8109
 2987SOL     OW20422   4.558   2.205   6.353 -0.1567  0.1313 -0.3300
 2987SOL    HW120423   4.623   2.266   6.317  2.1711 -3.6499 -2.5580
 2987SOL    HW220424   4.476   2.242   6.321 -0.4985 -0.9330 -0.6863
 2988SOL     OW20425   1.385   4.232   1.389  0.5832  0.6971 -0.2915
 2988SOL    HW120426   1.372   4.160   1.329  1.7443 -0.4106  0.7867
 2988SOL    HW220427   1.386   4.199   1.479 -0.1144 -1.0014 -0.9135
 2989SOL     OW20428   0.678   3.069   8.590 -0.0837  0.7594 -0.2289
 2989SOL    HW120429   0.766   3.094   8.617  0.4726 -0.1558 -1.1783
 2989SOL    HW220430   0.622   3.117   8.650  0.3118 -0.6010  1.2309
 2990SOL     OW20431   1.954   2.242  12.083 -0.6920 -0.3636  0.1753
 2990SOL    HW120432   1.907   2.164  12.112 -2.5074  0.9331  0.7025
 2990SOL    HW220433   1.926   2.309  12.144 -0.6873 -2.5633  2.6032
 2991SOL     OW20434   0.225   1.578   9.099 -0.3225  0.1288  0.1710
 2991SOL    HW120435   0.244   1.540   9.013 -2.5758  1.0465 -0.7543
 2991SOL    HW220436   0.247   1.671   9.096  0.7214 -0.0347  2.8119
 2992SOL     OW20437   3.186   0.113  13.344  0.6960 -0.0347 -0.4393
 2992SOL    HW120438   3.119   0.095  13.411  0.8569  1.6324  0.1736
 2992SOL    HW220439   3.210   0.021  13.336 -1.7726 -0.7461  0.4552
 2993SOL     OW20440   0.993   4.163   8.100 -0.2971 -0.3364  0.5189
 2993SOL    HW120441   0.961   4.097   8.161 -0.5106  1.9780  2.8921
 2993SOL    HW220442   0.989   4.123   8.013 -0.1075  1.4153 -0.2964
 2994SOL     OW20443   1.530   0.766   8.747 -0.3829  0.4977  0.3637
 2994SOL    HW120444   1.541   0.810   8.663  1.8794  0.4796  0.6406
 2994SOL    HW220445   1.599   0.699   8.743 -1.5174 -0.6149 -0.6217
 2995SOL     OW20446   2.343   3.540   7.070 -0.0421  0.3662  0.1283
 2995SOL    HW120447   2.290   3.477   7.020  0.3118  0.6807 -0.6388
 2995SOL    HW220448   2.383   3.582   6.994 -0.6414  0.5617 -0.0759
 2996SOL     OW20449   3.241   2.823   9.288 -0.3747  0.4491 -0.5396
 2996SOL    HW120450   3.205   2.789   9.370  0.8268  1.7023  0.5000
 2996SOL    HW220451   3.311   2.870   9.333  1.4314 -0.8076 -2.0224
 2997SOL     OW20452   2.454   3.175   3.665 -0.3461  0.0879  0.2463
 2997SOL    HW120453   2.541   3.137   3.651 -0.3932  0.7040 -1.7468
 2997SOL    HW220454   2.481   3.264   3.690 -2.5048  1.1658 -1.2782
 2998SOL     OW20455   1.648   0.812   6.673  0.4448 -0.3327 -0.5195
 2998SOL    HW120456   1.684   0.770   6.751 -0.1553  0.0939 -0.0214
 2998SOL    HW220457   1.615   0.890   6.716 -0.7247 -0.4835 -1.1389
 2999SOL     OW20458   4.214   4.074  17.436 -0.6918  0.0257  0.5775
 2999SOL    HW120459   4.124   4.053  17.409  0.5279  0.1558 -3.5375
 2999SOL    HW220460   4.256   4.092  17.352 -2.3805 -0.2410 -0.3180
 3000SOL     OW20461   0.992   0.698  11.256 -0.0880  0.6864 -0.1403
 3000SOL    HW120462   1.015   0.784  11.223  0.4635  0.8212  0.5896
 3000SOL    HW220463   0.976   0.655  11.172  0.3571 -0.0041  0.1250
 3001SOL     OW20464   2.969   0.908   7.649 -0.2829 -0.6357  0.2787
 3001SOL    HW120465   3.027   0.968   7.603 -0.0152 -1.2565 -0.1905
 3001SOL    HW220466   3.029   0.872   7.714  1.2158  2.3474  0.5453
 3002SOL     OW20467   1.171   4.586  17.073  0.0325  0.1575 -0.3158
 3002SOL    HW120468   1.088   4.595  17.026 -1.3696 -0.3714  2.0808
 3002SOL    HW220469   1.224   4.613  16.998 -1.8484  1.1723 -1.2921
 3003SOL     OW20470   3.639   3.254   6.053  0.5085  0.1249  0.4352
 3003SOL    HW120471   3.596   3.237   6.137  2.2784  1.5280  1.6249
 3003SOL    HW220472   3.726   3.217   6.067  0.9343  0.5568 -1.1066
 3004SOL     OW20473   2.480   1.132  15.676  0.1566  0.3483  0.0424
 3004SOL    HW120474   2.401   1.135  15.731  1.4379 -1.7355  1.9811
 3004SOL    HW220475   2.547   1.090  15.731  0.4933  0.6366 -0.1533
 3005SOL     OW20476   1.342   2.771   1.357  0.4800 -0.1980  0.5405
 3005SOL    HW120477   1.425   2.730   1.336 -0.7234 -1.5638 -1.5851
 3005SOL    HW220478   1.374   2.847   1.405 -0.9749  0.6963  0.1218
 3006SOL     OW20479   3.153   3.166   4.187 -0.6042 -0.0056  0.5113
 3006SOL    HW120480   3.214   3.197   4.120  0.2062 -0.9546  0.8106
 3006SOL    HW220481   3.070   3.187   4.143 -1.4031 -1.3218  1.3854
 3007SOL     OW20482   0.695   4.300   8.288  0.6458 -0.2890  0.6283
 3007SOL    HW120483   0.637   4.376   8.294 -0.1540 -0.7727 -0.9139
 3007SOL    HW220484   0.758   4.336   8.226 -1.2870  1.4669 -0.3242
 3008SOL     OW20485   4.042   3.060   7.593 -0.7782 -0.4604  0.1932
 3008SOL    HW120486   4.023   3.031   7.682 -1.5807  0.2791  0.2570
 3008SOL    HW220487   4.054   2.976   7.549  3.5018  1.1895 -1.8427
 3009SOL     OW20488   3.168   2.250   0.209 -0.3682 -0.1237  0.1150
 3009SOL    HW120489   3.231   2.194   0.253 -1.4565  1.3557  3.5871
 3009SOL    HW220490   3.119   2.194   0.148 -1.6015 -1.5747  2.4133
 3010SOL     OW20491   0.850   3.557   1.889  0.3202  0.4789 -0.1054
 3010SOL    HW120492   0.807   3.617   1.950  1.2223  0.1255  0.8759
 3010SOL    HW220493   0.872   3.491   1.956  0.0808  2.1753  1.6568
 3011SOL     OW20494   4.685   0.075  16.861  0.2525 -0.1238 -0.0410
 3011SOL    HW120495   4.666   0.155  16.910  0.6260  0.8057 -1.4176
 3011SOL    HW220496   4.706   0.119  16.778 -0.0098 -0.5406 -0.3287
 3012SOL     OW20497   1.780   3.555   6.204 -0.4343  0.5843  0.0682
 3012SOL    HW120498   1.726   3.509   6.140 -2.1031 -0.1243  1.9900
 3012SOL    HW220499   1.781   3.494   6.278  1.7596  0.2443 -0.2216
 3013SOL     OW20500   2.911   2.686  16.259  0.8492 -0.1391  0.2942
 3013SOL    HW120501   2.868   2.697  16.344  0.4225  1.6656 -0.1651
 3013SOL    HW220502   2.958   2.768  16.244  1.3646 -0.5804 -0.4986
 3014SOL     OW20503   1.810   1.529  16.238 -0.2014 -0.0194 -0.5503
 3014SOL    HW120504   1.823   1.451  16.292 -1.7309 -0.0611 -0.2444
 3014SOL    HW220505   1.731   1.575  16.266  0.5956  0.5080  0.8586
 3015SOL     OW20506   2.879   3.730   3.502 -0.0050 -0.1229  0.2736
 3015SOL    HW120507   2.970   3.758   3.507  0.1760 -1.0782  2.0370
 3015SOL    HW220508   2.845   3.818   3.487 -1.4929 -1.0167 -1.7342
 3016SOL     OW20509   0.420   3.305   6.514  0.2411  0.0035 -0.0404
 3016SOL    HW120510   0.439   3.389   6.473 -1.7118  1.1669  1.4609
 3016SOL    HW220511   0.354   3.329   6.578  0.8286 -0.1450  0.6321
 3017SOL     OW20512   0.548   4.539   2.763  0.2906  0.1037 -0.2992
 3017SOL    HW120513   0.575   4.466   2.708 -0.1529  1.7224 -2.6687
 3017SOL    HW220514   0.494   4.485   2.819  1.1658  0.9328  1.3404
 3018SOL     OW20515   1.535   2.323   2.279 -0.5464  0.3013 -0.3677
 3018SOL    HW120516   1.470   2.392   2.269  0.5731  1.4201  0.1928
 3018SOL    HW220517   1.487   2.243   2.254 -0.8605  0.7152 -1.1244
 3019SOL     OW20518   1.646   3.927  17.631  0.2804 -0.6071  0.3350
 3019SOL    HW120519   1.725   3.904  17.581  0.7608 -0.3879  0.9978
 3019SOL    HW220520   1.583   3.935  17.559 -1.8808  1.3134  2.4477
 3020SOL     OW20521   0.253   0.159   6.472  0.4407 -0.4479  0.0769
 3020SOL    HW120522   0.289   0.198   6.392  1.9693 -1.4517  0.2808
 3020SOL    HW220523   0.328   0.124   6.520  1.9449  0.3158 -1.7032
 3021SOL     OW20524   3.238   2.226   0.672  0.1311 -0.2455  0.0115
 3021SOL    HW120525   3.210   2.315   0.653  1.4462  0.1401 -0.1247
 3021SOL    HW220526   3.213   2.211   0.763 -1.5654  1.2312 -0.1971
 3022SOL     OW20527   1.524   4.130   5.565  0.6715 -0.0607 -0.3858
 3022SOL    HW120528   1.572   4.153   5.644 -0.1897 -0.8154  0.3635
 3022SOL    HW220529   1.508   4.217   5.528 -0.7740 -0.0660  0.2167
 3023SOL     OW20530   1.759   2.719   1.953  0.8029 -0.0721  0.5726
 3023SOL    HW120531   1.705   2.714   2.032  0.9913  0.4311  0.7357
 3023SOL    HW220532   1.703   2.716   1.876  0.4417 -3.7561  1.0065
 3024SOL     OW20533   2.427   2.324   6.602  0.4816  0.1647  0.1813
 3024SOL    HW120534   2.425   2.327   6.697 -0.2483 -1.9340  0.2319
 3024SOL    HW220535   2.395   2.239   6.573  1.3797 -0.2698  0.4757
 3025SOL     OW20536   2.344   0.890   5.116  0.4326 -0.0990  1.1394
 3025SOL    HW120537   2.331   0.856   5.027  0.5291  1.1633  0.6499
 3025SOL    HW220538   2.439   0.888   5.131  0.4864 -2.4912  0.5845
 3026SOL     OW20539   0.319   0.396   3.373  0.2813  0.4490  0.3781
 3026SOL    HW120540   0.291   0.329   3.310 -0.5150 -0.4585  1.6904
 3026SOL    HW220541   0.318   0.480   3.328  0.1683  0.2534  0.0165
 3027SOL     OW20542   3.511   0.576  14.130 -0.0471  0.1897  0.4169
 3027SOL    HW120543   3.593   0.566  14.178 -0.1289 -1.2748  0.2430
 3027SOL    HW220544   3.517   0.671  14.116 -1.1867  0.2873  0.5180
 3028SOL     OW20545   4.552   2.704   6.770 -0.4064 -0.6243  0.8714
 3028SOL    HW120546   4.615   2.702   6.843  2.5922 -0.5296 -1.6986
 3028SOL    HW220547   4.603   2.744   6.700 -2.4720  1.7186  0.7217
 3029SOL     OW20548   2.158   0.268  16.583 -0.2710 -0.6670 -0.0031
 3029SOL    HW120549   2.139   0.328  16.654 -1.5080 -1.1205  0.0442
 3029SOL    HW220550   2.242   0.235  16.613  0.1487  0.0757 -0.3538
 3030SOL     OW20551   4.290   0.570  11.494  0.3499 -0.2355  0.2060
 3030SOL    HW120552   4.346   0.643  11.469  1.1101 -0.9563 -0.1929
 3030SOL    HW220553   4.215   0.588  11.437  1.0916 -1.1520 -1.0682
 3031SOL     OW20554   3.341   2.871  11.478  0.9040 -0.3275 -0.0952
 3031SOL    HW120555   3.328   2.826  11.394 -1.2169 -0.2773  0.2090
 3031SOL    HW220556   3.429   2.904  11.461 -0.2350  1.8343 -1.8531
 3032SOL     OW20557   2.252   0.471   9.408  0.0553 -0.4141  0.0617
 3032SOL    HW120558   2.312   0.404   9.442 -0.3295  0.3870  2.3184
 3032SOL    HW220559   2.168   0.425   9.406  0.8372 -1.8326 -0.5657
 3033SOL     OW20560   1.757   2.766  17.513 -0.3421  0.9881  0.5132
 3033SOL    HW120561   1.749   2.682  17.468  0.1382  1.0995  0.2221
 3033SOL    HW220562   1.833   2.758  17.570  1.2347  0.5466 -1.6534
 3034SOL     OW20563   1.810   0.180   6.325  0.0214 -0.1818 -0.0831
 3034SOL    HW120564   1.884   0.151   6.272  1.3023 -2.4892  2.9613
 3034SOL    HW220565   1.769   0.242   6.265  0.8886  0.4581 -0.0302
 3035SOL     OW20566   3.834   1.187   4.691 -0.3668  0.0876 -0.4128
 3035SOL    HW120567   3.773   1.260   4.705  0.1246  0.6072 -0.9711
 3035SOL    HW220568   3.847   1.162   4.782 -1.0910  0.0349 -0.3196
 3036SOL     OW20569   2.291   1.273   3.449  0.0502 -0.2084 -0.5325
 3036SOL    HW120570   2.251   1.337   3.508  3.2264  2.9967 -1.8878
 3036SOL    HW220571   2.277   1.308   3.362 -1.4699  1.1150  0.2482
 3037SOL     OW20572   1.258   2.875   8.111  0.0360 -0.2610 -0.5546
 3037SOL    HW120573   1.324   2.877   8.180 -1.3520  0.0936  0.7455
 3037SOL    HW220574   1.270   2.956   8.062  0.5256 -0.5742 -0.9600
 3038SOL     OW20575   4.551   2.893   1.277  0.3962  0.5432  0.2497
 3038SOL    HW120576   4.572   2.985   1.292 -1.4723  0.8426  1.0767
 3038SOL    HW220577   4.553   2.853   1.364  3.8438  1.7151  0.7316
 3039SOL     OW20578   3.004   3.750   9.057 -0.0117 -0.1600  0.6114
 3039SOL    HW120579   2.922   3.749   9.106  0.1200  0.9336  0.8467
 3039SOL    HW220580   2.977   3.732   8.967 -0.0533  0.2355  0.5443
 3040SOL     OW20581   0.152   2.699   7.632  0.2910  0.0901 -0.2547
 3040SOL    HW120582   0.244   2.723   7.616  1.0593 -1.7568  1.3276
 3040SOL    HW220583   0.147   2.742   7.717  0.0729  0.0643 -0.2565
 3041SOL     OW20584   1.759   1.654  12.001 -0.1072  0.4230 -0.3285
 3041SOL    HW120585   1.823   1.623  11.936 -2.6539 -1.7025 -1.8401
 3041SOL    HW220586   1.722   1.726  11.951  1.2351 -0.1660 -2.2056
 3042SOL     OW20587   3.837   2.377  13.815 -0.0057 -0.1476  0.2275
 3042SOL    HW120588   3.769   2.434  13.780 -0.5042 -0.6018  0.4549
 3042SOL    HW220589   3.847   2.420  13.899  1.0008  0.8495 -0.4088
 3043SOL     OW20590   4.640   1.599  11.656  0.3690  0.0175 -0.0797
 3043SOL    HW120591   0.002   1.589  11.703  2.0595 -1.0278 -3.2149
 3043SOL    HW220592   4.607   1.679  11.697  0.0721  0.9897 -2.1932
 3044SOL     OW20593   0.026   1.518   2.500 -0.0269  0.1158 -0.0371
 3044SOL    HW120594   4.663   1.503   2.454  0.9234  0.2975 -1.7859
 3044SOL    HW220595   0.078   1.486   2.427 -2.0529 -0.5771 -1.1893
 3045SOL     OW20596   1.083   0.572   0.601 -0.5418 -0.1375 -0.5174
 3045SOL    HW120597   1.165   0.560   0.554  0.0565  0.3302  0.4001
 3045SOL    HW220598   1.062   0.665   0.591 -0.0167  0.3010  2.4568
 3046SOL     OW20599   4.641   2.568  13.872  0.6736  0.1449  0.5158
 3046SOL    HW120600   4.565   2.600  13.919 -0.3004  1.0103 -1.6303
 3046SOL    HW220601   4.609   2.495  13.820  0.7495 -1.6809  3.0755
 3047SOL     OW20602   0.910   0.257   4.758  0.6186 -0.1659 -0.0502
 3047SOL    HW120603   0.815   0.271   4.762  0.6666  0.0852  0.1809
 3047SOL    HW220604   0.893   0.163   4.765 -1.7778  0.1684 -1.4347
 3048SOL     OW20605   4.272   2.739  15.328  0.0908 -0.0395  0.0626
 3048SOL    HW120606   4.365   2.737  15.303  0.5197 -0.2519  1.6242
 3048SOL    HW220607   4.242   2.811  15.274  1.5341 -0.9998 -2.0106
 3049SOL     OW20608   1.616   2.338   9.732 -0.5753  0.5157  0.4127
 3049SOL    HW120609   1.623   2.384   9.815  0.8983  0.5837  0.2514
 3049SOL    HW220610   1.597   2.246   9.752  0.8786 -0.1191 -1.0041
 3050SOL     OW20611   3.409   3.444   3.881  0.6357 -0.4167 -0.6303
 3050SOL    HW120612   3.333   3.490   3.846 -0.0314  0.8820  2.6077
 3050SOL    HW220613   3.479   3.497   3.841  0.4370 -0.6873 -1.3506
 3051SOL     OW20614   1.970   2.007   3.005  0.0430 -0.5455  0.2820
 3051SOL    HW120615   2.056   1.965   3.007  0.2796 -0.1457 -1.5151
 3051SOL    HW220616   1.978   2.057   2.924 -0.8078  0.1314  0.6094
 3052SOL     OW20617   2.899   4.025   7.980  0.1226 -0.4858 -0.1710
 3052SOL    HW120618   2.970   4.074   7.941 -0.3678  0.4075  0.0625
 3052SOL    HW220619   2.821   4.079   7.963  0.6871  0.3016 -0.2438
 3053SOL     OW20620   3.834   2.391  11.435  0.1781 -0.3784 -0.2066
 3053SOL    HW120621   3.895   2.368  11.365  1.7894 -3.3618  2.2278
 3053SOL    HW220622   3.803   2.476  11.402  3.7243  1.0714  0.2137
 3054SOL     OW20623   0.135   3.383   6.285  0.1052  0.0807  0.1839
 3054SOL    HW120624   0.203   3.448   6.300 -0.9538  1.2798 -0.2431
 3054SOL    HW220625   0.060   3.439   6.303 -0.6253 -1.0801  0.7875
 3055SOL     OW20626   0.733   1.368  15.007  0.3045 -0.0215  0.4037
 3055SOL    HW120627   0.777   1.374  15.092 -0.4296  0.6861  0.7261
 3055SOL    HW220628   0.648   1.336  15.037  0.2403 -1.5385 -1.4054
 3056SOL     OW20629   4.223   1.480   1.288  0.2261 -0.3073 -0.4434
 3056SOL    HW120630   4.211   1.495   1.381  1.7497 -2.8245  0.1496
 3056SOL    HW220631   4.207   1.571   1.262  0.0960 -0.6663 -1.6503
 3057SOL     OW20632   0.526   1.842   0.793  0.0889  0.0183 -0.3751
 3057SOL    HW120633   0.548   1.858   0.885  1.9433  0.3998 -0.8667
 3057SOL    HW220634   0.572   1.915   0.750  1.6099 -0.5941  0.1920
 3058SOL     OW20635   3.519   4.457   8.112 -0.2994 -0.0492 -0.1126
 3058SOL    HW120636   3.510   4.501   8.196  0.2660 -1.0333  0.4520
 3058SOL    HW220637   3.612   4.469   8.094 -0.0850 -2.1109 -0.3778
 3059SOL     OW20638   3.609   2.610   4.490  0.4302  1.0180 -0.8484
 3059SOL    HW120639   3.599   2.609   4.585 -1.9793  0.4783 -1.1181
 3059SOL    HW220640   3.600   2.704   4.473  0.1798  0.8376 -1.6931
 3060SOL     OW20641   0.335   0.135   1.170 -0.2083  0.7124  0.1030
 3060SOL    HW120642   0.391   0.210   1.151  0.0837  0.8567  1.4907
 3060SOL    HW220643   0.248   0.173   1.161 -1.1478 -0.7619  2.7051
 3061SOL     OW20644   0.988   3.073   9.995 -0.7596  0.1966 -0.0025
 3061SOL    HW120645   1.010   3.089   9.903 -0.8102  1.7127  0.2502
 3061SOL    HW220646   1.077   3.057  10.026  0.7841  1.4537 -3.7824
 3062SOL     OW20647   3.116   0.102   4.681  0.0609  0.0418 -0.0173
 3062SOL    HW120648   3.199   0.116   4.726  0.6942 -2.8786 -0.3093
 3062SOL    HW220649   3.054   0.074   4.748  0.1153 -0.1964 -0.0664
 3063SOL     OW20650   4.591   3.336   7.376  0.1478  0.0576  0.2019
 3063SOL    HW120651   4.639   3.372   7.302 -1.0231 -0.6464 -0.8964
 3063SOL    HW220652   4.573   3.417   7.423 -2.9437 -0.8196  0.5374
 3064SOL     OW20653   3.398   3.719   8.041  0.4587  0.3872 -0.0621
 3064SOL    HW120654   3.438   3.634   8.021 -1.9204 -0.9728  0.9505
 3064SOL    HW220655   3.403   3.773   7.963  0.9403  1.5927  0.8106
 3065SOL     OW20656   1.325   2.310   5.324  0.4349 -0.0206  0.4629
 3065SOL    HW120657   1.272   2.335   5.249 -1.2297 -0.5797  1.4257
 3065SOL    HW220658   1.253   2.300   5.387  0.9271  3.6305  1.5895
 3066SOL     OW20659   3.078   3.150   1.347  0.5674  0.2040 -0.1678
 3066SOL    HW120660   3.062   3.144   1.441 -0.4188 -1.9602 -0.4769
 3066SOL    HW220661   3.143   3.221   1.350  2.0129 -1.1010 -0.7366
 3067SOL     OW20662   2.700   3.146   3.571  0.0557 -0.4088  0.2112
 3067SOL    HW120663   2.672   3.170   3.483  0.4490  2.5629  0.9107
 3067SOL    HW220664   2.795   3.151   3.566  0.2448 -3.5159  0.3572
 3068SOL     OW20665   2.717   0.981   7.517 -0.3266  0.2698  0.5201
 3068SOL    HW120666   2.805   0.962   7.549 -0.1219  3.0648  1.5664
 3068SOL    HW220667   2.692   0.901   7.470 -3.2778  0.5542  1.5762
 3069SOL     OW20668   0.505   3.527  13.110  0.1663 -0.6301  0.5180
 3069SOL    HW120669   0.570   3.478  13.159 -1.3840 -2.6083  0.5658
 3069SOL    HW220670   0.431   3.521  13.169 -0.8994 -0.7244 -0.8220
 3070SOL     OW20671   2.720   2.867   4.944 -0.0082  0.4400  0.3955
 3070SOL    HW120672   2.783   2.926   4.902  0.5666 -0.9927 -0.7567
 3070SOL    HW220673   2.639   2.871   4.893  0.7677  0.2920 -0.8527
 3071SOL     OW20674   2.029   0.419   3.027  0.3812  0.2642 -0.2425
 3071SOL    HW120675   2.026   0.328   3.000  2.7997  0.1188 -0.0831
 3071SOL    HW220676   2.121   0.425   3.054  0.8834  1.9737 -2.3625
 3072SOL     OW20677   4.561   2.497   7.773 -0.5960 -0.5611 -0.4014
 3072SOL    HW120678   4.537   2.516   7.864  2.1076  0.4517  0.1204
 3072SOL    HW220679   4.552   2.402   7.768 -2.6369 -0.5108  2.5095
 3073SOL     OW20680   3.989   0.565   8.220 -0.0936  0.1108  0.0747
 3073SOL    HW120681   3.986   0.640   8.161  1.1375 -0.7243 -1.0360
 3073SOL    HW220682   4.028   0.498   8.165  0.0105  2.2072 -2.3941
 3074SOL     OW20683   3.042   1.441   3.681 -0.8803 -0.1516  0.1610
 3074SOL    HW120684   2.952   1.428   3.652 -1.3546 -0.8145  1.9755
 3074SOL    HW220685   3.026   1.448   3.775  1.4743  0.8166  0.4976
 3075SOL     OW20686   1.634   1.928   6.974  0.0925  0.3404  0.0015
 3075SOL    HW120687   1.570   1.995   6.998 -1.3797 -1.3873  0.8533
 3075SOL    HW220688   1.646   1.948   6.881  2.6862  1.0913  0.5117
 3076SOL     OW20689   1.823   2.135   7.538 -0.3310 -0.1782 -0.1225
 3076SOL    HW120690   1.740   2.178   7.517  0.5430  0.3108 -2.5802
 3076SOL    HW220691   1.850   2.174   7.621 -1.7692 -0.6527  0.5727
 3077SOL     OW20692   4.676   3.761  13.930 -0.4502 -0.2694 -0.1974
 3077SOL    HW120693   0.047   3.788  13.947  0.0582 -1.1807 -1.4292
 3077SOL    HW220694   4.662   3.832  13.868 -0.7953  0.9025  1.2175
 3078SOL     OW20695   2.426   2.569   4.913  0.5635  0.0106 -0.4856
 3078SOL    HW120696   2.486   2.607   4.977 -1.0527 -0.4881  1.3508
 3078SOL    HW220697   2.472   2.565   4.830  0.2620  0.4907 -0.6806
 3079SOL     OW20698   4.025   1.208   5.530 -0.1955 -0.1682 -0.1250
 3079SOL    HW120699   3.966   1.168   5.594  1.5535 -0.7718  1.0912
 3079SOL    HW220700   4.081   1.266   5.582  1.8465 -1.9057 -0.3935
 3080SOL     OW20701   2.786   0.251   6.622 -0.2333  0.2475  0.2580
 3080SOL    HW120702   2.750   0.194   6.690 -0.8509  0.0874 -0.1998
 3080SOL    HW220703   2.838   0.318   6.665 -0.0747  1.6081 -2.0451
 3081SOL     OW20704   0.225   4.475   1.666  0.2243  0.0323 -0.4288
 3081SOL    HW120705   0.270   4.489   1.583 -1.8332 -0.0950 -1.5350
 3081SOL    HW220706   0.149   4.526   1.640  0.8552  0.5081 -1.3275
 3082SOL     OW20707   1.158   3.668   1.825  0.3778  0.4075 -0.1145
 3082SOL    HW120708   1.104   3.714   1.889  2.5364  1.6829  0.8042
 3082SOL    HW220709   1.157   3.585   1.873  2.1519 -0.1000 -0.9613
 3083SOL     OW20710   3.529   2.306   1.180 -0.5744  0.1612  0.1589
 3083SOL    HW120711   3.447   2.317   1.132 -0.7438  1.6397  0.7845
 3083SOL    HW220712   3.537   2.211   1.181 -1.8313  0.0486 -0.1560
 3084SOL     OW20713   1.204   4.264   3.696  0.6922 -0.2237  0.2710
 3084SOL    HW120714   1.155   4.287   3.775  0.8340  0.2120  0.2336
 3084SOL    HW220715   1.177   4.172   3.693  1.7710 -0.4941 -0.8885
 3085SOL     OW20716   1.911   2.734   0.046 -0.1021 -0.2496  0.2434
 3085SOL    HW120717   2.001   2.740   0.013 -0.6297  0.6563 -1.0395
 3085SOL    HW220718   1.903   2.640   0.062 -0.6996 -0.2562 -0.1210
 3086SOL     OW20719   1.739   0.382   4.947  0.1660 -0.3530  0.2416
 3086SOL    HW120720   1.833   0.383   4.965  0.6496  0.2438 -2.2299
 3086SOL    HW220721   1.731   0.294   4.910  1.4893 -0.2704 -0.2546
 3087SOL     OW20722   3.426   3.467   1.641 -0.3035 -0.3430 -0.0550
 3087SOL    HW120723   3.392   3.542   1.689  0.5744  0.8773 -1.3118
 3087SOL    HW220724   3.408   3.502   1.553  0.2623  0.1572  0.0253
 3088SOL     OW20725   4.359   3.577   3.560 -0.0038 -0.1915  0.3166
 3088SOL    HW120726   4.281   3.571   3.614  0.3097 -1.3096  0.6332
 3088SOL    HW220727   4.375   3.670   3.545 -2.2952  0.0431 -0.6769
 3089SOL     OW20728   0.270   2.476   5.492  0.5786 -0.6165  0.5876
 3089SOL    HW120729   0.327   2.451   5.565 -1.9563  1.3455  3.2567
 3089SOL    HW220730   0.264   2.393   5.446 -0.4649  0.7250 -1.6853
 3090SOL     OW20731   0.188   1.620   1.566 -0.3068  0.6057 -0.7068
 3090SOL    HW120732   0.169   1.613   1.659  0.4154  0.6787 -0.5556
 3090SOL    HW220733   0.106   1.655   1.529 -1.3228  0.1882  1.1364
 3091SOL     OW20734   2.673   1.327   4.478  0.1887 -0.7721 -0.6573
 3091SOL    HW120735   2.675   1.233   4.494  0.7563 -0.3826  1.6658
 3091SOL    HW220736   2.607   1.355   4.541  2.5255 -0.3638  1.6242
 3092SOL     OW20737   0.892   2.568   6.170 -0.2635  0.3188 -0.1911
 3092SOL    HW120738   0.926   2.646   6.126 -0.7310  1.0333  0.6924
 3092SOL    HW220739   0.960   2.557   6.237 -2.5420  0.5620  2.1623
 3093SOL     OW20740   0.640   2.758   6.746 -0.4331  0.0786 -0.2166
 3093SOL    HW120741   0.681   2.844   6.746  0.0979 -0.1718  1.1922
 3093SOL    HW220742   0.587   2.770   6.667 -0.4794  1.8085  0.0955
 3094SOL     OW20743   0.612   1.220  16.458 -0.6812 -0.1447 -0.2255
 3094SOL    HW120744   0.639   1.254  16.544  0.6922 -0.9613 -0.3302
 3094SOL    HW220745   0.549   1.160  16.499  1.7299 -2.3894  0.1735
 3095SOL     OW20746   1.431   1.255   1.218  0.1288 -0.4883  0.0375
 3095SOL    HW120747   1.365   1.302   1.166  0.6449  1.5962  1.2589
 3095SOL    HW220748   1.424   1.295   1.305 -1.9616  0.4730 -0.5797
 3096SOL     OW20749   1.639   0.961  17.169 -0.5433  0.2948 -0.1248
 3096SOL    HW120750   1.544   0.953  17.182 -0.5894 -1.0231 -1.2698
 3096SOL    HW220751   1.665   0.880  17.213 -0.5289  1.2639  1.6581
 3097SOL     OW20752   0.114   4.454   4.470  0.5512 -0.0369  0.0521
 3097SOL    HW120753   0.045   4.511   4.437  2.7254  2.7692  0.3368
 3097SOL    HW220754   0.142   4.502   4.549  2.5855  0.9811 -1.2739
 3098SOL     OW20755   3.482   0.418   2.648  0.2403 -0.3151 -0.3826
 3098SOL    HW120756   3.511   0.327   2.646 -1.8004 -1.0270  1.5937
 3098SOL    HW220757   3.561   0.456   2.611 -0.8276 -0.4459 -2.8168
 3099SOL     OW20758   4.499   0.108  12.870 -0.2237  0.1173  0.1408
 3099SOL    HW120759   4.515   0.161  12.792  1.0894 -1.9402 -0.9926
 3099SOL    HW220760   4.415   0.145  12.898 -0.2311  0.0562  0.2029
 3100SOL     OW20761   3.754   1.851   6.349  0.6014  0.3602  0.0997
 3100SOL    HW120762   3.688   1.857   6.280  1.0192 -1.4478 -0.4287
 3100SOL    HW220763   3.836   1.839   6.302  0.0276 -0.5241 -0.6669
 3101SOL     OW20764   1.612   0.485   7.011 -0.1559 -0.3909 -0.4190
 3101SOL    HW120765   1.659   0.549   6.959 -1.4554  0.1708 -0.8965
 3101SOL    HW220766   1.524   0.519   6.997  0.7747  1.9240 -0.5257
 3102SOL     OW20767   3.192   0.043   6.838 -0.1614  0.6836 -0.2395
 3102SOL    HW120768   3.237   4.702   6.896 -0.0909  0.8007 -0.1750
 3102SOL    HW220769   3.110   0.058   6.885 -0.5208  0.4706 -0.7881
 3103SOL     OW20770   0.153   1.812  12.873 -0.0402  0.0111  0.0349
 3103SOL    HW120771   0.217   1.882  12.887  0.7294 -0.2215 -2.2724
 3103SOL    HW220772   0.217   1.757  12.827  0.1749 -0.1239  0.4967
 3104SOL     OW20773   0.530   2.831   4.097  0.1196 -0.0738 -0.3783
 3104SOL    HW120774   0.487   2.887   4.162 -0.7535 -0.1948 -0.8500
 3104SOL    HW220775   0.505   2.744   4.130 -1.2303 -0.1740 -1.6696
 3105SOL     OW20776   3.420   2.970   4.082  0.3685  0.1384 -0.4527
 3105SOL    HW120777   3.369   2.949   4.004  0.1382  1.2346 -0.5974
 3105SOL    HW220778   3.397   3.060   4.102  2.4894  0.4040  0.8469
 3106SOL     OW20779   4.108   2.383   4.295  0.2474 -0.0750  0.3436
 3106SOL    HW120780   4.084   2.292   4.282  2.0630 -0.8899  2.7061
 3106SOL    HW220781   4.049   2.392   4.369  1.8524 -1.6158  1.7946
 3107SOL     OW20782   0.036   1.857   7.387 -0.1900 -0.2224 -0.5687
 3107SOL    HW120783   0.024   1.796   7.461  0.4029  0.1120 -0.1944
 3107SOL    HW220784   0.111   1.903   7.426 -0.6845  1.4975 -1.6550
 3108SOL     OW20785   0.833   0.151  11.755  0.0070 -0.7013  0.2424
 3108SOL    HW120786   0.927   0.164  11.744 -0.1986  0.0565 -0.5783
 3108SOL    HW220787   0.836   0.125  11.847  2.1389 -2.8696 -0.4306
 3109SOL     OW20788   1.264   4.700   2.210 -0.2040  0.7975  0.2785
 3109SOL    HW120789   1.305   0.004   2.127  1.1238  1.4028  1.1042
 3109SOL    HW220790   1.331   4.693   2.279 -1.3609 -1.8765  1.1426
 3110SOL     OW20791   2.451   1.325   6.109  0.7611  0.0775 -0.3250
 3110SOL    HW120792   2.499   1.398   6.148  0.7260 -0.3263  0.4825
 3110SOL    HW220793   2.403   1.363   6.036 -0.3322 -2.1280 -0.7676
 3111SOL     OW20794   0.748   3.013  10.333 -0.0954 -0.1545  0.1214
 3111SOL    HW120795   0.665   3.048  10.365 -0.3558  1.1843 -2.0668
 3111SOL    HW220796   0.811   3.066  10.382 -0.9511 -1.9755  3.1991
 3112SOL     OW20797   4.537   0.292   0.991 -0.0422  0.2048  0.1035
 3112SOL    HW120798   4.554   0.198   0.999  0.3006  0.2604  0.0037
 3112SOL    HW220799   4.459   0.303   0.935 -2.1032 -0.5609  2.8072
 3113SOL     OW20800   4.707   3.496   7.779 -0.1415 -0.1206  0.6331
 3113SOL    HW120801   4.654   3.425   7.816 -1.8579  1.5357  1.3494
 3113SOL    HW220802   0.073   3.455   7.789 -0.7228 -1.7280 -0.9069
 3114SOL     OW20803   3.798   2.344   1.003  0.2046 -0.3248 -0.4885
 3114SOL    HW120804   3.826   2.324   0.913 -0.2492 -0.9179 -0.4952
 3114SOL    HW220805   3.707   2.371   0.991  1.2885  4.1487  1.3856
 3115SOL     OW20806   4.566   2.173  16.675 -0.0423  0.1988  1.0545
 3115SOL    HW120807   4.483   2.145  16.715 -1.1738  2.1949  0.0763
 3115SOL    HW220808   4.561   2.129  16.590  0.4718  0.4244  0.9093
 3116SOL     OW20809   3.281   2.382  12.380 -0.6509  0.6703 -0.2723
 3116SOL    HW120810   3.283   2.300  12.330  0.0864  0.2820  0.3815
 3116SOL    HW220811   3.188   2.390  12.397 -0.7145 -1.4714  0.4386
 3117SOL     OW20812   1.796   0.566   1.786 -0.4315  0.1065  0.9012
 3117SOL    HW120813   1.866   0.547   1.724 -1.3425  1.7459 -0.6312
 3117SOL    HW220814   1.727   0.503   1.765  0.6653 -0.7020 -0.2577
 3118SOL     OW20815   1.042   4.022   3.695  1.1394  0.2231  0.3074
 3118SOL    HW120816   0.958   4.047   3.733 -0.3089 -2.7797 -0.9633
 3118SOL    HW220817   1.014   4.005   3.605  0.0645  0.1570  0.6553
 3119SOL     OW20818   4.091   3.475   8.219  1.1587  0.3954  0.4020
 3119SOL    HW120819   4.136   3.463   8.136 -2.4645 -0.3637 -1.4805
 3119SOL    HW220820   4.024   3.537   8.188 -1.2890 -2.6422 -0.3950
 3120SOL     OW20821   4.173   0.961   7.586 -0.0450 -0.2007 -0.4153
 3120SOL    HW120822   4.080   0.939   7.589 -1.4028  5.5145 -2.1600
 3120SOL    HW220823   4.172   1.036   7.644  0.7858 -1.1173  0.7895
 3121SOL     OW20824   3.673   3.588   1.266  0.2887 -0.1305 -0.3776
 3121SOL    HW120825   3.760   3.555   1.243  0.1900 -0.8026  0.1688
 3121SOL    HW220826   3.697   3.680   1.266  1.8924 -0.5525 -0.5351
 3122SOL     OW20827   0.611   2.490   3.722 -0.3778 -0.4754  0.1311
 3122SOL    HW120828   0.583   2.576   3.691  0.2810 -0.7577 -1.2816
 3122SOL    HW220829   0.528   2.450   3.748 -0.8408 -0.6475 -1.5813
 3123SOL     OW20830   1.953   0.877  14.595 -0.0151 -0.6018  0.2583
 3123SOL    HW120831   1.900   0.949  14.629  0.8279  0.4139 -0.6009
 3123SOL    HW220832   2.008   0.860  14.671  1.3698  0.3489 -0.5304
 3124SOL     OW20833   3.003   4.022  16.561  0.1637 -0.5250 -0.2378
 3124SOL    HW120834   3.008   4.003  16.468  0.2621 -1.8398  0.0283
 3124SOL    HW220835   3.005   3.934  16.601  0.2090 -0.3287  0.1944
 3125SOL     OW20836   3.592   1.940  13.638 -0.1302 -0.3029 -0.2560
 3125SOL    HW120837   3.529   1.971  13.574 -1.4981  1.0438  1.7627
 3125SOL    HW220838   3.638   2.022  13.658 -2.9835  1.5958 -1.5133
 3126SOL     OW20839   0.894   2.543  14.276 -0.0275 -0.4573 -0.5170
 3126SOL    HW120840   0.970   2.521  14.330 -0.6668 -1.0125  0.1772
 3126SOL    HW220841   0.841   2.463  14.283 -0.1401 -0.4114 -0.8693
 3127SOL     OW20842   0.533   2.409  12.821 -0.0222  0.0220  0.4409
 3127SOL    HW120843   0.508   2.317  12.825 -3.0487  0.8442  0.1207
 3127SOL    HW220844   0.610   2.411  12.765  1.9003 -1.3478  3.0072
 3128SOL     OW20845   3.803   0.071  15.770 -0.2500 -0.4009  0.0342
 3128SOL    HW120846   3.783   0.017  15.694  0.2002  1.3915 -1.3625
 3128SOL    HW220847   3.897   0.055  15.780 -0.1670 -1.2415 -2.1225
 3129SOL     OW20848   1.226   4.280  10.088 -0.9837  0.1699 -0.0179
 3129SOL    HW120849   1.144   4.285  10.138 -0.6877 -0.2420  0.5043
 3129SOL    HW220850   1.191   4.305  10.003 -0.7641  2.3296  0.5251
 3130SOL     OW20851   2.440   4.200   0.632 -0.0597  0.0979 -0.1707
 3130SOL    HW120852   2.406   4.111   0.642  0.1036  0.0231 -0.2901
 3130SOL    HW220853   2.519   4.179   0.583  0.9183  0.0164  1.4569
 3131SOL     OW20854   0.712   3.153   6.166 -0.6504 -0.1969  0.0094
 3131SOL    HW120855   0.790   3.202   6.194 -0.3398  0.0571 -1.2852
 3131SOL    HW220856   0.679   3.106   6.242 -3.0632 -0.4840 -1.2120
 3132SOL     OW20857   2.118   0.884   3.310  0.6790  0.0683  0.9514
 3132SOL    HW120858   2.132   0.934   3.391  2.9315  1.7439 -0.4836
 3132SOL    HW220859   2.026   0.880   3.285  0.7617  1.4734  0.4311
 3133SOL     OW20860   3.553   2.976   4.778 -0.5265  0.5361  0.2395
 3133SOL    HW120861   3.598   2.981   4.862  0.4147  3.3103 -0.4260
 3133SOL    HW220862   3.501   3.056   4.788 -1.5611  0.3166 -3.2657
 3134SOL     OW20863   1.543   0.884   5.161  0.9117  0.9259  0.5136
 3134SOL    HW120864   1.603   0.909   5.231  1.4619 -1.2154  0.7886
 3134SOL    HW220865   1.511   0.973   5.142  1.2052  1.1188  0.9271
 3135SOL     OW20866   4.226   2.596   7.181  0.1871  0.1775 -0.0517
 3135SOL    HW120867   4.215   2.638   7.095  0.1220 -0.9294 -0.5822
 3135SOL    HW220868   4.217   2.671   7.240 -1.9880  0.4424 -0.7104
 3136SOL     OW20869   1.606   2.827   9.299 -0.3943  0.3481 -0.2741
 3136SOL    HW120870   1.522   2.813   9.343  0.4014  2.3506  1.9055
 3136SOL    HW220871   1.582   2.814   9.208 -1.0455 -0.5194  0.0215
 3137SOL     OW20872   0.836   1.560   9.674  0.6499  0.3625  0.1802
 3137SOL    HW120873   0.927   1.548   9.699  0.7827  1.7888  0.4252
 3137SOL    HW220874   0.811   1.468   9.668  1.2447  0.3857 -2.6201
 3138SOL     OW20875   4.421   0.955   8.680  0.3274  0.0169 -0.1487
 3138SOL    HW120876   4.373   1.019   8.733 -0.6563 -0.6515 -0.2227
 3138SOL    HW220877   4.399   0.872   8.723  0.3265  1.4104  2.5356
 3139SOL     OW20878   1.697   3.778   4.391  0.1646  0.3164 -0.2639
 3139SOL    HW120879   1.682   3.758   4.483 -2.3698 -0.9150 -0.9442
 3139SOL    HW220880   1.793   3.786   4.390  0.3486 -1.8553  0.1662
 3140SOL     OW20881   1.195   2.383  10.965  0.2938  0.3088  0.1376
 3140SOL    HW120882   1.242   2.392  11.048  1.7963 -0.9855 -0.5776
 3140SOL    HW220883   1.243   2.433  10.899 -0.6884  1.2435  0.1335
 3141SOL     OW20884   4.544   2.945   1.730  0.5599  0.0153  0.0361
 3141SOL    HW120885   4.551   2.993   1.812  2.0542 -2.2938  1.2595
 3141SOL    HW220886   4.487   2.871   1.750  0.7229  0.4174  1.9154
 3142SOL     OW20887   2.453   1.094  15.986  0.3655 -0.0636  0.0223
 3142SOL    HW120888   2.368   1.102  15.942  0.1345 -2.5496  0.0305
 3142SOL    HW220889   2.488   1.015  15.946  2.5214  2.0515 -2.2407
 3143SOL     OW20890   0.591   0.327   9.738  0.7271  0.3175  0.5382
 3143SOL    HW120891   0.612   0.409   9.782 -0.5692  0.9599 -0.0120
 3143SOL    HW220892   0.526   0.353   9.672  0.7601  0.7389  0.6779
 3144SOL     OW20893   4.370   1.570   9.383  0.2599 -0.2755 -0.0610
 3144SOL    HW120894   4.363   1.478   9.358  1.5506 -0.3974  0.0372
 3144SOL    HW220895   4.457   1.567   9.421  0.6985 -0.1354 -1.0537
 3145SOL     OW20896   1.246   4.439   7.258  0.0727  0.6448  0.4622
 3145SOL    HW120897   1.213   4.448   7.347  0.9087  2.0900  0.6249
 3145SOL    HW220898   1.277   4.348   7.252  1.3014  1.0044  1.2372
 3146SOL     OW20899   2.637   2.152   0.072  0.0255 -0.0112  0.4653
 3146SOL    HW120900   2.611   2.244   0.082  0.2547  0.1136 -0.0846
 3146SOL    HW220901   2.549   2.117   0.086  0.4907 -1.3599 -0.0178
 3147SOL     OW20902   0.952   0.045  15.793 -0.1561  0.6363  0.3849
 3147SOL    HW120903   0.912   0.114  15.845 -0.0160  0.2646  0.9836
 3147SOL    HW220904   0.878   4.705  15.778  0.1244  0.5202 -0.5323
 3148SOL     OW20905   0.458   1.164  15.333 -0.5193  0.7799  0.1503
 3148SOL    HW120906   0.534   1.222  15.342  0.6804 -0.9668  1.1976
 3148SOL    HW220907   0.389   1.230  15.332 -0.3965  0.9099  0.6106
 3149SOL     OW20908   3.215   1.288   6.342  0.0089  0.2709  0.2638
 3149SOL    HW120909   3.310   1.280   6.340  0.0512  0.8977 -0.1791
 3149SOL    HW220910   3.196   1.195   6.359  2.1547 -0.3938 -1.0640
 3150SOL     OW20911   3.219   0.558   4.488 -0.5607  0.0812  0.1564
 3150SOL    HW120912   3.162   0.501   4.437 -1.7938  1.8601 -0.4322
 3150SOL    HW220913   3.303   0.552   4.441  0.1040  0.3463  1.3015
 3151SOL     OW20914   3.856   1.270   3.176 -0.0868  0.2360  0.5632
 3151SOL    HW120915   3.897   1.258   3.262  1.7268  0.5889 -0.2759
 3151SOL    HW220916   3.881   1.362   3.166 -0.5357  0.3829  0.7562
 3152SOL     OW20917   1.519   1.411   8.621  0.4264 -0.6185  0.0977
 3152SOL    HW120918   1.439   1.406   8.673  1.4354 -0.6460  1.6682
 3152SOL    HW220919   1.479   1.424   8.535  1.3583 -0.7524 -0.3545
 3153SOL     OW20920   1.005   0.599   0.893 -0.2051  0.6948 -0.0785
 3153SOL    HW120921   1.073   0.636   0.949  0.4188 -2.3727  1.2150
 3153SOL    HW220922   1.035   0.623   0.805 -1.1992 -2.0163 -1.1747
 3154SOL     OW20923   2.461   2.883   9.958  0.1894 -0.6785 -0.4514
 3154SOL    HW120924   2.420   2.851  10.038 -0.2361  0.9020 -0.0331
 3154SOL    HW220925   2.480   2.974   9.983  2.0108 -1.2902  0.3507
 3155SOL     OW20926   1.979   2.839   3.849 -0.2830 -0.0027  0.5505
 3155SOL    HW120927   1.910   2.902   3.825  1.8031  2.3286  0.6837
 3155SOL    HW220928   1.938   2.799   3.926 -2.0603  0.2543 -0.2549
 3156SOL     OW20929   4.026   1.564  14.538  0.1628 -0.6907 -0.0168
 3156SOL    HW120930   4.106   1.556  14.485 -0.4893  0.2645 -1.1518
 3156SOL    HW220931   4.047   1.648  14.579 -0.9573 -1.3084  1.8175
 3157SOL     OW20932   0.284   1.958   1.627 -0.7958  0.2419  0.2914
 3157SOL    HW120933   0.237   2.016   1.567  1.3910  0.7541 -0.9102
 3157SOL    HW220934   0.344   1.922   1.562  0.9148  1.4670  1.1963
 3158SOL     OW20935   4.534   3.721   1.495 -0.2492 -0.2517 -0.3923
 3158SOL    HW120936   4.622   3.690   1.474 -0.6278 -2.0193  0.6082
 3158SOL    HW220937   4.530   3.680   1.582  0.7798 -3.4488 -1.8464
 3159SOL     OW20938   4.211   2.586  16.248 -0.0975 -0.9378 -0.0557
 3159SOL    HW120939   4.256   2.670  16.257 -0.4700 -0.6557 -0.8854
 3159SOL    HW220940   4.124   2.624  16.232  0.1535  0.3001  1.5291
 3160SOL     OW20941   3.948   2.794   8.540 -0.0009  0.2684  0.1088
 3160SOL    HW120942   3.979   2.875   8.499  0.1355  0.3607  0.3993
 3160SOL    HW220943   3.912   2.746   8.465 -0.2089  2.4710 -1.2091
 3161SOL     OW20944   3.630   1.034  13.022 -0.2930  0.1991  0.2750
 3161SOL    HW120945   3.637   1.046  12.927  0.7430 -2.4742 -0.0052
 3161SOL    HW220946   3.666   1.117  13.052  1.1909  0.3193 -1.8551
 3162SOL     OW20947   4.613   0.017  13.137 -0.3752 -0.0814 -0.1725
 3162SOL    HW120948   4.568   0.036  13.054 -1.8811  0.9831  0.8883
 3162SOL    HW220949   4.612   0.104  13.176  0.7892 -0.1589  0.0442
 3163SOL     OW20950   1.890   2.252   0.712 -0.1567  0.2363  0.3560
 3163SOL    HW120951   1.912   2.168   0.753  2.0136  0.2865 -0.7030
 3163SOL    HW220952   1.977   2.292   0.711  0.3355 -0.9400 -2.6680
 3164SOL     OW20953   2.023   0.679   4.724  0.1100 -0.2029 -0.3754
 3164SOL    HW120954   1.952   0.693   4.787 -0.0101  1.2750 -0.8313
 3164SOL    HW220955   2.045   0.768   4.696 -0.3397 -0.7366 -2.4632
 3165SOL     OW20956   2.067   3.049   2.833 -0.7384 -0.6320  0.0987
 3165SOL    HW120957   2.129   3.061   2.904  0.4389 -3.5255 -0.4447
 3165SOL    HW220958   2.063   2.953   2.843 -1.6726 -0.7323 -1.1132
 3166SOL     OW20959   0.119   3.111   7.256 -0.5381  0.4516  0.1832
 3166SOL    HW120960   0.168   3.093   7.336  0.5766  0.8489 -0.4141
 3166SOL    HW220961   0.031   3.100   7.293  0.9323 -3.7887  2.3526
 3167SOL     OW20962   0.630   1.480  14.386  0.0221  0.8771  0.0903
 3167SOL    HW120963   0.611   1.392  14.354  0.5994  1.1614 -1.0258
 3167SOL    HW220964   0.572   1.480  14.462  0.6304  1.4535  0.5596
 3168SOL     OW20965   2.900   3.096  11.366  0.9086 -0.1166  0.5362
 3168SOL    HW120966   2.975   3.099  11.425  1.1493 -1.0436  0.2707
 3168SOL    HW220967   2.941   3.044  11.297  0.5487  0.4050 -0.0734
 3169SOL     OW20968   3.872   1.882   4.520 -0.1874  0.2841 -0.0549
 3169SOL    HW120969   3.941   1.825   4.553 -1.1826  0.7069  2.7335
 3169SOL    HW220970   3.845   1.830   4.443 -0.1172 -0.9432  0.7419
 3170SOL     OW20971   3.149   4.098  16.757 -0.2431 -0.6500 -0.4018
 3170SOL    HW120972   3.074   4.147  16.791  0.2696 -1.6928  2.3142
 3170SOL    HW220973   3.114   4.074  16.672 -0.8982 -3.2720  0.5918
 3171SOL     OW20974   0.059   1.527  11.031  0.0109  0.5145  0.7482
 3171SOL    HW120975   0.098   1.606  10.994 -0.5101  0.3052 -0.2442
 3171SOL    HW220976   0.131   1.465  11.045  0.4192  1.4467  2.7723
 3172SOL     OW20977   3.922   0.355   7.259 -0.3045  0.6271 -0.5574
 3172SOL    HW120978   3.984   0.286   7.280 -0.4935  1.4391  2.6501
 3172SOL    HW220979   3.920   0.402   7.342  0.1318  0.0890 -0.2440
 3173SOL     OW20980   0.096   4.002   7.846  0.3874  0.2218 -0.1092
 3173SOL    HW120981   0.109   3.925   7.901  1.6068  2.1189  2.2965
 3173SOL    HW220982   0.159   4.067   7.877  1.0761 -1.1428  1.3252
 3174SOL     OW20983   2.082   1.339   3.847 -0.1211  0.0304 -0.0186
 3174SOL    HW120984   2.072   1.431   3.871  1.3842  0.3906 -0.7633
 3174SOL    HW220985   2.014   1.298   3.900 -0.2155  0.4310  0.1746
 3175SOL     OW20986   2.268   3.417  17.409 -0.1211  0.0516 -0.0158
 3175SOL    HW120987   2.194   3.399  17.351  1.2641  0.9752 -2.0676
 3175SOL    HW220988   2.347   3.403  17.357 -0.9514 -0.8429 -1.0287
 3176SOL     OW20989   0.568   1.227   4.655 -0.2053  0.0758  0.1347
 3176SOL    HW120990   0.480   1.253   4.629  0.4648  0.8629 -1.3506
 3176SOL    HW220991   0.603   1.180   4.580  0.7265 -0.7340  1.0748
 3177SOL     OW20992   1.307   0.743   2.240  0.1537 -0.0207  0.7736
 3177SOL    HW120993   1.317   0.837   2.257  0.8854 -0.1113  0.8627
 3177SOL    HW220994   1.226   0.740   2.190 -0.0258  1.6452  0.9581
 3178SOL     OW20995   4.290   3.002   6.363  0.9846  0.1788 -0.7119
 3178SOL    HW120996   4.302   3.072   6.427 -0.3938 -1.3780  1.2301
 3178SOL    HW220997   4.352   3.025   6.293 -0.1431  0.3019 -1.6815
 3179SOL     OW20998   0.353   2.460   9.005  0.1802 -0.2914 -0.3806
 3179SOL    HW120999   0.273   2.410   9.024  0.5027  0.5378  3.1367
 3179SOL    HW221000   0.341   2.480   8.912  0.6074 -3.2102 -1.0569
 3180SOL     OW21001   2.584   2.897   7.778  0.0943  0.3593  0.0090
 3180SOL    HW121002   2.561   2.948   7.856 -0.1870  1.3530 -0.7289
 3180SOL    HW221003   2.511   2.915   7.719 -0.2162  2.7693  1.1333
 3181SOL     OW21004   4.650   0.128   5.412 -0.5360 -0.7205  0.7293
 3181SOL    HW121005   4.581   0.062   5.413 -0.1677 -1.1127  0.4940
 3181SOL    HW221006   4.600   0.208   5.400 -0.8393 -1.2094 -1.3107
 3182SOL     OW21007   2.554   0.079  13.711 -0.6962 -0.0653  0.1120
 3182SOL    HW121008   2.512   4.719  13.744 -1.5561  0.0111 -0.8073
 3182SOL    HW221009   2.647   0.059  13.718 -0.4506  0.6364 -1.2179
 3183SOL     OW21010   2.432   1.471  13.885 -0.5871 -0.0957 -0.1694
 3183SOL    HW121011   2.427   1.567  13.883  0.3407 -0.0212  1.3487
 3183SOL    HW221012   2.502   1.459  13.820  0.7436  0.5872  1.1429
 3184SOL     OW21013   4.251   4.274   7.045  0.3881  0.4531  0.2702
 3184SOL    HW121014   4.201   4.235   6.973 -1.6460 -0.9575  2.4531
 3184SOL    HW221015   4.212   4.225   7.117 -0.7984 -0.1828 -0.7991
 3185SOL     OW21016   1.826   3.570   0.024  0.4140  0.7538  0.3018
 3185SOL    HW121017   1.857   3.642  17.650 -1.2998  0.7457 -0.6539
 3185SOL    HW221018   1.801   3.506  17.639 -1.8617  1.5158  0.4226
 3186SOL     OW21019   2.740   0.320   8.802  0.0348 -0.0779 -0.0309
 3186SOL    HW121020   2.681   0.258   8.760 -0.0511 -0.3361  0.4741
 3186SOL    HW221021   2.767   0.374   8.728 -2.9097  0.4738 -0.7257
 3187SOL     OW21022   3.597   1.044   0.958 -0.2147 -0.5235  0.0808
 3187SOL    HW121023   3.544   1.062   1.035  0.4225  2.2338 -0.1216
 3187SOL    HW221024   3.593   1.124   0.906 -0.7512 -1.1975 -0.9151
 3188SOL     OW21025   1.253   2.177   8.294  0.3230 -0.0700 -0.1802
 3188SOL    HW121026   1.216   2.248   8.242 -2.4133 -0.5072  1.1471
 3188SOL    HW221027   1.213   2.200   8.377  3.9917  1.3181  1.2069
 3189SOL     OW21028   3.561   0.691   3.114  0.1510  0.2334 -0.3979
 3189SOL    HW121029   3.602   0.616   3.157 -1.5627  0.2388  1.2897
 3189SOL    HW221030   3.474   0.657   3.092  0.8886 -0.9316 -1.5275
 3190SOL     OW21031   2.109   2.684  13.678  0.0582 -0.2001  0.1886
 3190SOL    HW121032   2.095   2.628  13.602  1.2163  1.2459 -1.0930
 3190SOL    HW221033   2.047   2.756  13.668  1.8537  1.3179 -0.0254
 3191SOL     OW21034   3.797   1.816  14.270  0.4238  0.2526  1.0639
 3191SOL    HW121035   3.751   1.868  14.204 -0.0340 -0.7387  0.6053
 3191SOL    HW221036   3.881   1.861  14.275  0.3497  0.5721 -0.6734
 3192SOL     OW21037   2.229   0.731   8.902  0.6426  0.2712  0.3160
 3192SOL    HW121038   2.163   0.789   8.937 -1.3655 -1.9277  0.1625
 3192SOL    HW221039   2.204   0.649   8.944 -2.3107 -1.0777 -4.0661
 3193SOL     OW21040   1.934   1.939   7.698  0.3906 -0.1812 -0.1324
 3193SOL    HW121041   1.978   2.012   7.742 -0.9009  2.5620 -3.4323
 3193SOL    HW221042   1.891   1.991   7.631 -0.3948 -0.1905  0.3604
 3194SOL     OW21043   0.618   3.275   7.613  0.4988 -0.1913  0.6585
 3194SOL    HW121044   0.674   3.279   7.690  2.9827  0.1661 -1.1623
 3194SOL    HW221045   0.574   3.192   7.629  0.7844 -1.1070 -3.4263
 3195SOL     OW21046   2.511   3.261  10.692 -0.2670 -0.2486 -0.5900
 3195SOL    HW121047   2.539   3.204  10.620  1.0553  0.1209 -0.3643
 3195SOL    HW221048   2.579   3.328  10.692 -0.1546 -0.3658  0.1500
 3196SOL     OW21049   4.383   3.512   4.553 -0.4837  0.6222 -0.5419
 3196SOL    HW121050   4.440   3.472   4.488  0.9183  1.5508  0.1165
 3196SOL    HW221051   4.371   3.596   4.510  1.5452  0.6291 -1.0819
 3197SOL     OW21052   0.102   2.204  11.010 -0.5744  0.0564 -0.7406
 3197SOL    HW121053   0.152   2.235  10.935  1.3228 -0.6507  0.2256
 3197SOL    HW221054   0.176   2.153  11.043 -1.4097 -0.6699  0.0260
 3198SOL     OW21055   2.178   1.290   2.997  0.1268  0.4490  0.5436
 3198SOL    HW121056   2.160   1.210   3.046  1.6154 -0.1754  0.0686
 3198SOL    HW221057   2.273   1.292   2.988  0.1238  0.4952  0.5247
 3199SOL     OW21058   2.461   4.713   6.983  0.5332  0.1611 -0.2562
 3199SOL    HW121059   2.427   0.078   6.955  1.9068  0.0491 -2.2864
 3199SOL    HW221060   2.540   0.015   7.031  0.6403 -0.2813 -0.2298
 3200SOL     OW21061   0.321   0.823   6.939  0.0546 -0.3038 -0.2249
 3200SOL    HW121062   0.288   0.907   6.971  1.2286  0.1582 -0.2512
 3200SOL    HW221063   0.351   0.846   6.851  2.1591 -2.1485  0.0193
 3201SOL     OW21064   2.482   0.350   4.282  0.5635  0.5957  0.2849
 3201SOL    HW121065   2.524   0.345   4.196 -2.5862  0.7155 -1.3013
 3201SOL    HW221066   2.399   0.395   4.264 -1.1101 -1.7993  1.8773
 3202SOL     OW21067   0.088   3.580   0.614 -0.1447 -0.2780 -0.0994
 3202SOL    HW121068   0.173   3.615   0.641 -0.0730  0.2477 -1.0061
 3202SOL    HW221069   0.067   3.636   0.540 -1.5193 -0.6756 -0.0113
 3203SOL     OW21070   0.989   3.901   7.630  0.1506 -0.0194 -0.1660
 3203SOL    HW121071   0.957   3.898   7.540 -3.1453 -0.7379  1.0386
 3203SOL    HW221072   1.009   3.808   7.642  2.8535  0.6322  0.2579
 3204SOL     OW21073   1.370   0.171  13.313  0.1571  0.0089  0.3036
 3204SOL    HW121074   1.397   0.147  13.224  0.7583  1.5077  0.0734
 3204SOL    HW221075   1.436   0.130  13.369  1.1935  0.0061 -0.8956
 3205SOL     OW21076   1.086   1.022   7.749 -0.3025 -0.1978 -0.6075
 3205SOL    HW121077   1.022   0.972   7.800 -0.0895  0.6933  0.5213
 3205SOL    HW221078   1.170   1.001   7.789 -0.5224  0.2728  0.0920
 3206SOL     OW21079   3.639   1.626  12.783  0.4781 -0.3984 -1.0141
 3206SOL    HW121080   3.627   1.552  12.843 -1.2436 -0.4787 -1.4610
 3206SOL    HW221081   3.568   1.686  12.807  0.9430  0.2146 -1.1962
 3207SOL     OW21082   3.309   4.108  14.994 -0.3309  0.8848 -0.3759
 3207SOL    HW121083   3.244   4.048  14.959 -2.0961  2.0684  0.8543
 3207SOL    HW221084   3.349   4.147  14.916 -0.5639  0.4906 -0.6889
 3208SOL     OW21085   1.284   0.412   1.827  0.8239 -0.4510  0.3100
 3208SOL    HW121086   1.203   0.462   1.816  1.1491 -0.0245 -0.1530
 3208SOL    HW221087   1.355   0.476   1.821  1.1326 -0.8705 -0.4172
 3209SOL     OW21088   3.457   1.093  15.551  0.6272  0.1259 -0.0140
 3209SOL    HW121089   3.505   1.015  15.523  1.4245 -0.7673  3.8626
 3209SOL    HW221090   3.375   1.086  15.502 -0.0738  1.9219  0.8707
 3210SOL     OW21091   1.029   4.178  11.089 -0.3341 -0.4682 -0.6611
 3210SOL    HW121092   0.951   4.232  11.099 -0.0265 -0.0517 -0.5028
 3210SOL    HW221093   1.045   4.185  10.995  1.2527  3.2524 -0.1365
 3211SOL     OW21094   2.586   4.659  15.108  0.1300  0.0871 -0.4449
 3211SOL    HW121095   2.527   0.006  15.072  0.0802 -0.3763 -1.2083
 3211SOL    HW221096   2.565   4.662  15.202 -1.5679  0.5544 -0.8267
 3212SOL     OW21097   0.821   0.518   1.675  0.2787 -0.2927 -0.3075
 3212SOL    HW121098   0.862   0.549   1.755  0.5385  2.1578 -1.4082
 3212SOL    HW221099   0.765   0.590   1.647 -1.7560 -2.2428 -1.3096
 3213SOL     OW21100   2.902   4.712   8.238 -0.4986 -0.7414  0.2478
 3213SOL    HW121101   2.888   0.076   8.195 -1.8539  0.4045  2.9086
 3213SOL    HW221102   2.973   0.013   8.298  0.9258  0.0553 -1.7296
 3214SOL     OW21103   2.818   0.562  16.825  0.2868  0.1507 -0.5278
 3214SOL    HW121104   2.874   0.614  16.768  1.4995  0.6759  1.1178
 3214SOL    HW221105   2.736   0.611  16.821 -0.9024 -1.8276 -0.6007
 3215SOL     OW21106   0.891   1.116   5.678 -0.0167  0.3211  0.4370
 3215SOL    HW121107   0.897   1.134   5.584 -1.2934 -0.5681  0.1905
 3215SOL    HW221108   0.963   1.172   5.710  0.7002 -1.1493  1.3782
 3216SOL     OW21109   2.153   0.077  15.521  0.0690  0.5951  0.4653
 3216SOL    HW121110   2.163   4.706  15.551  3.2293  1.1179  1.0236
 3216SOL    HW221111   2.188   0.129  15.594  1.6408  0.6079 -0.2967
 3217SOL     OW21112   1.177   1.505  12.909 -0.6461  0.1786  0.5376
 3217SOL    HW121113   1.141   1.498  12.997 -0.5662 -1.0036  0.4669
 3217SOL    HW221114   1.176   1.416  12.875 -0.0840 -0.3328  1.8584
 3218SOL     OW21115   1.977   3.383  15.282  1.1582  0.3147 -0.2266
 3218SOL    HW121116   1.911   3.315  15.267  1.9591 -0.5557  0.2115
 3218SOL    HW221117   1.964   3.436  15.204  0.0483 -0.5130 -0.6063
 3219SOL     OW21118   1.848   3.816   8.367  0.6408 -0.0883 -0.6300
 3219SOL    HW121119   1.934   3.843   8.400  0.2553  2.4815 -1.7466
 3219SOL    HW221120   1.876   3.842   8.279  1.0398  0.2437 -0.4057
 3220SOL     OW21121   2.303   0.267   3.091 -0.1189 -0.5813 -0.2108
 3220SOL    HW121122   2.387   0.291   3.130  0.7954 -1.9942 -1.3232
 3220SOL    HW221123   2.337   0.282   3.002  0.2620 -1.2172 -0.1771
 3221SOL     OW21124   0.346   3.225   0.531  0.2404 -0.5268  0.4236
 3221SOL    HW121125   0.430   3.271   0.533  0.0393 -0.0605 -1.7648
 3221SOL    HW221126   0.350   3.178   0.614 -0.3001 -1.4068 -0.0511
 3222SOL     OW21127   0.366   2.561   3.156 -0.1898  0.2364  0.4967
 3222SOL    HW121128   0.379   2.515   3.073 -1.4936  2.3261 -0.8810
 3222SOL    HW221129   0.395   2.501   3.224  2.2805  0.7292 -0.1241
 3223SOL     OW21130   2.925   0.110   4.291  0.0600 -0.0731 -0.1255
 3223SOL    HW121131   2.947   0.037   4.348 -1.8452  0.0228  0.7265
 3223SOL    HW221132   2.855   0.145   4.346 -1.5108 -1.4476 -1.2320
 3224SOL     OW21133   0.876   1.036  16.460 -0.2099 -0.5207  0.1641
 3224SOL    HW121134   0.860   1.122  16.422 -0.9010 -0.1585  1.2636
 3224SOL    HW221135   0.969   1.017  16.450 -0.2239  0.2251 -1.2705
 3225SOL     OW21136   2.085   2.070  13.826 -0.3792  0.2746 -0.9820
 3225SOL    HW121137   2.099   2.164  13.812  1.0431  0.0773 -0.9389
 3225SOL    HW221138   2.051   2.040  13.742  0.3800 -1.3840 -0.7015
 3226SOL     OW21139   2.801   3.543   7.572 -0.0394  0.0593 -0.2684
 3226SOL    HW121140   2.834   3.606   7.635 -1.8167  1.8630 -1.1227
 3226SOL    HW221141   2.854   3.467   7.595  0.3098  0.2860 -0.3246
 3227SOL     OW21142   0.942   4.096   7.814  0.3468  0.3965 -0.2304
 3227SOL    HW121143   0.848   4.108   7.825  0.6116  1.0830  1.1983
 3227SOL    HW221144   0.938   4.028   7.747 -0.3414 -0.9333  1.1685
 3228SOL     OW21145   3.810   0.524  11.304  0.0421 -0.0364  0.3786
 3228SOL    HW121146   3.770   0.611  11.307 -3.2002 -1.4776 -1.2915
 3228SOL    HW221147   3.891   0.567  11.274  0.8461 -1.3790  0.6224
 3229SOL     OW21148   3.834   1.738  13.870 -0.3701  0.4989 -0.1242
 3229SOL    HW121149   3.883   1.820  13.875 -1.3748  1.1457 -0.8008
 3229SOL    HW221150   3.875   1.693  13.796  0.8224  2.2111 -0.5018
 3230SOL     OW21151   0.057   0.305   8.426  0.3294 -0.1197  0.0247
 3230SOL    HW121152   4.683   0.292   8.420  0.4565 -2.3074  3.0073
 3230SOL    HW221153   0.076   0.337   8.338  3.1494  0.1679  0.7405
 3231SOL     OW21154   4.078   3.757   5.231  0.3425  0.8787 -0.2272
 3231SOL    HW121155   3.996   3.726   5.192  1.1685 -1.8518  0.1533
 3231SOL    HW221156   4.053   3.764   5.323  0.9982 -2.6826  0.2427
 3232SOL     OW21157   1.719   4.545   6.535  0.5604  0.1461  0.3687
 3232SOL    HW121158   1.814   4.536   6.526  0.5835 -0.5752  1.3818
 3232SOL    HW221159   1.727   4.615   6.601 -0.4603  1.1011 -0.5129
 3233SOL     OW21160   1.977   0.926   6.112  0.0084 -0.2596  0.1804
 3233SOL    HW121161   2.007   1.017   6.111 -1.1010  0.0799 -1.4570
 3233SOL    HW221162   2.053   0.871   6.128  0.6049  1.1179  2.1203
 3234SOL     OW21163   0.642   4.023   3.509 -0.3377 -0.7251 -0.4101
 3234SOL    HW121164   0.593   3.963   3.452 -1.7661  3.0453 -3.1437
 3234SOL    HW221165   0.680   4.085   3.447 -0.4548 -0.3018 -0.0534
 3235SOL     OW21166   3.553   0.724   5.023  0.2056 -0.0785  0.0295
 3235SOL    HW121167   3.637   0.702   5.062  0.0967 -0.1650  0.2154
 3235SOL    HW221168   3.495   0.665   5.072 -0.8973  1.0009  0.0166
 3236SOL     OW21169   3.900   0.704   0.845  0.0562 -0.1385  0.1455
 3236SOL    HW121170   3.920   0.710   0.752 -0.7565 -0.6753 -0.0586
 3236SOL    HW221171   3.812   0.743   0.848  0.9435  1.7324  2.0324
 3237SOL     OW21172   3.440   1.403   5.298  0.2031 -0.3125  0.6672
 3237SOL    HW121173   3.494   1.324   5.302 -0.0328 -0.4672  0.8272
 3237SOL    HW221174   3.501   1.469   5.329  2.2585 -1.7870 -0.2695
 3238SOL     OW21175   4.535   1.199   5.694  0.2123  0.4432  0.2651
 3238SOL    HW121176   4.619   1.221   5.655  0.0577 -2.5177 -1.6963
 3238SOL    HW221177   4.499   1.288   5.688  1.1671  0.7780 -0.3659
 3239SOL     OW21178   0.826   3.097   5.795  0.2111  0.1778 -0.3738
 3239SOL    HW121179   0.865   3.105   5.708 -1.3971 -0.0786 -1.1025
 3239SOL    HW221180   0.905   3.113   5.848  1.2166  0.8445 -2.0875
 3240SOL     OW21181   2.641   0.392   4.934  1.2551 -0.0496 -0.2386
 3240SOL    HW121182   2.611   0.308   4.968  0.2281  0.4227  0.0248
 3240SOL    HW221183   2.594   0.386   4.851  1.5288  0.1827 -0.4108
 3241SOL     OW21184   4.315   2.845   6.770  0.2428  0.6201 -0.0595
 3241SOL    HW121185   4.394   2.794   6.790  0.8272  1.3844 -0.4669
 3241SOL    HW221186   4.330   2.923   6.824 -0.1545 -0.2830  1.3673
 3242SOL     OW21187   2.329   3.665  15.763  0.5733  0.0706  0.0105
 3242SOL    HW121188   2.328   3.583  15.811  0.6975  1.0510  1.6856
 3242SOL    HW221189   2.349   3.634  15.674 -1.2986  1.7215 -0.9824
 3243SOL     OW21190   2.657   4.054   2.099  0.1515  0.0046 -0.1953
 3243SOL    HW121191   2.581   4.111   2.087  0.9544  1.4674  1.6965
 3243SOL    HW221192   2.670   4.058   2.194 -0.7607 -2.0252  0.0091
 3244SOL     OW21193   2.887   1.599   1.392 -0.2744 -0.1643 -0.1834
 3244SOL    HW121194   2.855   1.581   1.304 -1.6700 -0.8281  0.4540
 3244SOL    HW221195   2.963   1.656   1.378 -0.1275  0.2897  2.4138
 3245SOL     OW21196   3.438   4.258   7.735 -0.1683  0.3170 -0.2788
 3245SOL    HW121197   3.397   4.175   7.757 -0.3785  0.8589  1.3878
 3245SOL    HW221198   3.531   4.236   7.730  0.0749  1.2131  0.2213
 3246SOL     OW21199   1.496   1.854  12.160  0.0933  0.2142 -0.1023
 3246SOL    HW121200   1.516   1.915  12.231  0.6525 -0.6582  0.5051
 3246SOL    HW221201   1.548   1.779  12.191 -3.3825 -1.5222  1.6064
 3247SOL     OW21202   3.610   0.789  15.722 -0.2518 -0.8854  0.0163
 3247SOL    HW121203   3.566   0.730  15.784 -2.7275  0.7119 -0.2300
 3247SOL    HW221204   3.565   0.868  15.753  0.0753 -0.7354  0.1066
 3248SOL     OW21205   0.577   0.709   4.951 -0.1194  0.4044 -0.4560
 3248SOL    HW121206   0.610   0.790   4.992  1.5429 -0.5534  0.1238
 3248SOL    HW221207   0.579   0.656   5.031  0.0335 -0.1994 -0.8652
 3249SOL     OW21208   4.196   0.187   5.258 -0.1768  0.5825 -0.5810
 3249SOL    HW121209   4.143   0.249   5.308  0.9988  1.3286 -0.2678
 3249SOL    HW221210   4.274   0.195   5.312 -0.4313 -0.2056 -0.1096
 3250SOL     OW21211   4.075   3.923   5.990  0.7887  0.6020 -0.3145
 3250SOL    HW121212   4.127   4.003   6.002 -0.0179  1.1393 -0.4459
 3250SOL    HW221213   3.991   3.965   5.974  0.4640  0.6550  1.5798
 3251SOL     OW21214   2.741   1.102   3.827  0.0376 -0.7364  0.4624
 3251SOL    HW121215   2.795   1.072   3.753 -0.5714  2.2891 -1.2319
 3251SOL    HW221216   2.651   1.103   3.794  0.2863 -1.5885 -0.2464
 3252SOL     OW21217   0.209   3.245   3.030 -0.1836  0.3903  0.2558
 3252SOL    HW121218   0.238   3.275   3.116 -0.2753  0.2386  0.3413
 3252SOL    HW221219   0.259   3.301   2.971  0.3991  0.7114  1.0584
 3253SOL     OW21220   0.747   2.222   5.738 -0.1515  0.4396 -0.8514
 3253SOL    HW121221   0.823   2.164   5.736  1.8181  3.0522 -0.6718
 3253SOL    HW221222   0.728   2.235   5.831 -0.5351 -1.8235 -0.6133
 3254SOL     OW21223   0.894   0.874   7.883  0.2576 -0.3982 -0.2657
 3254SOL    HW121224   0.900   0.781   7.862 -0.0070 -1.0911  2.7399
 3254SOL    HW221225   0.838   0.890   7.806 -0.7564  0.9595  0.7451
 3255SOL     OW21226   1.378   4.115   8.044  0.6053 -0.1333 -0.4270
 3255SOL    HW121227   1.333   4.154   8.119 -2.0622 -0.5112 -1.8275
 3255SOL    HW221228   1.306   4.121   7.981 -0.7274  1.2960  1.2314
 3256SOL     OW21229   4.710   2.134   6.001  0.1872 -0.1882 -0.0939
 3256SOL    HW121230   0.049   2.209   5.996 -0.3314  0.1293 -1.5476
 3256SOL    HW221231   4.633   2.174   5.960  0.6770 -1.0576 -1.8968
 3257SOL     OW21232   3.511   1.348   5.925 -0.1619  0.0381  0.5479
 3257SOL    HW121233   3.571   1.310   5.989 -0.9482 -0.9639  0.6832
 3257SOL    HW221234   3.427   1.341   5.969  0.6647 -2.1308  1.7938
 3258SOL     OW21235   0.403   1.211   4.028 -0.0743 -0.1734 -0.2669
 3258SOL    HW121236   0.446   1.289   4.063  0.8533 -0.1517 -1.4538
 3258SOL    HW221237   0.470   1.142   4.033  0.7931  0.5385 -2.1525
 3259SOL     OW21238   0.049   2.737  14.512 -0.0399  0.0507  0.0824
 3259SOL    HW121239   0.116   2.727  14.444 -1.4079  0.3373 -1.3086
 3259SOL    HW221240   0.075   2.668  14.572  2.4256  0.9845  0.0993
 3260SOL     OW21241   2.876   0.757   3.958  1.0750 -0.4440 -0.0776
 3260SOL    HW121242   2.934   0.696   3.912  0.1701 -1.8533  0.6331
 3260SOL    HW221243   2.857   0.701   4.034 -2.8628 -0.4113 -1.0324
 3261SOL     OW21244   0.924   3.038   6.522  0.3059  0.1194  0.5971
 3261SOL    HW121245   0.858   3.012   6.457  0.2363 -1.6193  1.3478
 3261SOL    HW221246   1.010   3.009   6.493 -0.6349 -0.5824 -1.4984
 3262SOL     OW21247   4.478   3.966   1.671  0.5913 -0.2022 -0.4192
 3262SOL    HW121248   4.547   4.027   1.697 -0.4011  1.4711 -1.7300
 3262SOL    HW221249   4.525   3.885   1.650 -0.7673 -1.1802  0.2994
 3263SOL     OW21250   3.332   1.528   9.702  0.0768  0.2576 -0.8863
 3263SOL    HW121251   3.248   1.520   9.657  0.1530 -0.5276 -0.8784
 3263SOL    HW221252   3.319   1.463   9.771  0.2618  1.5219  0.3309
 3264SOL     OW21253   2.393   0.613   4.563  0.2829  0.2815  0.6771
 3264SOL    HW121254   2.438   0.698   4.569  0.5886  0.2494 -1.3772
 3264SOL    HW221255   2.359   0.612   4.474 -0.3908 -0.5903  0.9531
 3265SOL     OW21256   3.906   1.248  16.972  0.2911  0.6553  0.1251
 3265SOL    HW121257   3.965   1.226  16.900  0.6259  0.7990  0.3536
 3265SOL    HW221258   3.909   1.343  16.958 -1.0264  0.4074 -1.7723
 3266SOL     OW21259   3.575   1.065   3.844 -0.0223 -0.5933  0.4460
 3266SOL    HW121260   3.557   1.071   3.938 -0.7653 -0.7582  0.3126
 3266SOL    HW221261   3.670   1.077   3.848  0.0470 -0.8690 -0.5902
 3267SOL     OW21262   3.392   4.128  12.393  0.0537 -0.2964 -0.3593
 3267SOL    HW121263   3.412   4.102  12.304 -3.1845 -0.0074 -1.1746
 3267SOL    HW221264   3.386   4.041  12.432  0.1431 -0.9331 -1.7763
 3268SOL     OW21265   3.091   4.704  15.806  0.3737  0.2699 -1.1159
 3268SOL    HW121266   3.171   0.035  15.797  1.0627 -0.5940  0.2695
 3268SOL    HW221267   3.026   0.052  15.826 -0.7459 -0.7410 -1.2644
 3269SOL     OW21268   3.167   2.513   2.296 -0.3362  0.0320  0.0165
 3269SOL    HW121269   3.167   2.589   2.238 -1.2485  0.5613  0.7130
 3269SOL    HW221270   3.248   2.464   2.281 -0.4427 -0.5973  1.5529
 3270SOL     OW21271   2.581   3.684   4.606  0.2148  0.5877 -0.9020
 3270SOL    HW121272   2.676   3.695   4.612  0.1779  2.0639 -3.2013
 3270SOL    HW221273   2.554   3.722   4.523 -1.5750  1.1394 -0.0633
 3271SOL     OW21274   2.355   2.920   7.582  0.3675  0.2569  0.1490
 3271SOL    HW121275   2.266   2.942   7.607  0.9402  1.0986  1.4716
 3271SOL    HW221276   2.378   2.995   7.527 -2.6436  0.7562 -0.4203
 3272SOL     OW21277   1.606   4.644   5.527  0.0669 -0.4280 -0.2067
 3272SOL    HW121278   1.625   4.684   5.612  0.7510  1.6104 -1.3173
 3272SOL    HW221279   1.700   4.644   5.506  0.1781 -1.5315  0.2840
 3273SOL     OW21280   2.614   2.016   4.745  0.0459 -0.0327 -0.3552
 3273SOL    HW121281   2.604   2.060   4.830 -0.9927  2.3214 -1.7027
 3273SOL    HW221282   2.682   1.950   4.759 -0.9053 -0.8725  0.3232
 3274SOL     OW21283   3.086   4.141   3.139  0.4725 -0.2944  0.2988
 3274SOL    HW121284   3.151   4.105   3.078 -0.2304 -0.7371 -0.1809
 3274SOL    HW221285   3.094   4.236   3.133  2.6630 -0.4205  0.9498
 3275SOL     OW21286   4.218   0.666  11.094 -0.0076  0.0123  0.4647
 3275SOL    HW121287   4.198   0.692  11.004 -0.2734  1.9459  1.0637
 3275SOL    HW221288   4.292   0.715  11.131 -0.0677 -1.8957  3.0808
 3276SOL     OW21289   3.629   2.314   5.350  0.2503  0.3410 -0.3805
 3276SOL    HW121290   3.646   2.264   5.429 -0.4730  0.5791 -0.0718
 3276SOL    HW221291   3.535   2.326   5.362  0.1137 -2.4481  1.4182
 3277SOL     OW21292   3.396   1.645  16.922  0.3003  0.0633  0.2931
 3277SOL    HW121293   3.490   1.640  16.905  0.1676 -0.7112 -0.2278
 3277SOL    HW221294   3.377   1.552  16.936  2.2083 -0.7210 -2.2622
 3278SOL     OW21295   3.981   0.164  16.349 -0.8130 -0.2257 -0.5283
 3278SOL    HW121296   3.983   0.255  16.322  2.0711 -1.0650 -3.1346
 3278SOL    HW221297   3.963   0.116  16.268  2.2290 -1.3849 -0.5224
 3279SOL     OW21298   0.795   1.732   9.874 -0.3321 -0.2285  0.2169
 3279SOL    HW121299   0.817   1.674   9.802 -0.0515 -0.1339  0.2249
 3279SOL    HW221300   0.876   1.772   9.906 -0.2339 -0.3280  0.0885
 3280SOL     OW21301   2.221   3.983   2.188 -0.0278  0.8806  0.2263
 3280SOL    HW121302   2.298   3.927   2.199 -1.3827 -0.9733  0.1793
 3280SOL    HW221303   2.214   4.015   2.278 -1.6670  0.3320  0.2976
 3281SOL     OW21304   4.226   0.714  13.270 -0.8257  0.2640 -0.4682
 3281SOL    HW121305   4.243   0.789  13.213  2.2165  0.4258  0.6425
 3281SOL    HW221306   4.131   0.704  13.262 -0.6749 -2.3538  0.9065
 3282SOL     OW21307   0.079   2.521   0.257  0.1030 -0.4099 -0.6355
 3282SOL    HW121308   0.002   2.488   0.211  1.0360 -2.1889 -0.8820
 3282SOL    HW221309   0.132   2.539   0.179  1.4182  0.5549  0.4938
 3283SOL     OW21310   4.623   4.565  17.667  0.2799 -0.0569 -0.3373
 3283SOL    HW121311   4.545   4.534  17.621  0.7613 -0.1883 -1.0524
 3283SOL    HW221312   4.591   4.651   0.012  0.4166 -0.6643  1.7709
 3284SOL     OW21313   0.908   2.318   8.629 -0.3735  0.2698  0.0780
 3284SOL    HW121314   0.845   2.294   8.562 -0.7443 -0.7297  0.7859
 3284SOL    HW221315   0.881   2.276   8.711 -0.0696 -2.5580 -1.2999
 3285SOL     OW21316   3.451   2.001   6.392  0.0428  0.2348  0.3973
 3285SOL    HW121317   3.474   2.062   6.461  0.1064  1.1437 -0.4267
 3285SOL    HW221318   3.508   1.924   6.396 -1.5320 -0.8050  2.7527
 3286SOL     OW21319   3.890   4.406   3.352  0.2343  0.2586 -0.0443
 3286SOL    HW121320   3.976   4.402   3.395  0.3083  1.6343 -0.0685
 3286SOL    HW221321   3.829   4.370   3.417  0.9432  0.0232  0.4950
 3287SOL     OW21322   1.217   2.728   6.761  0.2550 -0.1995  0.5588
 3287SOL    HW121323   1.216   2.788   6.835 -1.7704 -0.6873  0.9311
 3287SOL    HW221324   1.276   2.659   6.791  2.7886  1.6315 -0.1492
 3288SOL     OW21325   2.477   4.011   0.068 -0.2792 -0.5594 -0.4945
 3288SOL    HW121326   2.565   4.002   0.103  0.2149 -0.2520 -1.6598
 3288SOL    HW221327   2.417   3.976   0.134  1.7484  0.8818  2.1331
 3289SOL     OW21328   4.307   4.539   3.381  0.1546  0.1239 -0.1685
 3289SOL    HW121329   4.270   4.624   3.359 -0.3230 -0.2214 -0.7272
 3289SOL    HW221330   4.395   4.564   3.355  1.9659 -2.7514  3.1513
 3290SOL     OW21331   2.479   3.771   5.904 -0.1620 -0.3472 -0.7309
 3290SOL    HW121332   2.562   3.807   5.873 -0.3952 -0.4162 -1.4295
 3290SOL    HW221333   2.508   3.683   5.929 -1.6465  0.1881  2.8955
 3291SOL     OW21334   0.778   1.021   3.776  0.2917 -0.5586 -0.1381
 3291SOL    HW121335   0.858   1.009   3.827 -0.2533  1.2041  1.1529
 3291SOL    HW221336   0.780   0.938   3.730  3.0812 -0.7320  0.2947
 3292SOL     OW21337   0.198   3.669   4.314 -0.2281 -0.5930  0.9301
 3292SOL    HW121338   0.139   3.741   4.291 -2.7611 -3.1144 -0.4106
 3292SOL    HW221339   0.265   3.711   4.368  0.1127  2.6116 -2.0025
 3293SOL     OW21340   2.166   4.605   5.563 -0.6682 -0.1594  0.3355
 3293SOL    HW121341   2.184   4.629   5.472  1.1602  1.9144  1.2449
 3293SOL    HW221342   2.123   4.681   5.602 -0.1381 -0.7304  2.0697
 3294SOL     OW21343   1.269   4.404   5.651  0.3338  0.1041  0.1124
 3294SOL    HW121344   1.343   4.417   5.590  2.2903 -0.7643  2.3091
 3294SOL    HW221345   1.212   4.478   5.629 -1.1818 -1.2271 -0.3763
 3295SOL     OW21346   4.305   3.629   2.828  0.7742 -0.0177  0.4657
 3295SOL    HW121347   4.387   3.614   2.780  0.0596 -0.8312 -0.4850
 3295SOL    HW221348   4.274   3.540   2.843 -0.1227 -0.1329 -2.1553
 3296SOL     OW21349   1.702   0.035   7.537  0.2029  0.0070 -0.2248
 3296SOL    HW121350   1.621   0.084   7.548  0.1253 -0.0090 -0.7438
 3296SOL    HW221351   1.692   4.669   7.578  0.7762  0.5868  1.1456
 3297SOL     OW21352   2.093   0.030  17.289 -0.9622 -0.5429 -0.4101
 3297SOL    HW121353   2.088   4.675  17.230 -1.0435  0.3096 -1.4835
 3297SOL    HW221354   2.004   0.032  17.325 -0.4952 -1.9695  0.8215
 3298SOL     OW21355   3.429   0.550   4.317  0.3807 -0.2928  0.0484
 3298SOL    HW121356   3.457   0.639   4.296 -1.2772  0.0460 -0.7180
 3298SOL    HW221357   3.460   0.508   4.237 -1.0526  1.1146 -1.2552
 3299SOL     OW21358   0.496   3.837   6.013 -0.4121 -0.0405  0.2841
 3299SOL    HW121359   0.545   3.762   6.044  1.5386  1.5434  1.0689
 3299SOL    HW221360   0.541   3.858   5.931 -1.6026  1.3420 -0.0256
 3300SOL     OW21361   1.731   2.126   1.278 -0.0086  0.7002 -0.5241
 3300SOL    HW121362   1.665   2.189   1.248 -1.2556  0.3337  1.4819
 3300SOL    HW221363   1.747   2.155   1.368 -1.7622  0.9120 -0.2866
 3301SOL     OW21364   0.565   1.574   3.060  0.2291  0.4779  0.2943
 3301SOL    HW121365   0.533   1.644   3.116  1.9490  2.2408 -0.9091
 3301SOL    HW221366   0.496   1.509   3.072  1.2011 -0.4737  0.6840
 3302SOL     OW21367   4.699   4.430   6.421 -0.5589  0.7738 -0.0271
 3302SOL    HW121368   0.013   4.509   6.462 -0.0524 -0.3070  1.5940
 3302SOL    HW221369   0.050   4.405   6.361  0.6027  0.0726  1.6619
 3303SOL     OW21370   3.922   0.763   3.122  0.2479  0.2080  0.1023
 3303SOL    HW121371   3.857   0.833   3.128  0.8619  0.7078  1.0157
 3303SOL    HW221372   3.930   0.745   3.215 -0.1156 -2.3269 -0.3730
 3304SOL     OW21373   3.497   4.111   9.504  0.2489 -0.4567  0.3053
 3304SOL    HW121374   3.577   4.157   9.477 -0.4075  1.6766  1.9501
 3304SOL    HW221375   3.529   4.022   9.519  0.4256 -0.3927  0.3121
 3305SOL     OW21376   3.262   2.956   2.323  0.2759  0.0462  0.0550
 3305SOL    HW121377   3.229   3.046   2.329 -2.6242 -1.0087 -0.1375
 3305SOL    HW221378   3.279   2.966   2.230  2.4821  0.5220  0.5131
 3306SOL     OW21379   0.204   1.584   1.849 -0.3837 -0.1784  0.2045
 3306SOL    HW121380   0.244   1.669   1.868 -0.4917 -0.0835  0.0065
 3306SOL    HW221381   0.278   1.530   1.876  1.0516  1.4285 -0.5564
 3307SOL     OW21382   2.405   0.638  11.679  0.3670 -0.2598 -0.7169
 3307SOL    HW121383   2.478   0.577  11.675 -0.4925 -1.6120  4.3519
 3307SOL    HW221384   2.335   0.583  11.715  0.5290 -0.0999 -0.1578
 3308SOL     OW21385   1.782   2.453  10.709  0.0677  0.2591 -0.0236
 3308SOL    HW121386   1.808   2.543  10.728 -0.2960  0.4471 -0.4347
 3308SOL    HW221387   1.687   2.459  10.721  0.1974 -0.6545  1.4869
 3309SOL     OW21388   2.887   4.098   4.713 -0.6663  0.1347  0.7806
 3309SOL    HW121389   2.949   4.171   4.706 -1.7127  0.9247 -0.3523
 3309SOL    HW221390   2.944   4.024   4.736 -0.4600  0.5614  1.6300
 3310SOL     OW21391   4.064   2.176   4.730 -0.6494 -0.0886 -0.1779
 3310SOL    HW121392   4.077   2.244   4.796 -1.0090  0.0567 -0.2598
 3310SOL    HW221393   3.975   2.152   4.755 -1.1640  2.5073  0.4881
 3311SOL     OW21394   3.057   0.367   8.465 -0.2988  0.0360  0.0590
 3311SOL    HW121395   3.117   0.387   8.537 -1.6706 -1.5159  1.6391
 3311SOL    HW221396   3.031   0.279   8.492  0.7226 -0.1590  0.4011
 3312SOL     OW21397   3.418   3.562   1.359  0.6044 -0.5038 -0.9189
 3312SOL    HW121398   3.505   3.552   1.319  1.3689  0.7215  0.4557
 3312SOL    HW221399   3.420   3.655   1.380 -1.3986 -0.6709 -0.0132
 3313SOL     OW21400   1.272   3.616  14.480 -0.3218 -0.4357 -0.3849
 3313SOL    HW121401   1.337   3.674  14.521  0.4000 -2.9096  1.9372
 3313SOL    HW221402   1.245   3.558  14.551 -1.4996 -0.7495 -1.0910
 3314SOL     OW21403   1.676   0.687   2.782  0.5747 -0.5696 -0.1667
 3314SOL    HW121404   1.766   0.673   2.754  0.0191  0.6380 -2.5531
 3314SOL    HW221405   1.668   0.782   2.786  1.0246 -0.3608 -3.8218
 3315SOL     OW21406   0.446   2.116   7.812  0.3323 -0.1556  0.2082
 3315SOL    HW121407   0.523   2.155   7.854  0.0093 -1.2609  1.8219
 3315SOL    HW221408   0.428   2.184   7.748  3.1057 -0.0528 -0.4540
 3316SOL     OW21409   1.251   4.327  15.768 -0.1193  0.0911  0.2173
 3316SOL    HW121410   1.180   4.366  15.717  0.8392  0.8897 -0.4858
 3316SOL    HW221411   1.214   4.344  15.855  0.0771 -1.7567  0.6534
 3317SOL     OW21412   2.679   0.867   4.877 -0.3009  0.2614 -0.0995
 3317SOL    HW121413   2.719   0.798   4.929 -1.9478 -0.0404  0.7570
 3317SOL    HW221414   2.735   0.943   4.895  1.8346 -1.6588  1.4598
 3318SOL     OW21415   0.302   2.497   0.074  0.4164 -0.0537  0.3744
 3318SOL    HW121416   0.283   2.545  17.676  1.2431  0.1150  0.2784
 3318SOL    HW221417   0.356   2.560   0.123 -0.0942 -0.0898  0.9879
 3319SOL     OW21418   3.904   1.854   3.218 -0.2826  0.5592  0.6918
 3319SOL    HW121419   3.862   1.771   3.194  0.0812  1.1623 -1.9559
 3319SOL    HW221420   3.848   1.912   3.167 -1.4347 -0.1886  1.1057
 3320SOL     OW21421   0.125   4.516   9.002 -0.1101  0.4986  0.1256
 3320SOL    HW121422   0.214   4.543   8.980  0.9136 -0.7366  2.6694
 3320SOL    HW221423   0.090   4.604   9.016 -1.2694 -0.2937  2.1769
 3321SOL     OW21424   0.569   2.144   2.800 -0.0313  0.0088 -0.0767
 3321SOL    HW121425   0.583   2.204   2.873  0.1781  1.1916 -1.0790
 3321SOL    HW221426   0.660   2.122   2.779  0.0073 -1.1633  1.3890
 3322SOL     OW21427   1.663   0.346  10.241  0.4163 -0.1629 -0.0864
 3322SOL    HW121428   1.659   0.369  10.334  0.3384  0.2610 -0.1905
 3322SOL    HW221429   1.631   0.256  10.250 -1.1377  0.5009  1.1034
 3323SOL     OW21430   1.484   1.283  15.855  0.2827 -0.0309  0.1078
 3323SOL    HW121431   1.436   1.356  15.895 -1.2696 -1.2298  0.4263
 3323SOL    HW221432   1.506   1.332  15.776  0.6870 -1.3662 -0.6080
 3324SOL     OW21433   3.469   1.172   4.500  0.0823 -0.3126 -1.0327
 3324SOL    HW121434   3.478   1.117   4.578  2.0707 -1.3701 -2.0055
 3324SOL    HW221435   3.375   1.190   4.502  0.0649 -0.4474 -0.5230
 3325SOL     OW21436   1.922   3.776  17.588 -0.1143 -0.2573  0.2691
 3325SOL    HW121437   1.988   3.820  17.641 -1.7975 -0.9827  2.9609
 3325SOL    HW221438   1.973   3.741  17.515  0.4770  3.5860 -1.1476
 3326SOL     OW21439   1.090   1.640   8.655 -0.0536  0.1991 -0.3688
 3326SOL    HW121440   1.033   1.605   8.587  0.1165 -1.9057  0.5780
 3326SOL    HW221441   1.172   1.639   8.606 -0.2733 -1.1876 -0.6998
 3327SOL     OW21442   0.479   0.168   2.487 -0.2674 -0.3440 -0.1656
 3327SOL    HW121443   0.443   0.233   2.547  0.5208  0.8728 -1.0059
 3327SOL    HW221444   0.397   0.134   2.450 -2.0567  1.6540  1.9366
 3328SOL     OW21445   3.054   0.108  14.573  0.1182  0.2669  0.3500
 3328SOL    HW121446   3.031   0.033  14.627  0.6671  0.6535  1.1221
 3328SOL    HW221447   3.125   0.064  14.527 -0.3813  0.7324 -0.8825
 3329SOL     OW21448   2.056   4.066  15.080 -0.3154  0.2260 -0.2584
 3329SOL    HW121449   2.130   4.114  15.041 -0.0436 -1.1221 -1.3975
 3329SOL    HW221450   1.983   4.086  15.022 -0.3511 -0.0320 -0.2999
 3330SOL     OW21451   3.706   2.361   9.642 -0.6118 -0.0397  0.3597
 3330SOL    HW121452   3.766   2.288   9.656 -1.4386 -0.9999 -1.1146
 3330SOL    HW221453   3.667   2.331   9.560  2.2882  0.6032 -1.2687
 3331SOL     OW21454   3.915   0.596  10.983 -0.0898 -0.1440 -0.5655
 3331SOL    HW121455   3.961   0.524  11.025 -0.4326 -0.1997 -0.2837
 3331SOL    HW221456   3.904   0.669  11.044 -1.2634 -1.9886  1.4122
 3332SOL     OW21457   2.263   0.050   3.430  0.1162  0.1721 -0.0737
 3332SOL    HW121458   2.184   0.018   3.472 -0.9740  2.7875 -0.1204
 3332SOL    HW221459   2.294   0.126   3.480  0.0812  0.4224 -0.4276
 3333SOL     OW21460   4.046   3.233   3.930  0.4131 -0.0826 -0.1548
 3333SOL    HW121461   4.067   3.205   4.019  0.9673 -2.3519 -0.9756
 3333SOL    HW221462   4.036   3.147   3.888 -1.5554  1.9018 -3.7779
 3334SOL     OW21463   3.139   1.704  17.016  0.3722  0.3143  0.1393
 3334SOL    HW121464   3.227   1.670  17.035  0.5687  0.7219 -0.0407
 3334SOL    HW221465   3.152   1.795  17.042 -1.7482  1.2329 -2.0140
 3335SOL     OW21466   2.652   0.874   8.457  0.0903 -0.2802  0.2668
 3335SOL    HW121467   2.634   0.780   8.446 -2.1825  0.0324  1.3038
 3335SOL    HW221468   2.709   0.872   8.534  1.3046  3.1280 -0.5341
 3336SOL     OW21469   1.950   0.235   3.514  0.2148 -0.0797  0.0361
 3336SOL    HW121470   2.007   0.291   3.461 -1.6764  1.2596 -0.5814
 3336SOL    HW221471   1.979   0.253   3.603  1.7847  0.3357 -0.5485
 3337SOL     OW21472   2.079   1.231   1.349 -0.1852 -0.0588  0.2227
 3337SOL    HW121473   2.120   1.155   1.308 -0.3632  0.9438 -1.8016
 3337SOL    HW221474   2.072   1.291   1.275 -2.1545  0.3273  0.7252
 3338SOL     OW21475   1.380   3.520   4.286  0.3783  0.0769  0.3629
 3338SOL    HW121476   1.286   3.526   4.265 -0.0365  1.5252  2.5687
 3338SOL    HW221477   1.405   3.609   4.311  0.8968  0.1059 -0.2752
 3339SOL     OW21478   1.034   1.018   8.714  0.0944  0.1214 -0.2683
 3339SOL    HW121479   1.118   1.058   8.734  0.1305  0.7668 -1.7356
 3339SOL    HW221480   0.999   0.996   8.800 -2.2435 -1.2925 -1.5539
 3340SOL     OW21481   1.272   2.226  16.559 -0.1703  0.8067  0.3172
 3340SOL    HW121482   1.259   2.287  16.632  1.5442  1.0881  0.4004
 3340SOL    HW221483   1.330   2.284  16.510 -1.8753  0.1873 -2.3940
 3341SOL     OW21484   2.267   3.887  10.582 -0.0701 -0.2035 -0.2200
 3341SOL    HW121485   2.224   3.909  10.499  0.7444  0.6364 -0.4277
 3341SOL    HW221486   2.226   3.947  10.644  3.7425  1.6226  0.5075
 3342SOL     OW21487   2.666   4.253   7.963 -0.1116  0.1875 -0.2495
 3342SOL    HW121488   2.729   4.318   7.996 -2.4337  2.1495  0.3128
 3342SOL    HW221489   2.612   4.249   8.042 -0.8475 -0.0995 -0.7792
 3343SOL     OW21490   1.502   2.887   8.250 -0.1264 -1.0001 -0.3351
 3343SOL    HW121491   1.549   2.848   8.177  1.0949  0.9617 -0.5923
 3343SOL    HW221492   1.569   2.945   8.286 -1.5503  0.2657  0.3144
 3344SOL     OW21493   3.698   2.009   6.843 -0.1559 -0.1797 -0.3479
 3344SOL    HW121494   3.750   2.083   6.811 -1.2941  0.3812 -0.9218
 3344SOL    HW221495   3.764   1.951   6.880 -0.1349  0.6130  0.8817
 3345SOL     OW21496   4.679   0.628   5.317  0.0444 -0.0659  0.0893
 3345SOL    HW121497   0.035   0.616   5.375 -0.4800 -0.4262  0.6882
 3345SOL    HW221498   4.648   0.710   5.354  1.1446 -0.2590  1.4402
 3346SOL     OW21499   2.564   1.615  12.774  0.2149  0.6369 -0.0365
 3346SOL    HW121500   2.636   1.656  12.822  0.7280 -1.0070  0.6050
 3346SOL    HW221501   2.500   1.631  12.842 -0.0818  2.6737 -0.8013
 3347SOL     OW21502   0.929   1.724   9.127 -0.2202  0.7452  0.0223
 3347SOL    HW121503   1.007   1.670   9.137 -0.2484  0.4985 -1.1316
 3347SOL    HW221504   0.945   1.776   9.207 -1.2556  0.6292  0.3018
 3348SOL     OW21505   4.261   4.325   3.801  0.2864 -0.2809  1.0066
 3348SOL    HW121506   4.315   4.247   3.799 -1.1094 -1.1882 -0.7020
 3348SOL    HW221507   4.171   4.293   3.808 -0.5863  1.9952  0.4056
 3349SOL     OW21508   2.733   4.628   0.794  0.2394  0.4890 -0.5209
 3349SOL    HW121509   2.652   4.635   0.744 -0.2501 -1.9562 -0.1010
 3349SOL    HW221510   2.796   4.669   0.735  1.4785  1.0348  1.1914
 3350SOL     OW21511   1.355   3.766  17.501  0.9219  0.4698 -0.1749
 3350SOL    HW121512   1.300   3.830  17.546  0.7806 -0.2645  0.6883
 3350SOL    HW221513   1.334   3.784  17.409 -1.1226 -3.6168 -0.4918
 3351SOL     OW21514   2.674   0.270   5.599 -0.4805 -0.1670  0.2651
 3351SOL    HW121515   2.581   0.254   5.587 -0.5031  0.6505 -0.6375
 3351SOL    HW221516   2.692   0.185   5.640 -0.9697 -1.3115 -1.9238
 3352SOL     OW21517   2.653   1.448  12.054 -0.2744  0.1765  0.1058
 3352SOL    HW121518   2.575   1.435  12.001 -0.7598 -2.0364  1.3769
 3352SOL    HW221519   2.721   1.436  11.988 -1.2870 -1.2389 -0.6641
 3353SOL     OW21520   1.690   1.522   1.279  0.1862  0.1093 -0.3548
 3353SOL    HW121521   1.697   1.534   1.373 -1.6063  1.4529 -0.3778
 3353SOL    HW221522   1.648   1.605   1.253  1.9520  0.1588 -3.0514
 3354SOL     OW21523   0.768   4.552   1.166  0.1676  0.2669  0.3800
 3354SOL    HW121524   0.717   4.612   1.220 -0.7824  0.7745 -1.0919
 3354SOL    HW221525   0.727   4.466   1.175  0.2660 -0.0922 -2.8018
 3355SOL     OW21526   2.841   2.428   2.579  0.0557 -0.1658 -0.0650
 3355SOL    HW121527   2.767   2.433   2.518 -0.7318 -1.0916  0.8151
 3355SOL    HW221528   2.838   2.513   2.623 -2.4790  0.3791 -1.2746
 3356SOL     OW21529   2.042   4.693   3.551  0.1993 -0.2237 -0.5344
 3356SOL    HW121530   1.986   0.049   3.564  0.9840  0.5641 -1.7478
 3356SOL    HW221531   1.982   4.619   3.542 -0.1045  0.1144 -1.2379
 3357SOL     OW21532   2.852   0.287  14.456 -0.1178 -0.0894  0.3132
 3357SOL    HW121533   2.910   0.214  14.477  0.4645 -0.3119 -2.0708
 3357SOL    HW221534   2.871   0.311  14.365  0.1136 -0.6936  0.2067
 3358SOL     OW21535   1.281   3.304   6.291 -0.3672 -0.3027  0.0733
 3358SOL    HW121536   1.292   3.332   6.382  1.2870 -1.9649  0.3874
 3358SOL    HW221537   1.321   3.375   6.242 -0.1986 -1.4270 -1.4289
 3359SOL     OW21538   3.851   2.659   8.092  0.2374  0.2402  0.2152
 3359SOL    HW121539   3.759   2.648   8.115 -0.4415  0.6484 -2.2699
 3359SOL    HW221540   3.873   2.580   8.042  0.6171  2.2458 -2.7771
 3360SOL     OW21541   1.267   4.481   7.836 -0.1220  0.2570 -0.5809
 3360SOL    HW121542   1.250   4.396   7.797 -1.7723  2.0038 -3.6897
 3360SOL    HW221543   1.178   4.515   7.852  0.9333  2.3775  0.7594
 3361SOL     OW21544   1.374   3.529   3.343 -0.2367  0.1182  0.1519
 3361SOL    HW121545   1.467   3.551   3.344 -0.3683  0.6504  0.3781
 3361SOL    HW221546   1.365   3.480   3.424 -1.7521 -0.3644 -0.2924
 3362SOL     OW21547   4.637   3.060   7.427 -0.3475  0.3324 -1.1434
 3362SOL    HW121548   4.623   3.030   7.517 -1.3470  0.0624 -1.3896
 3362SOL    HW221549   4.606   3.150   7.438  0.0851  0.5845 -1.9966
 3363SOL     OW21550   3.959   3.136   6.838 -0.0614  0.5246  0.1236
 3363SOL    HW121551   3.985   3.049   6.805  1.3187  2.1164 -3.0065
 3363SOL    HW221552   4.024   3.133   6.907  0.2750 -1.1747 -0.2445
 3364SOL     OW21553   2.804   3.001   0.275  0.0368  0.6410 -0.0329
 3364SOL    HW121554   2.800   2.919   0.324  1.7255 -1.8831 -4.1209
 3364SOL    HW221555   2.762   2.980   0.192  0.6935  4.2681 -1.2921
 3365SOL     OW21556   2.184   0.753   2.332 -0.0521  0.3941 -0.1394
 3365SOL    HW121557   2.110   0.807   2.305 -2.3691 -2.5156  0.4917
 3365SOL    HW221558   2.250   0.821   2.349  0.7011 -0.5880  0.8409
 3366SOL     OW21559   2.610   4.646   9.437  0.3642  0.2740 -0.1221
 3366SOL    HW121560   2.704   4.639   9.447  0.3299  0.6311  0.4377
 3366SOL    HW221561   2.569   4.601   9.512 -3.3883 -0.6203 -2.6734
 3367SOL     OW21562   1.799   1.484   5.524  0.4393  0.6838  0.4428
 3367SOL    HW121563   1.768   1.553   5.583 -0.9973 -0.5011  1.0660
 3367SOL    HW221564   1.744   1.408   5.541  0.5170  0.3643 -0.7527
 3368SOL     OW21565   3.452   3.259   2.569  0.0749 -0.1063  0.4549
 3368SOL    HW121566   3.488   3.175   2.539 -0.9772 -1.1109  2.0198
 3368SOL    HW221567   3.474   3.308   2.490 -2.9511  1.7545  0.7910
 3369SOL     OW21568   3.411   1.913   9.156 -0.0293 -0.0645  0.4090
 3369SOL    HW121569   3.352   1.839   9.163  2.6080 -2.2187  0.0836
 3369SOL    HW221570   3.419   1.924   9.061  0.2420  0.8771  0.5395
 3370SOL     OW21571   2.262   0.238   6.957 -0.0835  0.2402  0.1572
 3370SOL    HW121572   2.198   0.295   6.915 -0.7836 -0.4075  0.3518
 3370SOL    HW221573   2.206   0.206   7.028  0.8212 -1.4912  0.0903
 3371SOL     OW21574   3.459   3.627   7.053 -0.5591  0.0933  0.4055
 3371SOL    HW121575   3.377   3.577   7.053  1.1190 -2.6993  0.8126
 3371SOL    HW221576   3.484   3.612   6.962 -1.6823 -2.1799  0.4504
 3372SOL     OW21577   1.353   3.924  11.729  0.1104 -0.1963 -0.9036
 3372SOL    HW121578   1.367   3.884  11.814  0.0741 -1.1999 -1.3694
 3372SOL    HW221579   1.259   3.942  11.725 -0.4464 -2.8995  0.3471
 3373SOL     OW21580   1.466   1.874  15.205  0.1623 -0.2313 -0.1110
 3373SOL    HW121581   1.434   1.946  15.259  1.7066 -0.9537  1.7746
 3373SOL    HW221582   1.382   1.845  15.171  0.1529 -1.5282  1.0051
 3374SOL     OW21583   0.255   1.047   3.819  0.2264  0.0810  0.2082
 3374SOL    HW121584   0.331   1.040   3.762  2.8122  1.4700  3.4348
 3374SOL    HW221585   0.284   1.110   3.886 -2.1896  0.3367  1.0272
 3375SOL     OW21586   1.361   2.437   9.147 -0.5305  0.5583 -0.2748
 3375SOL    HW121587   1.397   2.360   9.104  0.6761 -0.0491  1.7924
 3375SOL    HW221588   1.288   2.453   9.087 -0.4700 -1.2974 -0.8298
 3376SOL     OW21589   1.527   0.471   3.358 -0.5915 -0.4043  0.0076
 3376SOL    HW121590   1.602   0.441   3.307 -0.9521  0.2284 -0.8989
 3376SOL    HW221591   1.523   0.399   3.422 -0.7373  1.7388  2.4231
 3377SOL     OW21592   0.871   2.381   2.464  0.1460  0.4082 -0.3387
 3377SOL    HW121593   0.906   2.294   2.446 -0.4592  0.2225 -0.6080
 3377SOL    HW221594   0.781   2.374   2.495  0.8546 -3.2300  0.8373
 3378SOL     OW21595   2.137   3.770   7.482  0.3227  0.1677  0.3995
 3378SOL    HW121596   2.201   3.717   7.435 -0.2065  0.1099 -0.2605
 3378SOL    HW221597   2.089   3.796   7.404 -2.4026 -0.9448  1.7030
 3379SOL     OW21598   1.760   3.344   4.863 -0.0399  0.0755 -0.4093
 3379SOL    HW121599   1.747   3.360   4.769  1.4728  1.7265 -0.3385
 3379SOL    HW221600   1.850   3.311   4.857 -1.1402 -2.6906 -1.7196
 3380SOL     OW21601   2.646   3.214   3.312  0.0467  0.1294 -0.0002
 3380SOL    HW121602   2.678   3.171   3.232  1.6928  1.0919  0.1377
 3380SOL    HW221603   2.605   3.293   3.277 -0.2082  0.3112  0.7014
 3381SOL     OW21604   4.011   4.554  13.883  0.7913 -0.3961 -0.1185
 3381SOL    HW121605   4.070   4.512  13.946  2.0682  1.5533 -0.0075
 3381SOL    HW221606   3.947   4.486  13.866 -2.2856  1.9704  1.9490
 3382SOL     OW21607   3.876   4.649  17.609 -0.3983 -0.5803  0.1140
 3382SOL    HW121608   3.889   4.559  17.579 -1.7216 -0.7463  0.0282
 3382SOL    HW221609   3.920   4.649   0.012  1.5082 -0.3586 -0.8864
 3383SOL     OW21610   1.140   3.520  13.201  0.3722  0.7628  0.8063
 3383SOL    HW121611   1.213   3.477  13.246  0.4809 -1.6453 -1.6653
 3383SOL    HW221612   1.162   3.491  13.113  0.9061  0.7328  0.9486
 3384SOL     OW21613   2.683   3.717  14.112  0.1215  0.3404  0.2526
 3384SOL    HW121614   2.741   3.721  14.189 -1.1127 -2.1950  1.2998
 3384SOL    HW221615   2.735   3.778  14.058  1.6844 -1.5733 -0.4124
 3385SOL     OW21616   2.767   2.515   3.091  0.3620  0.7092  0.6658
 3385SOL    HW121617   2.749   2.427   3.125  1.1686  0.7322  1.1529
 3385SOL    HW221618   2.688   2.557   3.124 -1.1824 -2.1760  0.6388
 3386SOL     OW21619   2.661   0.660  10.995 -0.6640  0.6342 -0.3608
 3386SOL    HW121620   2.620   0.741  11.025 -1.9201  0.0304 -0.4447
 3386SOL    HW221621   2.591   0.600  11.021  1.7678 -0.8416  2.7510
 3387SOL     OW21622   2.868   2.248   4.513  0.0570  0.4759 -0.0072
 3387SOL    HW121623   2.954   2.274   4.547 -0.5485  2.6152 -0.0990
 3387SOL    HW221624   2.884   2.156   4.493 -0.1744  0.8013 -1.6609
 3388SOL     OW21625   3.079   0.851   5.029 -0.2750  0.2454  0.1042
 3388SOL    HW121626   3.158   0.813   4.990 -0.3121  1.5535 -1.2809
 3388SOL    HW221627   3.047   0.785   5.090  0.9680 -1.8794 -1.5670
 3389SOL     OW21628   1.499   4.649   5.000 -0.3063  0.8324 -0.2336
 3389SOL    HW121629   1.588   4.674   5.026 -0.2255 -0.4751  0.7582
 3389SOL    HW221630   1.456   0.012   4.980 -2.0876 -0.2106 -0.6871
 3390SOL     OW21631   1.341   0.097   8.201  0.2891  0.3188  0.3051
 3390SOL    HW121632   1.358   0.151   8.279 -0.0705 -0.0958  0.6694
 3390SOL    HW221633   1.252   0.126   8.181 -0.0731  0.3586  2.0016
 3391SOL     OW21634   1.698   1.755   2.742  0.0417 -0.2669 -0.5368
 3391SOL    HW121635   1.784   1.723   2.714  1.8040  2.1546  2.0140
 3391SOL    HW221636   1.716   1.789   2.830 -2.1689  1.0995 -0.6106
 3392SOL     OW21637   3.804   4.649   6.080 -0.0158  0.0915  0.1030
 3392SOL    HW121638   3.899   4.642   6.075  0.0043  1.3616 -1.1622
 3392SOL    HW221639   3.795   4.718   6.145 -0.2806 -0.1292  0.3013
 3393SOL     OW21640   0.629   2.578   9.288 -0.5504 -0.4184 -0.4140
 3393SOL    HW121641   0.657   2.647   9.347 -0.4504 -0.8083 -0.0022
 3393SOL    HW221642   0.669   2.602   9.205  1.1591 -0.5533  0.3757
 3394SOL     OW21643   4.594   1.359   3.195  0.5091 -0.7294  0.3409
 3394SOL    HW121644   4.521   1.327   3.248  0.3012  0.4756  0.7717
 3394SOL    HW221645   4.562   1.333   3.108  0.9741  0.6662 -0.2310
 3395SOL     OW21646   2.596   3.926  16.404 -0.3905 -0.0441 -0.0831
 3395SOL    HW121647   2.514   3.972  16.390 -0.1840  0.8441  1.6173
 3395SOL    HW221648   2.610   3.886  16.318 -2.4064  0.1320 -0.4857
 3396SOL     OW21649   2.031   2.882  13.371  0.7873  0.5742 -0.3247
 3396SOL    HW121650   2.085   2.951  13.332  1.6343  0.3638  0.4785
 3396SOL    HW221651   2.083   2.801  13.362  0.3599  0.0374  2.0475
 3397SOL     OW21652   2.489   3.323  16.984  0.3806 -0.1866 -0.0557
 3397SOL    HW121653   2.493   3.291  17.074  3.0686 -0.7839 -0.3725
 3397SOL    HW221654   2.482   3.416  17.005 -1.0388 -0.4346  0.5795
 3398SOL     OW21655   0.926   3.047   3.575 -0.6229  0.3647 -0.1794
 3398SOL    HW121656   0.979   3.034   3.654  0.1959 -1.9389 -1.1040
 3398SOL    HW221657   0.871   2.970   3.590  0.1941 -0.6314 -2.1981
 3399SOL     OW21658   0.316   1.200   2.994  0.1667  0.3147  0.0617
 3399SOL    HW121659   0.253   1.151   2.941  0.7192 -0.3873  0.0542
 3399SOL    HW221660   0.301   1.292   2.972 -2.7727  0.1987  1.5919
 3400SOL     OW21661   4.133   0.480   0.706 -0.6627  0.1425 -0.0074
 3400SOL    HW121662   4.080   0.544   0.659 -1.4141  0.4813  1.3008
 3400SOL    HW221663   4.158   0.427   0.630 -0.2139 -1.5241  1.3112
 3401SOL     OW21664   0.205   4.064   5.574 -0.6145  0.2638 -0.1821
 3401SOL    HW121665   0.138   3.998   5.596  1.1373 -1.9846 -1.5751
 3401SOL    HW221666   0.205   4.120   5.651 -1.1743  0.4247 -0.3015
 3402SOL     OW21667   4.188   4.281   6.773  0.5487 -0.4123  0.5120
 3402SOL    HW121668   4.121   4.333   6.818  0.2520 -0.7692  0.4844
 3402SOL    HW221669   4.268   4.331   6.786  1.3521 -2.3337  2.9935
 3403SOL     OW21670   0.231   0.913   4.990 -0.0169  0.8412  0.2838
 3403SOL    HW121671   0.201   0.942   5.076  0.5947  0.3432  0.6712
 3403SOL    HW221672   0.306   0.971   4.977  1.0748 -0.6679 -0.1521
 3404SOL     OW21673   0.445   2.000   2.034  0.1665  0.1240  0.5189
 3404SOL    HW121674   0.431   1.973   2.125  0.7312 -0.7545  0.3386
 3404SOL    HW221675   0.398   1.937   1.980  3.4909 -0.1732 -2.0335
 3405SOL     OW21676   0.355   2.770   8.176  0.5165 -0.3167 -0.0515
 3405SOL    HW121677   0.345   2.814   8.261 -1.0966  2.1385 -1.5203
 3405SOL    HW221678   0.299   2.696   8.198 -0.2249  0.2077 -0.1666
 3406SOL     OW21679   4.341   1.371   1.848  0.0216 -0.7013  0.0157
 3406SOL    HW121680   4.321   1.302   1.784 -0.5591  1.3936 -2.0375
 3406SOL    HW221681   4.279   1.335   1.912 -0.0496  1.7996  1.3222
 3407SOL     OW21682   1.893   2.301   8.187 -0.3149  0.5138 -0.2557
 3407SOL    HW121683   1.872   2.214   8.222  1.7237  0.4087  0.7139
 3407SOL    HW221684   1.884   2.356   8.265 -0.7768 -0.3104  0.2682
 3408SOL     OW21685   3.859   2.379   7.985  0.1802  0.1969  0.0657
 3408SOL    HW121686   3.900   2.315   8.043 -1.1278  0.5664  1.3729
 3408SOL    HW221687   3.768   2.374   8.013 -0.8196 -1.5523 -3.4502
 3409SOL     OW21688   2.467   3.419  16.011  0.0179  0.0248 -0.3133
 3409SOL    HW121689   2.464   3.386  15.921  0.5665 -0.0733 -0.2979
 3409SOL    HW221690   2.454   3.337  16.060  1.2380 -0.2569 -0.4604
 3410SOL     OW21691   1.703   3.486   7.923  0.5470  0.0266 -0.0046
 3410SOL    HW121692   1.758   3.563   7.933  2.2938 -1.5111  2.0178
 3410SOL    HW221693   1.632   3.493   7.986  0.5778 -2.4656  0.3184
 3411SOL     OW21694   2.935   4.190   1.194 -0.2089 -0.2617  0.2668
 3411SOL    HW121695   3.018   4.142   1.187 -0.0907  0.4023 -2.4771
 3411SOL    HW221696   2.877   4.119   1.222 -2.7614  1.9364  0.4684
 3412SOL     OW21697   4.542   2.648   4.947  0.1368  0.4043 -0.1859
 3412SOL    HW121698   4.564   2.697   4.868 -0.9606 -0.5898 -1.1051
 3412SOL    HW221699   4.546   2.725   5.003 -0.3012 -0.0825  0.5164
 3413SOL     OW21700   4.274   2.474   3.424 -0.4677 -0.1632 -0.4960
 3413SOL    HW121701   4.367   2.495   3.412  0.0396 -0.5627  2.6476
 3413SOL    HW221702   4.280   2.380   3.445 -0.6771 -0.1931 -0.5718
 3414SOL     OW21703   4.298   0.275   9.754 -0.4586  0.0263 -0.1429
 3414SOL    HW121704   4.249   0.290   9.673 -0.3244  1.8031  0.0898
 3414SOL    HW221705   4.386   0.264   9.718 -1.1283 -1.6013 -1.2504
 3415SOL     OW21706   2.577   2.136   3.761 -0.1210 -0.0230  0.2732
 3415SOL    HW121707   2.528   2.213   3.789 -1.1410 -0.6977  0.3367
 3415SOL    HW221708   2.643   2.182   3.709 -2.2218  0.2726 -2.1304
 3416SOL     OW21709   2.236   1.264  14.778  0.3334  0.0829  0.1328
 3416SOL    HW121710   2.314   1.212  14.798 -0.3569 -0.0802  2.4064
 3416SOL    HW221711   2.271   1.337  14.726  0.1284 -1.1856 -1.7692
 3417SOL     OW21712   4.342   3.351  14.262  0.1393 -0.0512  0.4683
 3417SOL    HW121713   4.283   3.397  14.202  1.3506  0.1530 -0.5681
 3417SOL    HW221714   4.397   3.302  14.202  0.3643 -1.5909  1.9159
 3418SOL     OW21715   0.386   0.105  12.553 -0.8239 -0.1359 -0.2788
 3418SOL    HW121716   0.457   0.046  12.527 -0.1527  0.3642  0.4424
 3418SOL    HW221717   0.414   0.124  12.642  1.0978  1.7115 -1.2765
 3419SOL     OW21718   4.610   1.267  12.947  0.1215 -0.1642  0.3014
 3419SOL    HW121719   4.697   1.266  12.907 -0.2650  3.4006 -0.5698
 3419SOL    HW221720   4.613   1.351  12.992  0.5243  0.2564 -0.4999
 3420SOL     OW21721   3.233   1.959   2.983  0.1847 -0.4222  0.0168
 3420SOL    HW121722   3.224   2.054   2.980  1.0687 -0.2939  1.3323
 3420SOL    HW221723   3.240   1.943   2.889 -0.2406  1.8611 -0.4147
 3421SOL     OW21724   2.398   0.964   2.279 -0.1594 -0.2232  0.5744
 3421SOL    HW121725   2.383   1.039   2.336  1.4033  1.4838 -1.2929
 3421SOL    HW221726   2.378   0.996   2.191 -2.6615 -0.5411  1.0371
 3422SOL     OW21727   0.637   0.175   7.533 -0.1355 -0.1264 -0.4123
 3422SOL    HW121728   0.558   0.174   7.480 -0.7043 -0.8932  0.4549
 3422SOL    HW221729   0.648   0.080   7.540  0.1182 -0.0807 -0.1706
 3423SOL     OW21730   1.239   3.400  14.120 -0.6349  0.3077 -0.5259
 3423SOL    HW121731   1.184   3.472  14.091  0.1038  0.7290 -0.8777
 3423SOL    HW221732   1.192   3.368  14.197 -1.7322  2.6136 -0.2405
 3424SOL     OW21733   1.421   1.850   9.598  0.4512 -0.0053 -0.4499
 3424SOL    HW121734   1.328   1.832   9.596  0.5670 -0.6738  0.4151
 3424SOL    HW221735   1.449   1.816   9.513 -0.8754 -0.9685 -0.4965
 3425SOL     OW21736   2.243   3.660   3.929 -0.2502 -0.1131 -0.3329
 3425SOL    HW121737   2.244   3.736   3.986  0.3924 -0.2027 -0.2261
 3425SOL    HW221738   2.255   3.588   3.991 -0.3862 -2.3748 -2.9288
 3426SOL     OW21739   3.619   2.126   7.696 -0.5151 -0.1408 -0.3569
 3426SOL    HW121740   3.524   2.120   7.698 -0.4401 -1.0734  0.6210
 3426SOL    HW221741   3.629   2.140   7.791 -0.2137  0.3954 -0.4674
 3427SOL     OW21742   2.745   1.374   4.979  0.1370 -0.1322  0.4509
 3427SOL    HW121743   2.828   1.344   4.943  0.2515  0.0719  0.5424
 3427SOL    HW221744   2.766   1.366   5.072 -0.0980 -2.6458  0.2672
 3428SOL     OW21745   2.372   1.899  15.935  0.2809 -0.2354  0.4659
 3428SOL    HW121746   2.423   1.967  15.981  1.5128 -0.8619  0.0260
 3428SOL    HW221747   2.341   1.946  15.858 -1.1500  0.7995  1.6793
 3429SOL     OW21748   3.710   0.673   1.333 -0.1652 -0.0078  0.1425
 3429SOL    HW121749   3.655   0.746   1.303 -0.3784 -0.3335 -0.2480
 3429SOL    HW221750   3.795   0.704   1.300  0.5194 -0.9675  1.0212
 3430SOL     OW21751   3.146   3.226   9.117 -0.0873  0.2955 -0.1410
 3430SOL    HW121752   3.187   3.167   9.054 -1.0893  1.0820 -1.5307
 3430SOL    HW221753   3.218   3.252   9.175  0.5858 -0.3675 -0.6905
 3431SOL     OW21754   1.105   0.215   6.298 -0.2039  0.7422  0.4668
 3431SOL    HW121755   1.041   0.151   6.329 -0.6163  0.8572 -0.1501
 3431SOL    HW221756   1.178   0.158   6.271 -0.8038  0.0539  0.2817
 3432SOL     OW21757   3.368   3.880   4.159 -0.0499 -0.0597  0.4746
 3432SOL    HW121758   3.304   3.813   4.183  0.0221 -0.6017 -0.8433
 3432SOL    HW221759   3.407   3.895   4.245  1.4968 -1.5831  0.0282
 3433SOL     OW21760   1.358   1.851   6.740  0.3567 -0.1777 -0.1591
 3433SOL    HW121761   1.385   1.793   6.812 -0.0782 -1.4269 -1.0022
 3433SOL    HW221762   1.269   1.875   6.763 -0.0489 -2.2656  0.4620
 3434SOL     OW21763   0.570   2.215   4.752 -0.0763  0.2621 -0.0363
 3434SOL    HW121764   0.628   2.245   4.682  1.2344 -0.5311  0.6992
 3434SOL    HW221765   0.555   2.300   4.794  0.7438  0.5033 -0.2403
 3435SOL     OW21766   1.902   4.274   5.686 -0.2504 -0.4853 -0.3994
 3435SOL    HW121767   1.831   4.213   5.709 -1.7690  0.8189 -1.6325
 3435SOL    HW221768   1.975   4.217   5.710 -0.9725 -0.8834  0.8637
 3436SOL     OW21769   2.448   1.863  10.378  0.3048  0.2038 -0.0105
 3436SOL    HW121770   2.543   1.853  10.367  0.0360 -3.0327  0.4104
 3436SOL    HW221771   2.418   1.844  10.290 -0.4620  1.4123 -0.0080
 3437SOL     OW21772   2.541   1.314   3.648  0.0721  0.0845  0.5848
 3437SOL    HW121773   2.478   1.249   3.618 -0.1433  0.1318  0.9313
 3437SOL    HW221774   2.488   1.356   3.716 -1.1061 -1.6905  0.7457
 3438SOL     OW21775   0.721   1.250   2.773 -0.5828 -0.2762  0.0286
 3438SOL    HW121776   0.737   1.212   2.859 -0.2430 -1.8142 -0.7013
 3438SOL    HW221777   0.808   1.288   2.758  0.0242 -1.3233  0.8954
 3439SOL     OW21778   0.412   1.032  16.553 -0.2231 -0.1226 -0.2555
 3439SOL    HW121779   0.358   0.955  16.534  0.6447 -0.5874 -0.8174
 3439SOL    HW221780   0.370   1.062  16.634  1.3967  1.5863 -0.0463
 3440SOL     OW21781   3.643   0.890   6.390 -0.2927  0.0173 -0.3219
 3440SOL    HW121782   3.621   0.922   6.478  1.1350 -1.0229  0.4064
 3440SOL    HW221783   3.566   0.917   6.341 -1.5895 -0.0016  1.6971
 3441SOL     OW21784   1.424   3.254   6.993 -0.2728 -0.4110  0.1557
 3441SOL    HW121785   1.431   3.297   6.908 -2.0798  0.3431  0.3971
 3441SOL    HW221786   1.501   3.278   7.045  0.1051  1.9173 -1.4454
 3442SOL     OW21787   3.237   0.908  12.681 -0.0604 -0.5711 -0.0570
 3442SOL    HW121788   3.215   0.817  12.662 -0.0354 -0.6052  0.0783
 3442SOL    HW221789   3.303   0.880  12.744  0.8251  0.3289 -0.5853
 3443SOL     OW21790   3.356   2.438   9.585 -0.3081 -0.5869  0.7017
 3443SOL    HW121791   3.387   2.487   9.509 -3.6840 -1.0577 -0.9707
 3443SOL    HW221792   3.371   2.503   9.654 -0.1920 -0.4815  0.5767
 3444SOL     OW21793   3.293   1.140  15.975 -0.2781 -0.5164 -0.2860
 3444SOL    HW121794   3.241   1.165  15.898 -1.5196  2.1475  1.4290
 3444SOL    HW221795   3.249   1.201  16.035  2.6313 -0.3527  1.6512
 3445SOL     OW21796   2.285   3.447   7.668 -0.1366 -0.8718  0.0241
 3445SOL    HW121797   2.235   3.492   7.737 -0.5862 -1.1695 -0.1081
 3445SOL    HW221798   2.211   3.415   7.616 -1.2808  0.8626  0.5985
 3446SOL     OW21799   0.700   1.259   6.643 -0.2147 -0.0884  0.4645
 3446SOL    HW121800   0.708   1.192   6.711 -3.3674  1.0101  1.9355
 3446SOL    HW221801   0.685   1.337   6.696  2.2135 -0.9321  2.4028
 3447SOL     OW21802   1.134   4.393   1.387 -0.3617  0.6649 -0.0149
 3447SOL    HW121803   1.070   4.322   1.381 -0.1766  0.7346 -2.5007
 3447SOL    HW221804   1.219   4.349   1.387 -0.3637  0.6572  1.0232
 3448SOL     OW21805   3.297   4.715   7.777  0.0163  0.6217 -0.0679
 3448SOL    HW121806   3.278   0.050   7.853 -1.0133 -0.1893  0.2503
 3448SOL    HW221807   3.326   4.632   7.817  0.5287  1.5499  1.5053
 3449SOL     OW21808   2.183   1.526  14.035  0.3695  1.0711 -0.1571
 3449SOL    HW121809   2.125   1.473  13.980  0.0737 -1.4903  2.6065
 3449SOL    HW221810   2.267   1.508  13.991  0.2501  0.5495 -0.1765
 3450SOL     OW21811   1.572   1.213   3.019  0.4679 -0.3150  0.5255
 3450SOL    HW121812   1.609   1.297   2.991 -2.1921  0.6505 -0.0547
 3450SOL    HW221813   1.630   1.148   2.978 -0.3276  0.3448 -1.6577
 3451SOL     OW21814   2.339   4.683  11.113  0.0462  0.2450 -0.1763
 3451SOL    HW121815   2.405   4.615  11.118  0.5663  0.7797  0.1386
 3451SOL    HW221816   2.326   4.707  11.204 -0.9689 -2.3418  0.3420
 3452SOL     OW21817   2.990   3.048   8.570  0.0399 -0.2205 -1.1179
 3452SOL    HW121818   3.085   3.054   8.579  0.2467  0.0764 -3.5438
 3452SOL    HW221819   2.976   2.955   8.588  0.2399 -0.1626 -0.6588
 3453SOL     OW21820   0.105   2.886   9.451 -0.6019 -0.3091  0.5849
 3453SOL    HW121821   0.094   2.845   9.537  0.9248 -0.7527  0.5601
 3453SOL    HW221822   0.011   2.894   9.435 -0.5081 -0.7975 -0.1973
 3454SOL     OW21823   2.365   4.659   6.517 -0.1929 -0.2014  0.1316
 3454SOL    HW121824   2.302   4.628   6.582  0.0808  0.6893  0.8194
 3454SOL    HW221825   2.443   4.665   6.571  0.1083 -0.2440 -0.3029
 3455SOL     OW21826   2.907   3.424   5.994  0.2356 -0.0182  0.1005
 3455SOL    HW121827   2.899   3.345   5.941  0.7993 -0.0845  0.1058
 3455SOL    HW221828   2.980   3.394   6.049 -0.5197  0.0056  1.1129
 3456SOL     OW21829   3.053   1.926   9.513 -0.0788  0.1349 -0.1568
 3456SOL    HW121830   3.128   1.873   9.539 -1.0053 -0.9898  0.2346
 3456SOL    HW221831   3.011   1.859   9.459  0.4446 -0.0726 -0.3051
 3457SOL     OW21832   2.735   3.804   5.261 -0.0103  0.0391  0.6151
 3457SOL    HW121833   2.685   3.843   5.332 -0.7289  0.5691 -0.1792
 3457SOL    HW221834   2.657   3.770   5.218  0.1399  0.2290  0.1866
 3458SOL     OW21835   1.992   3.596   0.242  0.3696  0.1954 -0.0683
 3458SOL    HW121836   2.004   3.686   0.212 -0.8796 -0.0587 -1.3490
 3458SOL    HW221837   1.945   3.555   0.169  0.0410  2.7349 -1.2873
 3459SOL     OW21838   4.399   3.159   3.538 -0.2568 -0.2324 -0.1358
 3459SOL    HW121839   4.392   3.235   3.480 -0.5181  0.1531  0.3977
 3459SOL    HW221840   4.481   3.184   3.580  1.1245 -1.7095 -1.9482
 3460SOL     OW21841   2.847   4.358   6.151  0.2708  0.6056  0.3391
 3460SOL    HW121842   2.935   4.362   6.114  0.5534 -1.3240  0.7937
 3460SOL    HW221843   2.855   4.420   6.224  1.0798  1.5956 -0.5948
 3461SOL     OW21844   1.838   2.711   6.381 -0.5106  0.0917 -0.1393
 3461SOL    HW121845   1.880   2.633   6.344  1.5240  1.0301  0.2444
 3461SOL    HW221846   1.910   2.745   6.434  1.6182 -2.9908 -1.0363
 3462SOL     OW21847   2.426   1.982   3.058  0.4558  0.4405 -0.3863
 3462SOL    HW121848   2.496   1.954   3.117 -1.4069 -0.4766  1.3716
 3462SOL    HW221849   2.373   2.025   3.124  0.0693  0.9171 -1.0034
 3463SOL     OW21850   1.800   4.466   3.496 -0.7152  0.0737 -1.1940
 3463SOL    HW121851   1.757   4.454   3.580  0.0260 -0.9083 -0.9566
 3463SOL    HW221852   1.727   4.471   3.434 -0.9723  0.6852 -0.8445
 3464SOL     OW21853   4.240   2.449   0.148  0.6534  0.2531 -0.0908
 3464SOL    HW121854   4.283   2.385   0.206 -0.7847 -0.9800 -0.3917
 3464SOL    HW221855   4.229   2.386   0.077 -1.4689 -0.1221  0.5737
 3465SOL     OW21856   4.397   3.706  12.176 -0.2535  0.2132 -0.2275
 3465SOL    HW121857   4.471   3.763  12.196 -1.4617  1.4519  0.7110
 3465SOL    HW221858   4.390   3.660  12.260 -0.0246  2.6570  1.1056
 3466SOL     OW21859   4.270   3.444   5.044  0.0608  0.3892 -0.3825
 3466SOL    HW121860   4.325   3.460   4.967 -0.5435  2.5458 -0.3578
 3466SOL    HW221861   4.302   3.507   5.108  2.4879 -1.3479  0.1132
 3467SOL     OW21862   1.911   3.182   5.427  0.4160 -0.0020  0.3177
 3467SOL    HW121863   1.845   3.125   5.467 -0.1108  0.4254  0.0599
 3467SOL    HW221864   1.980   3.194   5.493 -0.2698 -1.8525  1.3828
 3468SOL     OW21865   1.134   4.586   7.528  0.5597  0.7784 -0.0804
 3468SOL    HW121866   1.061   4.647   7.531  1.4802  1.8209  1.2972
 3468SOL    HW221867   1.193   4.631   7.589 -0.2954  0.2620  1.1195
 3469SOL     OW21868   1.762   1.709   7.969  0.1639 -0.1819  0.2248
 3469SOL    HW121869   1.672   1.735   7.951  0.3880  0.5344  0.1118
 3469SOL    HW221870   1.798   1.701   7.880 -0.7702 -0.9050 -0.0802
 3470SOL     OW21871   3.230   2.125  10.795 -0.5466  0.4497  0.2238
 3470SOL    HW121872   3.279   2.165  10.866 -2.3408  0.3576  1.5076
 3470SOL    HW221873   3.242   2.036  10.827  0.2185  0.6781  0.5744
 3471SOL     OW21874   1.936   3.855   2.203 -0.1293 -0.3730  0.1235
 3471SOL    HW121875   2.030   3.849   2.182 -0.4860  0.9856 -1.8145
 3471SOL    HW221876   1.893   3.872   2.119  0.7179  0.1895 -0.1990
 3472SOL     OW21877   3.387   4.674   3.146 -0.1645 -0.1633 -0.0883
 3472SOL    HW121878   3.385   4.666   3.051 -1.4679 -0.4451 -0.0362
 3472SOL    HW221879   3.376   0.049   3.153  2.1659  0.3760 -3.7241
 3473SOL     OW21880   0.621   0.287  10.160  0.4932 -0.0763 -0.1266
 3473SOL    HW121881   0.637   0.217  10.096 -1.5166 -1.3353  0.7306
 3473SOL    HW221882   0.650   0.244  10.240  1.0587 -0.1878 -0.3946
 3474SOL     OW21883   4.284   2.371   9.821  0.2321 -0.2137  0.6605
 3474SOL    HW121884   4.298   2.465   9.831 -1.1260  0.2270 -1.3567
 3474SOL    HW221885   4.192   2.374   9.848  0.2820 -0.4589  0.8492
 3475SOL     OW21886   2.913   0.538   8.137 -0.6278  0.4895  0.0286
 3475SOL    HW121887   2.992   0.569   8.180 -0.1464  1.4049 -1.5548
 3475SOL    HW221888   2.949   0.511   8.052 -1.7213  0.3794 -0.4043
 3476SOL     OW21889   4.453   1.850  15.836 -0.6191 -0.6753 -0.0133
 3476SOL    HW121890   4.448   1.943  15.813  0.6649 -0.2807  1.2942
 3476SOL    HW221891   4.526   1.866  15.896 -0.8462  0.2830  0.0152
 3477SOL     OW21892   3.457   2.534   4.238 -0.0367 -0.0921  0.4458
 3477SOL    HW121893   3.513   2.459   4.218  1.3054  1.4477 -1.5658
 3477SOL    HW221894   3.507   2.615   4.240  0.5449 -0.4068 -1.7226
 3478SOL     OW21895   1.349   4.294   5.886  0.0592  0.1991 -0.3440
 3478SOL    HW121896   1.310   4.316   5.801 -0.2122  3.0551  0.5439
 3478SOL    HW221897   1.346   4.198   5.887 -1.2521  0.2492 -0.1872
 3479SOL     OW21898   3.542   3.869   7.684 -0.0148 -0.0280  0.4688
 3479SOL    HW121899   3.599   3.945   7.672  3.1139 -2.3242  0.9488
 3479SOL    HW221900   3.456   3.905   7.661 -0.9980 -1.8706  1.2750
 3480SOL     OW21901   1.484   0.588   8.446 -0.5627  0.0521 -0.3970
 3480SOL    HW121902   1.526   0.665   8.484  1.7262 -0.1670 -2.4803
 3480SOL    HW221903   1.394   0.619   8.444 -0.7361 -0.3482  1.0670
 3481SOL     OW21904   4.384   4.187   4.920  0.1362 -0.2839  0.2280
 3481SOL    HW121905   4.457   4.138   4.958 -0.0051 -2.5750 -2.4299
 3481SOL    HW221906   4.393   4.169   4.826 -0.5203  0.9495 -0.0643
 3482SOL     OW21907   1.426   3.269   0.066  0.1612 -0.4515 -0.1256
 3482SOL    HW121908   1.520   3.262   0.051  0.0474  1.2483 -1.6670
 3482SOL    HW221909   1.406   3.179   0.091 -0.8254 -0.6528 -1.6335
 3483SOL     OW21910   0.937   3.915  10.139 -1.0194 -0.1522 -0.1589
 3483SOL    HW121911   1.029   3.894  10.158 -0.7976 -1.0006 -2.1019
 3483SOL    HW221912   0.941   3.975  10.064 -0.0811  0.7519  0.6230
 3484SOL     OW21913   1.533   1.226   8.303 -0.4346  0.0990 -0.1436
 3484SOL    HW121914   1.594   1.276   8.358 -1.9647  2.5661 -0.6981
 3484SOL    HW221915   1.585   1.152   8.270  2.2009  1.9024 -0.0388
 3485SOL     OW21916   4.069   3.972   0.248  0.0559  0.1538  0.3191
 3485SOL    HW121917   4.118   3.912   0.191  0.7460  0.2092  0.8610
 3485SOL    HW221918   4.102   3.946   0.334 -0.3656  0.9198  0.7115
 3486SOL     OW21919   1.837   4.498   3.086 -0.5032  0.4605 -0.0431
 3486SOL    HW121920   1.808   4.587   3.064  0.7131  1.1172  1.0111
 3486SOL    HW221921   1.927   4.503   3.053 -1.0440 -0.4605 -1.6486
 3487SOL     OW21922   2.186   3.118   7.162  0.3006  0.2874 -0.1699
 3487SOL    HW121923   2.259   3.111   7.223 -1.5591  1.9646  2.2792
 3487SOL    HW221924   2.111   3.083   7.211 -0.1857 -1.3666 -2.0981
 3488SOL     OW21925   4.131   2.216   0.004 -0.5657  0.3944 -0.4258
 3488SOL    HW121926   4.143   2.128   0.038  2.3378  0.6433 -0.8142
 3488SOL    HW221927   4.086   2.190  17.605 -1.3372  0.8131 -0.1338
 3489SOL     OW21928   1.356   0.757   1.312 -0.1252 -0.2850  0.3131
 3489SOL    HW121929   1.374   0.692   1.380 -2.3697 -2.6401 -1.3573
 3489SOL    HW221930   1.268   0.722   1.303 -0.6585  2.0093 -3.3188
 3490SOL     OW21931   4.049   2.634   1.722  0.3038 -0.4102  0.4879
 3490SOL    HW121932   4.111   2.572   1.684  1.1023 -0.2664  1.5597
 3490SOL    HW221933   3.974   2.575   1.726  0.6137 -0.7757  0.8381
 3491SOL     OW21934   2.974   2.711   8.357 -0.4930 -0.1901 -0.4865
 3491SOL    HW121935   2.958   2.800   8.327  0.3814  1.0243  2.7267
 3491SOL    HW221936   2.967   2.652   8.281 -1.0230 -0.5206 -0.1798
 3492SOL     OW21937   2.713   3.371  17.601  0.1165  0.0754 -0.1095
 3492SOL    HW121938   2.631   3.345  17.559  0.4508  0.7177 -1.1690
 3492SOL    HW221939   2.695   3.351   0.011 -0.7676 -2.2263 -0.7847
 3493SOL     OW21940   4.140   0.334   8.186  0.2707 -0.0443  0.1277
 3493SOL    HW121941   4.198   0.296   8.252 -2.8447  0.4626  3.1418
 3493SOL    HW221942   4.134   0.266   8.119  0.2951 -1.7935  1.8974
 3494SOL     OW21943   3.721   0.169  11.693  0.0683  0.0007  0.5499
 3494SOL    HW121944   3.701   0.218  11.614  0.6983  0.3713  0.6203
 3494SOL    HW221945   3.698   0.232  11.761  4.0435  2.2260 -0.1767
 3495SOL     OW21946   0.354   3.113  11.671 -0.2856  0.0541 -0.1761
 3495SOL    HW121947   0.315   3.026  11.671 -1.2756  0.5009  1.4612
 3495SOL    HW221948   0.398   3.121  11.755  0.4260 -1.4832 -0.3995
 3496SOL     OW21949   4.049   0.207  11.237 -0.2491 -0.5878  0.0317
 3496SOL    HW121950   3.994   0.207  11.316 -0.1426  1.2245  0.1022
 3496SOL    HW221951   4.132   0.232  11.278 -0.0454 -0.9828 -0.1437
 3497SOL     OW21952   3.555   1.227  14.638  0.1802 -0.7131 -0.3413
 3497SOL    HW121953   3.496   1.290  14.596 -0.8658 -1.5880 -0.1809
 3497SOL    HW221954   3.610   1.284  14.692  1.1996 -2.0150  0.0129
 3498SOL     OW21955   4.193   1.013   9.571  0.3242  0.0789  0.6582
 3498SOL    HW121956   4.259   0.975   9.512 -0.6767 -2.1582  0.9870
 3498SOL    HW221957   4.188   0.953   9.645 -0.6983  0.4032  0.8444
 3499SOL     OW21958   0.408   1.715   6.098 -0.2946  0.1162 -0.1398
 3499SOL    HW121959   0.449   1.689   6.180 -2.1186 -2.7618 -0.1294
 3499SOL    HW221960   0.321   1.743   6.128  0.5149  1.3367  1.0429
 3500SOL     OW21961   1.649   2.500   8.952 -0.2206 -0.1915 -0.4703
 3500SOL    HW121962   1.630   2.465   8.865  1.0400  1.5180 -1.4362
 3500SOL    HW221963   1.742   2.503   8.927  0.0744  1.9874  0.8236
 3501SOL     OW21964   1.096   2.191   1.790 -0.1134  0.1165 -0.9163
 3501SOL    HW121965   1.012   2.227   1.762 -0.8388 -0.2569  0.7680
 3501SOL    HW221966   1.128   2.267   1.840  1.7951  0.4526 -2.6660
 3502SOL     OW21967   1.770   3.374   8.260  0.0532  0.2241 -0.1768
 3502SOL    HW121968   1.729   3.460   8.271 -0.3743  0.1317 -1.0043
 3502SOL    HW221969   1.823   3.373   8.340 -0.5130  2.8355  0.2066
 3503SOL     OW21970   1.958   3.869   4.362 -0.0499 -0.6674  0.2291
 3503SOL    HW121971   2.003   3.866   4.446  0.8593  0.8170 -0.2028
 3503SOL    HW221972   1.960   3.961   4.334 -0.1215 -0.3850  1.1653
 3504SOL     OW21973   1.664   3.919   7.705 -0.0092  0.1732 -0.3458
 3504SOL    HW121974   1.586   3.864   7.700 -0.1576  0.4430 -0.9452
 3504SOL    HW221975   1.650   3.963   7.790  0.1928  0.5343 -0.4978
 3505SOL     OW21976   0.350   1.624   2.786  0.2206  0.2292 -0.0444
 3505SOL    HW121977   0.344   1.717   2.766  1.9672  0.3635  0.0151
 3505SOL    HW221978   0.408   1.592   2.717 -0.3493  0.5140 -0.6573
 3506SOL     OW21979   2.573   0.480   0.204 -0.6525  0.2811 -0.3979
 3506SOL    HW121980   2.628   0.445   0.134 -0.5752  1.2775 -0.8347
 3506SOL    HW221981   2.614   0.432   0.275 -2.0697 -3.1521 -1.9126
 3507SOL     OW21982   3.509   2.200   2.645  0.0474 -0.0843 -0.6859
 3507SOL    HW121983   3.558   2.229   2.568 -0.6150  1.4479 -0.5149
 3507SOL    HW221984   3.587   2.176   2.696 -1.0592 -1.6196  0.2632
 3508SOL     OW21985   2.464   3.376   8.879  0.5054 -0.2761  0.3526
 3508SOL    HW121986   2.455   3.433   8.956 -0.9714  1.2168 -0.9455
 3508SOL    HW221987   2.547   3.411   8.845 -0.7522  2.1702 -0.2178
 3509SOL     OW21988   2.329   2.023  10.581 -0.0297  0.6751  0.9862
 3509SOL    HW121989   2.389   1.982  10.519 -1.4871 -1.5517  1.0800
 3509SOL    HW221990   2.244   2.028  10.537  0.7704  3.2261 -0.2903
 3510SOL     OW21991   0.604   0.014  10.378 -0.3031 -0.2002 -0.1502
 3510SOL    HW121992   0.639   4.687  10.302 -1.5447 -0.4264 -0.5942
 3510SOL    HW221993   0.678   0.017  10.438 -0.8899  0.1627  0.5467
 3511SOL     OW21994   3.595   4.037   8.061  0.2644 -0.0117 -0.1320
 3511SOL    HW121995   3.531   4.101   8.093  0.8106  1.2293 -1.5004
 3511SOL    HW221996   3.657   4.098   8.020  1.2108  1.2637  3.2405
 3512SOL     OW21997   3.543   4.559   6.061  0.4309  0.0689 -0.0338
 3512SOL    HW121998   3.635   4.585   6.066  0.0344  0.9419  2.9814
 3512SOL    HW221999   3.548   4.489   6.127 -0.8053 -1.4956 -1.6145
 3513SOL     OW22000   0.040   2.910   4.079  0.0570  0.2522  0.3444
 3513SOL    HW122001   4.711   2.985   4.046 -0.7290 -1.2205 -1.8516
 3513SOL    HW222002   0.036   2.843   4.010  0.4027 -0.1256  0.6946
 3514SOL     OW22003   1.569   3.629   6.056  0.3303 -0.2353 -0.2210
 3514SOL    HW122004   1.550   3.718   6.085 -0.0899  0.2112 -1.8242
 3514SOL    HW222005   1.529   3.638   5.969  0.8555 -0.5433 -0.4984
 3515SOL     OW22006   4.480   2.062   8.820  0.4402  0.2126  0.2866
 3515SOL    HW122007   4.494   2.057   8.914  2.2372  1.4604  0.0588
 3515SOL    HW222008   4.388   2.087   8.812  0.6271  0.0141 -2.3546
 3516SOL     OW22009   4.023   2.655   6.408 -0.0013  0.2361 -0.1029
 3516SOL    HW122010   4.111   2.680   6.438  0.0341  0.0919 -0.0872
 3516SOL    HW222011   3.981   2.741   6.402  1.4681  1.1430  2.4610
 3517SOL     OW22012   0.339   2.064   4.088 -0.1388  0.1375  0.6292
 3517SOL    HW122013   0.414   2.007   4.069 -1.8075 -1.1461 -2.0871
 3517SOL    HW222014   0.357   2.143   4.035 -1.5931  2.7978  4.1173
 3518SOL     OW22015   2.296   1.679   9.408  0.2833  0.2781  0.2579
 3518SOL    HW122016   2.345   1.642   9.482  0.7038 -3.2508 -1.7867
 3518SOL    HW222017   2.264   1.608   9.352  3.7089 -1.1907  0.1403
 3519SOL     OW22018   1.346   4.602  15.300 -0.0674  0.1225  0.6005
 3519SOL    HW122019   1.264   4.554  15.289 -0.1248  0.1154  1.0604
 3519SOL    HW222020   1.380   4.568  15.382  1.6603 -0.8928 -0.5276
 3520SOL     OW22021   0.394   4.411   9.223 -1.2982  0.2711 -0.3308
 3520SOL    HW122022   0.314   4.443   9.265 -0.4520  1.3378  0.4518
 3520SOL    HW222023   0.401   4.467   9.145 -2.8114  0.4358 -0.3489
 3521SOL     OW22024   1.427   1.092   3.426 -0.3614 -0.0818  0.4615
 3521SOL    HW122025   1.416   1.092   3.331 -0.2429 -1.7904  0.4417
 3521SOL    HW222026   1.464   1.004   3.432  0.7021  0.4145  1.1238
 3522SOL     OW22027   4.700   4.225  12.474 -0.1884 -0.6314 -0.2861
 3522SOL    HW122028   4.671   4.258  12.559 -1.8357 -0.2547 -0.9874
 3522SOL    HW222029   4.626   4.253  12.420  0.8990 -0.0196 -1.4504
 3523SOL     OW22030   2.171   2.490   6.972 -0.0996 -0.2081  0.0094
 3523SOL    HW122031   2.260   2.468   6.999  0.4916  0.1665 -1.6432
 3523SOL    HW222032   2.152   2.556   7.039  1.5948  0.3088 -0.0399
 3524SOL     OW22033   1.831   3.951  13.081 -0.5233 -0.0499 -0.1619
 3524SOL    HW122034   1.828   3.894  13.158 -1.4534  1.6709  1.0834
 3524SOL    HW222035   1.789   3.898  13.014  2.7882 -2.0853 -0.6621
 3525SOL     OW22036   4.327   2.243  16.352  0.7268 -0.1525  0.5270
 3525SOL    HW122037   4.271   2.303  16.401  0.4948 -2.1928  2.7333
 3525SOL    HW222038   4.321   2.272  16.261 -2.2050  2.1081  1.4290
 3526SOL     OW22039   3.383   0.818   9.679 -0.3299  0.2312  0.7270
 3526SOL    HW122040   3.370   0.909   9.704  0.0144  0.1842  1.0859
 3526SOL    HW222041   3.317   0.766   9.724 -0.4953  0.7439  1.0787
 3527SOL     OW22042   1.882   4.595   4.077  0.2220 -0.4138 -0.1835
 3527SOL    HW122043   1.813   4.591   4.144  1.7386 -1.5241  1.3111
 3527SOL    HW222044   1.826   4.632   4.009 -1.8163 -1.0667  1.1182
 3528SOL     OW22045   0.881   3.332  10.677 -0.3581 -0.1858 -0.5058
 3528SOL    HW122046   0.789   3.355  10.668 -1.0303 -2.0534  1.7413
 3528SOL    HW222047   0.898   3.292  10.592 -0.6314 -0.7524 -0.2890
 3529SOL     OW22048   4.362   3.991   5.485  0.4531  0.1369  0.2654
 3529SOL    HW122049   4.420   3.915   5.484 -0.9273 -0.9470  1.8881
 3529SOL    HW222050   4.331   3.987   5.575  0.1785 -1.0796  0.1277
 3530SOL     OW22051   3.509   0.700  14.402  0.2553  0.1813  0.2280
 3530SOL    HW122052   3.573   0.765  14.375 -0.1345  1.3665  2.1591
 3530SOL    HW222053   3.570   0.631  14.427  2.4130  1.7995 -0.6317
 3531SOL     OW22054   3.217   3.957  11.063 -0.4926  0.0387 -0.0843
 3531SOL    HW122055   3.244   3.916  10.981 -0.0709 -0.8176  0.4818
 3531SOL    HW222056   3.165   3.883  11.094  0.6240 -0.5109  0.4491
 3532SOL     OW22057   1.785   1.578   9.362  0.4915 -0.3075  0.2769
 3532SOL    HW122058   1.804   1.551   9.272 -0.1561 -0.3828  0.1635
 3532SOL    HW222059   1.719   1.646   9.354 -0.5354 -1.3925 -0.5726
 3533SOL     OW22060   1.253   3.765  12.874  0.0745 -0.3739  0.3885
 3533SOL    HW122061   1.235   3.858  12.859 -1.2293 -1.0950 -2.4577
 3533SOL    HW222062   1.200   3.724  12.806  1.2545 -1.9244  0.3974
 3534SOL     OW22063   2.697   4.205   5.849 -0.6105  0.2879 -0.9042
 3534SOL    HW122064   2.613   4.172   5.817 -0.3701 -1.1318 -0.0558
 3534SOL    HW222065   2.689   4.191   5.943  1.2214 -1.7977 -1.0456
 3535SOL     OW22066   3.838   2.501  14.059 -0.1674 -0.0818 -0.2553
 3535SOL    HW122067   3.900   2.571  14.079 -2.6978  1.6109  1.5939
 3535SOL    HW222068   3.755   2.539  14.088 -0.4913 -0.5745 -0.5404
 3536SOL     OW22069   3.775   2.741   1.875 -0.2022  0.2537 -0.2099
 3536SOL    HW122070   3.808   2.817   1.826 -0.3411  0.4210 -0.0447
 3536SOL    HW222071   3.827   2.744   1.956 -0.2443  1.4112 -0.2281
 3537SOL     OW22072   1.983   4.673   1.378 -0.1002  0.2598 -0.0335
 3537SOL    HW122073   1.928   4.681   1.300 -1.0371 -0.0905  0.5879
 3537SOL    HW222074   1.952   4.591   1.416  0.6793  0.3437  0.7727
 3538SOL     OW22075   0.240   1.857   5.161  0.0651 -0.0045 -0.6949
 3538SOL    HW122076   0.318   1.824   5.205 -0.9958  1.5115  2.3689
 3538SOL    HW222077   0.291   1.915   5.104 -0.0788  0.0048 -0.8155
 3539SOL     OW22078   4.693   0.431   7.815  0.7837 -0.0894  0.1148
 3539SOL    HW122079   4.689   0.463   7.905  0.8071  1.0639 -0.2892
 3539SOL    HW222080   0.038   0.361   7.818 -2.8947 -3.4410  1.6662
 3540SOL     OW22081   0.540   2.898   4.960 -0.1435 -0.0908 -0.3058
 3540SOL    HW122082   0.508   2.942   5.039 -0.4469 -0.4069 -0.2550
 3540SOL    HW222083   0.475   2.918   4.893  0.4894  2.6967 -0.1054
 3541SOL     OW22084   4.243   1.023   4.017 -0.1029 -0.0064 -0.2735
 3541SOL    HW122085   4.325   1.070   4.000 -0.0888 -0.4171 -1.3606
 3541SOL    HW222086   4.221   1.047   4.107 -0.3082  0.9502 -0.5793
 3542SOL     OW22087   0.168   1.133   2.334  0.4656 -0.0463  0.8365
 3542SOL    HW122088   0.184   1.050   2.290 -0.8430  0.0312  0.2053
 3542SOL    HW222089   0.087   1.108   2.380  2.2049 -3.0409  2.2118
 3543SOL     OW22090   3.834   4.216   6.242 -0.3957  0.2756  0.8235
 3543SOL    HW122091   3.891   4.155   6.196  2.7991  3.5541  0.4687
 3543SOL    HW222092   3.896   4.286   6.264 -1.3530  1.4355 -0.1668
 3544SOL     OW22093   0.071   3.449   0.149 -0.3755 -0.2789  0.5074
 3544SOL    HW122094   0.069   3.430   0.243 -2.3614 -2.5753 -0.0034
 3544SOL    HW222095   0.113   3.535   0.155  1.0689 -1.0154  0.8793
 3545SOL     OW22096   0.092   0.782   3.957 -0.4767  0.3262  0.2394
 3545SOL    HW122097   0.099   0.693   3.921  1.0250 -0.4680  2.4863
 3545SOL    HW222098   0.039   0.820   3.886  2.4169  2.7689 -0.5706
 3546SOL     OW22099   3.447   0.031   2.859 -0.5465  0.0076  0.0649
 3546SOL    HW122100   3.530   0.059   2.897 -0.9976  2.2781 -0.5565
 3546SOL    HW222101   3.470   0.028   2.766 -2.5120  1.4952 -0.4966
 3547SOL     OW22102   0.940   3.959  16.755  0.0430 -0.0940 -0.6741
 3547SOL    HW122103   0.951   4.053  16.743  0.2894  0.0821  0.9570
 3547SOL    HW222104   0.845   3.955  16.747  0.2364 -2.6472 -1.8786
 3548SOL     OW22105   2.309   3.772   4.696  0.1202  0.2548 -0.4861
 3548SOL    HW122106   2.390   3.733   4.662 -1.0460 -0.9635 -1.8156
 3548SOL    HW222107   2.349   3.842   4.748 -0.2227 -0.6384  0.9553
 3549SOL     OW22108   1.359   2.008   7.086 -0.2226 -0.0946  0.1348
 3549SOL    HW122109   1.284   1.955   7.058 -1.1789  0.8308  0.9411
 3549SOL    HW222110   1.355   1.967   7.172  2.0198 -1.3186 -0.3529
 3550SOL     OW22111   2.465   1.408   4.637 -0.4080 -0.6441 -0.2056
 3550SOL    HW122112   2.425   1.320   4.635 -2.3563  0.2292  0.0287
 3550SOL    HW222113   2.396   1.465   4.605  0.1184 -0.5486 -1.1604
 3551SOL     OW22114   3.907   3.398   4.309 -0.0385  0.2466  0.3741
 3551SOL    HW122115   3.959   3.431   4.383  0.7582  1.1451 -0.5880
 3551SOL    HW222116   3.943   3.456   4.242  0.9422 -0.5705  0.1838
 3552SOL     OW22117   3.230   3.655   2.183 -0.5840 -0.3853 -0.6604
 3552SOL    HW122118   3.255   3.735   2.137 -1.4817  1.0317  1.3393
 3552SOL    HW222119   3.184   3.691   2.259  0.0955  0.1407 -0.5093
 3553SOL     OW22120   3.907   3.941   5.015 -0.5703  0.0222 -0.2768
 3553SOL    HW122121   3.989   3.895   5.034 -1.7919 -1.6795  0.8806
 3553SOL    HW222122   3.883   3.972   5.102 -1.7710  1.6509 -1.1972
 3554SOL     OW22123   3.396   3.970  16.773 -0.1842 -0.2565  0.9093
 3554SOL    HW122124   3.383   3.878  16.752  1.1923 -0.5593  1.4023
 3554SOL    HW222125   3.307   4.005  16.766 -0.3186 -1.0391 -1.4194
 3555SOL     OW22126   3.551   4.617  12.308 -0.1242  0.0642 -0.3241
 3555SOL    HW122127   3.624   4.574  12.264 -1.1908  1.3711 -3.3983
 3555SOL    HW222128   3.523   4.544  12.363 -0.0251  0.8665  0.7848
 3556SOL     OW22129   2.007   3.019  10.929  0.1536 -0.2919 -0.4433
 3556SOL    HW122130   2.026   2.947  10.869 -0.6295 -1.4769  0.7281
 3556SOL    HW222131   1.936   2.982  10.982 -2.8429 -0.9284 -4.8115
 3557SOL     OW22132   2.836   3.387   1.086 -0.2297  0.5220  0.0319
 3557SOL    HW122133   2.813   3.295   1.098 -0.4477  0.6637  0.7357
 3557SOL    HW222134   2.773   3.425   1.147 -0.0754  1.9808 -0.7133
 3558SOL     OW22135   2.769   3.896  17.532  0.2179 -0.8376  0.1120
 3558SOL    HW122136   2.720   3.814  17.538  0.9265 -1.4926 -2.8022
 3558SOL    HW222137   2.859   3.863  17.528 -0.0395 -1.3780 -1.2759
 3559SOL     OW22138   0.986   1.037  16.903 -0.3637  0.5947  0.5932
 3559SOL    HW122139   0.941   0.996  16.829  2.8625 -2.7520  0.5395
 3559SOL    HW222140   0.933   1.113  16.928 -2.1179 -0.5676  0.4766
 3560SOL     OW22141   4.593   4.402   7.421 -0.0565  0.1668  0.1905
 3560SOL    HW122142   4.555   4.326   7.376 -1.6609  0.7565  0.5687
 3560SOL    HW222143   4.540   4.403   7.500 -0.1579 -0.0014  0.1273
 3561SOL     OW22144   1.407   3.980   5.798 -0.4503  0.0146 -0.2810
 3561SOL    HW122145   1.469   3.908   5.787 -0.4829  0.1796 -1.5636
 3561SOL    HW222146   1.399   4.021   5.712 -0.9687 -0.2710 -0.3719
 3562SOL     OW22147   3.651   3.689   5.302  0.5863  0.6880  0.4481
 3562SOL    HW122148   3.681   3.599   5.313 -0.6092  0.4118  1.4515
 3562SOL    HW222149   3.715   3.716   5.236 -1.1211 -1.5991 -2.1448
 3563SOL     OW22150   3.368   1.050  17.032 -0.3317 -0.4857  0.0261
 3563SOL    HW122151   3.338   1.057  17.122 -1.6585  0.7994 -0.5378
 3563SOL    HW222152   3.403   1.136  17.009 -2.1099  0.0629 -0.6345
 3564SOL     OW22153   0.203   2.632  12.455 -0.1235 -0.0231  0.7515
 3564SOL    HW122154   0.258   2.667  12.385  0.1057 -1.2108  0.3401
 3564SOL    HW222155   0.126   2.688  12.445  0.8421  1.2961  0.7840
 3565SOL     OW22156   3.452   0.702  15.926  0.3110  0.0743  0.2908
 3565SOL    HW122157   3.532   0.677  15.973 -0.8735 -1.0806  1.7313
 3565SOL    HW222158   3.407   0.619  15.942  0.9189  0.4617  4.0791
 3566SOL     OW22159   3.427   2.459   1.592  0.1220 -0.4103 -0.1777
 3566SOL    HW122160   3.490   2.504   1.647  1.3493 -3.8827  1.2782
 3566SOL    HW222161   3.480   2.449   1.513  0.3193 -0.5140 -0.0324
 3567SOL     OW22162   0.377   1.369   1.976 -0.2440  0.0215  0.2663
 3567SOL    HW122163   0.443   1.386   1.908 -1.2102 -1.7371 -1.1174
 3567SOL    HW222164   0.356   1.277   1.962 -0.0674 -0.1756  1.3015
 3568SOL     OW22165   2.994   4.542  11.513 -0.3054  0.0230  0.4851
 3568SOL    HW122166   2.969   4.499  11.595  1.2634 -2.7914 -0.5188
 3568SOL    HW222167   3.059   4.474  11.495 -2.4559 -2.0295  0.4484
 3569SOL     OW22168   4.343   2.341   2.112  0.2175 -0.6420  0.2453
 3569SOL    HW122169   4.384   2.315   2.029  0.1718  1.8403 -0.5607
 3569SOL    HW222170   4.304   2.423   2.079 -1.5259 -1.3052  0.6572
 3570SOL     OW22171   0.018   4.058   4.656  0.4970 -0.4648  0.1780
 3570SOL    HW122172   0.033   4.081   4.747  0.4139  1.2199 -0.2282
 3570SOL    HW222173   4.694   3.973   4.660  0.5744 -0.6239 -2.3543
 3571SOL     OW22174   0.113   1.579   4.646  0.0029  0.3880 -0.4439
 3571SOL    HW122175   0.115   1.583   4.550 -1.1891 -2.2843 -0.5569
 3571SOL    HW222176   0.135   1.669   4.670  0.3833 -0.0586  0.8368
 3572SOL     OW22177   0.517   4.521   7.295 -0.2406 -0.3754  0.8962
 3572SOL    HW122178   0.424   4.535   7.316  0.0827  0.9863  1.4194
 3572SOL    HW222179   0.517   4.585   7.224  3.0635 -1.0573  0.3042
 3573SOL     OW22180   2.173   3.373   4.606 -0.2860  0.1688 -0.1384
 3573SOL    HW122181   2.142   3.304   4.548 -0.2484  0.2623 -0.2692
 3573SOL    HW222182   2.235   3.422   4.553 -1.3615  0.5181 -1.0896
 3574SOL     OW22183   0.183   2.915   2.969  0.0510  0.2556 -0.0397
 3574SOL    HW122184   0.189   3.010   2.975 -1.4776  0.3748 -0.3932
 3574SOL    HW222185   0.234   2.891   3.047  3.0077  0.7577 -1.7990
 3575SOL     OW22186   0.211   3.699   3.029 -0.3924  0.1827  0.3095
 3575SOL    HW122187   0.219   3.795   3.034  1.3038  0.1810 -2.1657
 3575SOL    HW222188   0.266   3.684   2.952 -0.7923 -1.2721  0.3114
 3576SOL     OW22189   4.230   3.810   2.524 -1.3149  0.2939  0.1005
 3576SOL    HW122190   4.161   3.798   2.590 -2.4080 -3.3592 -1.7128
 3576SOL    HW222191   4.190   3.868   2.460  1.9038  1.6323 -0.6533
 3577SOL     OW22192   1.789   2.722   8.473 -0.2421 -0.5879  0.1189
 3577SOL    HW122193   1.802   2.808   8.514 -1.6634  0.0451 -0.7529
 3577SOL    HW222194   1.718   2.694   8.531 -1.1110  0.5093 -0.4288
 3578SOL     OW22195   1.638   0.194   4.226  0.1402  0.3027  0.4666
 3578SOL    HW122196   1.620   0.269   4.283 -1.8659 -0.3898  0.7394
 3578SOL    HW222197   1.551   0.181   4.186  0.8640 -1.0339 -0.6671
 3579SOL     OW22198   1.874   3.598   5.768  0.1211  0.4210 -0.1157
 3579SOL    HW122199   1.889   3.619   5.676 -1.9382  2.7760  0.0864
 3579SOL    HW222200   1.953   3.626   5.814  1.1812  0.1922 -1.8126
 3580SOL     OW22201   0.542   1.420  12.569 -0.1931  0.1425 -0.8084
 3580SOL    HW122202   0.550   1.351  12.503  0.6644 -1.1683  0.6552
 3580SOL    HW222203   0.596   1.488  12.529 -0.6750 -0.0459 -1.7697
 3581SOL     OW22204   3.957   1.688  17.634  0.0946  0.1428  0.0009
 3581SOL    HW122205   4.016   1.727   0.016  0.2216 -2.1398  1.2598
 3581SOL    HW222206   3.997   1.612  17.591 -0.7157 -0.6835  0.7209
 3582SOL     OW22207   2.571   2.997  15.034 -0.0899 -0.2549  0.0288
 3582SOL    HW122208   2.604   3.078  14.994 -1.4096 -0.3698 -1.2991
 3582SOL    HW222209   2.576   3.016  15.128  0.2440  0.5478 -0.1526
 3583SOL     OW22210   2.157   3.596   7.855 -0.4385 -0.4623 -0.4316
 3583SOL    HW122211   2.104   3.575   7.932 -0.6606  1.7767  0.0060
 3583SOL    HW222212   2.133   3.687   7.843 -1.4165 -0.7420 -0.5335
 3584SOL     OW22213   2.001   2.106   6.597 -0.5982  0.0965 -0.0732
 3584SOL    HW122214   1.957   2.150   6.670  0.5813 -1.6812  1.6953
 3584SOL    HW222215   1.947   2.029   6.577  0.3675 -0.7736  0.6605
 3585SOL     OW22216   4.337   0.676   0.147 -0.5727 -0.7643  0.3795
 3585SOL    HW122217   4.360   0.761   0.183  0.2331  1.5844 -5.6597
 3585SOL    HW222218   4.338   0.692   0.052 -1.2283  0.4025  0.5793
 3586SOL     OW22219   0.096   2.765  15.317 -0.1756 -0.3934 -0.8804
 3586SOL    HW122220   0.114   2.842  15.262  2.0544 -1.4497 -1.6290
 3586SOL    HW222221   0.100   2.814  15.400 -0.3175 -3.0431  0.6709
 3587SOL     OW22222   1.220   3.939   7.353 -0.0663 -0.5551 -0.1529
 3587SOL    HW122223   1.128   3.912   7.347 -0.3303  0.0790  0.9920
 3587SOL    HW222224   1.253   3.854   7.381  0.4000 -0.7020 -1.1177
 3588SOL     OW22225   1.582   1.603   1.572 -0.1581  0.2232 -0.1554
 3588SOL    HW122226   1.655   1.567   1.623 -0.3683  0.0989  0.0621
 3588SOL    HW222227   1.514   1.617   1.637  1.7877  0.6133  1.7944
 3589SOL     OW22228   3.220   1.348   5.856 -0.2486 -0.4984  0.0392
 3589SOL    HW122229   3.245   1.409   5.926 -2.6499 -0.2490  0.6798
 3589SOL    HW222230   3.151   1.405   5.824  0.9398 -1.1012 -3.5955
 3590SOL     OW22231   3.526   2.434   3.515  0.7278 -0.5083 -0.2615
 3590SOL    HW122232   3.606   2.450   3.566  1.4465 -0.5094 -1.3900
 3590SOL    HW222233   3.565   2.449   3.429  0.7763 -3.0071 -0.6833
 3591SOL     OW22234   0.430   3.706  12.933  0.1041 -0.0146  0.1610
 3591SOL    HW122235   0.443   3.623  12.978  0.0319  1.1467  2.3601
 3591SOL    HW222236   0.492   3.768  12.971  0.0484 -0.0117  0.2479
 3592SOL     OW22237   3.318   3.379   6.135 -0.2329  0.1245  0.2765
 3592SOL    HW122238   3.362   3.405   6.054  1.0234  1.6899  1.4637
 3592SOL    HW222239   3.338   3.287   6.116  2.0287  0.7343 -0.3296
 3593SOL     OW22240   0.317   3.472   0.849 -0.2618  0.3226  0.5731
 3593SOL    HW122241   0.296   3.555   0.807  1.9280 -0.0397 -1.1963
 3593SOL    HW222242   0.393   3.502   0.898 -0.8017  1.2816  0.8260
 3594SOL     OW22243   1.163   4.593  11.639  0.0884  0.4183  0.2722
 3594SOL    HW122244   1.134   4.631  11.722 -2.4700 -0.3619 -0.2623
 3594SOL    HW222245   1.134   4.502  11.642  0.5658  0.2223 -1.3447
 3595SOL     OW22246   1.874   1.214  16.150 -0.4847 -0.4650  0.3378
 3595SOL    HW122247   1.887   1.246  16.239  0.6217  1.1619 -0.4051
 3595SOL    HW222248   1.780   1.234  16.144 -0.8390 -2.3024 -0.1719
 3596SOL     OW22249   0.039   3.332  11.117  0.2923  1.1564 -0.1087
 3596SOL    HW122250   0.111   3.271  11.107  1.5391  2.7906 -1.0232
 3596SOL    HW222251   0.083   3.417  11.113  0.1647  1.2492  0.4301
 3597SOL     OW22252   2.627   3.536   6.018 -0.0783  0.2796  0.2583
 3597SOL    HW122253   2.618   3.566   6.109 -1.2938 -2.9755  1.2136
 3597SOL    HW222254   2.718   3.507   6.022  0.6231  2.3780 -0.7555
 3598SOL     OW22255   1.643   4.699   1.441  0.4204  0.0343  0.2896
 3598SOL    HW122256   1.724   4.649   1.453  0.0212 -0.6020  0.3107
 3598SOL    HW222257   1.569   4.639   1.444  2.8278 -2.8964  1.2958
 3599SOL     OW22258   2.152   3.112  13.280 -0.2545 -0.1895  0.0464
 3599SOL    HW122259   2.125   3.194  13.322  1.2146 -0.9757  2.5511
 3599SOL    HW222260   2.222   3.142  13.222  0.2645  0.7889  1.1678
 3600SOL     OW22261   2.735   1.962   6.589 -0.1801 -0.0217 -0.3626
 3600SOL    HW122262   2.825   1.939   6.565  0.3505  0.5797  1.0146
 3600SOL    HW222263   2.718   2.052   6.561 -0.8485  1.2285  4.0179
 3601SOL     OW22264   4.592   1.195   2.425  0.5776  0.2120 -0.5643
 3601SOL    HW122265   4.594   1.138   2.348  0.1551 -0.0993 -0.3509
 3601SOL    HW222266   4.506   1.237   2.428  0.3677 -0.1673 -1.1813
 3602SOL     OW22267   4.406   4.060   7.521 -0.1969 -0.4485  0.1364
 3602SOL    HW122268   4.407   4.070   7.426  3.2701  0.0405  0.2130
 3602SOL    HW222269   4.366   3.974   7.534 -0.4606 -0.4266 -0.5198
 3603SOL     OW22270   2.374   1.011   8.694  0.4164  0.2300  0.3221
 3603SOL    HW122271   2.294   1.017   8.746  1.4784 -0.2876  1.9989
 3603SOL    HW222272   2.416   0.934   8.731  1.1875 -0.1678 -1.3725
 3604SOL     OW22273   2.692   1.309   6.391  0.1056  0.3278  0.5650
 3604SOL    HW122274   2.651   1.383   6.347 -1.5323 -1.0735 -0.2957
 3604SOL    HW222275   2.762   1.280   6.333  0.9352  0.7075  1.3962
 3605SOL     OW22276   0.210   2.723   8.670  0.0230 -0.0810 -0.6275
 3605SOL    HW122277   0.271   2.675   8.614  0.3984 -1.2977  0.8322
 3605SOL    HW222278   0.216   2.812   8.637 -0.0632  0.9865  2.2766
 3606SOL     OW22279   4.304   0.948  17.646 -0.2542 -0.0022 -0.3006
 3606SOL    HW122280   4.380   1.006  17.649 -0.6390  0.5771 -1.4699
 3606SOL    HW222281   4.301   0.920  17.554 -1.1871  0.4190 -0.4010
 3607SOL     OW22282   1.369   3.327  14.370  0.5683 -0.2959  0.2669
 3607SOL    HW122283   1.359   3.335  14.275 -2.5026  0.1513  0.6279
 3607SOL    HW222284   1.383   3.417  14.401 -2.1838  0.5626 -0.9985
 3608SOL     OW22285   2.005   0.307  10.802  0.1612 -0.1736  0.7006
 3608SOL    HW122286   2.070   0.258  10.851 -0.3189 -1.6500 -0.1439
 3608SOL    HW222287   2.044   0.294  10.716 -0.7043 -1.6137  0.5213
 3609SOL     OW22288   2.304   4.398   2.763 -0.1276  0.3814 -0.2241
 3609SOL    HW122289   2.382   4.452   2.753  0.7026 -1.3054 -2.9372
 3609SOL    HW222290   2.351   4.319   2.789  1.0698  1.8774  2.1227
 3610SOL     OW22291   0.136   3.632   6.059  0.0700  0.5758 -0.0899
 3610SOL    HW122292   0.219   3.599   6.095 -0.1960 -1.2403 -1.1491
 3610SOL    HW222293   0.072   3.613   6.127 -0.6849  0.9081 -0.7132
 3611SOL     OW22294   0.935   1.396  15.274 -0.1326  0.1640 -0.2500
 3611SOL    HW122295   0.984   1.416  15.353 -0.2978 -0.2826 -0.0339
 3611SOL    HW222296   1.003   1.379  15.208  0.0434  1.1611 -0.3252
 3612SOL     OW22297   1.160   0.100   3.854  0.5928  0.2711 -0.2171
 3612SOL    HW122298   1.211   0.136   3.927 -1.1527  1.0510  0.6101
 3612SOL    HW222299   1.074   0.141   3.863  0.1352  0.0013 -3.5264
 3613SOL     OW22300   1.153   1.178   3.564  0.1659 -0.5046  0.2676
 3613SOL    HW122301   1.228   1.231   3.589 -0.3156  1.2217 -1.9233
 3613SOL    HW222302   1.128   1.127   3.641 -0.4057 -1.0687 -0.2816
 3614SOL     OW22303   0.019   2.469   2.910  0.1117 -0.2976 -0.9222
 3614SOL    HW122304   0.079   2.482   2.837  1.2859 -1.0098 -0.1014
 3614SOL    HW222305   0.025   2.560   2.938 -1.4007 -0.5472  0.2192
 3615SOL     OW22306   0.726   4.598   9.726  0.0539  0.1457  0.1711
 3615SOL    HW122307   0.732   4.576   9.633  0.2748  0.2025  0.1708
 3615SOL    HW222308   0.727   4.512   9.769  2.5656  0.6579  1.1515
 3616SOL     OW22309   1.688   3.253   0.039  0.3047  0.3230 -0.0629
 3616SOL    HW122310   1.678   3.172  17.671 -0.9909 -0.5063  1.5431
 3616SOL    HW222311   1.719   3.316  17.655 -2.4313  0.2285 -1.4450
 3617SOL     OW22312   4.562   1.479   2.292 -0.4915  0.0055 -0.0014
 3617SOL    HW122313   4.474   1.453   2.320 -0.8474  1.2331  0.0079
 3617SOL    HW222314   4.573   1.418   2.219  1.1093 -0.2777  0.4626
 3618SOL     OW22315   3.778   2.880   0.592 -0.2482 -0.8996 -0.5725
 3618SOL    HW122316   3.776   2.785   0.588  2.3468 -0.9436 -0.7465
 3618SOL    HW222317   3.788   2.898   0.498 -1.2694 -0.7240 -0.6484
 3619SOL     OW22318   3.452   3.589  16.912  0.3254 -0.1447 -0.3719
 3619SOL    HW122319   3.450   3.625  16.823 -0.1895 -1.0351 -0.7266
 3619SOL    HW222320   3.373   3.630  16.946  3.6529  2.0349  4.7238
 3620SOL     OW22321   3.247   4.686   9.900  0.1408  0.0232  0.0988
 3620SOL    HW122322   3.186   4.614   9.915  1.3599 -0.6976  1.5624
 3620SOL    HW222323   3.193   0.040   9.927  1.2403  1.3970 -1.4449
 3621SOL     OW22324   4.640   2.549   1.628  0.0580  0.1255  0.2636
 3621SOL    HW122325   4.630   2.463   1.668  1.1466  0.4229  1.2073
 3621SOL    HW222326   0.002   2.576   1.670 -0.5148  2.3928 -0.0512
 3622SOL     OW22327   3.976   2.168   3.403 -0.5893  1.0518 -0.3705
 3622SOL    HW122328   4.061   2.136   3.372 -0.4369  0.0757  1.0722
 3622SOL    HW222329   3.946   2.098   3.460  2.8985  0.2789  0.4730
 3623SOL     OW22330   2.161   0.041   3.018  0.2369 -0.1293  0.2316
 3623SOL    HW122331   2.197   0.115   3.066 -3.2333  0.9995  1.0847
 3623SOL    HW222332   2.088   0.083   2.972  0.9999 -0.1664 -1.0116
 3624SOL     OW22333   3.029   2.961   5.717  0.4837  0.3238 -0.4919
 3624SOL    HW122334   3.013   2.976   5.810 -0.4737  2.9120 -1.0650
 3624SOL    HW222335   3.071   3.039   5.680 -2.1950  2.2959  0.6221
 3625SOL     OW22336   0.565   1.984   5.469 -0.1709 -0.3906  0.3107
 3625SOL    HW122337   0.524   2.004   5.553  0.0777 -0.5300  0.4648
 3625SOL    HW222338   0.536   2.057   5.414  2.2801  0.8356  0.6722
 3626SOL     OW22339   3.255   1.817   9.683  0.2117 -0.0294 -0.0107
 3626SOL    HW122340   3.340   1.837   9.642  0.8921 -0.9429  0.9578
 3626SOL    HW222341   3.282   1.735   9.725  0.9347 -1.0041 -2.3699
 3627SOL     OW22342   1.160   0.234  12.094  0.5511 -0.4501  0.3680
 3627SOL    HW122343   1.170   0.229  12.189  0.2369 -0.4244  0.4009
 3627SOL    HW222344   1.246   0.216  12.056  0.9181  0.9904  0.4889
 3628SOL     OW22345   3.437   2.606   2.034 -0.2800 -0.1865  0.3537
 3628SOL    HW122346   3.507   2.599   1.969  0.5775  1.8828  1.0730
 3628SOL    HW222347   3.362   2.555   2.001  1.4678 -2.4705 -0.0684
 3629SOL     OW22348   4.087   2.689  11.832  0.5476  0.3676 -0.1329
 3629SOL    HW122349   4.005   2.657  11.797  0.5867  0.6961 -0.5180
 3629SOL    HW222350   4.139   2.679  11.753  0.3378  1.0217 -0.3598
 3630SOL     OW22351   1.364   1.540   7.646 -0.5353 -0.1244 -0.2236
 3630SOL    HW122352   1.297   1.594   7.688 -1.2192 -0.6443 -0.6465
 3630SOL    HW222353   1.435   1.602   7.630 -1.5243  0.4393 -2.3495
 3631SOL     OW22354   3.263   4.649   6.086  0.1913 -0.3196  0.4004
 3631SOL    HW122355   3.268   4.705   6.009 -0.2728  0.4317  0.9142
 3631SOL    HW222356   3.353   4.620   6.101  0.1222 -0.0704  1.2845
 3632SOL     OW22357   1.227   4.119   4.237 -0.2958 -0.0287  0.5285
 3632SOL    HW122358   1.213   4.064   4.160 -0.5067 -0.3271  0.7822
 3632SOL    HW222359   1.282   4.067   4.296 -1.8397  1.2874  3.1358
 3633SOL     OW22360   2.691   3.002  11.053  0.0521  0.0192  0.8934
 3633SOL    HW122361   2.776   3.018  11.013  0.2555 -3.5987 -0.1054
 3633SOL    HW222362   2.717   2.938  11.119  2.0624 -1.5397 -1.4432
 3634SOL     OW22363   4.185   0.068   1.240 -0.0427  0.4230  0.0575
 3634SOL    HW122364   4.239   0.063   1.319  0.1202 -0.1503 -0.0888
 3634SOL    HW222365   4.172   0.162   1.232  0.6653  0.5730  0.6535
 3635SOL     OW22366   4.064   1.239   4.547  0.4762 -0.0666 -0.5537
 3635SOL    HW122367   3.981   1.245   4.594  0.7107 -2.2103  0.1165
 3635SOL    HW222368   4.100   1.175   4.608 -1.4490 -0.3550  0.2660
 3636SOL     OW22369   3.833   2.666   7.277  0.0096 -0.1101 -0.0763
 3636SOL    HW122370   3.813   2.622   7.360 -0.0502 -1.5632 -0.8661
 3636SOL    HW222371   3.848   2.595   7.215 -0.7633  1.4627 -2.0423
 3637SOL     OW22372   0.776   3.012   6.756  0.4094  0.2016 -0.2240
 3637SOL    HW122373   0.729   3.089   6.724  1.2146  1.1699  0.9012
 3637SOL    HW222374   0.832   3.006   6.679 -0.0427  0.3342 -0.5582
 3638SOL     OW22375   0.701   0.302   7.123 -0.5219 -0.5265  0.2158
 3638SOL    HW122376   0.780   0.335   7.166  0.0994  2.1697 -2.9600
 3638SOL    HW222377   0.674   0.382   7.077  3.0318 -0.3483 -1.5423
 3639SOL     OW22378   1.772   2.178   0.456 -0.0354  0.5167  0.2132
 3639SOL    HW122379   1.724   2.100   0.484 -0.8641  1.1485  0.5632
 3639SOL    HW222380   1.790   2.222   0.539 -0.4918  0.7776  0.1773
 3640SOL     OW22381   3.886   4.362   4.035  0.5313 -0.1380 -0.4961
 3640SOL    HW122382   3.791   4.352   4.032  0.4063  0.4773  1.3132
 3640SOL    HW222383   3.908   4.277   3.998  1.2644 -0.3389  0.3827
 3641SOL     OW22384   1.960   2.520   1.977 -0.4953  0.0416  0.5285
 3641SOL    HW122385   1.918   2.497   1.894 -1.5235  0.0161  1.0535
 3641SOL    HW222386   1.910   2.601   1.992 -0.0234  0.3170  0.6231
 3642SOL     OW22387   2.437   1.349   3.013 -0.0720  0.3326  0.1072
 3642SOL    HW122388   2.484   1.336   3.095 -2.4259  1.3156  1.6011
 3642SOL    HW222389   2.466   1.439   3.002 -2.2215  1.0277  0.0863
 3643SOL     OW22390   1.150   4.568   4.866  0.1746 -0.1721 -0.0198
 3643SOL    HW122391   1.188   4.569   4.778  0.7294  2.3036  0.2430
 3643SOL    HW222392   1.143   4.661   4.889  4.2529  0.2063 -0.2735
 3644SOL     OW22393   0.713   1.569   2.156 -0.5949  0.8863  1.1790
 3644SOL    HW122394   0.703   1.628   2.230  1.5619  2.7246 -0.0080
 3644SOL    HW222395   0.728   1.624   2.079 -0.5944 -1.4867 -0.5212
 3645SOL     OW22396   2.589   3.554   4.180  0.2488  0.3788 -0.7672
 3645SOL    HW122397   2.645   3.501   4.237 -1.5685  0.2888  0.9472
 3645SOL    HW222398   2.652   3.580   4.113  2.3075 -3.0379 -0.1868
 3646SOL     OW22399   2.885   3.934   1.637  0.0088 -0.7927  0.1471
 3646SOL    HW122400   2.913   4.022   1.615  0.4022 -0.9628 -0.0253
 3646SOL    HW222401   2.966   3.884   1.627 -0.4429 -1.7722  1.3226
 3647SOL     OW22402   1.091   0.258   9.422 -0.0634  0.2177 -0.0537
 3647SOL    HW122403   1.133   0.340   9.396  0.7837  0.0414  0.7707
 3647SOL    HW222404   1.039   0.280   9.499  0.9092  0.2785  0.5905
 3648SOL     OW22405   0.368   1.814  15.218 -0.5383 -0.0526  0.3455
 3648SOL    HW122406   0.291   1.871  15.229 -1.4193 -0.8509 -1.6630
 3648SOL    HW222407   0.404   1.807  15.306  2.5419 -1.4506 -1.0499
 3649SOL     OW22408   0.944   2.748   0.557  0.1996  0.3102 -0.7941
 3649SOL    HW122409   0.895   2.804   0.618 -1.2970  0.0692 -1.7909
 3649SOL    HW222410   1.030   2.733   0.598  0.4468  0.3475 -1.2943
 3650SOL     OW22411   4.384   1.397  13.706  0.9007  0.1555  0.0951
 3650SOL    HW122412   4.415   1.400  13.796 -1.2060 -2.2309  0.9158
 3650SOL    HW222413   4.366   1.489  13.691 -1.0807 -0.4628 -1.3720
 3651SOL     OW22414   2.319   0.110   7.255 -0.1041  0.5402  0.0168
 3651SOL    HW122415   2.249   0.173   7.240 -1.8602 -1.4395 -0.1579
 3651SOL    HW222416   2.348   0.085   7.167 -0.3152 -0.9210  0.3519
 3652SOL     OW22417   3.072   4.154   5.101 -0.1258  0.0336  0.0623
 3652SOL    HW122418   3.059   4.059   5.099  1.0203 -0.0718 -2.1295
 3652SOL    HW222419   3.167   4.143   5.109 -0.3923 -1.7424  0.6238
 3653SOL     OW22420   0.852   3.627  13.030  0.0653 -0.0233 -0.1104
 3653SOL    HW122421   0.845   3.533  13.014  0.5518 -0.0407 -0.2276
 3653SOL    HW222422   0.925   3.619  13.092  0.9309  0.2802 -1.0896
 3654SOL     OW22423   3.945   1.305   8.261 -0.4113 -0.3837 -0.1649
 3654SOL    HW122424   3.904   1.363   8.197 -2.4082 -1.2909  0.2944
 3654SOL    HW222425   4.033   1.342   8.252 -0.5498 -0.5987 -2.3090
 3655SOL     OW22426   1.258   4.349  13.675 -0.1404 -0.3925  0.0058
 3655SOL    HW122427   1.170   4.385  13.663  1.8338  4.1199 -0.8557
 3655SOL    HW222428   1.307   4.410  13.620  2.8813 -3.3861 -0.6166
 3656SOL     OW22429   0.155   1.820   4.041  0.7457 -0.3784 -0.1686
 3656SOL    HW122430   0.206   1.778   4.111  0.0101 -1.1233 -0.0682
 3656SOL    HW222431   0.202   1.903   4.038 -0.2540  0.2858  2.2262
 3657SOL     OW22432   0.063   3.570   8.380 -0.1981  1.0310 -0.4292
 3657SOL    HW122433   0.078   3.646   8.436 -2.0786  2.6119 -2.0751
 3657SOL    HW222434   0.028   3.613   8.302 -0.1559  3.8251  1.0719
 3658SOL     OW22435   3.454   4.539   5.802  0.1790  0.4326 -0.2180
 3658SOL    HW122436   3.491   4.601   5.739  0.1844 -1.6426 -2.2411
 3658SOL    HW222437   3.499   4.573   5.879 -1.5461  1.7717  0.1807
 3659SOL     OW22438   1.395   3.199   4.297 -0.3664  0.7318  0.1588
 3659SOL    HW122439   1.387   3.156   4.211  2.4772  2.6571 -1.0714
 3659SOL    HW222440   1.341   3.277   4.284 -1.5923 -0.4766 -2.0831
 3660SOL     OW22441   3.476   3.391   8.541  0.1360  0.4218  0.1990
 3660SOL    HW122442   3.489   3.339   8.620  2.1156  0.9509  0.2480
 3660SOL    HW222443   3.566   3.425   8.537  0.8729 -1.8175 -2.3259
 3661SOL     OW22444   4.174   0.981   7.221  0.5256 -0.7054 -0.6562
 3661SOL    HW122445   4.228   0.914   7.180  2.0773  0.7353 -0.9804
 3661SOL    HW222446   4.106   0.995   7.154 -0.5359 -1.6523  0.2306
 3662SOL     OW22447   1.038   4.312  11.666  0.3098 -0.2510 -0.0645
 3662SOL    HW122448   0.951   4.352  11.669  0.7390  0.6085  1.1695
 3662SOL    HW222449   1.048   4.274  11.579  0.4361  0.9558 -0.5767
 3663SOL     OW22450   4.237   3.030  13.643 -0.1043  0.4743  0.8696
 3663SOL    HW122451   4.303   2.980  13.690  0.0654  1.1627  1.3720
 3663SOL    HW222452   4.278   3.049  13.559  3.0771  0.8524  2.5084
 3664SOL     OW22453   0.856   0.585  16.386 -0.5182 -0.0112  0.2989
 3664SOL    HW122454   0.838   0.666  16.433 -1.3705 -0.6726  1.1033
 3664SOL    HW222455   0.782   0.601  16.327  1.8828  2.4315 -2.0559
 3665SOL     OW22456   1.696   3.049  17.538 -0.1119  0.9236  0.7575
 3665SOL    HW122457   1.743   3.076  17.459 -0.3716 -0.6853  0.0467
 3665SOL    HW222458   1.714   2.955  17.540 -2.0213  0.5687  1.6919
 3666SOL     OW22459   1.550   2.921   0.124 -0.0999 -0.6801  0.5180
 3666SOL    HW122460   1.464   2.956   0.146 -0.4703 -0.6647 -0.9365
 3666SOL    HW222461   1.531   2.837   0.080 -0.8161 -0.1653 -0.1558
 3667SOL     OW22462   0.621   1.684   4.392  0.0937  0.9539 -0.0394
 3667SOL    HW122463   0.612   1.755   4.456  0.3502 -0.7125  1.8705
 3667SOL    HW222464   0.680   1.627   4.441  0.2873  0.2367 -1.1160
 3668SOL     OW22465   3.498   0.842  14.058  0.3469  0.4603  0.2058
 3668SOL    HW122466   3.418   0.833  14.111  0.7673 -0.4524  0.6792
 3668SOL    HW222467   3.470   0.906  13.992 -0.5539  0.7149  0.8333
 3669SOL     OW22468   3.152   3.393  11.443 -0.1125  0.1725  0.5869
 3669SOL    HW122469   3.175   3.300  11.441  0.4159  0.3642 -1.6121
 3669SOL    HW222470   3.216   3.423  11.507  0.6035  0.2317 -0.1625
 3670SOL     OW22471   2.938   2.685   6.047 -0.6878 -0.0833  0.3922
 3670SOL    HW122472   2.966   2.673   6.138 -1.0155  1.2062  0.6756
 3670SOL    HW222473   2.860   2.631   6.043 -1.7360  1.6037 -1.8631
 3671SOL     OW22474   2.262   1.537   5.087 -0.5215 -0.2113  0.0874
 3671SOL    HW122475   2.350   1.542   5.125  0.3932 -0.7775 -1.9454
 3671SOL    HW222476   2.256   1.599   5.014 -1.1076 -0.6606 -0.2412
 3672SOL     OW22477   2.865   2.922  13.276 -0.1607  0.1625  0.3989
 3672SOL    HW122478   2.913   2.911  13.358  2.7715  0.6129 -1.2717
 3672SOL    HW222479   2.903   3.000  13.236 -0.6711 -1.1560 -2.6649
 3673SOL     OW22480   2.503   2.537   2.470 -0.0532  0.1247  0.7632
 3673SOL    HW122481   2.518   2.479   2.545  1.1334  2.5717  2.4256
 3673SOL    HW222482   2.561   2.606   2.502 -0.8553  1.4369 -0.6402
 3674SOL     OW22483   1.262   0.290   8.970 -0.0554  0.4099  0.3707
 3674SOL    HW122484   1.346   0.310   9.011 -0.7281  2.6382  0.6582
 3674SOL    HW222485   1.219   0.246   9.045  1.2803  0.5476  1.2094
 3675SOL     OW22486   1.036   0.415   1.135  0.7038 -0.2172  0.1604
 3675SOL    HW122487   1.011   0.322   1.137  2.7297 -0.7579  0.4579
 3675SOL    HW222488   0.986   0.448   1.061  1.5365  0.1894 -0.2213
 3676SOL     OW22489   1.236   3.491   8.208  0.0121  0.1708 -0.7667
 3676SOL    HW122490   1.169   3.449   8.262  0.2819 -1.0818 -1.3901
 3676SOL    HW222491   1.269   3.557   8.268 -1.9866  0.3901  0.0728
 3677SOL     OW22492   1.367   2.223   6.904 -0.2722 -0.8017 -0.2034
 3677SOL    HW122493   1.370   2.147   6.963 -0.1756  0.4303  1.3571
 3677SOL    HW222494   1.273   2.240   6.906  0.0835  1.2076 -0.5365
 3678SOL     OW22495   4.508   1.987   3.509 -0.0225  0.1192 -0.2091
 3678SOL    HW122496   4.493   1.998   3.603  1.0930  1.0104 -0.1289
 3678SOL    HW222497   4.604   1.998   3.512  0.0547 -0.6723  0.2317
 3679SOL     OW22498   0.714   3.544   8.911  0.6645  0.0128  0.2039
 3679SOL    HW122499   0.645   3.478   8.916  0.7069  0.0724  1.4946
 3679SOL    HW222500   0.725   3.565   9.003  0.2580  1.2179 -0.0197
 3680SOL     OW22501   1.328   3.231   4.596 -0.0158 -0.3756  0.4002
 3680SOL    HW122502   1.406   3.198   4.550  0.8830  2.1211  0.1250
 3680SOL    HW222503   1.374   3.294   4.652 -1.6621  1.3312 -0.1777
 3681SOL     OW22504   1.406   0.808   9.077  0.4458 -0.5695  0.2396
 3681SOL    HW122505   1.399   0.903   9.082  2.9309 -0.3302 -0.7318
 3681SOL    HW222506   1.500   0.806   9.096  0.4542  1.5241  0.3709
 3682SOL     OW22507   2.677   1.694   0.712  0.1107 -0.4703  0.1107
 3682SOL    HW122508   2.658   1.605   0.740 -1.5421  0.4477  1.8219
 3682SOL    HW222509   2.738   1.673   0.640  2.8184  3.7156  1.1543
 3683SOL     OW22510   3.289   3.109   4.829  0.1171  0.2358 -0.0745
 3683SOL    HW122511   3.280   3.026   4.876 -0.4316  0.0519 -0.5030
 3683SOL    HW222512   3.236   3.093   4.751  1.9747  0.9619 -1.4694
 3684SOL     OW22513   3.010   2.198   3.059 -0.1669 -0.4499 -0.7200
 3684SOL    HW122514   3.099   2.204   3.096 -0.1162  2.1572 -1.2689
 3684SOL    HW222515   3.032   2.201   2.966 -1.2637  3.2984 -0.8744
 3685SOL     OW22516   3.091   0.424   4.245  0.7160 -0.1903  0.1041
 3685SOL    HW122517   3.001   0.449   4.224  0.7218  0.9711  1.4418
 3685SOL    HW222518   3.146   0.475   4.186  2.0677 -2.3311 -0.4922
 3686SOL     OW22519   2.297   1.574   4.491 -0.1239  0.5589  0.1209
 3686SOL    HW122520   2.281   1.668   4.480  0.8910  0.8659  1.3493
 3686SOL    HW222521   2.343   1.546   4.412  1.5086  3.0634  0.1829
 3687SOL     OW22522   1.593   4.620   8.242  0.3040  0.0196  0.0709
 3687SOL    HW122523   1.523   4.673   8.204 -1.2416 -2.3506 -0.3859
 3687SOL    HW222524   1.543   4.558   8.295  1.6310  0.2471  1.5774
 3688SOL     OW22525   2.639   3.784   7.859 -0.5616 -0.2826 -0.1364
 3688SOL    HW122526   2.557   3.735   7.871  1.5989 -4.2186 -1.2871
 3688SOL    HW222527   2.630   3.856   7.921  1.9579 -1.3053  1.4064
 3689SOL     OW22528   0.994   3.042   0.454 -0.1902  0.0179 -0.2696
 3689SOL    HW122529   0.904   3.008   0.449 -0.7034  1.3393 -0.0391
 3689SOL    HW222530   1.022   3.045   0.363 -2.0384 -2.0585 -0.8908
 3690SOL     OW22531   4.608   4.570  15.884 -0.1163  0.2537  0.0018
 3690SOL    HW122532   4.634   4.580  15.793  0.5939 -1.8346 -0.0156
 3690SOL    HW222533   4.515   4.563  15.865 -0.1251 -1.6460  0.7319
 3691SOL     OW22534   1.138   4.050   6.419 -0.1820 -0.3281 -0.1982
 3691SOL    HW122535   1.042   4.058   6.425  0.2055  3.7546  0.6944
 3691SOL    HW222536   1.140   4.097   6.336  0.8045  0.3464  0.2142
 3692SOL     OW22537   2.205   3.237   1.218 -0.0414 -0.2165  0.4891
 3692SOL    HW122538   2.295   3.252   1.191  0.6062  1.4802  3.6541
 3692SOL    HW222539   2.154   3.248   1.137  0.4759 -0.2294  0.1625
 3693SOL     OW22540   1.571   3.060   4.959 -0.3223 -0.0908 -0.0134
 3693SOL    HW122541   1.624   3.089   5.033 -0.0860 -1.2989  0.2966
 3693SOL    HW222542   1.631   2.994   4.925 -0.2225 -0.5989  1.1373
 3694SOL     OW22543   2.675   3.246   4.045 -0.7369 -0.1895 -0.1919
 3694SOL    HW122544   2.592   3.197   4.044 -0.4369 -0.7056  0.3939
 3694SOL    HW222545   2.676   3.272   4.137  1.3144  1.2705 -0.6379
 3695SOL     OW22546   4.637   2.975   7.846  0.3912 -0.2091 -0.1093
 3695SOL    HW122547   4.690   2.982   7.767  2.0560  1.0339  1.1186
 3695SOL    HW222548   4.578   2.907   7.813 -1.1267  1.1366 -0.1935
 3696SOL     OW22549   0.729   1.641  12.633 -0.3988 -0.1249  0.0935
 3696SOL    HW122550   0.799   1.646  12.698  0.0471 -2.2767 -0.2123
 3696SOL    HW222551   0.777   1.686  12.563  0.5857 -1.0528  0.1740
 3697SOL     OW22552   2.337   3.039   0.129 -0.5094  0.2916  0.4229
 3697SOL    HW122553   2.280   3.098   0.081 -1.3760  1.8820  3.3913
 3697SOL    HW222554   2.422   3.082   0.138 -0.3502 -0.4045  2.3102
 3698SOL     OW22555   1.589   0.155   2.486 -0.3620 -0.3345  0.2279
 3698SOL    HW122556   1.655   0.224   2.477 -1.7774  1.2270  1.7457
 3698SOL    HW222557   1.573   0.138   2.579 -3.0241  0.7665 -0.0134
 3699SOL     OW22558   1.821   4.582   5.064 -0.0751  0.4304 -0.3220
 3699SOL    HW122559   1.908   4.604   5.031  0.0455 -0.1702 -0.4036
 3699SOL    HW222560   1.829   4.492   5.094 -3.1454  0.2374 -0.0783
 3700SOL     OW22561   0.368   1.214   9.439 -0.3570 -0.3585 -0.0941
 3700SOL    HW122562   0.355   1.298   9.395  0.0530 -0.5794 -0.6214
 3700SOL    HW222563   0.299   1.167   9.392  0.1357 -1.7213  0.5419
 3701SOL     OW22564   2.048   3.838   5.346  0.2280 -0.6117 -0.0076
 3701SOL    HW122565   2.140   3.836   5.374  0.2557 -0.6680 -0.1025
 3701SOL    HW222566   2.051   3.751   5.306 -1.3039 -1.0929  0.9620
 3702SOL     OW22567   0.644   0.668   4.532 -0.2898  0.0081 -0.5103
 3702SOL    HW122568   0.621   0.748   4.580 -0.1693 -0.7497  0.8219
 3702SOL    HW222569   0.586   0.611   4.583 -0.6348 -0.1494 -1.0839
 3703SOL     OW22570   1.331   1.675   9.936  0.0600 -0.7387 -0.3190
 3703SOL    HW122571   1.397   1.643   9.874  1.8576  3.1504 -0.4040
 3703SOL    HW222572   1.349   1.635  10.021 -1.1732 -0.2781  0.1623
 3704SOL     OW22573   1.334   0.521  11.912 -0.2650  0.3914 -0.5654
 3704SOL    HW122574   1.419   0.486  11.885  0.4217  0.7068  1.1543
 3704SOL    HW222575   1.298   0.536  11.825 -1.3560 -1.3161 -0.3961
 3705SOL     OW22576   4.157   2.519  15.202 -0.8562  0.4324 -0.0941
 3705SOL    HW122577   4.201   2.452  15.253 -2.1077  0.2403  0.7375
 3705SOL    HW222578   4.187   2.599  15.244  1.9411 -1.4459  1.4465
 3706SOL     OW22579   4.369   1.056   5.278 -0.6527 -0.3051  0.2558
 3706SOL    HW122580   4.393   1.040   5.187  2.0219  2.6582  0.4513
 3706SOL    HW222581   4.273   1.060   5.276 -0.5786  2.1245  1.2443
 3707SOL     OW22582   1.408   3.094   8.738 -0.3733 -0.0631 -0.5610
 3707SOL    HW122583   1.357   3.166   8.776 -0.3594 -0.1830 -0.3138
 3707SOL    HW222584   1.333   3.034   8.735  0.0650 -0.7360  1.6087
 3708SOL     OW22585   0.738   0.185   3.282 -0.4711  0.7225 -0.3937
 3708SOL    HW122586   0.790   0.259   3.249  0.3265 -0.0724 -0.9139
 3708SOL    HW222587   0.678   0.239   3.334  1.9541  0.7716  2.3944
 3709SOL     OW22588   4.333   4.590   7.930  0.0946  0.3874 -0.0613
 3709SOL    HW122589   4.257   4.550   7.972  0.5471 -0.4906 -0.0743
 3709SOL    HW222590   4.386   4.512   7.913  1.6225  0.6065  3.7434
 3710SOL     OW22591   4.335   3.665  14.999  0.1642 -0.5196  0.2707
 3710SOL    HW122592   4.276   3.660  14.924  0.2110  0.9767  0.1251
 3710SOL    HW222593   4.420   3.693  14.965 -0.1242 -1.3358 -1.0936
 3711SOL     OW22594   2.279   3.216  14.458 -0.5503 -0.0833  0.3775
 3711SOL    HW122595   2.219   3.288  14.478  1.2309  1.6077 -0.4071
 3711SOL    HW222596   2.330   3.217  14.539  1.2511 -2.2002 -0.7304
 3712SOL     OW22597   2.349   4.184   4.555  0.0546  0.5544  0.3160
 3712SOL    HW122598   2.394   4.141   4.482  0.6526 -0.3430  1.2277
 3712SOL    HW222599   2.418   4.205   4.617  0.7027 -1.5544  0.3005
 3713SOL     OW22600   2.475   3.662  14.786  0.0146  0.4215 -0.0646
 3713SOL    HW122601   2.520   3.612  14.719  1.3434  0.4077  0.8306
 3713SOL    HW222602   2.456   3.595  14.852  4.0651 -0.1503  0.5377
 3714SOL     OW22603   4.164   0.542   6.632  0.4184 -0.1703  0.3586
 3714SOL    HW122604   4.077   0.502   6.630  0.4238 -0.2188  1.2535
 3714SOL    HW222605   4.226   0.474   6.658  0.1343 -0.6903 -0.2954
 3715SOL     OW22606   1.612   4.375   6.306  0.0301  0.0542 -0.2186
 3715SOL    HW122607   1.698   4.352   6.342 -1.0794 -0.5332  2.0412
 3715SOL    HW222608   1.646   4.411   6.224 -1.2691  1.1910 -0.2747
 3716SOL     OW22609   0.121   2.861   8.341  0.0076 -0.2083  0.1073
 3716SOL    HW122610   0.084   2.920   8.275 -2.4982  1.6490  3.1456
 3716SOL    HW222611   0.105   2.904   8.425 -1.7033 -3.6987  1.5448
 3717SOL     OW22612   3.128   4.554   0.543 -0.7793 -0.3950  0.6238
 3717SOL    HW122613   3.088   4.481   0.497  1.0315  0.2521 -1.9422
 3717SOL    HW222614   3.099   4.540   0.634 -2.6792 -0.1929  0.0472
 3718SOL     OW22615   0.599   1.224  14.342 -0.0086  0.1069  0.0561
 3718SOL    HW122616   0.680   1.184  14.373 -1.3864 -1.3191  1.8566
 3718SOL    HW222617   0.576   1.157  14.278 -1.9176 -0.8955  1.7812
 3719SOL     OW22618   1.225   0.720  11.020 -0.9675  0.2073 -0.0167
 3719SOL    HW122619   1.217   0.640  10.969 -0.7429  0.6617 -0.7575
 3719SOL    HW222620   1.205   0.785  10.953  2.1421  0.5595 -0.5953
 3720SOL     OW22621   2.371   3.835  17.418 -0.0526 -0.3952  0.3626
 3720SOL    HW122622   2.311   3.907  17.433  1.1102  0.4271  1.1023
 3720SOL    HW222623   2.444   3.877  17.372 -0.1828 -1.3249 -0.6989
 3721SOL     OW22624   4.523   0.885   6.860  0.2893  0.1100  0.5460
 3721SOL    HW122625   4.586   0.853   6.795 -0.0416 -1.7822  1.1495
 3721SOL    HW222626   4.581   0.895   6.935 -1.8812  1.5662  2.0227
 3722SOL     OW22627   1.079   3.487   6.282  0.2022 -0.3900  0.4232
 3722SOL    HW122628   1.155   3.429   6.289 -0.6959 -1.6505 -0.4638
 3722SOL    HW222629   1.057   3.497   6.190  0.2173 -0.3092  0.4283
 3723SOL     OW22630   2.111   4.277   5.351  0.8085 -0.5037 -0.1085
 3723SOL    HW122631   2.139   4.323   5.430 -0.4853  2.0614 -1.1534
 3723SOL    HW222632   2.017   4.279   5.366  0.8250 -1.3895  0.1076
 3724SOL     OW22633   0.427   0.179   5.620 -0.1995 -0.2335  0.3372
 3724SOL    HW122634   0.491   0.199   5.552  0.8822  1.2847  1.8173
 3724SOL    HW222635   0.470   0.099   5.651 -0.2578 -0.7216 -0.8475
 3725SOL     OW22636   1.104   0.048   4.442 -0.1671 -0.6478  0.2230
 3725SOL    HW122637   1.132   4.694   4.496 -1.0435 -2.2816 -1.5455
 3725SOL    HW222638   1.085   0.005   4.358 -2.0350 -0.2033  0.4265
 3726SOL     OW22639   1.867   3.324   8.494  0.8752 -0.1449 -1.0884
 3726SOL    HW122640   1.940   3.264   8.477  0.8725 -0.4367 -0.0525
 3726SOL    HW222641   1.810   3.259   8.536  0.0323  2.6099  1.9819
 3727SOL     OW22642   2.487   4.090   3.633  0.4040  0.3850 -0.5206
 3727SOL    HW122643   2.531   4.112   3.715 -1.1941 -1.8339  0.9356
 3727SOL    HW222644   2.454   4.177   3.610  0.2023  0.0366 -1.5274
 3728SOL     OW22645   0.978   1.447   6.663  0.0353 -0.0493 -0.2709
 3728SOL    HW122646   0.885   1.426   6.667  0.1902 -1.0418 -1.6305
 3728SOL    HW222647   0.988   1.448   6.567 -0.0984 -0.9130 -0.2920
 3729SOL     OW22648   2.504   4.704   3.252  0.1652  0.8834 -0.2517
 3729SOL    HW122649   2.549   0.033   3.321 -1.2729  1.0993  0.5402
 3729SOL    HW222650   2.414   0.012   3.270 -0.2577  0.6066 -1.9189
 3730SOL     OW22651   3.223   2.343   3.794 -0.1012 -0.8266  0.1333
 3730SOL    HW122652   3.207   2.413   3.730 -1.1327 -1.4392 -0.2867
 3730SOL    HW222653   3.260   2.273   3.740 -0.4265 -1.4847  0.7698
 3731SOL     OW22654   1.376   0.605   6.868 -0.2274 -0.0680 -0.7241
 3731SOL    HW122655   1.310   0.538   6.854 -0.3164 -0.0302 -0.4883
 3731SOL    HW222656   1.321   0.679   6.894  0.3802  0.5372 -1.1568
 3732SOL     OW22657   1.039   3.597   0.360  0.2183 -0.1452 -0.0982
 3732SOL    HW122658   1.012   3.638   0.442 -0.9806  1.1042 -1.1195
 3732SOL    HW222659   0.990   3.645   0.294 -1.2839 -2.2365 -0.4908
 3733SOL     OW22660   3.854   3.342   3.606  0.3169 -0.0606  0.8730
 3733SOL    HW122661   3.808   3.301   3.679 -2.1129 -0.1754 -0.7376
 3733SOL    HW222662   3.840   3.274   3.540 -0.5354 -0.2670  1.2630
 3734SOL     OW22663   0.107   0.704  17.348 -0.2410 -0.5768  0.1562
 3734SOL    HW122664   0.105   0.618  17.390  2.5421  0.8930  3.3563
 3734SOL    HW222665   0.202   0.719  17.342  0.0423 -2.0351  0.8559
 3735SOL     OW22666   2.764   3.961   1.251  0.1261  0.5303 -0.3556
 3735SOL    HW122667   2.759   3.894   1.183  1.2301 -0.7849  0.8614
 3735SOL    HW222668   2.676   3.979   1.283 -0.1415  2.7018 -2.3134
 3736SOL     OW22669   4.022   2.752   0.446  0.1430 -0.6829  0.0609
 3736SOL    HW122670   4.068   2.692   0.386  1.6424  2.6761 -2.1319
 3736SOL    HW222671   3.950   2.697   0.476 -2.0547  1.9092 -0.5313
 3737SOL     OW22672   3.645   1.849   4.924  0.4853 -0.0302  0.6046
 3737SOL    HW122673   3.723   1.895   4.954 -0.6588  1.9778  0.4960
 3737SOL    HW222674   3.578   1.898   4.971 -0.2492 -0.6559  0.2063
 3738SOL     OW22675   0.593   1.914   6.292 -0.2700 -0.0252 -0.1582
 3738SOL    HW122676   0.510   1.890   6.334 -1.6473  2.7739 -1.2340
 3738SOL    HW222677   0.659   1.883   6.353  0.1829  1.7727  0.2508
 3739SOL     OW22678   0.907   4.433   7.572 -0.1338  0.5055  0.2636
 3739SOL    HW122679   0.984   4.487   7.552  1.6810 -2.5856 -1.0922
 3739SOL    HW222680   0.944   4.351   7.539  0.0274  0.1674  1.2989
 3740SOL     OW22681   3.798   2.274   9.170  0.3586 -0.2485  0.2331
 3740SOL    HW122682   3.779   2.191   9.213  0.1044 -1.4578 -2.2342
 3740SOL    HW222683   3.773   2.251   9.080 -1.1012  1.4845  0.1885
 3741SOL     OW22684   1.800   3.805   3.947  0.5807 -0.2733 -0.5377
 3741SOL    HW122685   1.718   3.792   3.899  0.4850  0.1664 -0.4962
 3741SOL    HW222686   1.774   3.873   4.010  2.0212 -0.2959  0.0608
 3742SOL     OW22687   1.627   1.231  12.469  0.0733 -0.0305  0.4214
 3742SOL    HW122688   1.576   1.160  12.508 -0.8467  0.6397  0.4187
 3742SOL    HW222689   1.654   1.193  12.385  1.1100  2.3966 -0.3405
 3743SOL     OW22690   2.674   0.538   1.166  0.3768  0.3218  0.7370
 3743SOL    HW122691   2.728   0.504   1.238  1.8207  1.1089  0.0230
 3743SOL    HW222692   2.633   0.455   1.144  0.3841  0.7436 -0.8408
 3744SOL     OW22693   2.162   0.628   6.723 -0.0503 -0.1692 -0.3558
 3744SOL    HW122694   2.125   0.686   6.656  1.9986  0.4434 -0.9464
 3744SOL    HW222695   2.199   0.556   6.672  0.6637  0.5755 -0.8820
 3745SOL     OW22696   2.795   1.611  15.519 -0.2958  0.4484 -0.4007
 3745SOL    HW122697   2.754   1.539  15.566 -1.8524  0.3766 -1.8679
 3745SOL    HW222698   2.839   1.656  15.591 -0.5388  1.7390 -1.0614
 3746SOL     OW22699   2.787   2.218  12.901  0.0012 -0.0653  0.1289
 3746SOL    HW122700   2.772   2.241  12.809 -0.2101  1.7599  0.6205
 3746SOL    HW222701   2.882   2.230  12.897  0.1794 -1.9419 -1.5730
 3747SOL     OW22702   0.168   1.044  15.304 -0.3126 -0.1555  0.6250
 3747SOL    HW122703   0.152   1.023  15.212  1.6235 -1.2789  0.5585
 3747SOL    HW222704   0.259   1.072  15.304 -1.1013  2.5303 -2.6896
 3748SOL     OW22705   2.299   1.660  11.901 -0.3359 -0.4981 -0.4441
 3748SOL    HW122706   2.206   1.666  11.879 -0.4308 -3.8716 -0.9250
 3748SOL    HW222707   2.332   1.746  11.875 -0.4082 -0.4843 -0.4906
 3749SOL     OW22708   3.221   0.805  17.009  0.5310 -0.0441 -0.3898
 3749SOL    HW122709   3.239   0.782  17.100 -0.4999 -2.6526 -0.8572
 3749SOL    HW222710   3.229   0.900  17.023  0.2981 -0.0716 -0.0598
 3750SOL     OW22711   1.131   4.410   9.835  0.7873  0.4307 -0.2126
 3750SOL    HW122712   1.061   4.454   9.883  1.1316 -0.7861  1.4151
 3750SOL    HW222713   1.098   4.412   9.745 -1.6201 -1.4332  0.6010
 3751SOL     OW22714   2.447   1.190  11.187  0.2587  0.8520 -0.0018
 3751SOL    HW122715   2.472   1.205  11.279 -0.4587  0.8092  0.2019
 3751SOL    HW222716   2.351   1.183  11.189  0.2263  1.0383 -1.0253
 3752SOL     OW22717   1.070   2.278   5.445  0.0839 -0.1599 -0.4067
 3752SOL    HW122718   1.027   2.202   5.484  2.0662 -1.7371 -1.3193
 3752SOL    HW222719   1.092   2.324   5.526  0.8793 -0.0705 -0.6678
 3753SOL     OW22720   0.490   1.493  13.768  0.5344 -0.3012 -0.8786
 3753SOL    HW122721   0.582   1.489  13.744  0.9299 -0.2140  0.6092
 3753SOL    HW222722   0.449   1.480  13.683 -1.7982 -0.3618  0.2304
 3754SOL     OW22723   4.212   3.860   7.483 -0.0562 -0.1381 -0.0662
 3754SOL    HW122724   4.131   3.810   7.494 -0.7565  0.9840 -0.0184
 3754SOL    HW222725   4.250   3.832   7.400 -0.3929  1.6811 -0.8474
 3755SOL     OW22726   0.030   2.243   3.065 -1.0527 -0.4090 -0.1259
 3755SOL    HW122727   4.705   2.187   3.001 -0.1180  1.3567 -2.3304
 3755SOL    HW222728   0.024   2.329   3.024  1.4652  0.4642  1.3031
 3756SOL     OW22729   2.101   3.857  17.155 -0.4820  0.1460  0.0272
 3756SOL    HW122730   2.054   3.921  17.102  1.3006 -0.3034 -2.0639
 3756SOL    HW222731   2.178   3.898  17.194  1.1191 -3.3312  0.4735
 3757SOL     OW22732   3.028   1.652  14.425 -0.2520  0.4794  0.1760
 3757SOL    HW122733   3.120   1.668  14.404 -0.5368 -1.7207 -2.6796
 3757SOL    HW222734   3.002   1.741  14.450 -1.7260  0.3059 -0.7785
 3758SOL     OW22735   3.566   0.474   2.226 -0.4395 -0.3589 -0.7515
 3758SOL    HW122736   3.566   0.378   2.235  1.0241 -0.1477  1.4261
 3758SOL    HW222737   3.562   0.485   2.131 -1.7256  1.3588 -0.4898
 3759SOL     OW22738   1.110   3.359  11.932  0.3298  0.2440  0.2532
 3759SOL    HW122739   1.154   3.438  11.962 -0.1253  0.3949  0.5142
 3759SOL    HW222740   1.105   3.356  11.836  1.1214  1.1432  0.1858
 3760SOL     OW22741   1.016   4.635   5.153 -0.0748  0.2606 -0.4161
 3760SOL    HW122742   0.944   4.574   5.138  0.5334 -0.7727  0.8470
 3760SOL    HW222743   1.084   4.612   5.090  1.3413  1.2260  0.7633
 3761SOL     OW22744   4.283   1.548   1.595  0.3489 -0.2113 -0.2925
 3761SOL    HW122745   4.216   1.594   1.646 -0.8698 -0.2436 -1.8566
 3761SOL    HW222746   4.323   1.500   1.667 -2.4313 -0.9626  0.7547
 3762SOL     OW22747   3.940   3.875   5.511  0.1081  0.5140  0.4523
 3762SOL    HW122748   3.973   3.962   5.531 -0.0506  0.6385  0.1790
 3762SOL    HW222749   3.892   3.851   5.590 -1.5176 -0.5355 -0.8354
 3763SOL     OW22750   1.072   4.197   4.464  0.0646 -0.2818 -0.2968
 3763SOL    HW122751   0.999   4.231   4.413  0.7081  1.0966 -0.2897
 3763SOL    HW222752   1.139   4.189   4.396 -0.9148  1.0543 -1.4231
 3764SOL     OW22753   1.794   4.157   2.148  0.0760  0.1151  0.1188
 3764SOL    HW122754   1.776   4.169   2.242  0.4450 -0.8341  0.3073
 3764SOL    HW222755   1.741   4.077   2.145  0.8719 -0.4136  0.2596
 3765SOL     OW22756   3.047   2.614   2.818  0.8385 -0.1110  0.4967
 3765SOL    HW122757   3.126   2.574   2.781 -0.6437  2.0984 -5.0066
 3765SOL    HW222758   3.024   2.651   2.733  2.2762 -1.4725 -0.4947
 3766SOL     OW22759   2.452   0.489   8.758  0.1689 -0.3424  0.6360
 3766SOL    HW122760   2.489   0.401   8.747  0.2043 -0.3963  1.2188
 3766SOL    HW222761   2.392   0.472   8.830  0.7031 -1.0325  0.9158
 3767SOL     OW22762   2.451   0.974   3.655  0.7310  0.1311  0.2453
 3767SOL    HW122763   2.456   0.999   3.748 -1.5188  2.0067 -0.1518
 3767SOL    HW222764   2.406   0.890   3.652 -0.1123  0.4664  3.1943
 3768SOL     OW22765   4.543   4.151   1.011 -0.1164  0.4580 -0.5384
 3768SOL    HW122766   4.466   4.110   0.973  0.9919 -0.4602 -1.7966
 3768SOL    HW222767   4.603   4.122   0.943  0.3671 -0.6120  0.3485
 3769SOL     OW22768   4.550   1.503   8.526 -0.4854 -0.2575 -0.0432
 3769SOL    HW122769   4.579   1.460   8.606  1.2851 -1.3848 -1.2804
 3769SOL    HW222770   4.466   1.458   8.515 -0.7052  0.4125 -1.1321
 3770SOL     OW22771   3.812   4.575   7.691 -0.3712  0.1727 -0.3543
 3770SOL    HW122772   3.839   4.484   7.707 -0.1679  0.5201  1.2551
 3770SOL    HW222773   3.880   4.617   7.744 -1.6655 -0.0887  1.4984
 3771SOL     OW22774   2.206   1.238   2.718  0.0148 -0.5089 -0.4994
 3771SOL    HW122775   2.269   1.310   2.718  1.2153 -1.5861  1.4428
 3771SOL    HW222776   2.156   1.263   2.796 -2.7489 -0.0322 -2.4189
 3772SOL     OW22777   3.123   4.632   3.788 -0.4780 -0.6075 -0.2907
 3772SOL    HW122778   3.098   4.688   3.715 -1.7856  1.5957  1.8251
 3772SOL    HW222779   3.168   4.571   3.730 -1.0580 -1.2515 -0.0605
 3773SOL     OW22780   2.123   2.001  11.810 -0.7201 -0.1809  0.1244
 3773SOL    HW122781   2.079   1.947  11.876 -1.9283 -0.5129 -0.9490
 3773SOL    HW222782   2.201   2.029  11.858  0.2101 -2.3628 -0.1264
 3774SOL     OW22783   2.301   3.820   1.242 -0.2757 -0.2897  0.5288
 3774SOL    HW122784   2.308   3.848   1.150  0.5605  0.0990  0.7168
 3774SOL    HW222785   2.235   3.751   1.232  1.2712 -1.7039  0.0482
 3775SOL     OW22786   4.530   0.596   6.699 -0.1797  0.5859 -0.1781
 3775SOL    HW122787   4.494   0.626   6.616 -0.0580  1.6304  0.1404
 3775SOL    HW222788   4.475   0.641   6.763  0.4822  0.4359  0.4980
 3776SOL     OW22789   3.817   2.103   8.485 -0.6980  0.2291  1.2467
 3776SOL    HW122790   3.760   2.088   8.561 -1.6243  2.4958  0.9970
 3776SOL    HW222791   3.814   2.014   8.450  1.9082 -0.6575  3.3110
 3777SOL     OW22792   2.920   1.673  12.907  0.4184 -0.7787 -0.0005
 3777SOL    HW122793   3.003   1.645  12.946  0.4710  0.4281  0.7329
 3777SOL    HW222794   2.922   1.767  12.921 -1.1333 -0.4662 -1.9028
 3778SOL     OW22795   0.357   1.833   6.402 -0.0394 -0.3822  0.5155
 3778SOL    HW122796   0.267   1.836   6.435  0.2333 -4.3048  1.5414
 3778SOL    HW222797   0.400   1.850   6.486  0.2814  0.5235  0.1705
 3779SOL     OW22798   2.132   3.414  16.814  0.2228 -0.2382 -0.4097
 3779SOL    HW122799   2.043   3.416  16.780 -0.4175  0.9246  1.3470
 3779SOL    HW222800   2.133   3.487  16.876  0.9525  0.8587 -1.6905
 3780SOL     OW22801   0.350   1.815   1.842 -0.0649  0.3352 -0.1068
 3780SOL    HW122802   0.320   1.879   1.777  0.1635 -0.8540 -1.3949
 3780SOL    HW222803   0.434   1.792   1.802  0.3731 -0.9875  1.5828
 3781SOL     OW22804   3.228   3.361   1.419 -0.6925  0.0592 -0.2085
 3781SOL    HW122805   3.260   3.427   1.359  1.0935  0.2798  0.9786
 3781SOL    HW222806   3.197   3.413   1.494  0.1520  0.2602 -0.0051
 3782SOL     OW22807   3.063   0.286   5.534 -0.1697 -0.2979  0.3407
 3782SOL    HW122808   3.096   0.244   5.614  0.1778  0.2918  0.5008
 3782SOL    HW222809   3.009   0.357   5.568 -1.9120 -2.1863  1.5222
 3783SOL     OW22810   3.370   0.085   4.528  0.4276  0.5844 -0.1499
 3783SOL    HW122811   3.294   0.142   4.533 -1.9451 -2.6038  0.6199
 3783SOL    HW222812   3.392   0.061   4.618  1.5446 -0.2518 -0.6445
 3784SOL     OW22813   1.834   2.809   8.998  0.5081 -0.1769  0.4962
 3784SOL    HW122814   1.772   2.874   8.965 -1.5259 -2.5678 -0.4483
 3784SOL    HW222815   1.819   2.741   8.931  0.7303 -1.1485  1.4373
 3785SOL     OW22816   0.389   1.565   6.847  0.5091 -0.1358  0.5512
 3785SOL    HW122817   0.331   1.489   6.856 -0.4855  0.4849 -0.7291
 3785SOL    HW222818   0.342   1.624   6.905  0.8109 -0.2191  0.8876
 3786SOL     OW22819   0.340   0.119   8.934  0.4996 -0.2991 -0.1673
 3786SOL    HW122820   0.303   0.193   8.982  3.1950 -0.4489  2.1118
 3786SOL    HW222821   0.387   0.171   8.869 -1.3047 -0.3778 -1.5565
 3787SOL     OW22822   0.551   1.872  14.127 -0.0850  0.3171  0.2880
 3787SOL    HW122823   0.459   1.897  14.141  0.0244  0.1997  1.1793
 3787SOL    HW222824   0.571   1.949  14.074 -1.2901  1.0177  0.8532
 3788SOL     OW22825   4.471   1.780  16.426 -0.5902  0.1327  0.2284
 3788SOL    HW122826   4.524   1.812  16.499 -2.9559 -0.0357  2.0114
 3788SOL    HW222827   4.406   1.850  16.434 -0.3774  0.4015 -0.4548
 3789SOL     OW22828   2.345   0.921   4.690 -0.0986 -0.4936  0.1151
 3789SOL    HW122829   2.342   0.859   4.763 -0.2903 -1.1033 -0.4098
 3789SOL    HW222830   2.424   0.888   4.648 -0.0386  1.1954 -1.0706
 3790SOL     OW22831   3.337   4.300  12.119  0.0197 -0.7841 -0.2113
 3790SOL    HW122832   3.368   4.368  12.060  1.8001 -0.2345  1.3500
 3790SOL    HW222833   3.360   4.338  12.204  0.9603  0.4187 -1.0076
 3791SOL     OW22834   3.635   4.546   7.494  0.4706 -0.3408 -0.0524
 3791SOL    HW122835   3.706   4.564   7.555 -1.4900  1.8852  1.5720
 3791SOL    HW222836   3.575   4.503   7.555 -0.4992  0.1315 -0.6729
 3792SOL     OW22837   0.218   2.491   9.857 -0.5660 -0.6255 -0.1768
 3792SOL    HW122838   0.224   2.406   9.902  3.2712  0.6551  1.7636
 3792SOL    HW222839   0.133   2.519   9.889  0.3761  1.4210  0.5340
 3793SOL     OW22840   1.447   0.112   3.286  0.2487 -0.1531 -0.5045
 3793SOL    HW122841   1.435   0.098   3.380 -3.2073  0.7740 -0.7769
 3793SOL    HW222842   1.528   0.162   3.278  1.0412 -1.3398  0.0969
 3794SOL     OW22843   2.325   0.013  17.437 -0.2689  0.0005  0.1596
 3794SOL    HW122844   2.251   0.020  17.377  1.3321  1.3432 -1.6741
 3794SOL    HW222845   2.298   0.075  17.505 -0.2451 -0.8926  0.9745
 3795SOL     OW22846   0.116   1.869   8.171 -0.3740  0.3798  0.1222
 3795SOL    HW122847   0.134   1.903   8.083 -0.0162  0.4923  0.2395
 3795SOL    HW222848   0.035   1.818   8.161  0.9338 -1.4239 -1.1565
 3796SOL     OW22849   4.277   2.798   8.648 -0.2457  0.6308  0.7161
 3796SOL    HW122850   4.228   2.728   8.692 -0.4548  1.2286  1.4386
 3796SOL    HW222851   4.251   2.770   8.561 -0.3219 -0.6400  1.1460
 3797SOL     OW22852   2.350   1.953  11.532  0.3498 -0.5420  0.2731
 3797SOL    HW122853   2.333   1.965  11.626  1.3144  0.9236  0.2613
 3797SOL    HW222854   2.409   2.026  11.514 -1.6100  1.3284  1.2988
 3798SOL     OW22855   1.624   1.509  12.402 -0.5665  0.0823 -0.2346
 3798SOL    HW122856   1.608   1.551  12.487  2.4506  0.2788  0.2357
 3798SOL    HW222857   1.637   1.417  12.422  1.2072  0.0387 -1.6462
 3799SOL     OW22858   2.353   1.842   6.532  0.0947  0.6664 -0.1779
 3799SOL    HW122859   2.300   1.784   6.476 -0.9123  0.9046  0.5348
 3799SOL    HW222860   2.384   1.772   6.589 -1.5054 -0.8043 -1.0862
 3800SOL     OW22861   3.251   4.575  13.339  0.5068  0.0215 -0.1203
 3800SOL    HW122862   3.307   4.498  13.341  1.0695  0.4866  1.5068
 3800SOL    HW222863   3.194   4.552  13.265  0.1899 -0.7718  0.3689
 3801SOL     OW22864   0.076   3.738   3.609 -0.1703  0.5998  0.5279
 3801SOL    HW122865   0.056   3.758   3.518  1.1962 -0.9919 -0.1197
 3801SOL    HW222866   0.140   3.802   3.639  0.5502 -0.6320  1.6466
 3802SOL     OW22867   0.157   1.755   6.172  0.2880  0.2479  0.6865
 3802SOL    HW122868   0.125   1.720   6.255  1.1757 -1.2502  0.3946
 3802SOL    HW222869   0.183   1.843   6.199 -1.0262  1.4483 -1.9671
 3803SOL     OW22870   4.618   4.266   5.099 -0.2748 -0.1177  0.1886
 3803SOL    HW122871   4.525   4.258   5.078 -0.4178 -0.9217  1.0847
 3803SOL    HW222872   4.614   4.328   5.172  0.4229  0.7344 -0.5047
 3804SOL     OW22873   2.874   1.660  16.404 -0.0762 -0.0247 -0.0165
 3804SOL    HW122874   2.833   1.586  16.449 -0.8162 -0.2914 -1.1410
 3804SOL    HW222875   2.964   1.634  16.425  0.4391  1.1010 -0.8594
 3805SOL     OW22876   0.350   4.298   2.284  0.2625 -0.0743  0.5218
 3805SOL    HW122877   0.414   4.350   2.332  1.5543 -1.0238 -0.1644
 3805SOL    HW222878   0.382   4.211   2.309 -1.5032 -0.2848  2.0188
 3806SOL     OW22879   1.367   1.503  16.522 -0.7784 -0.0759 -0.0269
 3806SOL    HW122880   1.298   1.443  16.496 -0.0848 -0.2973 -1.3350
 3806SOL    HW222881   1.349   1.535  16.611  0.3876 -0.6749  0.4232
 3807SOL     OW22882   1.274   4.599   3.743 -0.6703 -0.3852  0.7867
 3807SOL    HW122883   1.220   4.546   3.802 -1.6385  0.2628  0.4788
 3807SOL    HW222884   1.242   4.682   3.779 -3.2185 -1.4134  0.9175
 3808SOL     OW22885   1.623   3.096  13.646  0.6503 -0.3016 -0.2146
 3808SOL    HW122886   1.604   3.050  13.728  0.8085  0.0906  0.0399
 3808SOL    HW222887   1.661   3.024  13.595  0.5416 -1.4436  1.3059
 3809SOL     OW22888   2.461   3.584   7.911  0.0032  0.0739 -0.4733
 3809SOL    HW122889   2.374   3.606   7.945 -0.1550 -0.5731 -0.4599
 3809SOL    HW222890   2.439   3.506   7.861  0.5499  0.4889 -1.3515
 3810SOL     OW22891   1.472   2.895  12.742 -0.5240 -0.0620  0.2658
 3810SOL    HW122892   1.437   2.960  12.803 -0.5560 -0.6437  0.8747
 3810SOL    HW222893   1.561   2.903  12.776 -0.0301 -0.6964 -0.8799
 3811SOL     OW22894   2.793   2.913   5.562  0.5122  0.1165  0.4537
 3811SOL    HW122895   2.791   2.821   5.587  1.4586  0.1232  0.5572
 3811SOL    HW222896   2.878   2.933   5.600  0.4067 -0.4016  0.9586
 3812SOL     OW22897   4.494   1.889   7.985 -0.5049  0.2363 -0.2006
 3812SOL    HW122898   4.493   1.826   8.057  0.7727 -1.2377 -1.4679
 3812SOL    HW222899   4.526   1.965   8.034 -0.6545  0.4073 -0.3680
 3813SOL     OW22900   1.879   1.046   2.460 -0.3915 -0.3380  0.2706
 3813SOL    HW122901   1.853   1.076   2.372 -0.9306  0.1183  0.5839
 3813SOL    HW222902   1.846   0.957   2.454  1.2721 -0.8773 -0.7863
 3814SOL     OW22903   3.076   3.122   0.013  0.5174  0.0022  0.0063
 3814SOL    HW122904   3.025   3.045  17.672  0.1805 -0.0659  0.9876
 3814SOL    HW222905   3.049   3.192  17.635 -0.1406 -0.6786 -0.4909
 3815SOL     OW22906   1.306   1.427  16.070  0.3536  0.1679  0.1574
 3815SOL    HW122907   1.315   1.358  16.136  1.3151  0.1560  0.0108
 3815SOL    HW222908   1.253   1.488  16.123  0.6702  0.5908 -0.0132
 3816SOL     OW22909   2.555   4.635   0.551 -0.4028 -0.3562  0.2985
 3816SOL    HW122910   2.467   4.663   0.528 -0.1410 -0.0484 -0.3318
 3816SOL    HW222911   2.597   4.640   0.465 -4.9475  1.6330 -1.7789
 3817SOL     OW22912   1.803   1.812   0.005 -0.2393 -0.3160 -0.0051
 3817SOL    HW122913   1.775   1.742   0.064  1.8205 -1.4522 -0.3777
 3817SOL    HW222914   1.883   1.836   0.052  0.1399 -2.2406  0.3435
 3818SOL     OW22915   2.176   4.622  15.145 -0.3396 -0.2421 -0.6317
 3818SOL    HW122916   2.183   4.531  15.175  4.1259  0.4614  0.5095
 3818SOL    HW222917   2.207   4.620  15.054  0.0362 -0.0237 -0.5077
 3819SOL     OW22918   2.128   1.444  10.973 -0.4805  0.1624 -0.1584
 3819SOL    HW122919   2.074   1.517  11.003  1.4449  0.5878  2.2081
 3819SOL    HW222920   2.195   1.427  11.040 -1.9406 -1.3025  0.9433
 3820SOL     OW22921   2.479   2.627   0.280 -0.0819  0.1809  0.1337
 3820SOL    HW122922   2.467   2.663   0.367  2.0187 -1.1761  0.9898
 3820SOL    HW222923   2.542   2.687   0.241  0.7134 -0.9506 -0.3400
 3821SOL     OW22924   4.312   4.288   4.665  0.2859 -0.4762 -0.0306
 3821SOL    HW122925   4.399   4.310   4.630 -0.2557 -0.5218 -1.4047
 3821SOL    HW222926   4.265   4.234   4.602 -1.4173  0.0386  0.8279
 3822SOL     OW22927   0.055   1.653   6.414  0.0610 -0.2458 -0.3400
 3822SOL    HW122928   0.119   1.606   6.467 -0.3708 -1.8400 -1.2277
 3822SOL    HW222929   0.030   1.715   6.483 -0.8127 -1.4643  0.4303
 3823SOL     OW22930   0.317   3.883   6.346 -0.0404  0.2933  0.0588
 3823SOL    HW122931   0.270   3.957   6.309 -0.1643 -0.3003 -0.9891
 3823SOL    HW222932   0.407   3.907   6.323 -0.4159  0.1272 -1.6367
 3824SOL     OW22933   3.334   2.839   3.645 -0.5412  0.2915  0.6845
 3824SOL    HW122934   3.300   2.906   3.704 -1.0621  1.9252 -1.4664
 3824SOL    HW222935   3.289   2.850   3.561 -2.0028 -1.7942  1.2080
 3825SOL     OW22936   0.150   3.957   0.455  0.3905  0.0086  0.5984
 3825SOL    HW122937   0.223   3.896   0.469 -0.2686 -1.1290 -0.9571
 3825SOL    HW222938   0.079   3.893   0.445  1.8213 -1.5169  0.1657
 3826SOL     OW22939   2.686   1.393  15.706  0.5702 -0.1508  0.7937
 3826SOL    HW122940   2.749   1.351  15.764 -1.9791 -1.0205  2.9245
 3826SOL    HW222941   2.604   1.380  15.753  1.3621 -1.5700  1.7856
 3827SOL     OW22942   0.094   1.903  16.082 -0.1656  0.1237 -0.0873
 3827SOL    HW122943   0.116   1.830  16.024  2.2306  0.0136  0.9963
 3827SOL    HW222944   0.049   1.955  16.015 -0.5808  0.2568  0.2995
 3828SOL     OW22945   4.656   0.416   9.296  0.5694 -0.0876 -0.3100
 3828SOL    HW122946   4.691   0.423   9.385 -0.3762  0.6993 -0.0031
 3828SOL    HW222947   4.683   0.505   9.272 -1.3756  1.0481  1.6740
 3829SOL     OW22948   2.950   2.204  16.915  0.3909 -0.2637  0.3469
 3829SOL    HW122949   2.925   2.121  16.955 -0.2879 -0.5572 -0.7006
 3829SOL    HW222950   3.035   2.225  16.953  0.2608 -0.2012  0.6030
 3830SOL     OW22951   1.746   4.024   4.145 -0.1769  0.5285 -0.3028
 3830SOL    HW122952   1.732   4.098   4.085  1.1286  1.4300  0.5084
 3830SOL    HW222953   1.787   4.069   4.218  3.1728 -2.7093 -0.2183
 3831SOL     OW22954   0.172   0.324   5.618  0.0191  0.7390  0.4055
 3831SOL    HW122955   0.207   0.414   5.617 -0.2846  0.8689  1.4469
 3831SOL    HW222956   0.248   0.286   5.575 -0.5564  0.3421 -0.2498
 3832SOL     OW22957   4.318   4.014   5.761 -0.2400  0.4278 -0.0816
 3832SOL    HW122958   4.349   3.951   5.826 -0.0388  0.3349 -0.2679
 3832SOL    HW222959   4.396   4.069   5.754  0.5730 -0.8116 -0.6751
 3833SOL     OW22960   4.036   2.410   7.305  0.5492 -0.2426  0.1030
 3833SOL    HW122961   4.101   2.477   7.287  1.3228 -0.3840  2.3345
 3833SOL    HW222962   4.047   2.407   7.400 -0.7600  0.9300  0.3049
 3834SOL     OW22963   3.106   3.942   6.844  0.3661  0.5928 -0.5593
 3834SOL    HW122964   3.138   3.882   6.777 -0.0259  1.5121 -1.5734
 3834SOL    HW222965   3.012   3.924   6.843  0.2107  1.3751  0.9548
 3835SOL     OW22966   2.241   0.814   8.432  0.0392  1.0986  0.1108
 3835SOL    HW122967   2.285   0.896   8.455  1.3413  1.0840 -2.3834
 3835SOL    HW222968   2.240   0.749   8.503 -0.3371  1.7771  0.7235
 3836SOL     OW22969   3.792   2.616   5.923  0.3441  0.6481  0.1350
 3836SOL    HW122970   3.825   2.689   5.871  0.8718 -0.6051 -1.2886
 3836SOL    HW222971   3.762   2.664   6.000 -0.8765  0.9509 -0.5406
 3837SOL     OW22972   2.419   1.979   9.753 -0.4324  0.3905  0.2360
 3837SOL    HW122973   2.467   2.057   9.724  2.7725 -1.6416  0.1020
 3837SOL    HW222974   2.363   2.019   9.820 -2.8650 -2.4855 -0.1185
 3838SOL     OW22975   1.552   4.669   3.060 -0.2557  0.1599 -0.4275
 3838SOL    HW122976   1.633   0.001   3.056  0.8953 -1.6055 -0.2911
 3838SOL    HW222977   1.504   4.705   3.135  0.4629 -0.4187  0.3052
 3839SOL     OW22978   3.334   4.649   5.310  0.1994  0.3007  0.2015
 3839SOL    HW122979   3.273   4.643   5.236 -0.0572  4.8585  0.0249
 3839SOL    HW222980   3.371   0.017   5.299  1.7680 -0.4426 -0.5038
 3840SOL     OW22981   1.747   2.019   5.463  0.0686  0.6438 -0.0876
 3840SOL    HW122982   1.824   2.075   5.475  0.1003  0.5881 -0.0326
 3840SOL    HW222983   1.729   1.980   5.548 -2.2467 -1.7872 -1.7026
 3841SOL     OW22984   3.713   0.380   7.080  0.4303 -0.3336  0.4930
 3841SOL    HW122985   3.779   0.398   7.146 -0.1170  1.5710  0.5390
 3841SOL    HW222986   3.649   0.445   7.110  0.0783 -1.0831  1.3554
 3842SOL     OW22987   2.669   1.784   7.901 -0.1797 -0.6257  0.2117
 3842SOL    HW122988   2.628   1.868   7.882  0.8553 -0.3699 -0.8697
 3842SOL    HW222989   2.747   1.784   7.845  0.4946 -2.1969  1.1525
 3843SOL     OW22990   1.927   0.842   1.162  0.2196  0.2136  0.3666
 3843SOL    HW122991   1.878   0.883   1.234 -0.2365 -1.3266  0.9265
 3843SOL    HW222992   1.974   0.772   1.206 -2.0202 -0.6444  1.4290
 3844SOL     OW22993   0.115   3.598   2.275 -0.4588  0.2460 -0.1461
 3844SOL    HW122994   0.165   3.516   2.272 -1.1176 -0.1860  0.4431
 3844SOL    HW222995   0.037   3.569   2.227  1.7006 -3.5140 -1.3606
 3845SOL     OW22996   2.090   0.400   4.699  0.8136 -0.4066  0.3410
 3845SOL    HW122997   2.078   0.393   4.604 -0.0745  2.8359  0.2231
 3845SOL    HW222998   2.037   0.479   4.710 -0.7363 -1.2196 -1.4065
 3846SOL     OW22999   3.132   1.052   5.266  0.5169 -0.0445  0.0699
 3846SOL    HW123000   3.100   0.982   5.210 -0.5241  0.9923 -0.6239
 3846SOL    HW223001   3.134   1.008   5.352  2.0432 -1.8093 -0.8598
 3847SOL     OW23002   0.922   4.604   9.940  0.0572 -0.0167 -0.0275
 3847SOL    HW123003   0.934   4.695   9.965  0.4382  0.0199 -0.3484
 3847SOL    HW223004   0.888   4.615   9.851 -0.8836 -0.1352  0.3150
 3848SOL     OW23005   0.413   0.754   6.234  0.1901  0.5327 -0.2475
 3848SOL    HW123006   0.488   0.729   6.289 -0.7169 -0.3744  0.5645
 3848SOL    HW223007   0.335   0.723   6.280 -0.4854  2.7829  0.0959
 3849SOL     OW23008   2.006   1.363   4.348  0.1616 -0.0972  0.8981
 3849SOL    HW123009   2.002   1.285   4.293  0.2987  0.0101  0.7340
 3849SOL    HW223010   2.015   1.329   4.437  1.0480  2.4363  1.7794
 3850SOL     OW23011   0.127   2.604  14.722  0.0166  0.1757  0.1534
 3850SOL    HW123012   0.167   2.685  14.754  2.0961  0.0698 -2.1282
 3850SOL    HW223013   0.114   2.547  14.798 -1.4083 -0.0672 -0.2759
 3851SOL     OW23014   1.833   0.359   0.493  0.5097 -0.5704  0.1921
 3851SOL    HW123015   1.855   0.405   0.412  1.2600  0.6617  1.1012
 3851SOL    HW223016   1.873   0.273   0.477  2.2153  0.4268 -0.9402
 3852SOL     OW23017   3.282   3.985   8.665 -0.1081  0.1709  0.1610
 3852SOL    HW123018   3.271   3.965   8.572 -0.3249  1.8628 -0.1822
 3852SOL    HW223019   3.205   3.947   8.707 -3.1103  2.5555 -3.1189
 3853SOL     OW23020   3.365   4.494  16.046  0.3334 -0.5809 -0.3361
 3853SOL    HW123021   3.393   4.561  15.984 -0.0830  1.6502  1.8968
 3853SOL    HW223022   3.286   4.459  16.007 -0.7382 -0.4594  1.6992
 3854SOL     OW23023   2.950   4.606   7.754  0.1811  0.4608  0.4743
 3854SOL    HW123024   2.992   4.692   7.751  0.6490  0.1129 -2.3234
 3854SOL    HW223025   2.955   4.590   7.849  0.1267 -2.7340 -0.0681
 3855SOL     OW23026   4.353   2.008  16.538  0.8897 -0.2395 -0.3018
 3855SOL    HW123027   4.338   2.080  16.477 -2.6151 -1.4698 -0.9077
 3855SOL    HW223028   4.294   2.027  16.611 -0.8796  0.0726 -1.8107
 3856SOL     OW23029   4.128   1.551   5.390  0.2869  0.0102 -0.4644
 3856SOL    HW123030   4.147   1.533   5.482  0.5493  1.3417 -0.2574
 3856SOL    HW223031   4.035   1.530   5.379  0.1489  0.7486 -0.6869
 3857SOL     OW23032   1.649   3.100   8.328 -0.9226 -0.4275  0.0570
 3857SOL    HW123033   1.710   3.172   8.315 -0.5946 -1.0995 -2.2454
 3857SOL    HW223034   1.631   3.118   8.420  1.7984 -3.6071  1.2347
 3858SOL     OW23035   4.181   2.236   8.274 -0.2129 -0.6231 -0.1629
 3858SOL    HW123036   4.220   2.179   8.339 -3.5866 -3.6204 -0.8100
 3858SOL    HW223037   4.202   2.172   8.206 -1.3658 -3.1149  1.8743
 3859SOL     OW23038   1.731   1.096   2.239 -0.1367 -0.1355  0.1861
 3859SOL    HW123039   1.689   1.010   2.237 -1.4224  0.4770  0.6360
 3859SOL    HW223040   1.727   1.114   2.145 -2.7670 -2.3706 -0.1179
 3860SOL     OW23041   3.825   3.275   4.952  0.0065 -0.2922 -0.3609
 3860SOL    HW123042   3.861   3.327   5.024  1.7650 -0.3774 -1.1832
 3860SOL    HW223043   3.872   3.191   4.952 -0.0520 -0.3448  3.1809
 3861SOL     OW23044   4.256   1.202  11.332 -0.3153 -0.0370  0.0670
 3861SOL    HW123045   4.175   1.205  11.383  1.0208 -0.0124  2.1876
 3861SOL    HW223046   4.231   1.251  11.254  1.5788 -1.3401 -1.3663
 3862SOL     OW23047   0.021   2.246   4.301  0.3645  0.1068 -0.0080
 3862SOL    HW123048   4.656   2.241   4.345  0.4259 -0.8193  0.0184
 3862SOL    HW223049   0.033   2.340   4.288  1.5044 -0.2403 -1.4978
 3863SOL     OW23050   3.190   3.617   6.140 -0.4407  0.1065 -0.2225
 3863SOL    HW123051   3.261   3.671   6.104  0.7340  0.8283  3.2277
 3863SOL    HW223052   3.230   3.533   6.162 -1.0727  0.0012  0.5142
 3864SOL     OW23053   1.358   4.101   4.783  0.0042  0.0355  0.0001
 3864SOL    HW123054   1.443   4.085   4.824  0.1341 -1.0942 -0.7232
 3864SOL    HW223055   1.364   4.190   4.747  0.0658 -0.6117 -1.5870
 3865SOL     OW23056   0.502   1.761   3.240 -0.0669  0.3457 -0.3249
 3865SOL    HW123057   0.423   1.806   3.270  0.0616 -0.9425  1.9451
 3865SOL    HW223058   0.525   1.818   3.167  4.3209 -1.7434 -0.5733
 3866SOL     OW23059   2.246   2.034   5.878  0.5701 -0.2056  0.2882
 3866SOL    HW123060   2.280   1.948   5.851  0.2037 -0.5583  0.9744
 3866SOL    HW223061   2.163   2.044   5.831  1.8574  2.1136 -1.4835
 3867SOL     OW23062   3.186   1.050  12.435  0.0079  0.2092  0.1960
 3867SOL    HW123063   3.177   0.963  12.395 -0.4446  0.7048 -0.7665
 3867SOL    HW223064   3.178   1.035  12.529 -0.7475  1.4400  0.3135
 3868SOL     OW23065   1.929   2.872   1.816  0.4917  0.4086 -0.5636
 3868SOL    HW123066   1.875   2.809   1.864  0.8334  0.5665  0.0415
 3868SOL    HW223067   1.971   2.923   1.886 -0.7162  0.0518  0.4354
 3869SOL     OW23068   0.683   0.958  14.696 -0.1878  0.2694 -0.4982
 3869SOL    HW123069   0.769   0.981  14.661 -0.6227  0.4827 -1.4273
 3869SOL    HW223070   0.638   0.925  14.618  1.7546 -2.9441 -0.2599
 3870SOL     OW23071   3.572   2.744   7.766  0.1410  0.2205  0.6072
 3870SOL    HW123072   3.655   2.766   7.726 -0.4943  2.4623  0.5301
 3870SOL    HW223073   3.530   2.830   7.756  0.4024  0.1877 -0.7273
 3871SOL     OW23074   3.185   3.378   6.616  0.1872 -0.0542 -0.1210
 3871SOL    HW123075   3.252   3.361   6.550  0.2054  0.4438 -0.2336
 3871SOL    HW223076   3.142   3.437   6.553 -0.5025 -1.0184 -0.5543
 3872SOL     OW23077   1.558   2.414  16.987  0.4310 -0.1245  0.2784
 3872SOL    HW123078   1.617   2.490  16.986 -0.7108  0.7333 -0.9854
 3872SOL    HW223079   1.622   2.352  16.951  0.2247 -0.6320  0.7905
 3873SOL     OW23080   1.238   1.097   5.803  0.7769  0.0629  0.0861
 3873SOL    HW123081   1.152   1.131   5.828  1.8855  1.0719  2.5045
 3873SOL    HW223082   1.208   1.006   5.793 -0.8228  0.7347 -1.2222
 3874SOL     OW23083   4.378   0.137   3.873  0.0233  0.3180  0.0523
 3874SOL    HW123084   4.468   0.121   3.904  0.2033 -1.9534 -1.6443
 3874SOL    HW223085   4.329   0.062   3.906 -1.2073  1.2190  0.2431
 3875SOL     OW23086   1.406   0.948   9.356 -0.7285 -0.0076  0.0822
 3875SOL    HW123087   1.367   1.032   9.381 -1.0773 -0.0833 -0.2003
 3875SOL    HW223088   1.497   0.976   9.348 -0.0739 -1.9758  0.6683
 3876SOL     OW23089   2.878   2.346   3.954  0.9874 -0.2924 -0.2899
 3876SOL    HW123090   2.882   2.352   3.859  3.0394 -0.1147 -0.1990
 3876SOL    HW223091   2.794   2.385   3.978  2.1526  0.6831  2.2499
 3877SOL     OW23092   4.395   3.291   6.174  0.2293  0.4681  0.0946
 3877SOL    HW123093   4.442   3.341   6.108 -0.9999 -0.0800 -1.1994
 3877SOL    HW223094   4.408   3.358   6.242  0.9342 -0.3078  0.7164
 3878SOL     OW23095   2.595   2.320   8.121 -0.6184 -0.7577 -0.2952
 3878SOL    HW123096   2.503   2.303   8.100 -0.2232 -3.2076  0.0312
 3878SOL    HW223097   2.598   2.260   8.195 -0.4455  0.9658  1.0945
 3879SOL     OW23098   2.550   3.466   6.472  0.2807 -0.1523 -0.2994
 3879SOL    HW123099   2.508   3.493   6.554 -1.0785 -1.9031 -0.4027
 3879SOL    HW223100   2.576   3.377   6.496 -0.1195 -0.0167  0.6525
 3880SOL     OW23101   4.065   3.521   2.189  0.7690 -0.0498  0.5827
 3880SOL    HW123102   4.055   3.425   2.186 -0.2891 -0.0009  2.7483
 3880SOL    HW223103   4.129   3.527   2.260  1.0611  2.0271  0.1505
 3881SOL     OW23104   2.576   2.475   5.816  0.1028 -0.2374 -0.1958
 3881SOL    HW123105   2.582   2.475   5.721 -2.9420  4.0405 -0.4204
 3881SOL    HW223106   2.589   2.382   5.831  2.4074  0.1327  0.0462
 3882SOL     OW23107   3.582   1.290   3.130 -0.2968 -0.1582 -0.4218
 3882SOL    HW123108   3.574   1.382   3.104  2.6234  0.3620  0.6459
 3882SOL    HW223109   3.667   1.288   3.173 -0.2956 -0.1558 -0.4241
 3883SOL     OW23110   1.182   1.545  16.281 -0.0296  0.1762  0.4107
 3883SOL    HW123111   1.126   1.497  16.342  0.5181  0.1056  0.8579
 3883SOL    HW223112   1.134   1.624  16.255  0.1387 -1.2489 -4.1601
 3884SOL     OW23113   0.678   0.075  14.607  0.3343  0.2122  0.1551
 3884SOL    HW123114   0.655   4.703  14.618  1.8623 -0.6643 -4.1391
 3884SOL    HW223115   0.617   0.125  14.661 -1.8415 -2.0775 -0.1894
 3885SOL     OW23116   1.183   1.606   9.114  0.1911  0.3198 -0.3131
 3885SOL    HW123117   1.217   1.549   9.183  0.0284 -0.3677 -0.7948
 3885SOL    HW223118   1.185   1.544   9.041  1.3748  0.1862 -0.1687
 3886SOL     OW23119   0.859   0.607   5.553 -0.4827  0.5893 -0.0044
 3886SOL    HW123120   0.875   0.680   5.613 -0.5400 -0.4569  1.2896
 3886SOL    HW223121   0.787   0.560   5.596 -0.0641  1.4799  1.6575
 3887SOL     OW23122   3.717   2.239   5.116 -0.0150  0.1164 -0.5895
 3887SOL    HW123123   3.649   2.179   5.084 -0.1701 -0.9431  1.6937
 3887SOL    HW223124   3.690   2.245   5.208 -1.1493  0.0635 -0.9161
 3888SOL     OW23125   1.648   3.942   2.552 -0.0911 -0.1555  0.2158
 3888SOL    HW123126   1.664   3.976   2.641 -0.3229 -1.5010  0.7662
 3888SOL    HW223127   1.682   3.853   2.559 -2.7573 -1.1577  0.0733
 3889SOL     OW23128   2.083   4.579  13.110 -0.0261  0.1141  0.2466
 3889SOL    HW123129   2.046   4.491  13.101 -1.0178  0.6532 -0.9307
 3889SOL    HW223130   2.128   4.576  13.194  0.6811 -2.8604 -0.2173
 3890SOL     OW23131   0.326   0.686  10.091  0.7931  0.0974  0.1370
 3890SOL    HW123132   0.376   0.610  10.121 -1.4423 -1.9099 -1.2394
 3890SOL    HW223133   0.365   0.687  10.004 -0.2887  0.3523 -0.3358
 3891SOL     OW23134   0.015   3.276  16.120 -0.2844 -0.1781  0.3644
 3891SOL    HW123135   4.701   3.280  16.209 -0.3048  1.8281  0.2638
 3891SOL    HW223136   0.038   3.369  16.108  1.7993 -0.7016  0.1818
 3892SOL     OW23137   0.015   4.584   2.857 -0.0737  0.0784  0.0336
 3892SOL    HW123138   4.672   4.546   2.796  0.4959  0.5007 -0.8228
 3892SOL    HW223139   0.096   4.564   2.810  0.2657 -2.3046  1.6354
 3893SOL     OW23140   0.157   4.611   5.637  0.3232 -0.3173 -0.1880
 3893SOL    HW123141   0.085   4.670   5.615 -0.2373 -1.1042 -0.4517
 3893SOL    HW223142   0.219   4.630   5.566  1.6106 -1.1276  0.7098
 3894SOL     OW23143   0.329   0.970   9.195  0.0160 -0.2055  0.0533
 3894SOL    HW123144   0.296   1.054   9.227 -2.9919 -1.2956 -0.1943
 3894SOL    HW223145   0.265   0.906   9.227  1.3492 -1.5850 -0.0259
 3895SOL     OW23146   0.921   1.020   9.684 -0.1434  0.1543 -0.6891
 3895SOL    HW123147   0.978   0.995   9.756  1.0798 -2.2671 -2.4831
 3895SOL    HW223148   0.973   1.005   9.605  1.4051 -1.1116  0.5688
 3896SOL     OW23149   0.008   2.379   8.005  0.3500 -0.1909  0.0681
 3896SOL    HW123150   0.062   2.404   8.080 -0.7290 -2.4166  1.5732
 3896SOL    HW223151   4.659   2.446   8.002 -0.2854 -0.7990  1.3334
 3897SOL     OW23152   2.064   4.419  13.862 -0.0184  0.0867 -0.0639
 3897SOL    HW123153   2.005   4.424  13.937 -1.2573  1.9919 -1.1650
 3897SOL    HW223154   2.094   4.329  13.877 -1.1996 -0.3481 -0.3253
 3898SOL     OW23155   3.707   0.442  15.590  0.0358  0.1163 -0.1245
 3898SOL    HW123156   3.761   0.436  15.669 -0.5130  0.8002  0.2957
 3898SOL    HW223157   3.749   0.388  15.523 -1.8047  0.1713 -1.3220
 3899SOL     OW23158   0.655   2.898   3.183  0.2118 -0.2756  0.3981
 3899SOL    HW123159   0.690   2.829   3.127 -2.3019 -0.9675 -0.3048
 3899SOL    HW223160   0.733   2.931   3.227  0.2020 -1.5339  1.3561
 3900SOL     OW23161   0.538   4.585   7.998  0.0370 -0.2708  0.4560
 3900SOL    HW123162   0.586   4.601   7.916 -1.1576  1.0813  0.0199
 3900SOL    HW223163   0.509   4.494   7.992 -1.2411  0.2238 -1.0063
 3901SOL     OW23164   4.409   1.417   4.873  0.0805 -0.6259 -0.0459
 3901SOL    HW123165   4.409   1.352   4.803 -1.3763  2.0169 -2.5586
 3901SOL    HW223166   4.489   1.400   4.922  0.8225 -1.6340 -1.6158
 3902SOL     OW23167   0.461   0.188   4.350  0.6843 -0.1768 -0.1689
 3902SOL    HW123168   0.370   0.186   4.379  0.3764 -1.5211 -1.2157
 3902SOL    HW223169   0.481   0.280   4.368  1.0601 -0.2562 -0.1784
 3903SOL     OW23170   3.084   0.786   8.517 -0.3326 -0.1614 -0.1720
 3903SOL    HW123171   3.154   0.723   8.500  0.0690  0.5735 -1.2135
 3903SOL    HW223172   3.135   0.867   8.526  0.8170 -0.8430 -0.6496
 3904SOL     OW23173   1.446   2.079   3.251 -0.2740  0.1766  0.2597
 3904SOL    HW123174   1.400   2.159   3.274 -0.8331  0.4515 -1.8717
 3904SOL    HW223175   1.429   2.023   3.327 -0.8758  0.5601  0.4062
 3905SOL     OW23176   0.998   0.000   2.273  0.4878 -0.1518 -0.0528
 3905SOL    HW123177   1.093   0.001   2.261  0.6688  1.1732  1.3575
 3905SOL    HW223178   0.988   0.088   2.236 -0.9799 -0.3388 -0.1032
 3906SOL     OW23179   0.648   1.762  14.439  0.6602  0.3317  0.3003
 3906SOL    HW123180   0.722   1.785  14.494  0.2885  0.5704  0.6995
 3906SOL    HW223181   0.575   1.750  14.499  1.7109 -3.2558  0.8392
 3907SOL     OW23182   0.481   1.527  10.652 -0.0934  0.2123 -0.5396
 3907SOL    HW123183   0.519   1.449  10.612 -0.8054 -0.2593 -0.2830
 3907SOL    HW223184   0.503   1.512  10.744  0.4100  1.8384 -0.3965
 3908SOL     OW23185   3.736   3.315   6.542  0.6307  0.1047 -0.2528
 3908SOL    HW123186   3.663   3.258   6.520 -0.0187  1.3117 -1.2190
 3908SOL    HW223187   3.741   3.333   6.636 -0.2599 -1.8149  0.1473
 3909SOL     OW23188   4.361   1.767   3.475 -0.3623 -0.0408  0.6070
 3909SOL    HW123189   4.340   1.783   3.383  1.6222 -1.5035 -0.0831
 3909SOL    HW223190   4.405   1.851   3.489  0.4861 -0.4795  0.5557
 3910SOL     OW23191   0.588   1.591  16.940  0.4247  0.0008 -0.1553
 3910SOL    HW123192   0.683   1.580  16.943  0.3925  0.2451  2.4523
 3910SOL    HW223193   0.574   1.588  17.035 -0.2442  2.1539 -0.1812
 3911SOL     OW23194   2.549   3.832  15.854  0.2463 -0.0254  0.8420
 3911SOL    HW123195   2.507   3.906  15.899  0.2346  1.3239 -1.3676
 3911SOL    HW223196   2.475   3.779  15.825 -0.0298  1.1676 -0.6815
 3912SOL     OW23197   3.781   1.517   7.301  0.8872  0.5482 -0.5286
 3912SOL    HW123198   3.783   1.467   7.383 -0.7822  1.2085 -0.0716
 3912SOL    HW223199   3.864   1.563   7.308  0.8729  0.7706 -1.9299
 3913SOL     OW23200   3.152   1.493   7.235  0.5276  0.1389  0.1762
 3913SOL    HW123201   3.207   1.419   7.210 -0.5100 -0.4267 -0.4065
 3913SOL    HW223202   3.121   1.519   7.148  2.1755 -0.0649 -0.4730
 3914SOL     OW23203   1.805   2.502   1.426  0.2702 -0.5129 -0.6741
 3914SOL    HW123204   1.827   2.430   1.485 -1.6321  0.0938  0.7730
 3914SOL    HW223205   1.895   2.506   1.395  0.4326 -1.4104 -0.2979
 3915SOL     OW23206   0.199   3.761   6.561  0.5541 -0.0694 -0.2765
 3915SOL    HW123207   0.256   3.773   6.485  1.7541  0.3031  0.6824
 3915SOL    HW223208   0.221   3.842   6.606  0.7951  1.4422 -3.0754
 3916SOL     OW23209   3.314   0.907   0.132 -0.1928  0.3376  0.1485
 3916SOL    HW123210   3.371   0.984   0.123 -0.4293  0.7559  2.2929
 3916SOL    HW223211   3.247   0.949   0.186  0.6338  0.2570  1.2336
 3917SOL     OW23212   2.176   0.362   2.570 -0.0693  0.2371 -0.5146
 3917SOL    HW123213   2.138   0.406   2.495  0.1521  1.8437  0.3212
 3917SOL    HW223214   2.182   0.274   2.532  0.1108 -0.3190  0.8013
 3918SOL     OW23215   0.357   0.141   0.773 -0.3367  0.3594  0.2741
 3918SOL    HW123216   0.290   0.081   0.743 -1.1373  0.9613  0.8620
 3918SOL    HW223217   0.355   0.209   0.705  0.2949 -0.6681 -0.7710
 3919SOL     OW23218   3.577   2.489   6.999  0.1919  0.3285  0.6415
 3919SOL    HW123219   3.652   2.506   6.942 -0.5029 -0.8262 -0.6040
 3919SOL    HW223220   3.622   2.448   7.073 -0.4371  1.1814  1.4995
 3920SOL     OW23221   1.133   2.359   7.645  0.3410  0.1855  0.8807
 3920SOL    HW123222   1.145   2.287   7.582 -2.0778 -0.5414  1.2663
 3920SOL    HW223223   1.038   2.367   7.647  0.2012 -1.4888  0.9003
 3921SOL     OW23224   3.699   0.454   7.991  0.3347  0.0957  0.2270
 3921SOL    HW123225   3.616   0.457   7.944 -0.4480 -0.7212  1.5691
 3921SOL    HW223226   3.712   0.549   7.982  1.6299  0.1656  2.8912
 3922SOL     OW23227   1.015   0.325   3.434  0.1158 -0.0037  0.5323
 3922SOL    HW123228   0.928   0.356   3.412  0.5485 -0.0018 -1.1808
 3922SOL    HW223229   1.041   0.369   3.515 -0.0627  2.1878 -0.6311
 3923SOL     OW23230   3.713   0.466   8.254  1.1496  0.0093 -0.0357
 3923SOL    HW123231   3.690   0.447   8.163  1.8397  1.4630 -0.5170
 3923SOL    HW223232   3.809   0.471   8.258  1.0933  1.6969 -0.7177
 3924SOL     OW23233   0.996   0.970   2.778  0.3999  0.0943 -0.4807
 3924SOL    HW123234   0.913   0.922   2.784  0.2802  0.0234 -2.6734
 3924SOL    HW223235   1.048   0.935   2.850  2.2553  2.3090 -0.7582
 3925SOL     OW23236   0.009   1.343  15.135 -0.7263 -0.9508  0.1629
 3925SOL    HW123237   4.685   1.330  15.051  1.3986 -2.4944 -0.7160
 3925SOL    HW223238   0.064   1.415  15.106  1.6960 -2.9484 -0.2371
 3926SOL     OW23239   1.261   2.326   2.696 -1.0247  0.7727  0.4063
 3926SOL    HW123240   1.327   2.275   2.650 -0.0804  0.7530  1.7805
 3926SOL    HW223241   1.207   2.265   2.747 -0.9203  1.7539  1.6810
 3927SOL     OW23242   4.143   1.751   8.217 -0.2140  0.6005  0.2420
 3927SOL    HW123243   4.139   1.732   8.310 -0.0160  0.7237  0.2745
 3927SOL    HW223244   4.066   1.805   8.199 -0.0058  0.1083 -2.2480
 3928SOL     OW23245   0.472   2.810   9.435 -0.1029 -0.3086 -0.1280
 3928SOL    HW123246   0.395   2.790   9.489  0.3166 -1.8158 -0.0738
 3928SOL    HW223247   0.443   2.786   9.347 -0.7254 -1.1864  0.3133
 3929SOL     OW23248   3.789   1.185  10.087  0.0277 -0.0148  0.0157
 3929SOL    HW123249   3.802   1.234  10.168 -2.0362  0.1350  0.2551
 3929SOL    HW223250   3.730   1.117  10.117  0.7712  0.2956  2.1439
 3930SOL     OW23251   2.533   4.073   0.387 -0.4282  0.2880 -0.0452
 3930SOL    HW123252   2.473   3.999   0.380 -0.1551  0.1607 -0.9753
 3930SOL    HW223253   2.473   4.144   0.363 -0.1718  0.6315  0.3146
 3931SOL     OW23254   2.195   4.028  11.945 -0.1644 -0.1003 -0.2660
 3931SOL    HW123255   2.207   4.112  11.901  2.2459 -1.9209 -3.1413
 3931SOL    HW223256   2.286   3.998  11.953 -0.9095 -1.7288  2.0531
 3932SOL     OW23257   1.714   0.161   3.670  0.0027 -0.1592  0.0253
 3932SOL    HW123258   1.788   0.162   3.609 -0.3417  0.7431 -0.3646
 3932SOL    HW223259   1.672   0.247   3.665  0.7144  0.1331 -0.7668
 3933SOL     OW23260   2.364   4.507  17.111  0.0057 -0.4497 -0.1190
 3933SOL    HW123261   2.421   4.583  17.115 -1.8501  0.9453 -0.5376
 3933SOL    HW223262   2.412   4.442  17.162 -2.1846 -0.5857  1.7916
 3934SOL     OW23263   2.074   1.170  13.967 -0.5530 -0.2805  0.1017
 3934SOL    HW123264   2.065   1.225  14.045  1.0004 -0.7159  0.5950
 3934SOL    HW223265   2.168   1.159  13.958 -0.3089  2.5044 -0.5431
 3935SOL     OW23266   4.382   1.090   9.251  0.0278 -0.2067  0.0617
 3935SOL    HW123267   4.316   1.143   9.294 -0.8203 -1.4505  0.3006
 3935SOL    HW223268   4.360   1.009   9.297  2.3821  0.0419  1.6530
 3936SOL     OW23269   3.713   0.930  13.659  0.0159  0.5119 -0.1765
 3936SOL    HW123270   3.761   0.895  13.734  2.0887 -0.1655 -1.7993
 3936SOL    HW223271   3.621   0.921  13.682  0.1773 -0.2793  0.1521
 3937SOL     OW23272   3.546   0.614   4.020 -0.0136 -0.0914  0.7412
 3937SOL    HW123273   3.519   0.685   4.078  0.9172 -1.3492  2.7142
 3937SOL    HW223274   3.641   0.625   4.011 -0.2177 -0.2431 -1.6651
 3938SOL     OW23275   4.279   0.290   8.468 -0.2728 -0.0878  0.2573
 3938SOL    HW123276   4.295   0.269   8.560  0.4571 -1.3952 -0.1669
 3938SOL    HW223277   4.213   0.359   8.471  2.0101  2.0831  0.9217
 3939SOL     OW23278   0.684   1.559   8.187 -0.2724 -0.3241  0.1664
 3939SOL    HW123279   0.596   1.577   8.154 -0.1799  1.8465  1.0769
 3939SOL    HW223280   0.704   1.471   8.155  1.0003  0.3232 -0.7931
 3940SOL     OW23281   2.005   4.234   4.980 -0.4844  0.5450 -0.2470
 3940SOL    HW123282   1.943   4.224   4.907 -0.0671 -2.2501 -0.2190
 3940SOL    HW223283   2.091   4.238   4.939 -0.2089  0.1875  0.2955
 3941SOL     OW23284   2.542   2.621   6.662  0.0030  0.9196  0.1299
 3941SOL    HW123285   2.538   2.713   6.689  1.3442  0.1805  2.8427
 3941SOL    HW223286   2.615   2.585   6.713 -0.2185 -0.7722 -0.7653
 3942SOL     OW23287   3.657   1.350   4.228 -0.2848  0.2882  0.0797
 3942SOL    HW123288   3.604   1.355   4.149  0.2371  1.6756 -0.1971
 3942SOL    HW223289   3.748   1.356   4.199 -1.5701  1.9597 -3.6379
 3943SOL     OW23290   4.624   1.029   4.431  0.0361 -0.5426  0.8638
 3943SOL    HW123291   4.582   1.037   4.346  0.0947  0.5519  0.9363
 3943SOL    HW223292   4.566   0.963   4.471 -0.0849 -0.9361  0.0216
 3944SOL     OW23293   3.666   4.166   7.027 -0.4304  0.8543  0.2443
 3944SOL    HW123294   3.692   4.187   7.117 -0.6838 -2.6777  1.1137
 3944SOL    HW223295   3.594   4.105   7.045  1.0686 -0.9639  0.0262
 3945SOL     OW23296   1.126   4.263   5.409  0.4159 -0.0591 -0.0633
 3945SOL    HW123297   1.192   4.272   5.478  0.5823 -2.7796  0.1581
 3945SOL    HW223298   1.161   4.321   5.342 -0.0942  0.4079  0.0779
 3946SOL     OW23299   4.546   4.173   2.839 -0.2797 -0.1150 -0.0604
 3946SOL    HW123300   4.511   4.249   2.886  0.1855  0.4556 -0.6368
 3946SOL    HW223301   4.597   4.135   2.911  1.0166  1.1237 -0.3034
 3947SOL     OW23302   1.277   3.629   3.117 -0.2342  0.3486 -0.2364
 3947SOL    HW123303   1.354   3.686   3.111 -0.7973  1.0364 -0.9162
 3947SOL    HW223304   1.309   3.592   3.199  1.5008 -0.5770 -1.3437
 3948SOL     OW23305   0.409   3.350   8.461 -0.4575 -0.7491  0.4360
 3948SOL    HW123306   0.328   3.323   8.504  0.0183  0.6790  2.2393
 3948SOL    HW223307   0.471   3.322   8.529  0.7929 -1.2888 -0.9407
 3949SOL     OW23308   3.419   2.301  17.516  0.0439 -0.3277  0.0591
 3949SOL    HW123309   3.408   2.372  17.579 -1.9358 -0.2322 -0.4035
 3949SOL    HW223310   3.501   2.315  17.467  0.8623 -2.4496  0.8220
 3950SOL     OW23311   2.798   1.001   5.143 -0.0751 -0.0411  0.3493
 3950SOL    HW123312   2.836   1.083   5.173  0.0895 -0.1508  0.4457
 3950SOL    HW223313   2.832   0.993   5.054 -0.5765 -1.0951  0.2483
 3951SOL     OW23314   4.626   0.831   3.089 -0.1887  0.5262  0.0281
 3951SOL    HW123315   4.636   0.748   3.043  2.4981 -0.8393  3.0503
 3951SOL    HW223316   4.719   0.853   3.099  0.1009 -1.1805  1.0403
 3952SOL     OW23317   2.954   2.656   7.354 -0.4468 -0.7740  0.0772
 3952SOL    HW123318   2.906   2.737   7.336 -0.1165  0.0076  2.7004
 3952SOL    HW223319   3.033   2.693   7.316 -0.4347  1.6358  2.4419
 3953SOL     OW23320   3.441   0.213   8.187 -0.0177 -0.2188 -0.4588
 3953SOL    HW123321   3.523   0.238   8.144  1.0434 -1.0664  1.0565
 3953SOL    HW223322   3.474   0.196   8.275  2.3665 -1.4063 -1.5927
 3954SOL     OW23323   4.037   4.372   0.655  0.0049 -0.0603  0.5448
 3954SOL    HW123324   4.004   4.348   0.568 -0.4052 -3.3823  1.6218
 3954SOL    HW223325   4.011   4.463   0.669 -1.3356 -0.3006 -0.3535
 3955SOL     OW23326   2.504   3.073   0.627  0.2925  0.4874  0.0592
 3955SOL    HW123327   2.484   2.985   0.660 -1.8089  1.5985  1.7281
 3955SOL    HW223328   2.573   3.095   0.690  0.2558  2.7431 -0.7096
 3956SOL     OW23329   0.327   0.014   3.244  0.2722 -0.1693  0.1803
 3956SOL    HW123330   0.301   0.004   3.152  0.8837 -4.0241  0.4390
 3956SOL    HW223331   0.317   0.106   3.269  0.7104  0.5162 -2.1261
 3957SOL     OW23332   4.545   3.721   2.528 -0.1794  0.3540  0.3369
 3957SOL    HW123333   4.586   3.779   2.592 -0.8206  3.0840 -1.7540
 3957SOL    HW223334   4.454   3.745   2.542 -0.5044  0.0587 -1.3094
 3958SOL     OW23335   2.184   3.686   8.866  0.0328 -0.1883 -0.3122
 3958SOL    HW123336   2.103   3.715   8.825  0.5483  0.3288 -0.9567
 3958SOL    HW223337   2.239   3.714   8.793  0.0848  0.9103  0.1582
 3959SOL     OW23338   1.478   3.181   0.372  0.5896  0.6097 -0.1471
 3959SOL    HW123339   1.412   3.129   0.326  0.5048  0.3457  0.2797
 3959SOL    HW223340   1.448   3.175   0.462 -0.1750  1.2991 -0.3481
 3960SOL     OW23341   1.557   2.399   7.967 -0.7304 -0.4057  0.2350
 3960SOL    HW123342   1.592   2.310   7.969  1.3934  0.4466  1.0204
 3960SOL    HW223343   1.528   2.410   7.876 -2.1185 -1.5912  0.5367
 3961SOL     OW23344   0.088   4.093   3.761 -0.2032 -0.5069  0.0092
 3961SOL    HW123345   0.151   4.098   3.689  0.2577  0.7820  0.5140
 3961SOL    HW223346   0.031   4.167   3.740 -0.3873 -0.7923 -0.5206
 3962SOL     OW23347   2.588   0.645   3.844 -0.4720 -0.1251 -0.0507
 3962SOL    HW123348   2.633   0.727   3.866  0.2529 -0.8528  1.1668
 3962SOL    HW223349   2.561   0.608   3.928 -2.8540 -0.3050 -0.9020
 3963SOL     OW23350   3.566   0.581   7.750  0.2257  0.4321 -0.6045
 3963SOL    HW123351   3.585   0.642   7.678  0.5960  1.8351  0.6904
 3963SOL    HW223352   3.606   0.504   7.710  0.5605  0.8203 -1.0224
 3964SOL     OW23353   0.944   0.905  12.871  0.4554  0.5216 -0.2958
 3964SOL    HW123354   0.984   0.834  12.923 -0.3660  0.9608  0.9373
 3964SOL    HW223355   1.002   0.981  12.878  1.8842 -0.6129  0.3922
 3965SOL     OW23356   0.770   1.639  10.115 -0.6333  0.0065 -0.2221
 3965SOL    HW123357   0.747   1.696  10.041  1.5569  0.5814 -0.4721
 3965SOL    HW223358   0.851   1.595  10.086  0.2832  2.0924 -0.8257
 3966SOL     OW23359   2.223   3.708   3.324  0.0654  0.3586 -0.5938
 3966SOL    HW123360   2.280   3.664   3.386  0.2539 -1.7214 -2.2378
 3966SOL    HW223361   2.284   3.740   3.257 -0.4322 -1.4747 -1.9338
 3967SOL     OW23362   0.011   1.229   7.668 -1.0720  0.2629  0.1152
 3967SOL    HW123363   0.070   1.222   7.744 -0.5315 -0.4818 -0.3750
 3967SOL    HW223364   0.053   1.168   7.608 -0.8243  1.4779 -0.9414
 3968SOL     OW23365   0.396   4.565   8.985 -0.6983  0.0119  0.1931
 3968SOL    HW123366   0.417   4.521   8.902  4.5193  3.1438 -0.1603
 3968SOL    HW223367   0.370   4.654   8.961  0.2696  0.6163  1.4203
 3969SOL     OW23368   1.361   4.254  14.703 -1.1254 -0.2273 -0.3982
 3969SOL    HW123369   1.370   4.195  14.628 -0.8153  0.7606 -1.1392
 3969SOL    HW223370   1.286   4.206  14.740  0.4270 -0.7009  2.1392
 3970SOL     OW23371   2.793   0.693   5.561  0.2134 -0.0189  0.3052
 3970SOL    HW123372   2.856   0.693   5.488 -0.6107 -1.1910 -0.4159
 3970SOL    HW223373   2.734   0.761   5.529  2.5374  2.5261  1.4690
 3971SOL     OW23374   1.918   4.033   0.605 -0.9005  0.3353  0.3253
 3971SOL    HW123375   1.983   4.085   0.652 -1.0790 -0.2336  1.1922
 3971SOL    HW223376   1.897   3.965   0.669 -1.0134  0.4519  0.4113
 3972SOL     OW23377   3.342   0.271  11.589 -0.2898 -0.0592  0.3539
 3972SOL    HW123378   3.398   0.328  11.642  1.8213  0.4631 -2.4572
 3972SOL    HW223379   3.324   0.204  11.655 -0.3648  0.5721  0.9727
 3973SOL     OW23380   0.148   3.220   6.988 -0.3996  0.5528 -1.0645
 3973SOL    HW123381   0.134   3.183   7.076  2.1628  0.6196 -0.6363
 3973SOL    HW223382   0.088   3.158   6.947 -0.1461 -0.5777  0.2517
 3974SOL     OW23383   3.301   4.367   5.418  0.0053  0.1718 -0.0019
 3974SOL    HW123384   3.345   4.432   5.363  1.7011  0.1466  1.3206
 3974SOL    HW223385   3.217   4.407   5.442  0.2931  1.1044 -0.5291
 3975SOL     OW23386   1.198   0.811   6.903 -0.2136 -0.0450  0.3547
 3975SOL    HW123387   1.122   0.867   6.918  0.0587  0.2439  0.6702
 3975SOL    HW223388   1.241   0.844   6.824 -0.6895 -1.6346 -0.5678
 3976SOL     OW23389   4.182   2.792   3.244 -0.4960 -0.1663  0.0532
 3976SOL    HW123390   4.234   2.725   3.202  0.4575  1.5825 -1.5448
 3976SOL    HW223391   4.247   2.836   3.299 -1.0985  1.4546 -0.5208
 3977SOL     OW23392   3.004   2.492   7.583  0.0550  0.5350  0.4087
 3977SOL    HW123393   3.079   2.525   7.633  0.1020 -0.5167  1.0372
 3977SOL    HW223394   2.987   2.553   7.511  1.0629 -0.0249 -0.2931
 3978SOL     OW23395   4.319   0.940   8.029 -0.0559  0.1842  0.5310
 3978SOL    HW123396   4.308   0.850   7.999  1.8217  0.6934 -1.6936
 3978SOL    HW223397   4.401   0.966   7.987 -0.2447 -0.2956 -0.1270
 3979SOL     OW23398   3.016   0.470   2.794  0.2769  0.1134 -0.8268
 3979SOL    HW123399   3.086   0.440   2.735  1.6314 -0.4717  1.0512
 3979SOL    HW223400   3.056   0.435   2.874 -1.0834  1.3690  0.3996
 3980SOL     OW23401   4.492   4.621   5.417 -0.1424 -0.1976 -0.1456
 3980SOL    HW123402   4.479   4.572   5.336 -1.1446  1.3678 -0.9319
 3980SOL    HW223403   4.415   4.585   5.461 -0.7157  0.4567 -0.6171
 3981SOL     OW23404   4.656   1.558   9.035  0.1084  0.3463  0.4580
 3981SOL    HW123405   4.648   1.653   9.037 -1.5985  0.2371 -2.1094
 3981SOL    HW223406   0.017   1.555   9.087  1.1668  1.8590 -1.1460
 3982SOL     OW23407   0.264   3.563   4.923 -0.1700 -0.3949 -0.3804
 3982SOL    HW123408   0.174   3.537   4.907  0.4234 -2.0458 -1.0018
 3982SOL    HW223409   0.284   3.514   5.003 -2.3034  2.6553  2.0329
 3983SOL     OW23410   4.663   0.084  14.090  0.3243  0.0941  0.1430
 3983SOL    HW123411   4.657   0.083  13.994  0.5981  1.0528  0.1187
 3983SOL    HW223412   4.572   0.111  14.105  0.8880  1.3223  1.2872
 3984SOL     OW23413   2.777   2.304  12.617  0.5135  0.2703 -0.1675
 3984SOL    HW123414   2.740   2.280  12.532 -0.4769  1.1028  0.0316
 3984SOL    HW223415   2.833   2.378  12.593  0.5987  0.5252  0.8036
 3985SOL     OW23416   1.468   1.496   9.739  0.0028 -0.1745 -0.0076
 3985SOL    HW123417   1.461   1.416   9.792 -1.4851 -1.1110 -1.6187
 3985SOL    HW223418   1.563   1.504   9.726  0.4448 -0.8883  2.6931
 3986SOL     OW23419   0.366   1.456   5.869 -0.1957  0.5330  0.0624
 3986SOL    HW123420   0.305   1.427   5.802 -0.6097 -0.4827  0.8793
 3986SOL    HW223421   0.300   1.505   5.919  0.7417  1.1921  0.6433
 3987SOL     OW23422   0.606   2.256   8.102 -0.6459  0.1003 -0.8622
 3987SOL    HW123423   0.590   2.195   8.174  1.5237  1.0770  0.4725
 3987SOL    HW223424   0.525   2.301   8.124  0.9254  2.5040  0.0836
 3988SOL     OW23425   0.745   3.874   5.176  0.0443  0.6016 -0.1650
 3988SOL    HW123426   0.698   3.957   5.185 -0.6368  0.2224 -0.2509
 3988SOL    HW223427   0.798   3.893   5.099  0.4880  2.0819  0.4930
 3989SOL     OW23428   1.331   4.565   8.906 -0.2913 -0.1619  0.1056
 3989SOL    HW123429   1.235   4.565   8.908 -0.2753  1.2412  0.4114
 3989SOL    HW223430   1.348   4.647   8.952 -0.6791  1.3241 -2.3733
 3990SOL     OW23431   4.295   2.094   2.781 -0.0720  0.7945  0.1002
 3990SOL    HW123432   4.298   2.090   2.686 -0.5886 -0.2487  0.1317
 3990SOL    HW223433   4.359   2.164   2.796  3.5794 -2.6306  0.4637
 3991SOL     OW23434   2.259   4.087   7.732  0.1991  0.2408  0.0592
 3991SOL    HW123435   2.323   4.091   7.803  3.1027  1.8944 -2.6688
 3991SOL    HW223436   2.298   4.019   7.677 -1.5819  0.1618 -1.1005
 3992SOL     OW23437   4.525   3.841   1.973 -0.6417 -0.5301 -0.2700
 3992SOL    HW123438   4.564   3.928   1.968 -2.0470  0.1198 -0.1150
 3992SOL    HW223439   4.525   3.830   2.068  2.1943  1.7925  0.0080
 3993SOL     OW23440   3.641   4.353  12.688 -0.1127 -0.6154  0.1148
 3993SOL    HW123441   3.621   4.384  12.777 -0.6012  1.3742 -0.6745
 3993SOL    HW223442   3.620   4.260  12.695  0.5742 -0.8246 -0.6719
 3994SOL     OW23443   3.301   3.619   0.511 -0.0276  0.5690  0.0133
 3994SOL    HW123444   3.333   3.687   0.453 -0.7827  0.5727 -0.4011
 3994SOL    HW223445   3.206   3.628   0.500  0.0426  1.3430  0.1090
 3995SOL     OW23446   2.163   4.552   3.282  0.0501  0.7147 -0.3713
 3995SOL    HW123447   2.193   4.626   3.335 -0.2002  0.6953 -0.2051
 3995SOL    HW223448   2.197   4.578   3.196  2.1728  1.6247  0.7285
 3996SOL     OW23449   0.812   2.543   7.057  0.0804  0.5100 -0.0320
 3996SOL    HW123450   0.772   2.506   7.136 -1.7630 -1.5421 -1.9360
 3996SOL    HW223451   0.878   2.482   7.024 -0.1738  0.0053  0.3891
 3997SOL     OW23452   1.792   1.395   2.536 -0.2827  0.1373  0.0062
 3997SOL    HW123453   1.856   1.392   2.465  0.2142  1.1912  0.4129
 3997SOL    HW223454   1.837   1.335   2.595  0.9435 -0.0600 -1.1586
 3998SOL     OW23455   2.431   3.524  15.505  0.1895 -0.3266 -0.1076
 3998SOL    HW123456   2.377   3.574  15.444 -1.1559 -1.8224 -0.1463
 3998SOL    HW223457   2.436   3.441  15.458 -2.0046 -0.4319 -0.1709
 3999SOL     OW23458   3.344   4.428  14.248 -0.4502 -0.2919 -0.5185
 3999SOL    HW123459   3.249   4.430  14.237 -0.3313  2.0785 -1.0426
 3999SOL    HW223460   3.374   4.392  14.165  1.8538 -0.3990  0.3373
 4000SOL     OW23461   4.440   3.392   3.965 -0.1629 -0.4349 -0.3069
 4000SOL    HW123462   4.374   3.403   3.897  0.0732 -0.3689 -0.5252
 4000SOL    HW223463   4.413   3.462   4.025  1.5831  0.0318 -0.0505
 4001SOL     OW23464   0.718   2.282   1.619 -0.1175  0.0197  0.1245
 4001SOL    HW123465   0.768   2.316   1.693  1.0914  1.5423 -1.3661
 4001SOL    HW223466   0.786   2.289   1.552  1.0302  3.0409  1.6005
 4002SOL     OW23467   2.029   3.142  17.448 -0.4522 -0.4044 -0.6987
 4002SOL    HW123468   1.946   3.113  17.410  0.3126 -0.4295 -2.3212
 4002SOL    HW223469   2.069   3.169  17.366 -0.0032  2.6982  0.5226
 4003SOL     OW23470   2.631   2.660   1.613 -0.1152  0.3146  0.9040
 4003SOL    HW123471   2.709   2.633   1.660  1.7410  2.7418 -0.7810
 4003SOL    HW223472   2.666   2.719   1.546  0.4943 -0.1288  0.8396
 4004SOL     OW23473   3.390   2.373   2.847 -0.2115  0.5280  0.1463
 4004SOL    HW123474   3.330   2.424   2.793 -1.1135 -0.9345 -0.2475
 4004SOL    HW223475   3.475   2.401   2.812 -0.0751 -1.7727 -1.3815
 4005SOL     OW23476   2.986   0.671  16.618 -0.1994  0.6688 -0.6833
 4005SOL    HW123477   2.998   0.593  16.565 -1.2176 -0.5915  0.9338
 4005SOL    HW223478   2.977   0.732  16.544  2.4839  1.1485 -0.6157
 4006SOL     OW23479   1.189   2.709   9.181  0.4339  0.0747 -0.0030
 4006SOL    HW123480   1.245   2.683   9.254  0.3323 -1.7848 -0.5774
 4006SOL    HW223481   1.205   2.652   9.105 -1.4586  1.0717 -1.1305
 4007SOL     OW23482   0.058   4.113   0.836  0.6887 -0.1608  0.1200
 4007SOL    HW123483   0.052   4.199   0.794  0.6428 -1.2275 -2.0322
 4007SOL    HW223484   0.115   4.138   0.909  0.5452  0.8361 -0.1068
 4008SOL     OW23485   2.279   1.003  14.925  0.0792  0.2388  0.3055
 4008SOL    HW123486   2.258   1.038  15.011 -0.9818 -1.1784  0.6165
 4008SOL    HW223487   2.365   1.034  14.894 -0.7500  2.4435  0.2161
 4009SOL     OW23488   0.266   0.564  13.467  0.8274 -0.0537  0.2663
 4009SOL    HW123489   0.173   0.555  13.447  0.9516  0.9982 -0.8104
 4009SOL    HW223490   0.295   0.475  13.447  0.6170  0.3072 -1.6561
 4010SOL     OW23491   0.184   2.766  14.282  0.1794  0.2383  0.1905
 4010SOL    HW123492   0.259   2.723  14.241 -0.8066  0.5310 -1.8927
 4010SOL    HW223493   0.170   2.819  14.204 -0.3081  0.4879  0.4440
 4011SOL     OW23494   4.093   1.674   8.743  0.4531 -0.5864 -0.6805
 4011SOL    HW123495   4.005   1.710   8.745  0.9393  0.4465  1.7175
 4011SOL    HW223496   4.141   1.738   8.796 -1.1863  0.0116  0.0875
 4012SOL     OW23497   0.695   3.229  16.475 -0.8082 -0.4363 -0.1927
 4012SOL    HW123498   0.647   3.277  16.408  0.7852  0.7903 -0.4692
 4012SOL    HW223499   0.669   3.139  16.457 -1.6374 -0.4842  1.2698
 4013SOL     OW23500   3.538   4.339   4.122  0.1132  0.5581  0.1055
 4013SOL    HW123501   3.590   4.288   4.184  1.1493 -0.7037 -1.7967
 4013SOL    HW223502   3.539   4.281   4.046 -0.1544  1.5023 -0.6207
 4014SOL     OW23503   1.547   1.608  13.829 -0.1397 -0.3382  0.1946
 4014SOL    HW123504   1.589   1.678  13.878 -1.6634 -0.9706  2.3825
 4014SOL    HW223505   1.505   1.651  13.755 -2.2033 -2.5929  0.0441
 4015SOL     OW23506   0.397   0.888   6.686  0.1549 -0.0885 -0.1723
 4015SOL    HW123507   0.422   0.952   6.620  0.2244 -0.5715 -0.6194
 4015SOL    HW223508   0.344   0.834   6.628 -0.4785  1.1713 -0.7444
 4016SOL     OW23509   0.625   2.375   5.537 -0.1033 -0.0786  0.2875
 4016SOL    HW123510   0.659   2.293   5.573  1.9690  1.6164  2.2150
 4016SOL    HW223511   0.559   2.399   5.602  0.5474 -0.2632  1.0296
 4017SOL     OW23512   4.608   2.212  14.443 -0.4997 -0.4151  0.5235
 4017SOL    HW123513   4.680   2.229  14.381 -0.8585 -0.8732 -0.0190
 4017SOL    HW223514   4.585   2.299  14.475  0.2110  0.5519 -1.5440
 4018SOL     OW23515   2.741   2.799   3.028  0.1354  0.6232  0.2799
 4018SOL    HW123516   2.742   2.733   2.958  2.2545 -1.1454  1.9794
 4018SOL    HW223517   2.815   2.777   3.085 -0.5776 -1.4271  0.4252
 4019SOL     OW23518   3.966   0.314   2.882  0.3621 -0.4630 -0.0815
 4019SOL    HW123519   3.894   0.375   2.896  2.2383  1.9752 -1.2036
 4019SOL    HW223520   3.980   0.328   2.789 -0.8660  0.7419 -0.0901
 4020SOL     OW23521   0.918   0.102   8.268 -0.7608  0.0504 -0.2654
 4020SOL    HW123522   0.958   0.136   8.347 -1.3376  0.8584 -0.3221
 4020SOL    HW223523   0.962   0.017   8.273 -0.9768 -0.0885 -0.6470
 4021SOL     OW23524   3.426   4.344  13.335  0.8310  0.2768 -0.0222
 4021SOL    HW123525   3.432   4.307  13.247  0.9715  1.1099 -0.3612
 4021SOL    HW223526   3.511   4.387  13.336  1.7468 -1.5493  0.7329
 4022SOL     OW23527   4.240   4.521   5.543  0.0416 -1.5639  0.8533
 4022SOL    HW123528   4.304   4.522   5.614  0.6555 -1.5489  0.3014
 4022SOL    HW223529   4.156   4.521   5.589  0.1386 -0.6511  1.0311
 4023SOL     OW23530   2.970   2.819   3.204  0.1848  0.2034 -0.2410
 4023SOL    HW123531   3.041   2.810   3.268 -0.2865 -0.1968  0.2240
 4023SOL    HW223532   2.892   2.846   3.254 -0.0655 -0.8677 -0.0546
 4024SOL     OW23533   3.248   4.312  16.958  0.4641 -0.5521 -0.0645
 4024SOL    HW123534   3.174   4.270  16.913  0.7607 -2.7186  1.4592
 4024SOL    HW223535   3.240   4.275  17.046 -1.4962 -0.6208 -0.2694
 4025SOL     OW23536   1.084   4.562   5.903  0.6436  0.7299 -0.0638
 4025SOL    HW123537   1.071   4.630   5.968  0.1322 -0.6108  1.2195
 4025SOL    HW223538   1.113   4.605   5.822  2.0125  1.3115  0.7318
 4026SOL     OW23539   0.062   3.592   5.643  0.0614  0.0805 -0.2056
 4026SOL    HW123540   0.029   3.503   5.638  0.2499  0.0175 -0.3702
 4026SOL    HW223541   0.020   3.613   5.726 -0.3475  0.2560 -0.4600
 4027SOL     OW23542   0.571   3.019   7.626 -0.1075  0.3822 -0.3947
 4027SOL    HW123543   0.597   2.933   7.657  2.4707  1.0064 -0.8479
 4027SOL    HW223544   0.501   2.991   7.567 -0.0390  2.1545 -1.3325
 4028SOL     OW23545   1.535   1.793   1.119 -0.1194 -0.3985 -0.5454
 4028SOL    HW123546   1.573   1.804   1.206 -0.2595 -0.0961 -0.5203
 4028SOL    HW223547   1.440   1.795   1.134 -0.0973 -0.8883 -0.3579
 4029SOL     OW23548   1.344   1.847   1.974 -0.5023 -0.2335  0.2308
 4029SOL    HW123549   1.319   1.911   1.907  1.9477 -0.3067 -0.7269
 4029SOL    HW223550   1.434   1.871   1.994 -0.4436 -1.3283  1.2705
 4030SOL     OW23551   3.346   0.122   4.830 -0.0028  0.0173 -0.4414
 4030SOL    HW123552   3.385   0.055   4.886 -0.4728 -2.1619 -2.7188
 4030SOL    HW223553   3.379   0.204   4.867 -2.0150  1.1411 -1.0804
 4031SOL     OW23554   0.387   4.388   2.924 -0.3689 -0.6909 -0.4315
 4031SOL    HW123555   0.322   4.427   2.982 -0.2030  1.2386 -1.5478
 4031SOL    HW223556   0.336   4.328   2.869 -2.4254  1.5176 -0.9298
 4032SOL     OW23557   1.091   3.924  11.096  0.3169 -0.6701 -0.4557
 4032SOL    HW123558   1.003   3.921  11.059 -0.0424  1.9020  0.2168
 4032SOL    HW223559   1.081   4.011  11.134  0.1051 -0.6828 -0.4814
 4033SOL     OW23560   1.311   1.591   1.964  0.2287  0.1559 -0.1249
 4033SOL    HW123561   1.315   1.679   2.001  2.2688 -0.1866  0.4671
 4033SOL    HW223562   1.394   1.565   2.003  0.3456  0.6467 -0.0489
 4034SOL     OW23563   1.090   4.670  11.887 -0.1284 -0.6976 -0.1469
 4034SOL    HW123564   1.027   4.694  11.954 -1.0692  0.0144 -1.2829
 4034SOL    HW223565   1.100   0.040  11.855  1.5514 -1.5595 -2.0644
 4035SOL     OW23566   2.055   0.263   6.435  0.5746 -0.6369 -0.3229
 4035SOL    HW123567   2.012   0.332   6.385  2.7390  2.2425  1.7622
 4035SOL    HW223568   1.981   0.218   6.477 -0.0637  0.4740 -0.2566
 4036SOL     OW23569   3.906   1.982   6.093 -0.0632  0.2218  0.2607
 4036SOL    HW123570   3.940   1.989   6.182 -0.7160 -2.5020  0.7344
 4036SOL    HW223571   3.915   2.074   6.068  0.8792  0.0217 -0.1427
 4037SOL     OW23572   0.887   2.551   5.705  0.0641  0.1599  0.4052
 4037SOL    HW123573   0.889   2.645   5.688  0.3191  0.3676  1.5978
 4037SOL    HW223574   0.820   2.515   5.647  0.1668 -3.0137  2.2484
 4038SOL     OW23575   3.189   0.812   2.817  0.1274  0.6005  0.2273
 4038SOL    HW123576   3.280   0.836   2.801  0.8029 -1.7692  0.4948
 4038SOL    HW223577   3.169   0.880   2.881  1.8327  1.7490 -0.4643
 4039SOL     OW23578   2.471   0.862   6.991 -0.1759  0.0303  0.2382
 4039SOL    HW123579   2.411   0.789   7.004 -0.7715  0.4874  0.0449
 4039SOL    HW223580   2.406   0.925   7.022  0.2850  0.8894 -0.5227
 4040SOL     OW23581   1.323   4.539  13.324  0.4852 -0.1631  0.4720
 4040SOL    HW123582   1.375   4.527  13.403 -0.3466 -3.1000  0.5601
 4040SOL    HW223583   1.378   4.586  13.261  0.3503 -0.2891  0.2633
 4041SOL     OW23584   3.891   2.849   2.089  0.1806  0.3324  0.3775
 4041SOL    HW123585   3.983   2.834   2.067 -0.2804 -2.1567  0.2106
 4041SOL    HW223586   3.908   2.926   2.143 -1.0877  1.0743 -0.2609
 4042SOL     OW23587   3.667   0.058   3.018 -0.5965 -0.1128  0.5172
 4042SOL    HW123588   3.748   0.088   2.976  0.6645  0.9187  3.6934
 4042SOL    HW223589   3.709   4.714   3.075 -0.3054  0.8735  1.3890
 4043SOL     OW23590   3.176   0.145   4.185  0.2128 -0.6369  0.3388
 4043SOL    HW123591   3.093   0.130   4.231 -0.5756  2.0720 -0.1948
 4043SOL    HW223592   3.219   0.210   4.241 -1.6207 -0.3359  1.4058
 4044SOL     OW23593   0.112   1.237   8.458 -0.0440 -0.0863  0.4179
 4044SOL    HW123594   0.135   1.305   8.521 -1.2410 -0.7994  1.6124
 4044SOL    HW223595   0.056   1.276   8.391 -0.0315  3.0403  2.2230
 4045SOL     OW23596   1.988   4.303  10.092 -0.3613 -0.2733  0.4484
 4045SOL    HW123597   1.902   4.343  10.080 -0.0742 -0.3828 -2.0309
 4045SOL    HW223598   1.981   4.272  10.182 -0.8784 -0.0520  0.4789
 4046SOL     OW23599   4.621   2.886   5.064  0.2109 -0.1140  0.1075
 4046SOL    HW123600   4.657   2.940   5.135  1.1105 -0.0930 -0.3625
 4046SOL    HW223601   4.583   2.953   5.007  0.0432 -1.0038 -0.8160
 4047SOL     OW23602   4.137   1.376   4.965  0.1840  0.4609  0.0790
 4047SOL    HW123603   4.223   1.360   4.925  0.9225  2.1166  0.9982
 4047SOL    HW223604   4.083   1.411   4.895 -1.0510 -0.3210  0.6372
 4048SOL     OW23605   0.487   0.754   3.074 -0.5478  0.6102  0.2966
 4048SOL    HW123606   0.576   0.744   3.038 -0.4220  0.4578  0.6503
 4048SOL    HW223607   0.496   0.847   3.094  2.2940  0.7894 -1.6325
 4049SOL     OW23608   0.174   4.396   6.211 -0.2874  0.2211  0.2269
 4049SOL    HW123609   0.146   4.465   6.151 -0.2604 -0.7521 -0.9125
 4049SOL    HW223610   0.249   4.448   6.239  0.0471 -0.4943  0.6577
 4050SOL     OW23611   2.659   0.038   3.708 -0.0378  0.2933 -0.5262
 4050SOL    HW123612   2.576   0.029   3.755 -0.1125  1.6908 -0.3865
 4050SOL    HW223613   2.691   4.669   3.720  0.7425  0.7423  0.6175
 4051SOL     OW23614   2.858   4.061   3.037 -0.2244  0.1576 -0.1288
 4051SOL    HW123615   2.942   4.074   3.080 -0.0344 -1.7192  0.0483
 4051SOL    HW223616   2.866   4.093   2.947  3.4423  1.6952  0.7180
 4052SOL     OW23617   0.663   1.596  15.370 -0.1859 -0.6159 -0.0629
 4052SOL    HW123618   0.719   1.639  15.306  1.2778 -1.4623  0.6453
 4052SOL    HW223619   0.656   1.657  15.442 -2.7826 -2.6574  1.4540
 4053SOL     OW23620   2.076   1.585   8.286 -0.4598 -0.0036 -0.7144
 4053SOL    HW123621   2.159   1.540   8.272 -0.7955 -1.1970  1.0447
 4053SOL    HW223622   2.034   1.579   8.200  2.3048 -1.2360 -1.9471
 4054SOL     OW23623   1.567   4.189   7.013 -0.3160 -0.8442 -0.4180
 4054SOL    HW123624   1.507   4.195   7.087  0.3554 -1.1355  0.1459
 4054SOL    HW223625   1.507   4.219   6.945 -1.8298 -0.2474  1.1760
 4055SOL     OW23626   3.014   4.509   7.209  0.0895 -0.0101 -0.4508
 4055SOL    HW123627   2.949   4.533   7.275  0.7714  1.0056 -0.1501
 4055SOL    HW223628   3.072   4.446   7.253 -0.4128 -1.3872 -1.7586
 4056SOL     OW23629   2.061   3.370   0.849 -0.2382  0.5988 -0.2343
 4056SOL    HW123630   1.985   3.341   0.800  0.7892 -0.6160 -1.1117
 4056SOL    HW223631   2.037   3.460   0.869  1.1250  1.0514 -0.6610
 4057SOL     OW23632   4.490   1.138  17.621  0.0316  0.1699 -0.4484
 4057SOL    HW123633   4.439   1.217  17.605  1.2066  0.8043 -1.0920
 4057SOL    HW223634   4.573   1.173  17.655  1.7168 -0.0728 -4.3538
 4058SOL     OW23635   4.212   1.431   3.028 -0.2826  0.1251  0.5948
 4058SOL    HW123636   4.217   1.341   3.060  0.9933 -0.4890 -1.3702
 4058SOL    HW223637   4.132   1.470   3.064 -1.3820  1.0769 -2.9314
 4059SOL     OW23638   0.927   3.519   7.305 -0.1604  0.2272 -0.3836
 4059SOL    HW123639   0.872   3.449   7.341 -0.6295  1.4061  1.1889
 4059SOL    HW223640   0.882   3.533   7.222 -0.5582 -0.9767 -0.3716
 4060SOL     OW23641   2.726   3.545  16.061 -0.5460 -0.6655 -0.2953
 4060SOL    HW123642   2.775   3.473  16.021  1.1441  0.9520 -1.0975
 4060SOL    HW223643   2.639   3.514  16.037 -1.8300  2.1610  0.6941
 4061SOL     OW23644   1.686   4.450   3.748  0.2806  0.2310 -0.1344
 4061SOL    HW123645   1.675   4.513   3.819  1.2557 -0.8770  0.9874
 4061SOL    HW223646   1.757   4.398   3.786  0.1831  1.2374  1.4056
 4062SOL     OW23647   4.064   4.034   9.408  0.6566  0.2604 -0.2636
 4062SOL    HW123648   4.104   3.949   9.389 -0.0928 -0.5380  1.7183
 4062SOL    HW223649   4.134   4.068   9.464  1.0946 -1.0705  0.0128
 4063SOL     OW23650   4.624   2.000   7.212  0.1099  0.3125 -0.0699
 4063SOL    HW123651   4.670   1.946   7.275 -0.9125  1.8257  1.9885
 4063SOL    HW223652   4.705   2.036   7.177  0.3805 -0.2181  0.0083
 4064SOL     OW23653   4.084   1.995  16.362  0.2818 -0.1921  0.1434
 4064SOL    HW123654   3.994   1.966  16.346 -0.2077  2.1977 -1.3296
 4064SOL    HW223655   4.094   2.071  16.305  0.2502 -0.0764  0.2908
 4065SOL     OW23656   1.881   3.385   1.185 -0.1915  0.1432  0.1847
 4065SOL    HW123657   1.910   3.467   1.145  1.0515 -0.4377 -0.1042
 4065SOL    HW223658   1.807   3.407   1.243 -1.7657 -2.7580 -0.7359
 4066SOL     OW23659   3.089   3.682   1.910 -0.0396  0.4026  0.0118
 4066SOL    HW123660   3.044   3.740   1.848 -0.5708 -0.5675 -0.5047
 4066SOL    HW223661   3.102   3.741   1.984  0.9879  0.2930 -0.0715
 4067SOL     OW23662   0.263   4.036   6.679 -0.1019 -0.5716  0.1377
 4067SOL    HW123663   0.357   4.023   6.688 -0.3626 -2.0049  0.6688
 4067SOL    HW223664   0.270   4.125   6.645 -1.0699 -0.1802  0.9608
 4068SOL     OW23665   0.028   3.320  15.727  0.3162 -0.5752 -0.0227
 4068SOL    HW123666   4.701   3.354  15.651  0.1446  1.9532  1.2071
 4068SOL    HW223667   4.678   3.323  15.792  0.2182 -2.8333 -0.0249
 4069SOL     OW23668   1.819   1.304   4.699 -0.1026 -0.4648  0.3355
 4069SOL    HW123669   1.848   1.358   4.772 -0.6451  1.0618 -0.5728
 4069SOL    HW223670   1.901   1.273   4.659 -0.3314 -0.3833 -0.2005
 4070SOL     OW23671   0.716   3.705  11.062 -0.0026  0.6739 -0.6019
 4070SOL    HW123672   0.651   3.744  11.119 -0.3582 -0.0406 -0.5195
 4070SOL    HW223673   0.735   3.625  11.111  3.4946  2.1570  0.5254
 4071SOL     OW23674   0.880   3.768  16.495 -1.0109 -0.0668  0.6513
 4071SOL    HW123675   0.945   3.824  16.452 -0.0678 -1.4062  0.3207
 4071SOL    HW223676   0.856   3.826  16.567 -2.0791  1.5069 -0.9568
 4072SOL     OW23677   3.586   4.105   4.592  0.1363 -0.3295 -0.2969
 4072SOL    HW123678   3.491   4.112   4.600  0.6146  2.4137  3.0357
 4072SOL    HW223679   3.618   4.086   4.680  3.4858 -1.0067 -1.6533
 4073SOL     OW23680   2.680   2.979   6.439  0.0591  0.0047  0.7427
 4073SOL    HW123681   2.729   2.905   6.475  3.2296  2.7699  2.0241
 4073SOL    HW223682   2.599   2.935   6.412  1.8106 -2.9616  0.2572
 4074SOL     OW23683   2.102   1.721  13.684 -0.1502 -0.6007 -0.4130
 4074SOL    HW123684   2.160   1.751  13.615 -1.0647  1.8805 -0.0948
 4074SOL    HW223685   2.169   1.669  13.727 -0.0787 -1.2730 -1.3321
 4075SOL     OW23686   3.885   2.621   3.214 -0.1334 -0.4627 -0.1244
 4075SOL    HW123687   3.952   2.682   3.245 -1.0876  0.5554 -0.0740
 4075SOL    HW223688   3.930   2.538   3.230 -1.6600 -1.3170 -0.2745
 4076SOL     OW23689   0.137   1.176   9.274 -0.0860  0.3657 -0.3132
 4076SOL    HW123690   0.128   1.266   9.244  1.4590  0.5284 -0.3358
 4076SOL    HW223691   0.078   1.128   9.217 -2.5753  0.5435  2.1328
 4077SOL     OW23692   0.376   2.089  15.027 -0.7160  0.4012 -0.1626
 4077SOL    HW123693   0.410   2.117  14.942 -1.6835  0.4955 -0.5248
 4077SOL    HW223694   0.455   2.091  15.080 -1.3720 -2.3673  0.9288
 4078SOL     OW23695   1.798   0.302   7.038  0.3736 -0.5788 -0.2108
 4078SOL    HW123696   1.738   0.370   7.010 -2.1149 -3.7253 -2.5194
 4078SOL    HW223697   1.778   0.310   7.131 -3.0954 -0.9778 -0.9275
 4079SOL     OW23698   3.930   2.814  15.918  0.1128 -0.1978 -0.3956
 4079SOL    HW123699   4.017   2.811  15.877  0.5908  0.2585  0.5994
 4079SOL    HW223700   3.900   2.738  15.867 -1.1982  1.6886 -2.4359
 4080SOL     OW23701   0.940   1.118   2.534 -0.1169  0.0198 -0.5983
 4080SOL    HW123702   0.875   1.060   2.494  0.1788 -1.8957  1.6567
 4080SOL    HW223703   0.970   1.054   2.599  0.4482  0.9175  0.0120
 4081SOL     OW23704   2.167   1.876   2.141 -0.5611  0.7495 -0.1501
 4081SOL    HW123705   2.251   1.832   2.153 -0.5970  1.0591  1.2651
 4081SOL    HW223706   2.189   1.958   2.185  2.8517  0.4949 -1.3861
 4082SOL     OW23707   1.758   1.524   4.564  0.7662  0.0264  0.2926
 4082SOL    HW123708   1.783   1.437   4.595 -0.1388  0.2724  1.7275
 4082SOL    HW223709   1.674   1.514   4.518  0.2535 -1.7126  1.5906
 4083SOL     OW23710   4.395   1.534  11.081  0.3872  0.0548 -0.0750
 4083SOL    HW123711   4.458   1.523  11.152  1.1283 -2.5271 -1.1450
 4083SOL    HW223712   4.422   1.617  11.041  0.2986  1.4092  2.6415
 4084SOL     OW23713   1.074   0.504   3.046 -0.1219 -0.0488 -1.2521
 4084SOL    HW123714   1.117   0.426   3.080 -2.5496 -0.5822  0.6232
 4084SOL    HW223715   1.108   0.509   2.957  1.0807 -1.9015 -0.8923
 4085SOL     OW23716   4.122   0.395   8.721  0.3630 -0.2178 -0.1300
 4085SOL    HW123717   4.069   0.315   8.723 -0.0410  0.0661  0.2452
 4085SOL    HW223718   4.106   0.417   8.629 -1.5880 -2.3864 -0.3143
 4086SOL     OW23719   4.608   3.357  17.236 -0.3249  0.0249  0.3614
 4086SOL    HW123720   4.541   3.423  17.255 -1.2015 -0.3363 -1.5094
 4086SOL    HW223721   4.555   3.281  17.258 -0.3655  0.0151  0.2309
 4087SOL     OW23722   2.635   3.036  11.417  0.0991 -0.0685  0.0674
 4087SOL    HW123723   2.599   3.107  11.363  2.9625  1.3170 -0.0071
 4087SOL    HW223724   2.725   3.068  11.424  0.0723  0.8123 -3.1775
 4088SOL     OW23725   1.952   4.158   3.589  0.0441  0.1861 -0.3733
 4088SOL    HW123726   2.029   4.185   3.639  2.0374 -1.5840 -2.4715
 4088SOL    HW223727   1.971   4.194   3.503 -1.3009 -1.7323 -1.4840
 4089SOL     OW23728   1.052   0.891   8.973 -0.7115 -0.3082 -0.5471
 4089SOL    HW123729   1.090   0.812   8.935 -0.7580 -1.1898  1.2251
 4089SOL    HW223730   0.983   0.853   9.028 -1.1614  2.9930  1.1768
 4090SOL     OW23731   3.252   0.988   4.026 -0.1875  0.3825  0.0014
 4090SOL    HW123732   3.263   1.084   4.030  0.2314  0.3466 -0.2337
 4090SOL    HW223733   3.183   0.982   4.092 -0.8274 -0.6207 -0.7726
 4091SOL     OW23734   3.472   1.655   6.716 -0.2831 -0.1064 -0.2162
 4091SOL    HW123735   3.551   1.707   6.699  0.6301 -0.8855  1.6941
 4091SOL    HW223736   3.476   1.623   6.806 -2.0373  3.3102  1.0794
 4092SOL     OW23737   0.237   3.450   7.076 -0.8097 -0.2487  0.2118
 4092SOL    HW123738   0.222   3.357   7.060 -1.2101 -0.3428  1.1054
 4092SOL    HW223739   0.328   3.461   7.047 -0.8664  2.9492  1.2897
 4093SOL     OW23740   0.411   2.468  15.297 -0.5170 -0.4053 -0.5622
 4093SOL    HW123741   0.385   2.550  15.338  0.8295 -0.7493  0.9568
 4093SOL    HW223742   0.501   2.497  15.286 -1.0954  1.2795 -0.8495
 4094SOL     OW23743   4.274   0.009   0.039 -0.1226 -0.0950 -0.5712
 4094SOL    HW123744   4.363   0.038   0.062 -0.6290  1.7751 -0.9824
 4094SOL    HW223745   4.291   4.650  17.670 -1.9939 -2.3124  2.2470
 4095SOL     OW23746   2.625   0.775  11.476  0.0948  0.3153 -0.1996
 4095SOL    HW123747   2.703   0.783  11.420  1.5865 -0.5740  1.7643
 4095SOL    HW223748   2.675   0.743  11.551 -0.4938  0.2147  0.1481
 4096SOL     OW23749   3.643   3.048   7.431  0.6179  0.2940 -0.2357
 4096SOL    HW123750   3.569   2.989   7.415  1.3618 -0.4012 -1.0918
 4096SOL    HW223751   3.669   3.033   7.522  0.5735 -1.3863 -0.5062
 4097SOL     OW23752   1.997   3.925  14.529 -0.1252 -0.8762  0.1520
 4097SOL    HW123753   1.972   3.931  14.437 -0.0191  1.2631  0.2601
 4097SOL    HW223754   2.057   3.851  14.521 -1.7303 -2.0980 -0.6027
 4098SOL     OW23755   0.960   1.407   7.826 -0.4341  0.2390  0.8140
 4098SOL    HW123756   0.994   1.383   7.913 -0.4457 -1.1065  0.4514
 4098SOL    HW223757   0.897   1.335   7.824 -0.3788  0.1924  0.7471
 4099SOL     OW23758   4.444   0.464  10.981  0.3806 -0.4320  0.1144
 4099SOL    HW123759   4.464   0.407  10.906 -1.9595 -2.6410  1.1739
 4099SOL    HW223760   4.367   0.515  10.955  1.8147  2.0468  0.7647
 4100SOL     OW23761   0.790   0.860  10.534 -0.1663  0.3253  0.3894
 4100SOL    HW123762   0.823   0.773  10.511  0.5380  0.9943 -1.1174
 4100SOL    HW223763   0.716   0.831  10.588 -1.0667  0.9588 -0.4893
 4101SOL     OW23764   4.284   4.111  12.062  0.0264  0.1246 -0.0906
 4101SOL    HW123765   4.306   4.064  12.143  0.6739  0.7244  0.0791
 4101SOL    HW223766   4.226   4.049  12.018  0.8583 -0.2036 -0.7292
 4102SOL     OW23767   4.139   1.685  16.798 -0.1429  0.0286  0.2243
 4102SOL    HW123768   4.165   1.708  16.708 -0.3802  0.4521  0.2628
 4102SOL    HW223769   4.226   1.701  16.836  1.2564  1.2410 -3.4704
 4103SOL     OW23770   1.297   2.012   1.746 -0.4157  0.4071  0.1319
 4103SOL    HW123771   1.246   1.956   1.687  0.9237  0.5533 -1.1620
 4103SOL    HW223772   1.232   2.074   1.780 -1.7443  0.0108 -1.6475
 4104SOL     OW23773   2.778   3.192   7.212  0.3577 -0.5881  0.1894
 4104SOL    HW123774   2.683   3.199   7.201  0.4845 -1.4061 -1.3994
 4104SOL    HW223775   2.800   3.285   7.208 -1.5028 -0.1888 -0.3734
 4105SOL     OW23776   2.891   1.590   0.540  0.3127 -0.1108 -0.8350
 4105SOL    HW123777   2.954   1.613   0.472 -0.2780 -0.8433 -1.6259
 4105SOL    HW223778   2.950   1.554   0.606  0.5053  0.0865 -0.8993
 4106SOL     OW23779   1.200   2.609   4.141  0.1157 -0.1696 -0.0056
 4106SOL    HW123780   1.208   2.699   4.173 -1.3298 -0.4170  1.0580
 4106SOL    HW223781   1.117   2.578   4.175  0.0195  0.2152  0.1134
 4107SOL     OW23782   3.240   1.075   5.847 -0.1028 -0.3796 -0.2248
 4107SOL    HW123783   3.177   1.083   5.918  2.4603 -1.1866  2.1300
 4107SOL    HW223784   3.254   1.169   5.844  0.3857 -0.4472 -0.0242
 4108SOL     OW23785   4.166   0.461   0.976 -0.0859 -0.2745 -0.2501
 4108SOL    HW123786   4.140   0.489   0.889 -2.1181 -0.7287  0.2075
 4108SOL    HW223787   4.198   0.372   0.959  1.7155  0.3384 -0.0357
 4109SOL     OW23788   1.378   2.848   7.296  0.1880  0.0789  0.1017
 4109SOL    HW123789   1.441   2.867   7.365  0.5345 -0.6218 -0.0202
 4109SOL    HW223790   1.296   2.888   7.325 -0.6338 -1.0854 -0.6351
 4110SOL     OW23791   0.218   0.874   9.641 -0.5442  0.5422 -0.1522
 4110SOL    HW123792   0.273   0.945   9.673  1.3033 -1.6312  1.5131
 4110SOL    HW223793   0.160   0.931   9.590 -1.1273  0.2123  0.1421
 4111SOL     OW23794   1.717   4.700   6.770  0.2080 -0.2427 -0.2222
 4111SOL    HW123795   1.756   0.061   6.737  0.5735 -2.0055 -4.1069
 4111SOL    HW223796   1.710   4.713   6.864 -0.5926 -0.0892 -0.3021
 4112SOL     OW23797   1.804   1.392   2.070 -0.2866  0.3241 -0.3206
 4112SOL    HW123798   1.738   1.329   2.098 -0.0949 -0.1635 -0.9630
 4112SOL    HW223799   1.872   1.335   2.034 -0.8646 -1.6522  1.7607
 4113SOL     OW23800   1.894   2.884  13.602 -0.4837  0.1949 -0.1448
 4113SOL    HW123801   1.938   2.927  13.529  1.3966 -0.4205  0.6291
 4113SOL    HW223802   1.803   2.884  13.572 -0.0277 -0.3996 -1.5397
 4114SOL     OW23803   1.123   4.216  11.422  0.0109  0.3213 -0.2018
 4114SOL    HW123804   1.204   4.255  11.455  1.2568 -1.1902 -1.4347
 4114SOL    HW223805   1.129   4.255  11.334 -2.2151  0.5540 -0.2558
 4115SOL     OW23806   0.319   4.653   4.796  0.2609 -0.4487 -0.3098
 4115SOL    HW123807   0.400   4.650   4.745  0.1894 -0.5639 -0.4182
 4115SOL    HW223808   0.321   0.028   4.808  1.3044 -0.4663 -0.3735
 4116SOL     OW23809   3.434   1.929   6.835  0.3426  0.5524  0.1972
 4116SOL    HW123810   3.519   1.972   6.837  2.2091 -3.0588 -0.2724
 4116SOL    HW223811   3.424   1.911   6.742 -1.4240 -1.1134  0.7020
 4117SOL     OW23812   1.232   2.934   9.394 -0.3680 -0.0186 -0.0044
 4117SOL    HW123813   1.174   2.911   9.466  0.4515  0.3548  0.7636
 4117SOL    HW223814   1.289   2.992   9.444 -1.8529  0.2590  1.3285
 4118SOL     OW23815   1.656   2.216   6.956 -0.0238  0.2657  0.2513
 4118SOL    HW123816   1.679   2.200   7.048  0.4785  0.6857  0.2038
 4118SOL    HW223817   1.561   2.210   6.949  0.2613 -4.1845  0.5915
 4119SOL     OW23818   2.374   1.836   5.154 -0.0082  0.3138 -0.1034
 4119SOL    HW123819   2.422   1.760   5.122 -2.5209 -1.6484  0.7894
 4119SOL    HW223820   2.354   1.889   5.077  1.0126  0.8389 -0.0062
 4120SOL     OW23821   4.012   3.495   4.529  0.5754  0.1047 -0.2714
 4120SOL    HW123822   3.939   3.557   4.534 -0.2775 -0.9888  1.2104
 4120SOL    HW223823   4.077   3.545   4.578  0.2748 -0.1923  0.4354
 4121SOL     OW23824   2.243   4.658   7.970  0.1983  0.2079  0.4630
 4121SOL    HW123825   2.294   4.717   8.026 -1.6222  1.6322  0.6312
 4121SOL    HW223826   2.153   4.670   7.999 -0.0828 -0.1580 -0.2880
 4122SOL     OW23827   4.232   4.214   0.314  0.2992  0.2447 -0.4002
 4122SOL    HW123828   4.168   4.145   0.296  0.6708  0.5234 -2.8256
 4122SOL    HW223829   4.212   4.227   0.406 -1.4458  3.0876 -1.1654
 4123SOL     OW23830   0.133   3.359   0.447  0.1934  0.6766 -0.4985
 4123SOL    HW123831   0.197   3.298   0.483 -2.4424 -1.2808  0.9309
 4123SOL    HW223832   0.130   3.422   0.519  2.1969 -0.0664  0.2173
 4124SOL     OW23833   1.573   3.714   1.880 -0.0233  0.2824 -0.2634
 4124SOL    HW123834   1.522   3.655   1.825  0.2040  0.0364 -0.2064
 4124SOL    HW223835   1.563   3.666   1.962  2.6439  1.4203  0.7041
 4125SOL     OW23836   0.486   3.320   3.691  0.3051  0.3512 -0.3788
 4125SOL    HW123837   0.517   3.403   3.728  1.0359 -0.9232  1.9012
 4125SOL    HW223838   0.533   3.321   3.608 -1.5413 -1.4968 -1.4487
 4126SOL     OW23839   0.936   2.901   2.391 -0.2650  0.1927  0.5438
 4126SOL    HW123840   0.912   2.808   2.396  0.8013  0.0172  2.2738
 4126SOL    HW223841   0.886   2.921   2.312  0.1595  0.4266  0.3354
 4127SOL     OW23842   2.656   0.803   2.334  0.7987 -0.3772  0.0111
 4127SOL    HW123843   2.704   0.781   2.254 -1.0350 -0.6772 -1.0195
 4127SOL    HW223844   2.565   0.818   2.307  0.2622  3.9205  4.2637
 4128SOL     OW23845   1.917   1.703   5.023 -0.0675  0.3514 -0.8008
 4128SOL    HW123846   1.927   1.743   5.110  1.1709  1.7307 -1.5921
 4128SOL    HW223847   1.823   1.683   5.025 -0.0962  0.4012 -1.8524
 4129SOL     OW23848   3.684   2.845  15.032  0.0864  0.3302 -0.3776
 4129SOL    HW123849   3.608   2.801  15.070 -0.9799  1.9999 -0.6161
 4129SOL    HW223850   3.727   2.781  14.975  1.8136 -1.5085  2.9552
 4130SOL     OW23851   2.025   0.818   3.655 -0.1135 -0.1155  1.0396
 4130SOL    HW123852   1.975   0.883   3.703 -0.0346  0.6523  0.0681
 4130SOL    HW223853   2.105   0.864   3.630 -0.9495  0.2079 -1.0227
 4131SOL     OW23854   1.660   1.644   9.998 -0.4172  0.3744 -0.0339
 4131SOL    HW123855   1.591   1.578   9.995  1.4019 -1.6103  1.8025
 4131SOL    HW223856   1.713   1.608   9.926 -0.7928  0.0258 -0.1352
 4132SOL     OW23857   4.511   2.307   5.908  0.8696  0.1403 -0.0729
 4132SOL    HW123858   4.436   2.255   5.879  0.7871 -0.0940  0.5545
 4132SOL    HW223859   4.472   2.383   5.950  1.9807  0.1818  0.8809
 4133SOL     OW23860   0.846   3.825   6.689 -0.5548  0.5045 -0.3443
 4133SOL    HW123861   0.899   3.787   6.619 -1.5486  1.5200 -1.6371
 4133SOL    HW223862   0.910   3.834   6.760 -1.7123  1.6939  0.5461
 4134SOL     OW23863   3.216   2.786   6.026  0.1915 -0.3758  0.3831
 4134SOL    HW123864   3.187   2.839   6.100 -1.3797  0.2841 -0.7139
 4134SOL    HW223865   3.142   2.727   6.012  0.3504 -0.1860 -1.2757
 4135SOL     OW23866   2.463   4.624   9.674  0.0313 -0.5172  0.0815
 4135SOL    HW123867   2.445   4.625   9.768 -0.7684 -1.9377 -0.0665
 4135SOL    HW223868   2.375   4.591   9.654 -1.2574  1.5835  2.1931
 4136SOL     OW23869   3.632   0.824   0.809  0.4237 -0.5160  0.7936
 4136SOL    HW123870   3.627   0.902   0.865 -2.6712  0.2558 -0.5376
 4136SOL    HW223871   3.574   0.768   0.861  2.0223 -2.3567  0.5427
 4137SOL     OW23872   0.904   1.073   8.059  0.2701 -0.5060  0.2584
 4137SOL    HW123873   0.871   1.129   7.989  0.8373 -0.2536  0.1947
 4137SOL    HW223874   0.916   0.993   8.008  0.5282  0.6241 -1.4168
 4138SOL     OW23875   3.908   1.034   5.969 -0.1289  0.1830 -0.5061
 4138SOL    HW123876   3.851   0.957   5.976 -1.1034  0.8918 -0.8247
 4138SOL    HW223877   3.866   1.074   5.894  0.4392 -0.9110 -1.4088
 4139SOL     OW23878   1.884   2.661   8.219 -0.6615 -0.0450 -0.3915
 4139SOL    HW123879   1.859   2.592   8.280 -1.8708  1.3621  0.6984
 4139SOL    HW223880   1.887   2.732   8.283 -0.3404 -1.0948  0.7617
 4140SOL     OW23881   4.280   3.250   7.308  0.2083 -0.3421 -0.0542
 4140SOL    HW123882   4.267   3.343   7.326  1.8088 -0.0225 -0.5196
 4140SOL    HW223883   4.264   3.215   7.396  0.4273 -2.5469 -0.9156
 4141SOL     OW23884   4.676   3.836   2.876 -0.0688 -0.3426  0.2440
 4141SOL    HW123885   4.643   3.874   2.795  2.9735 -0.6400 -1.1434
 4141SOL    HW223886   0.024   3.781   2.836 -0.4148 -1.5941  1.3917
 4142SOL     OW23887   2.576   3.640   0.574  0.6702  0.1666 -0.0063
 4142SOL    HW123888   2.606   3.636   0.483  2.1026 -0.7288  0.5068
 4142SOL    HW223889   2.567   3.548   0.598 -1.2017 -0.0083 -1.4214
 4143SOL     OW23890   4.409   4.297   3.255 -0.5001 -0.1537 -0.2601
 4143SOL    HW123891   4.433   4.379   3.299 -1.7429 -0.5072  1.0988
 4143SOL    HW223892   4.316   4.308   3.237 -0.8610 -1.3611  0.8440
 4144SOL     OW23893   3.866   3.529   2.667 -0.2049  0.3462  0.3063
 4144SOL    HW123894   3.961   3.516   2.678 -0.6785 -2.0319  1.5261
 4144SOL    HW223895   3.840   3.517   2.758  1.8444 -0.0008  0.8643
 4145SOL     OW23896   2.495   1.536   5.243 -0.1768 -0.1564 -0.3113
 4145SOL    HW123897   2.496   1.441   5.234 -0.4797 -0.3456  1.6019
 4145SOL    HW223898   2.578   1.549   5.290 -0.3520 -2.6842  0.7070
 4146SOL     OW23899   0.430   0.398   5.215 -0.2181 -0.0842  0.1530
 4146SOL    HW123900   0.439   0.473   5.275 -1.1515  0.9992 -1.0608
 4146SOL    HW223901   0.346   0.409   5.171 -0.7852 -0.3349  1.1758
 4147SOL     OW23902   3.845   1.965   3.571 -0.6350  0.1730  0.0432
 4147SOL    HW123903   3.824   2.024   3.644 -0.1923  1.3763 -0.7872
 4147SOL    HW223904   3.751   1.956   3.552 -0.1516 -1.0783 -1.7776
 4148SOL     OW23905   3.973   2.208  11.608  0.0821 -0.3250 -0.2747
 4148SOL    HW123906   4.032   2.245  11.543  1.7330  0.7932  1.8749
 4148SOL    HW223907   3.896   2.213  11.551  0.4613  0.8413 -0.6781
 4149SOL     OW23908   4.341   3.535  12.380  0.1806 -0.1944 -0.1727
 4149SOL    HW123909   4.333   3.441  12.363  0.4187 -0.5800  1.7780
 4149SOL    HW223910   4.409   3.529  12.447  0.6381 -0.7844 -0.6935
 4150SOL     OW23911   4.393   4.489   5.203  0.3232 -0.4023 -0.2194
 4150SOL    HW123912   4.300   4.480   5.224  0.4173 -1.2445 -0.1714
 4150SOL    HW223913   4.387   4.484   5.108 -1.9871 -1.8314  0.0115
 4151SOL     OW23914   3.747   0.546   4.571 -0.2204 -0.4956  0.1218
 4151SOL    HW123915   3.824   0.595   4.602  0.0731  0.5920 -2.3890
 4151SOL    HW223916   3.767   0.507   4.486 -0.4402 -0.1831 -0.0726
 4152SOL     OW23917   2.794   1.323   7.413 -0.6987 -0.3505 -0.4417
 4152SOL    HW123918   2.732   1.276   7.358 -1.4470 -0.1984  0.2787
 4152SOL    HW223919   2.880   1.303   7.375  0.7660  1.1057  2.0528
 4153SOL     OW23920   4.577   1.458   7.592  0.5413 -0.0949  0.5463
 4153SOL    HW123921   4.642   1.392   7.615 -0.0792 -0.3796  1.4848
 4153SOL    HW223922   4.532   1.476   7.674 -1.8093 -0.1202 -0.7326
 4154SOL     OW23923   2.273   4.124   0.977 -0.5378 -0.2448 -0.4495
 4154SOL    HW123924   2.267   4.219   0.985  0.4549 -0.0500 -2.0414
 4154SOL    HW223925   2.368   4.117   0.991 -0.4018  1.2793 -0.6073
 4155SOL     OW23926   3.297   3.268  16.319  0.3713 -0.2564  0.2774
 4155SOL    HW123927   3.228   3.210  16.351  0.2377  0.3213  1.0445
 4155SOL    HW223928   3.328   3.298  16.405  0.0393  0.2223  0.2264
 4156SOL     OW23929   3.913   0.399  15.108  0.1688  0.0659  0.3324
 4156SOL    HW123930   3.825   0.389  15.071  0.6880 -1.5942 -0.4646
 4156SOL    HW223931   3.959   0.327  15.066  1.5317  0.5624  0.9752
 4157SOL     OW23932   2.022   2.021  10.430 -0.2276  0.6573  0.4767
 4157SOL    HW123933   2.004   1.979  10.346  2.2217 -0.3581  0.4539
 4157SOL    HW223934   1.944   2.016  10.485 -0.6697 -1.9766 -0.4078
 4158SOL     OW23935   1.192   1.155   4.644  0.1119 -0.2727 -0.1023
 4158SOL    HW123936   1.288   1.159   4.636 -0.0271 -2.5331 -2.7324
 4158SOL    HW223937   1.183   1.212   4.720 -0.4734 -1.2552  0.5587
 4159SOL     OW23938   2.695   2.253   6.515 -0.3984  0.8119  0.2310
 4159SOL    HW123939   2.609   2.282   6.543  0.0163  0.4496  1.8725
 4159SOL    HW223940   2.724   2.320   6.453 -0.1378  0.1552 -0.3647
 4160SOL     OW23941   3.824   3.038   0.834 -0.2015 -0.2427 -0.8676
 4160SOL    HW123942   3.792   3.008   0.749 -0.3884  1.6500 -1.4836
 4160SOL    HW223943   3.916   3.054   0.810 -0.4381  3.3213  0.5326
 4161SOL     OW23944   1.505   2.642   9.848  0.2908  0.0297 -0.2676
 4161SOL    HW123945   1.418   2.603   9.843  0.3758  0.0249 -1.6238
 4161SOL    HW223946   1.562   2.579   9.891  0.8483  1.1051  0.5872
 4162SOL     OW23947   1.914   1.445   4.924 -0.5236  0.4516  0.3678
 4162SOL    HW123948   1.942   1.531   4.955 -1.5304  2.0847 -3.2731
 4162SOL    HW223949   1.833   1.434   4.975 -0.1481 -0.3425  0.7873
 4163SOL     OW23950   1.588   3.894  12.477 -0.9846  0.1154  0.1103
 4163SOL    HW123951   1.515   3.931  12.428  0.4757  2.3875 -0.3737
 4163SOL    HW223952   1.553   3.861  12.560 -0.9887 -0.0363  0.0479
 4164SOL     OW23953   1.101   0.603   5.431  0.2051  0.2984 -0.1063
 4164SOL    HW123954   1.022   0.601   5.484  0.6292  1.0819  0.5590
 4164SOL    HW223955   1.129   0.511   5.440  1.2747  0.4685 -1.6677
 4165SOL     OW23956   2.262   0.737   4.898 -0.5123  0.2253 -0.2281
 4165SOL    HW123957   2.206   0.702   4.828 -1.7354  1.3676  0.1557
 4165SOL    HW223958   2.262   0.664   4.959 -0.0048 -0.1859 -0.7247
 4166SOL     OW23959   3.460   3.117   9.268 -0.4244 -0.4157 -0.1406
 4166SOL    HW123960   3.435   3.207   9.291  0.3253 -0.4561  0.8316
 4166SOL    HW223961   3.465   3.073   9.353  0.9317  0.7033  0.3702
 4167SOL     OW23962   2.065   1.950   4.265 -0.4535 -0.6012 -0.7330
 4167SOL    HW123963   1.975   1.920   4.252 -1.2759  0.4122  2.6035
 4167SOL    HW223964   2.072   2.032   4.215 -0.7228 -0.9424 -1.3239
 4168SOL     OW23965   2.218   3.104   8.003 -0.2845 -0.4846  0.1243
 4168SOL    HW123966   2.157   3.044   7.959 -1.3790  0.5174  0.2685
 4168SOL    HW223967   2.278   3.134   7.935 -0.6700 -1.0955 -0.4892
 4169SOL     OW23968   3.119   4.500  10.173 -0.2642  0.4982 -0.2704
 4169SOL    HW123969   3.163   4.460  10.248 -0.3710 -0.8834 -0.9373
 4169SOL    HW223970   3.064   4.565  10.216 -1.0432 -0.6257  0.4236
 4170SOL     OW23971   1.511   2.562   5.068  0.0332 -0.4625  0.2818
 4170SOL    HW123972   1.478   2.473   5.062  0.0118 -0.3354 -1.3363
 4170SOL    HW223973   1.546   2.553   5.157  1.0650  1.4537  0.0665
 4171SOL     OW23974   4.144   0.249   7.364  0.0645  0.3306  0.2525
 4171SOL    HW123975   4.207   0.220   7.298  1.0180  1.3732  0.6967
 4171SOL    HW223976   4.199   0.306   7.417  2.2143  0.9130 -2.5650
 4172SOL     OW23977   2.793   2.129  13.575 -0.0415  0.2488  0.0631
 4172SOL    HW123978   2.767   2.045  13.612 -2.0215  2.2600  3.2276
 4172SOL    HW223979   2.792   2.107  13.482 -0.3651 -1.3226  0.4557
 4173SOL     OW23980   3.063   0.043  16.820 -0.2564 -0.4422  0.2902
 4173SOL    HW123981   3.151   0.080  16.819  0.3234 -2.0006 -3.8376
 4173SOL    HW223982   3.071   4.700  16.892 -1.0044  0.9834  1.6439
 4174SOL     OW23983   1.105   1.574   5.205 -0.3727 -0.4936  0.0136
 4174SOL    HW123984   1.191   1.595   5.167 -1.5608  1.2669 -1.7365
 4174SOL    HW223985   1.059   1.616   5.132 -1.4217 -0.8465  0.4810
 4175SOL     OW23986   2.014   1.950   8.717 -0.1712 -0.2871 -0.2710
 4175SOL    HW123987   2.107   1.940   8.699 -0.1050 -2.4015  1.2030
 4175SOL    HW223988   1.994   1.929   8.808  0.0077 -2.2061 -0.6764
 4176SOL     OW23989   4.230   4.448  11.358  0.0407 -0.2897 -0.4063
 4176SOL    HW123990   4.227   4.514  11.289  2.2382 -0.4133 -0.6388
 4176SOL    HW223991   4.272   4.374  11.313 -0.0011 -0.1939 -0.6016
 4177SOL     OW23992   3.663   2.560   5.688  0.4307 -0.4434  0.0245
 4177SOL    HW123993   3.677   2.567   5.783 -1.4717 -0.1287  0.2737
 4177SOL    HW223994   3.717   2.484   5.666 -0.0099 -1.4121  2.2529
 4178SOL     OW23995   2.190   1.182  11.263 -0.4384 -0.1783 -0.3075
 4178SOL    HW123996   2.182   1.126  11.340 -0.2952  0.5134  0.2037
 4178SOL    HW223997   2.098   1.201  11.244 -0.2373  0.6318 -0.4554
 4179SOL     OW23998   3.739   3.890   4.546  0.4557 -0.5031 -0.3497
 4179SOL    HW123999   3.802   3.927   4.608  0.2567 -1.1507  0.2394
 4179SOL    HW224000   3.670   3.951   4.571 -1.3146 -1.9062 -1.7718
 4180SOL     OW24001   0.777   3.684  11.410  0.0085  0.3134  0.5994
 4180SOL    HW124002   0.724   3.744  11.358 -0.9207 -3.1381 -2.4729
 4180SOL    HW224003   0.787   3.615  11.344  0.9147  1.0507 -0.0275
 4181SOL     OW24004   1.414   2.813   5.639 -1.0505  0.2728 -0.8775
 4181SOL    HW124005   1.381   2.880   5.699  1.3159  0.0684  0.6176
 4181SOL    HW224006   1.349   2.834   5.571 -0.9523  0.6858 -0.8433
 4182SOL     OW24007   4.597   4.228   8.137  0.0258  0.1958 -0.6101
 4182SOL    HW124008   4.532   4.196   8.074 -0.3388 -0.7394  0.2418
 4182SOL    HW224009   4.547   4.297   8.181  0.8988  1.8601 -2.2187
 4183SOL     OW24010   2.671   2.900   8.232 -0.2667  0.9093 -0.0553
 4183SOL    HW124011   2.715   2.869   8.153 -0.6426 -0.7305  0.3785
 4183SOL    HW224012   2.621   2.823   8.261  3.2540 -1.7126 -0.8282
 4184SOL     OW24013   0.303   4.189   7.795 -0.1051  0.0181  0.3449
 4184SOL    HW124014   0.228   4.225   7.748 -0.8008  0.8967  2.1286
 4184SOL    HW224015   0.326   4.131   7.722 -0.9372  0.2251 -0.0801
 4185SOL     OW24016   3.273   1.533   1.507  0.0369 -0.7640 -0.2904
 4185SOL    HW124017   3.272   1.584   1.426 -1.4654 -2.6108 -1.4314
 4185SOL    HW224018   3.201   1.479   1.476 -1.0725  1.0339 -0.8416
 4186SOL     OW24019   2.530   3.996   1.785 -0.7106 -0.2069  0.1699
 4186SOL    HW124020   2.568   4.084   1.797 -0.4999 -0.1805 -0.6811
 4186SOL    HW224021   2.550   3.971   1.695 -0.7941  2.2425 -0.5536
 4187SOL     OW24022   4.344   0.495  13.164 -0.1305 -0.1742  0.5461
 4187SOL    HW124023   4.326   0.588  13.174  0.2250 -0.2130  1.5368
 4187SOL    HW224024   4.440   0.498  13.165 -0.1131 -0.0022 -2.0354
 4188SOL     OW24025   2.879   0.840  13.237  0.3596  0.3434 -0.6013
 4188SOL    HW124026   2.940   0.787  13.287 -1.8654  0.5668  2.3268
 4188SOL    HW224027   2.930   0.841  13.156  0.5438  1.1761 -0.4797
 4189SOL     OW24028   0.944   4.074   9.880 -0.3314 -1.0389  0.0779
 4189SOL    HW124029   0.952   4.102   9.789 -0.0717  1.0651  0.7248
 4189SOL    HW224030   1.032   4.040   9.896 -1.0339 -1.5316  2.9063
 4190SOL     OW24031   1.616   2.524   5.313 -0.4883 -0.0870 -0.0778
 4190SOL    HW124032   1.544   2.519   5.375 -0.9428 -2.7250 -0.8235
 4190SOL    HW224033   1.643   2.433   5.318 -0.7962 -0.1422  0.6171
 4191SOL     OW24034   1.829   2.989   2.221 -0.1587 -0.0260  0.8354
 4191SOL    HW124035   1.877   3.044   2.159 -2.3272  0.6099 -0.2555
 4191SOL    HW224036   1.873   2.904   2.220  0.7274  0.4447  0.2738
 4192SOL     OW24037   2.606   2.215   5.872 -0.0433 -0.3987  0.2660
 4192SOL    HW124038   2.607   2.125   5.840 -0.4071  0.0744 -1.0709
 4192SOL    HW224039   2.607   2.207   5.967  0.3106 -2.0376  0.1218
 4193SOL     OW24040   2.023   4.138   2.845  0.5030  0.4615  0.1045
 4193SOL    HW124041   2.114   4.113   2.834  0.4393  1.7112 -3.3671
 4193SOL    HW224042   2.017   4.183   2.929 -1.3438  0.2805  0.0714
 4194SOL     OW24043   1.106   0.232   8.132 -0.2222 -0.4296 -0.0483
 4194SOL    HW124044   1.032   0.225   8.193 -0.2449  1.4695  0.1366
 4194SOL    HW224045   1.079   0.302   8.073  2.0994 -0.0766 -0.7092
 4195SOL     OW24046   0.990   3.384   3.739 -0.2943 -0.6747 -0.0665
 4195SOL    HW124047   1.032   3.461   3.700 -0.2898 -0.9249 -0.5435
 4195SOL    HW224048   0.922   3.378   3.671 -0.5172 -1.2509  0.2122
 4196SOL     OW24049   4.324   3.273   8.232 -0.3480 -0.5063 -0.4740
 4196SOL    HW124050   4.234   3.277   8.199 -0.0444 -1.1578 -1.3795
 4196SOL    HW224051   4.336   3.348   8.289  0.4893  0.0210 -1.3386
 4197SOL     OW24052   1.413   4.710   2.641 -1.0049  0.4208 -0.1202
 4197SOL    HW124053   1.331   4.674   2.673  1.0669 -1.3598  3.2400
 4197SOL    HW224054   1.437   0.033   2.724 -0.0674  1.6005 -0.9964
 4198SOL     OW24055   3.811   0.098   4.404 -0.0428 -0.0060 -0.9169
 4198SOL    HW124056   3.863   0.174   4.431 -2.6110  0.8411  1.5968
 4198SOL    HW224057   3.789   0.123   4.315 -0.5773  1.9112 -0.2375
 4199SOL     OW24058   1.319   1.727   8.543  0.0101 -0.2087  0.2358
 4199SOL    HW124059   1.347   1.643   8.507  0.0758  0.6419 -1.7309
 4199SOL    HW224060   1.406   1.765   8.555 -0.0898  0.0792  0.0545
 4200SOL     OW24061   0.919   0.093   1.628 -0.2273 -0.3572  0.2014
 4200SOL    HW124062   0.903   0.064   1.718 -0.3744 -3.1367 -0.7148
 4200SOL    HW224063   0.918   0.012   1.576 -2.5848  0.8504 -1.6136
 4201SOL     OW24064   0.354   2.669  15.430 -0.7069  0.2902 -0.1838
 4201SOL    HW124065   0.376   2.760  15.409 -0.5808  0.7733  2.0702
 4201SOL    HW224066   0.260   2.669  15.417 -0.3538 -0.2905 -2.8413
 4202SOL     OW24067   0.889   0.376   6.211 -0.2160  0.4022 -0.8828
 4202SOL    HW124068   0.960   0.313   6.218 -0.0816  0.6542  0.0698
 4202SOL    HW224069   0.930   0.458   6.183  1.0588 -0.3145 -1.0891
 4203SOL     OW24070   1.422   3.523  10.041  0.1501 -0.1313 -0.5214
 4203SOL    HW124071   1.466   3.591  10.091 -0.2886  0.8165 -1.4050
 4203SOL    HW224072   1.413   3.564   9.955  2.2583  0.9091 -0.2352
 4204SOL     OW24073   0.490   0.451   6.027 -0.1292  0.3239 -0.4268
 4204SOL    HW124074   0.558   0.394   6.064 -1.0354 -0.8101 -0.5006
 4204SOL    HW224075   0.433   0.448   6.103 -0.7803 -3.2681 -1.0484
 4205SOL     OW24076   0.180   4.478   3.087 -0.7247 -0.0529 -0.2358
 4205SOL    HW124077   0.105   4.498   3.032  0.5710  0.0782 -1.9719
 4205SOL    HW224078   0.136   4.405   3.130 -1.2258  0.2294 -0.2727
 4206SOL     OW24079   3.628   2.009   7.436  0.2836  0.0473  0.0325
 4206SOL    HW124080   3.624   2.026   7.530 -1.6767 -1.5190  0.2390
 4206SOL    HW224081   3.631   1.913   7.438  1.7473  0.1308  1.8530
 4207SOL     OW24082   2.552   0.758   7.434 -0.2220 -0.7277  0.2677
 4207SOL    HW124083   2.468   0.712   7.435  0.5693 -2.1421  1.8677
 4207SOL    HW224084   2.585   0.711   7.511  1.8499 -0.8481 -0.6928
 4208SOL     OW24085   1.023   1.273   0.870  0.1021 -0.1925 -0.3109
 4208SOL    HW124086   0.985   1.354   0.835  1.4710  0.8816  0.6612
 4208SOL    HW224087   0.947   1.226   0.905 -0.6814  1.9031  0.8137
 4209SOL     OW24088   2.507   1.116   4.925 -0.0785  0.0091  0.1503
 4209SOL    HW124089   2.523   1.048   4.861  1.0186 -1.0856  1.5900
 4209SOL    HW224090   2.589   1.163   4.907  0.6061 -2.3479 -2.7802
 4210SOL     OW24091   1.242   2.098   6.362  0.6625  0.4268  0.2093
 4210SOL    HW124092   1.162   2.051   6.339  1.1229 -1.5807  2.6399
 4210SOL    HW224093   1.297   2.028   6.398 -0.2058 -2.2238 -3.6712
 4211SOL     OW24094   2.079   4.086   9.238  0.2047  0.4030 -0.5476
 4211SOL    HW124095   2.132   4.151   9.191  0.2751  0.4794 -0.3641
 4211SOL    HW224096   2.095   4.003   9.193 -0.5643 -0.2555  0.3945
 4212SOL     OW24097   1.623   2.394  11.398 -0.1518 -0.0466  1.0078
 4212SOL    HW124098   1.574   2.449  11.336 -0.0149  0.1226  1.0510
 4212SOL    HW224099   1.549   2.373  11.456  0.7294 -2.0481  1.3940
 4213SOL     OW24100   4.599   2.509  10.812  0.6359 -0.5062 -0.0463
 4213SOL    HW124101   4.584   2.434  10.869 -1.5761 -0.7274 -0.9443
 4213SOL    HW224102   4.570   2.579  10.871 -1.0247  0.0540 -1.5352
 4214SOL     OW24103   2.616   3.019   0.053 -0.2000 -0.8104 -0.0901
 4214SOL    HW124104   2.613   3.100   0.001  1.9965 -2.6583 -3.1346
 4214SOL    HW224105   2.571   2.959  17.676 -0.7283 -2.1356  1.7046
 4215SOL     OW24106   1.623   1.650   8.214 -0.1386 -0.0998  0.5080
 4215SOL    HW124107   1.692   1.649   8.148 -2.8619  0.2148 -2.3306
 4215SOL    HW224108   1.562   1.697   8.158 -0.7932 -0.6798  0.7413
 4216SOL     OW24109   0.236   3.830   9.645 -0.4965  0.1958  0.0838
 4216SOL    HW124110   0.268   3.750   9.603 -0.9329  0.2590 -0.3800
 4216SOL    HW224111   0.255   3.893   9.576  0.9170 -1.0538 -0.6695
 4217SOL     OW24112   0.927   0.159   7.383 -0.3261  0.5481 -0.2325
 4217SOL    HW124113   0.898   0.249   7.364 -0.2043  0.8328  0.9353
 4217SOL    HW224114   0.950   0.177   7.474  0.6450  1.5005 -0.6658
 4218SOL     OW24115   2.516   0.632  14.371 -0.5485 -0.3003  0.1680
 4218SOL    HW124116   2.451   0.575  14.412  0.5771 -0.5144  1.6511
 4218SOL    HW224117   2.483   0.624  14.281  2.4028  0.4833 -0.9817
 4219SOL     OW24118   4.541   1.405  10.834  0.2957  0.7261 -0.2944
 4219SOL    HW124119   4.586   1.469  10.888  2.6147 -1.5900  0.4984
 4219SOL    HW224120   4.529   1.465  10.760 -1.2030  1.8680  0.8775
 4220SOL     OW24121   0.936   2.075   3.868 -0.3989 -0.1171 -0.4561
 4220SOL    HW124122   1.001   2.004   3.871  0.0757  0.2129 -2.9628
 4220SOL    HW224123   0.938   2.083   3.772  2.2569  1.3818 -0.2769
 4221SOL     OW24124   1.272   0.083   6.100 -0.1671  0.3475  0.6041
 4221SOL    HW124125   1.354   0.039   6.121 -0.3397 -1.2518 -2.0520
 4221SOL    HW224126   1.258   0.066   6.007  1.1630  1.3589  0.2222
 4222SOL     OW24127   4.519   0.389   5.419  0.3368  0.0974 -0.1190
 4222SOL    HW124128   4.547   0.391   5.511  0.9738 -2.5534 -0.2587
 4222SOL    HW224129   4.564   0.467   5.387 -1.3518  1.1808  0.1577
 4223SOL     OW24130   3.597   2.885   4.513 -0.0293 -0.6886 -0.2492
 4223SOL    HW124131   3.555   2.911   4.595  1.1298  0.2980  0.0204
 4223SOL    HW224132   3.687   2.916   4.523 -0.5214  1.3251 -1.9602
 4224SOL     OW24133   2.234   2.170   8.330  0.0957  0.1034  0.0437
 4224SOL    HW124134   2.261   2.134   8.245  1.8796  1.0092  0.2203
 4224SOL    HW224135   2.213   2.261   8.311 -1.3826 -0.1483  0.4925
 4225SOL     OW24136   1.943   3.830   7.686  0.1363 -0.7998 -0.7206
 4225SOL    HW124137   1.856   3.829   7.645  0.0319 -0.9800 -0.4987
 4225SOL    HW224138   2.004   3.799   7.619  1.9008  1.2001 -0.0336
 4226SOL     OW24139   2.758   3.474   2.374 -0.4163 -0.0745  0.4204
 4226SOL    HW124140   2.782   3.546   2.315 -0.9599 -1.3252 -1.3333
 4226SOL    HW224141   2.692   3.421   2.329 -1.0880  1.0604  0.0587
 4227SOL     OW24142   3.269   3.935   6.509  0.2524 -0.2842  0.1265
 4227SOL    HW124143   3.309   4.018   6.535  0.9602 -0.8491  0.8655
 4227SOL    HW224144   3.207   3.962   6.442  2.8836 -0.2642 -2.3201
 4228SOL     OW24145   3.689   3.242   1.290  0.4003 -0.0122  0.3177
 4228SOL    HW124146   3.740   3.209   1.216  1.5085  0.3473  0.9379
 4228SOL    HW224147   3.633   3.303   1.242  0.8634 -0.6704 -1.0577
 4229SOL     OW24148   0.301   0.775   3.715 -0.7611 -0.3486  0.1867
 4229SOL    HW124149   0.249   0.833   3.771  0.1423 -0.0767  0.7307
 4229SOL    HW224150   0.249   0.695   3.712 -2.5952  0.8597 -0.2383
 4230SOL     OW24151   2.020   4.249   1.324 -0.3236  0.2062  0.2322
 4230SOL    HW124152   2.014   4.153   1.328  1.6697 -0.0299 -2.3263
 4230SOL    HW224153   2.064   4.269   1.407  0.5598 -1.1786  0.1099
 4231SOL     OW24154   3.962   3.636   3.851  0.3939 -0.5993 -0.1597
 4231SOL    HW124155   3.905   3.572   3.893 -1.2976 -0.0790 -1.6339
 4231SOL    HW224156   3.932   3.631   3.761 -1.6186 -0.1805  0.4785
 4232SOL     OW24157   4.260   0.383   5.551 -0.0696  0.2944 -0.1191
 4232SOL    HW124158   4.344   0.411   5.514 -0.9025 -1.5097 -3.4451
 4232SOL    HW224159   4.293   0.337   5.629 -0.9914  1.1117  0.7456
 4233SOL     OW24160   3.628   2.050   9.239  0.5824 -0.1084 -0.4216
 4233SOL    HW124161   3.671   1.992   9.301 -0.2023  0.6656  0.8339
 4233SOL    HW224162   3.559   1.996   9.200 -2.3157  1.0995  3.0386
 4234SOL     OW24163   3.290   1.147  11.241  0.7282  0.4477  0.0098
 4234SOL    HW124164   3.279   1.212  11.311  2.2159  0.1105  0.5410
 4234SOL    HW224165   3.233   1.192  11.179  0.2000  0.1038  0.2377
 4235SOL     OW24166   0.855   1.403   6.166  0.0658 -0.0714 -0.3600
 4235SOL    HW124167   0.773   1.353   6.173 -0.3397  0.5248 -0.9416
 4235SOL    HW224168   0.852   1.445   6.081  1.6838  0.5684 -0.1029
 4236SOL     OW24169   1.256   0.442   7.471  0.0954  0.2112 -0.9472
 4236SOL    HW124170   1.295   0.406   7.391  0.5269 -0.5806 -0.3693
 4236SOL    HW224171   1.177   0.392   7.490  0.7433 -0.9600 -1.3440
 4237SOL     OW24172   3.202   0.672   6.196  0.1685 -0.1288 -0.1437
 4237SOL    HW124173   3.266   0.600   6.199  0.9169  0.5442  0.1789
 4237SOL    HW224174   3.139   0.643   6.261 -0.3436 -0.0738 -0.6181
 4238SOL     OW24175   2.298   2.331   9.313 -0.1890  0.3446  0.3879
 4238SOL    HW124176   2.306   2.238   9.292  0.5742  0.1605  1.5320
 4238SOL    HW224177   2.243   2.364   9.241 -0.0008 -0.5643 -0.1727
 4239SOL     OW24178   3.596   3.234   3.014  0.1190 -0.1984 -0.5967
 4239SOL    HW124179   3.558   3.195   3.093 -0.0002 -1.2019 -1.1407
 4239SOL    HW224180   3.677   3.261   3.057 -0.2329 -0.7373  0.4262
 4240SOL     OW24181   4.577   0.809   8.486 -0.0349 -0.3728  0.2781
 4240SOL    HW124182   4.552   0.717   8.480 -1.6017  0.2444 -2.8553
 4240SOL    HW224183   4.517   0.837   8.555  0.7058  1.1448  0.3109
 4241SOL     OW24184   1.153   0.840   4.079 -0.4984 -0.2683 -0.6739
 4241SOL    HW124185   1.078   0.784   4.097  0.0579 -0.2306  1.7995
 4241SOL    HW224186   1.125   0.872   3.993  0.9297 -1.4085 -1.5539
 4242SOL     OW24187   3.367   2.014   5.405  0.0063 -0.0509  0.0045
 4242SOL    HW124188   3.302   1.944   5.398 -0.7130  0.6013  0.0726
 4242SOL    HW224189   3.346   2.052   5.491 -2.3244 -1.4496  0.0672
 4243SOL     OW24190   3.160   2.607   1.131  0.5781 -0.0222 -0.2209
 4243SOL    HW124191   3.224   2.677   1.143  0.0803  0.3964 -0.0009
 4243SOL    HW224192   3.078   2.644   1.165  0.6115 -1.9957  2.0307
 4244SOL     OW24193   1.932   1.415   2.289 -0.0047  0.2488 -0.2927
 4244SOL    HW124194   2.014   1.368   2.272 -0.3269 -0.6225  0.5689
 4244SOL    HW224195   1.887   1.419   2.205  2.3453  3.6082 -1.4048
 4245SOL     OW24196   4.283   3.218  10.062  0.2772  0.2092 -0.0079
 4245SOL    HW124197   4.329   3.286  10.110 -0.4207  0.3519  0.4574
 4245SOL    HW224198   4.273   3.155  10.134  0.8978  1.2119  0.9481
 4246SOL     OW24199   2.156   0.080   4.563  0.1474  0.4330  0.0967
 4246SOL    HW124200   2.167   0.065   4.657 -0.2830 -1.9797 -0.2606
 4246SOL    HW224201   2.237   0.124   4.539  1.2100 -2.4978 -1.6627
 4247SOL     OW24202   0.605   2.371   2.526 -0.2745  0.2612 -0.2658
 4247SOL    HW124203   0.537   2.374   2.457 -1.2499 -0.5516  0.6560
 4247SOL    HW224204   0.566   2.304   2.583  0.4424  0.7430  0.7786
 4248SOL     OW24205   0.182   2.105   8.843  0.1008  0.4508  0.0515
 4248SOL    HW124206   0.211   2.161   8.771  1.3791  1.1351  1.0911
 4248SOL    HW224207   0.261   2.054   8.862 -1.0934 -0.9590  1.2789
 4249SOL     OW24208   3.055   0.620   3.288  0.1523 -0.2983 -0.1972
 4249SOL    HW124209   3.064   0.613   3.193 -0.3727 -3.3569 -0.0323
 4249SOL    HW224210   3.118   0.555   3.320  0.8031  0.9361  1.0458
 4250SOL     OW24211   2.583   0.690  16.781  0.4677 -0.4078  0.0895
 4250SOL    HW124212   2.549   0.774  16.812  0.7270 -0.5274  0.7091
 4250SOL    HW224213   2.616   0.710  16.693 -0.1479  2.4718  0.5146
 4251SOL     OW24214   0.411   3.376   5.785  0.4018 -0.2904 -0.0262
 4251SOL    HW124215   0.506   3.366   5.797  0.5569  1.9808  0.6359
 4251SOL    HW224216   0.385   3.407   5.871  0.2305  2.7060 -1.1526
 4252SOL     OW24217   3.227   4.614   3.337 -0.0655 -0.0998 -0.0087
 4252SOL    HW124218   3.274   4.647   3.260 -0.5988  0.1046 -0.2399
 4252SOL    HW224219   3.141   4.630   3.299  0.7748  0.2788 -1.7772
 4253SOL     OW24220   4.687   0.850   8.133 -0.1415  0.2365 -0.2061
 4253SOL    HW124221   4.709   0.881   8.221 -2.1761 -1.7491  1.0151
 4253SOL    HW224222   4.610   0.907   8.128  0.2348  0.7288 -0.3746
 4254SOL     OW24223   0.438   1.386   3.458 -0.7113 -0.0967 -0.2309
 4254SOL    HW124224   0.365   1.349   3.507 -0.4431 -0.3787 -0.0491
 4254SOL    HW224225   0.418   1.358   3.369  3.2063  0.8239 -1.3723
 4255SOL     OW24226   2.696   0.440   3.711 -0.1764 -0.7183  0.3641
 4255SOL    HW124227   2.657   0.519   3.750  1.5588  0.1980  0.2428
 4255SOL    HW224228   2.694   0.378   3.783  0.3855  0.5189  1.4612
 4256SOL     OW24229   2.391   0.023   2.852 -0.2015 -0.0579  0.7177
 4256SOL    HW124230   2.331   0.027   2.927 -0.7726  1.3253  0.1868
 4256SOL    HW224231   2.348   0.091   2.800 -0.7918 -0.9375  0.0462
 4257SOL     OW24232   3.772   1.021   3.109  0.0792  0.4551 -0.0590
 4257SOL    HW124233   3.818   1.050   3.030 -0.8668  1.3612 -0.2721
 4257SOL    HW224234   3.774   1.097   3.168 -1.0602  2.9249 -3.1875
 4258SOL     OW24235   1.464   4.081  15.941 -0.0028 -0.7074 -0.0141
 4258SOL    HW124236   1.379   4.038  15.939 -0.2773 -0.0888 -1.1197
 4258SOL    HW224237   1.466   4.102  15.848  0.3378  2.1670  0.6240
 4259SOL     OW24238   2.250   4.653   1.841 -0.3885 -0.0952 -0.2245
 4259SOL    HW124239   2.225   4.571   1.800  0.4373 -0.6883  0.4516
 4259SOL    HW224240   2.179   4.710   1.811  0.4621 -0.0866 -2.1682
 4260SOL     OW24241   4.572   2.003   2.586 -0.8250 -0.3754  0.3850
 4260SOL    HW124242   4.622   1.922   2.591 -0.6707 -0.2482  0.8744
 4260SOL    HW224243   4.490   1.980   2.630 -1.3908  0.8932 -0.0022
 4261SOL     OW24244   0.804   3.404   0.065  0.3235  0.2943  0.1735
 4261SOL    HW124245   0.899   3.404   0.047  0.0733 -1.7259 -1.2288
 4261SOL    HW224246   0.786   3.494   0.090  0.5064  0.9703 -2.0990
 4262SOL     OW24247   1.032   0.230  14.314 -0.3510 -0.4756 -0.2404
 4262SOL    HW124248   0.941   0.205  14.298  0.0438 -1.1709 -1.4410
 4262SOL    HW224249   1.074   0.251  14.229  0.7006  4.1704  1.3824
 4263SOL     OW24250   3.459   3.504   1.987  0.0061  0.3863  0.2807
 4263SOL    HW124251   3.440   3.593   1.957 -0.0282  0.1175 -0.4959
 4263SOL    HW224252   3.497   3.483   1.902  1.1085  2.6268  0.2189
 4264SOL     OW24253   2.919   2.553  17.648  0.3706  0.7964 -0.3351
 4264SOL    HW124254   3.003   2.539   0.009  0.6298  1.5835 -0.5899
 4264SOL    HW224255   2.901   2.469  17.606 -0.5079 -0.1372  1.9214
 4265SOL     OW24256   0.540   1.886   4.022  0.3492 -0.1901  0.0148
 4265SOL    HW124257   0.508   1.811   4.072 -0.0005  0.2882  0.5095
 4265SOL    HW224258   0.604   1.851   3.960  0.5482  0.4082 -0.1211
 4266SOL     OW24259   2.559   0.210   8.307 -0.1383  0.0253 -0.4102
 4266SOL    HW124260   2.595   0.288   8.265  1.7062 -0.1953  0.7550
 4266SOL    HW224261   2.474   0.239   8.340  2.1678  3.1757  2.8251
 4267SOL     OW24262   3.832   0.314   5.977 -0.3544 -0.4689  0.4824
 4267SOL    HW124263   3.826   0.246   5.911 -0.7372  1.7024 -1.7160
 4267SOL    HW224264   3.918   0.285   6.007 -0.9718 -1.7602  1.0348
 4268SOL     OW24265   0.383   4.654  12.338  0.1077 -0.5210 -0.2957
 4268SOL    HW124266   0.301   4.607  12.352 -0.4270  0.2980 -0.6521
 4268SOL    HW224267   0.341   0.015  12.370  0.9141 -1.1690  2.3566
 4269SOL     OW24268   2.684   2.694   0.080  0.2348 -0.1990  0.1302
 4269SOL    HW124269   2.632   2.745   0.017  0.4489 -0.6646 -0.4286
 4269SOL    HW224270   2.754   2.654   0.029  0.2381  1.2465 -1.0137
 4270SOL     OW24271   1.900   1.458   5.810 -0.1828  0.4590  0.3593
 4270SOL    HW124272   1.945   1.426   5.732  0.2124 -2.9256  1.9681
 4270SOL    HW224273   1.889   1.376   5.858 -0.5844  0.3769  0.1320
 4271SOL     OW24274   4.056   4.067   1.337 -0.4195 -0.0342 -0.4903
 4271SOL    HW124275   4.142   4.054   1.297  0.8046  0.6667  1.9013
 4271SOL    HW224276   4.002   4.076   1.258 -1.0533 -1.0388 -0.1726
 4272SOL     OW24277   1.512   3.176   0.644 -0.6953  0.2821 -0.6184
 4272SOL    HW124278   1.600   3.198   0.612 -0.4546  3.5788  2.2810
 4272SOL    HW224279   1.523   3.082   0.654  0.9595  0.3777 -1.3920
 4273SOL     OW24280   1.954   0.604   5.297  0.4020  0.4140 -0.2794
 4273SOL    HW124281   1.992   0.680   5.253 -3.7007  2.0850 -0.9860
 4273SOL    HW224282   1.935   0.635   5.385  0.7897  1.0310 -0.4066
 4274SOL     OW24283   1.527   2.591  17.341 -0.2246  0.1549  0.2099
 4274SOL    HW124284   1.443   2.592  17.388 -0.1205  1.9211  0.3817
 4274SOL    HW224285   1.493   2.567  17.255  0.6540  0.6105 -0.2538
 4275SOL     OW24286   2.641   4.408   5.494 -0.3769  0.0260  0.1187
 4275SOL    HW124287   2.580   4.465   5.540 -1.0339 -1.2819  0.8628
 4275SOL    HW224288   2.681   4.472   5.435 -1.6354  0.8717  0.1663
 4276SOL     OW24289   3.295   2.124   8.920 -0.0606  0.1897 -0.1080
 4276SOL    HW124290   3.222   2.109   8.860 -1.4356 -2.3962  2.2146
 4276SOL    HW224291   3.358   2.065   8.879  0.3645  1.0628 -0.7314
 4277SOL     OW24292   0.152   0.199  13.404 -0.2037 -0.5845 -0.0048
 4277SOL    HW124293   0.168   0.171  13.494 -2.5223  0.5894  0.7658
 4277SOL    HW224294   0.237   0.243  13.400 -0.8081  0.4676 -1.2635
 4278SOL     OW24295   1.763   3.081   1.587 -0.5398  0.6057 -0.1989
 4278SOL    HW124296   1.817   3.103   1.511  2.8066 -0.3176  1.9027
 4278SOL    HW224297   1.808   3.129   1.657 -1.3567  2.3880 -0.9062
 4279SOL     OW24298   3.230   0.649   0.094 -0.1207 -0.2803  0.2009
 4279SOL    HW124299   3.314   0.606   0.111 -0.4224 -0.3246  1.5816
 4279SOL    HW224300   3.262   0.739   0.086 -0.5438 -0.1864 -0.3853
 4280SOL     OW24301   1.088   1.422  13.577 -0.1983 -0.0975  0.7158
 4280SOL    HW124302   1.053   1.345  13.532  1.7190 -0.6912  0.2807
 4280SOL    HW224303   1.060   1.489  13.515 -0.0232 -1.0742 -0.4145
 4281SOL     OW24304   4.228   3.615   1.069 -0.6806  0.1084  0.0320
 4281SOL    HW124305   4.290   3.661   1.125 -1.2266 -0.4986  1.1278
 4281SOL    HW224306   4.255   3.645   0.982 -1.9212 -0.8064 -0.6866
 4282SOL     OW24307   0.633   1.544   7.884  0.3495 -0.1603 -0.5782
 4282SOL    HW124308   0.636   1.450   7.902  1.1872  0.0073  0.1554
 4282SOL    HW224309   0.575   1.578   7.952  0.9111  2.4735 -1.3827
 4283SOL     OW24310   3.450   4.188   3.382  0.1381  0.1750 -0.0646
 4283SOL    HW124311   3.383   4.246   3.347 -3.9449 -2.8945  2.7581
 4283SOL    HW224312   3.523   4.244   3.355 -0.7923  1.7004  0.6228
 4284SOL     OW24313   0.125   1.596  15.253  0.5890  0.6603 -0.4675
 4284SOL    HW124314   0.094   1.685  15.235  1.1179  0.7345 -1.0250
 4284SOL    HW224315   0.163   1.579  15.166  0.3893  2.2042 -0.8531
 4285SOL     OW24316   0.931   4.603   8.820  0.9555  0.8995 -0.2282
 4285SOL    HW124317   0.922   4.655   8.900  2.5861  0.1459  0.4626
 4285SOL    HW224318   0.840   4.585   8.796  1.1687  1.6216 -1.5633
 4286SOL     OW24319   0.891   1.746   7.262  0.4986  0.3754 -0.5277
 4286SOL    HW124320   0.956   1.701   7.209  1.6666  1.1390  0.2343
 4286SOL    HW224321   0.934   1.755   7.347  1.9618 -0.6155 -1.1784
 4287SOL     OW24322   1.121   0.886  13.257 -0.5712  0.1555  0.4546
 4287SOL    HW124323   1.190   0.823  13.278  0.0422  0.6144 -0.1795
 4287SOL    HW224324   1.052   0.855  13.315 -1.2568  0.7852 -0.0271
 4288SOL     OW24325   2.551   1.284   7.863  0.3914  0.0061  0.5057
 4288SOL    HW124326   2.588   1.242   7.785  0.2172  0.7618  0.0075
 4288SOL    HW224327   2.570   1.377   7.846 -2.7831  0.0974 -2.6016
 4289SOL     OW24328   2.617   1.776  11.670  0.0667  0.7713  0.5217
 4289SOL    HW124329   2.681   1.833  11.628 -0.0879 -0.6138 -1.5949
 4289SOL    HW224330   2.558   1.751  11.599 -2.3909 -1.1758  3.2528
 4290SOL     OW24331   2.661   4.507   8.266 -0.2799 -0.1381 -0.0609
 4290SOL    HW124332   2.575   4.495   8.225 -0.2799 -0.9096  0.1589
 4290SOL    HW224333   2.693   4.594   8.241  0.5980  0.3243  2.7087
 4291SOL     OW24334   0.283   2.482  12.902  0.1951  0.6893  0.1032
 4291SOL    HW124335   0.357   2.425  12.884 -1.3492 -0.8147 -1.4533
 4291SOL    HW224336   0.323   2.526  12.978  0.1196  1.3615 -0.2504
 4292SOL     OW24337   1.195   1.024  16.261  0.2066 -0.5787 -0.2050
 4292SOL    HW124338   1.110   1.069  16.259 -0.2193 -1.4927 -1.9542
 4292SOL    HW224339   1.186   0.976  16.179  0.1066 -0.4082 -0.2927
 4293SOL     OW24340   4.263   3.424  11.241  0.3498  0.6932 -0.1033
 4293SOL    HW124341   4.183   3.477  11.243  1.4924  2.3811  0.3732
 4293SOL    HW224342   4.281   3.434  11.334 -2.5228 -1.3051  0.6658
 4294SOL     OW24343   1.820   1.997   8.024  0.7544  0.8308 -0.2599
 4294SOL    HW124344   1.795   1.984   8.116 -0.2935 -3.6375 -1.1580
 4294SOL    HW224345   1.834   1.908   7.992 -1.0027 -0.2643  2.0358
 4295SOL     OW24346   4.581   4.557   3.288  0.3617  0.2096  0.4851
 4295SOL    HW124347   4.595   4.636   3.237 -0.8833  0.7368  0.9454
 4295SOL    HW224348   4.651   4.500   3.258  1.0369  1.0225  0.5338
 4296SOL     OW24349   1.543   1.273   4.250  0.3588 -0.0959 -0.5068
 4296SOL    HW124350   1.621   1.223   4.273  0.1692 -0.7086 -1.2101
 4296SOL    HW224351   1.540   1.253   4.156  0.9523  1.4566 -0.8612
 4297SOL     OW24352   0.560   1.750  12.415  0.1719 -0.2203 -0.0550
 4297SOL    HW124353   0.655   1.742  12.409  0.1621 -1.3383  1.2296
 4297SOL    HW224354   0.556   1.845  12.406 -0.2680 -0.1275  1.1346
 4298SOL     OW24355   2.674   1.662   7.284  0.5396  0.0752  0.7357
 4298SOL    HW124356   2.750   1.666   7.226  0.7845 -1.1013  0.9646
 4298SOL    HW224357   2.615   1.610   7.230 -1.2451 -0.0105  2.7548
 4299SOL     OW24358   4.002   2.999   3.133 -0.6435 -0.2900 -0.0911
 4299SOL    HW124359   4.064   2.926   3.141  1.0827  1.3085  1.1176
 4299SOL    HW224360   4.026   3.041   3.050  1.8282 -1.9086 -0.1915
 4300SOL     OW24361   0.628   4.592   0.670  0.3701  0.2249  0.3093
 4300SOL    HW124362   0.613   4.497   0.674 -2.0630  0.6601  1.1912
 4300SOL    HW224363   0.716   4.595   0.632  1.0262 -0.6553  1.7571
 4301SOL     OW24364   0.208   1.350   4.355  0.3024 -0.3873 -0.7131
 4301SOL    HW124365   0.205   1.439   4.389 -1.7728 -0.0443 -1.7990
 4301SOL    HW224366   0.248   1.298   4.425  0.6378 -1.1625 -1.4768
 4302SOL     OW24367   1.417   0.531   3.099  0.0931  0.3958 -0.3133
 4302SOL    HW124368   1.380   0.450   3.136  1.5698  0.5174  1.4217
 4302SOL    HW224369   1.388   0.533   3.008  0.4312  1.1991 -0.4021
 4303SOL     OW24370   3.115   3.354   7.955  0.4931  0.3006 -0.1848
 4303SOL    HW124371   3.205   3.352   7.988  0.9057  0.9964 -1.2611
 4303SOL    HW224372   3.062   3.346   8.034  1.3329 -0.7036  0.2837
 4304SOL     OW24373   1.842   0.067  17.396  1.2052 -0.3921 -0.3235
 4304SOL    HW124374   1.795   4.704  17.407 -0.3398  0.5695  0.2202
 4304SOL    HW224375   1.771   0.130  17.407  0.4539 -1.7096  2.5524
 4305SOL     OW24376   2.461   2.398  12.019 -0.3257  0.1524  0.7705
 4305SOL    HW124377   2.488   2.446  11.942 -3.4962  1.0160  0.2134
 4305SOL    HW224378   2.389   2.350  11.978  0.5986 -0.8493  0.3157
 4306SOL     OW24379   4.190   0.559   8.907 -0.3426 -0.3084 -0.5737
 4306SOL    HW124380   4.160   0.498   8.840  0.3557 -0.3613 -0.8436
 4306SOL    HW224381   4.110   0.611   8.913 -0.0355  0.2105 -0.9074
 4307SOL     OW24382   2.737   3.951   2.745  0.5068  0.5087  0.4651
 4307SOL    HW124383   2.682   4.018   2.703 -0.0285 -0.3561 -0.1926
 4307SOL    HW224384   2.813   3.966   2.688 -0.2602 -2.1109 -1.2366
 4308SOL     OW24385   1.522   1.435   4.842 -0.2191  0.0947  0.2021
 4308SOL    HW124386   1.584   1.499   4.877  0.8460 -0.3829 -0.7894
 4308SOL    HW224387   1.458   1.492   4.799  2.2889  2.1620 -0.8086
 4309SOL     OW24388   0.304   4.333   6.799 -0.4901  0.0576 -0.4727
 4309SOL    HW124389   0.325   4.363   6.710  0.8703  0.7851  0.1061
 4309SOL    HW224390   0.349   4.389   6.861 -0.1239  1.4140 -1.9584
 4310SOL     OW24391   4.038   2.245   8.501  0.1342 -0.2798  0.1453
 4310SOL    HW124392   4.071   2.264   8.413 -0.5981 -1.3085 -0.3552
 4310SOL    HW224393   3.951   2.208   8.487  0.4440 -0.6683 -0.7918
 4311SOL     OW24394   2.512   1.614   2.964  0.2608 -0.1203  0.2920
 4311SOL    HW124395   2.476   1.658   3.040 -1.9272 -0.1621 -0.7333
 4311SOL    HW224396   2.606   1.609   2.985  0.0918  2.2217  1.6115
 4312SOL     OW24397   4.410   0.903   2.635  0.6479 -0.2456 -0.2174
 4312SOL    HW124398   4.474   0.930   2.701 -1.5643  0.5251  1.5757
 4312SOL    HW224399   4.464   0.848   2.578  0.5365  0.3154 -0.8639
 4313SOL     OW24400   4.467   4.554   4.032  0.0224 -0.3553 -0.8016
 4313SOL    HW124401   4.473   4.528   3.940  0.8234  2.1651 -1.4483
 4313SOL    HW224402   4.522   4.632   4.026 -0.8900  0.1607 -2.2457
 4314SOL     OW24403   2.721   1.264  12.255  0.2352  0.1426  0.3353
 4314SOL    HW124404   2.662   1.294  12.186  1.7264  2.6487  0.1682
 4314SOL    HW224405   2.733   1.351  12.293 -0.5961 -1.0071  3.2256
 4315SOL     OW24406   4.249   2.902   1.476 -0.9852  0.6722 -0.5368
 4315SOL    HW124407   4.340   2.872   1.484 -1.6147 -1.2530 -0.5483
 4315SOL    HW224408   4.263   2.995   1.491 -1.1138  0.4911  0.6754
 4316SOL     OW24409   2.574   4.619   7.348  0.6229 -0.3773 -0.1874
 4316SOL    HW124410   2.652   4.594   7.398  0.1446  1.4190  1.4231
 4316SOL    HW224411   2.504   4.624   7.413  2.2052 -0.6453  1.5314
 4317SOL     OW24412   3.759   4.203   9.107  0.1434 -0.3096  0.2483
 4317SOL    HW124413   3.703   4.226   9.033 -1.4198  0.7391  1.7590
 4317SOL    HW224414   3.746   4.108   9.108  0.0276 -0.3556 -4.3148
 4318SOL     OW24415   2.611   1.700  16.642  0.8208  0.1387  0.9582
 4318SOL    HW124416   2.605   1.788  16.679 -1.1322  0.6533 -0.6019
 4318SOL    HW224417   2.585   1.710  16.550  0.9184  0.6878  0.9898
 4319SOL     OW24418   1.882   1.090  13.799 -0.6159 -0.6581  0.0294
 4319SOL    HW124419   1.895   1.162  13.737  0.8079  0.5020  1.6929
 4319SOL    HW224420   1.960   1.101  13.853 -2.6050  2.2572  2.3435
 4320SOL     OW24421   1.164   1.147  13.191 -0.7476  0.6384 -0.0180
 4320SOL    HW124422   1.237   1.114  13.138 -1.1999  0.6284 -0.6347
 4320SOL    HW224423   1.126   1.065  13.222 -3.0975  1.4810 -0.6940
 4321SOL     OW24424   4.176   3.799   4.234 -0.5116  0.4567  0.0017
 4321SOL    HW124425   4.128   3.834   4.310  0.4088  1.0217  0.3213
 4321SOL    HW224426   4.112   3.808   4.164  2.7157  1.4345 -2.8057
 4322SOL     OW24427   2.052   2.616   4.294  0.1079  0.1234 -0.1141
 4322SOL    HW124428   2.133   2.616   4.242 -2.1499 -0.1657 -3.6809
 4322SOL    HW224429   2.028   2.523   4.285 -1.4435  0.5789 -0.8005
 4323SOL     OW24430   0.697   3.958   8.614 -0.0590 -0.3894 -0.2643
 4323SOL    HW124431   0.659   3.975   8.528 -2.8612 -3.4786  0.3481
 4323SOL    HW224432   0.773   4.016   8.617 -0.4032 -0.0369  1.5286
 4324SOL     OW24433   3.397   0.258   4.324  0.2043  0.0608 -0.2479
 4324SOL    HW124434   3.392   0.328   4.389  0.9341 -0.1528  0.0316
 4324SOL    HW224435   3.406   0.179   4.376 -1.7591 -0.1788 -0.2876
 4325SOL     OW24436   2.095   4.579   6.936  0.2562 -0.1295 -0.2803
 4325SOL    HW124437   2.112   4.531   6.855  1.6035 -0.0835 -0.0232
 4325SOL    HW224438   2.083   4.667   6.900  1.9490  0.6295  1.0011
 4326SOL     OW24439   0.546   0.865   8.674 -0.0331 -0.2085  0.9262
 4326SOL    HW124440   0.539   0.778   8.713 -0.8446  0.3570  2.0532
 4326SOL    HW224441   0.609   0.848   8.604 -0.8510  1.0693 -0.1106
 4327SOL     OW24442   4.246   2.583   4.405  0.0113 -0.1169 -0.3362
 4327SOL    HW124443   4.191   2.661   4.407 -0.8249 -0.7503  1.8887
 4327SOL    HW224444   4.185   2.520   4.366 -0.6905  1.3239 -1.5323
 4328SOL     OW24445   2.946   2.231   4.197  0.4518  0.3643 -0.1722
 4328SOL    HW124446   2.944   2.262   4.107  1.5569  0.2712 -0.2282
 4328SOL    HW224447   3.017   2.284   4.233  0.0616 -0.5715  1.9757
 4329SOL     OW24448   0.978   2.624   1.902 -0.1989 -0.0512  0.1191
 4329SOL    HW124449   1.010   2.714   1.893  0.4404 -0.1150  1.7573
 4329SOL    HW224450   1.000   2.597   1.991  1.7127 -0.4334 -0.4727
 4330SOL     OW24451   0.351   2.341   4.945  0.1795  0.1937 -0.1715
 4330SOL    HW124452   0.259   2.331   4.967  0.2570 -0.3597 -0.0824
 4330SOL    HW224453   0.361   2.426   4.902 -0.7190  0.2485 -0.2560
 4331SOL     OW24454   4.042   0.745  10.573  0.2015  0.8795  0.5100
 4331SOL    HW124455   4.072   0.719  10.486 -0.7682  0.9088  0.1760
 4331SOL    HW224456   3.962   0.703  10.602  0.0957  0.7707  0.0608
 4332SOL     OW24457   2.769   0.909   9.745  1.1970  0.1456 -0.1082
 4332SOL    HW124458   2.684   0.937   9.778 -0.6451 -1.6212 -3.2915
 4332SOL    HW224459   2.745   0.884   9.656  1.5225 -2.7835  0.6274
 4333SOL     OW24460   2.380   2.034   0.089 -0.2688 -0.6445  0.5713
 4333SOL    HW124461   2.313   2.047   0.022 -0.5609 -0.1243  0.9744
 4333SOL    HW224462   2.329   1.989   0.156  0.3999 -1.5715  0.4650
 4334SOL     OW24463   0.558   3.017   9.037 -0.0012 -0.0144  0.1939
 4334SOL    HW124464   0.523   3.099   9.071  1.1185  0.2217  0.7908
 4334SOL    HW224465   0.500   3.006   8.962 -0.1267 -1.7263  0.5261
 4335SOL     OW24466   1.296   4.320  11.216  0.4402 -0.5204 -0.1545
 4335SOL    HW124467   1.314   4.414  11.214  0.0588 -0.4061  1.5904
 4335SOL    HW224468   1.377   4.289  11.257 -0.2770 -0.3790  1.3814
 4336SOL     OW24469   1.777   0.882   6.416 -0.4376  0.3431 -0.1211
 4336SOL    HW124470   1.726   0.864   6.494 -0.7304  0.6195 -0.2484
 4336SOL    HW224471   1.824   0.799   6.405  0.2983  0.7052  0.3056
 4337SOL     OW24472   4.597   2.754  14.931 -0.2356 -0.0886  0.6996
 4337SOL    HW124473   4.621   2.843  14.904  2.0722 -0.9606 -0.0469
 4337SOL    HW224474   4.658   2.693  14.889  0.0960  1.4519 -1.0551
 4338SOL     OW24475   0.767   3.552  10.170  0.6863  0.5953 -0.1577
 4338SOL    HW124476   0.739   3.499  10.245 -0.9773  2.2656  0.4034
 4338SOL    HW224477   0.853   3.571  10.207  0.4409  1.2608  0.0515
 4339SOL     OW24478   0.732   4.171  14.387 -0.2858 -0.2858 -0.7067
 4339SOL    HW124479   0.785   4.165  14.467  0.4445  0.4238 -1.1459
 4339SOL    HW224480   0.791   4.222  14.332  1.3416 -1.3181  0.0621
 4340SOL     OW24481   0.664   1.591   9.086  0.1425 -0.0852  0.1951
 4340SOL    HW124482   0.626   1.545   9.160 -0.3375 -1.1272 -0.6875
 4340SOL    HW224483   0.742   1.633   9.124  0.4187  1.7619 -2.3984
 4341SOL     OW24484   3.165   3.428  11.978  0.1240 -0.0634  0.2433
 4341SOL    HW124485   3.109   3.500  11.947  0.1355 -1.2112 -2.3741
 4341SOL    HW224486   3.104   3.386  12.039 -0.3843 -2.7648 -2.1654
 4342SOL     OW24487   1.234   2.096  13.448  0.4164  0.4448  0.2849
 4342SOL    HW124488   1.149   2.057  13.430 -0.0977  2.2872 -1.2913
 4342SOL    HW224489   1.250   2.054  13.533  2.3989  1.0723  0.2418
 4343SOL     OW24490   1.717   3.301   6.797 -0.2180 -0.2835  0.0019
 4343SOL    HW124491   1.710   3.390   6.830 -0.3297 -0.4444  0.4145
 4343SOL    HW224492   1.801   3.274   6.834 -0.5301  1.2526  1.8324
 4344SOL     OW24493   2.255   3.727   4.302  0.3458 -0.2550  0.0949
 4344SOL    HW124494   2.188   3.790   4.327  1.5445  1.2699 -0.5455
 4344SOL    HW224495   2.298   3.768   4.227 -3.1496  0.5830 -1.4269
 4345SOL     OW24496   1.606   3.774   2.847  0.2198 -0.1807  0.2024
 4345SOL    HW124497   1.526   3.769   2.794 -0.0010  1.8574  0.3411
 4345SOL    HW224498   1.620   3.869   2.842  0.4761 -0.3519 -2.4333
 4346SOL     OW24499   1.471   3.798   7.158  0.6991  0.1928 -0.1859
 4346SOL    HW124500   1.517   3.808   7.242  0.0101 -0.8452  0.3098
 4346SOL    HW224501   1.427   3.716   7.179 -0.9409  0.8782 -0.9314
 4347SOL     OW24502   3.919   2.907   1.708  0.5634  0.3775 -0.1228
 4347SOL    HW124503   3.980   2.838   1.683  0.6586  0.8831 -1.2963
 4347SOL    HW224504   3.915   2.966   1.632 -1.0615  0.3605 -0.0322
 4348SOL     OW24505   2.493   4.139   2.963 -0.1291  0.0031 -0.4566
 4348SOL    HW124506   2.565   4.202   2.966 -2.1579  2.3843 -1.6561
 4348SOL    HW224507   2.427   4.182   3.018 -1.0837  0.6258 -2.0810
 4349SOL     OW24508   2.824   1.334   5.690  0.1147  0.0261  0.0055
 4349SOL    HW124509   2.810   1.247   5.726 -1.4932 -0.5882 -2.0828
 4349SOL    HW224510   2.860   1.313   5.604 -1.9482 -0.0479 -0.8499
 4350SOL     OW24511   0.319   0.146   6.200  0.3553 -0.3549  0.0272
 4350SOL    HW124512   0.273   0.155   6.117  0.2150  0.4976  0.2058
 4350SOL    HW224513   0.362   0.231   6.208 -0.4552  0.0943 -0.3781
 4351SOL     OW24514   3.073   3.437   5.010  0.0953  0.4617  0.6218
 4351SOL    HW124515   3.024   3.364   5.049 -0.7210  0.4970 -0.3520
 4351SOL    HW224516   3.160   3.431   5.050  0.2989 -1.1737 -0.0542
 4352SOL     OW24517   3.637   1.350   1.749 -0.8193  0.3853 -0.3227
 4352SOL    HW124518   3.613   1.328   1.839  0.3266  0.2489 -0.0510
 4352SOL    HW224519   3.665   1.269   1.707 -1.9617  0.9536 -2.1541
 4353SOL     OW24520   3.975   0.160   6.799  0.3770  0.6027  0.1877
 4353SOL    HW124521   4.042   0.119   6.854 -0.7622 -1.1900  0.2321
 4353SOL    HW224522   3.897   0.162   6.855  0.0627  1.6283 -0.2743
 4354SOL     OW24523   4.381   3.245  12.331  0.2584 -0.6642 -0.7020
 4354SOL    HW124524   4.300   3.218  12.374  0.1178 -0.6895 -0.9842
 4354SOL    HW224525   4.344   3.234  12.244 -0.4373  1.4146 -0.6755
 4355SOL     OW24526   3.431   2.810   5.298 -0.0649  0.1716 -0.1542
 4355SOL    HW124527   3.430   2.861   5.379 -1.2258 -0.3430  0.1623
 4355SOL    HW224528   3.497   2.750   5.332 -1.2829 -0.1061  1.7396
 4356SOL     OW24529   1.779   1.220  17.579  0.0329 -0.0289 -0.5094
 4356SOL    HW124530   1.743   1.177  17.656  1.1459 -1.3134 -0.7064
 4356SOL    HW224531   1.840   1.151  17.554  1.0512  0.1956  1.3324
 4357SOL     OW24532   1.211   0.722   1.025  0.2717  0.0448 -0.3185
 4357SOL    HW124533   1.303   0.713   1.052  0.1121  2.8911  1.2651
 4357SOL    HW224534   1.200   0.817   1.030  0.8270  0.0155  1.6444
 4358SOL     OW24535   4.315   2.331   8.836 -0.3418 -0.8724 -0.0511
 4358SOL    HW124536   4.284   2.302   8.921  0.6391 -0.1057  0.5630
 4358SOL    HW224537   4.250   2.288   8.780 -1.8403  2.1305 -0.5839
 4359SOL     OW24538   2.477   4.454   0.768 -0.1393 -0.0622 -0.2487
 4359SOL    HW124539   2.476   4.368   0.726  0.7398  0.9738 -2.4229
 4359SOL    HW224540   2.505   4.511   0.696 -1.7082 -1.6975 -2.1393
 4360SOL     OW24541   1.222   3.802  13.717  0.2224  0.0824  0.1793
 4360SOL    HW124542   1.173   3.750  13.653  3.1679 -1.9186 -0.4075
 4360SOL    HW224543   1.230   3.881  13.662 -0.7018 -0.4982 -0.7987
 4361SOL     OW24544   1.766   3.589  15.274 -0.3433 -0.2140 -0.0640
 4361SOL    HW124545   1.852   3.577  15.234  0.0974  0.4538  0.6745
 4361SOL    HW224546   1.749   3.682  15.256 -0.3706 -0.4595 -1.2883
 4362SOL     OW24547   0.967   0.791   8.267  0.0996 -0.7661  0.4475
 4362SOL    HW124548   0.996   0.878   8.238  1.4096 -1.1583  0.5517
 4362SOL    HW224549   0.970   0.803   8.362 -1.0764  2.5958  0.0382
 4363SOL     OW24550   0.390   2.669   3.527 -0.1218  0.3546  0.0746
 4363SOL    HW124551   0.318   2.620   3.487  0.0507 -1.8716  2.5506
 4363SOL    HW224552   0.371   2.658   3.620  0.7645 -2.1647 -0.0379
 4364SOL     OW24553   2.917   0.331   3.562  0.5154 -0.1681 -0.4304
 4364SOL    HW124554   2.863   0.368   3.631 -0.9962  1.1843 -2.3553
 4364SOL    HW224555   2.991   0.392   3.564  0.2515  0.1901 -1.3804
 4365SOL     OW24556   2.462   4.024  16.007  0.2277 -0.2262  0.5505
 4365SOL    HW124557   2.407   4.092  16.045  0.5782 -0.5153  1.5612
 4365SOL    HW224558   2.479   3.977  16.088  0.6348 -1.8985 -0.5099
 4366SOL     OW24559   3.889   3.313   7.957 -0.1159 -0.2241  0.0596
 4366SOL    HW124560   3.847   3.369   8.023  1.3522  0.6977  0.2137
 4366SOL    HW224561   3.945   3.377   7.913  0.2632  0.3935  1.4182
 4367SOL     OW24562   0.750   3.820  10.358  0.1386 -0.4227  0.3634
 4367SOL    HW124563   0.793   3.874  10.292  1.1259 -0.0437  1.3337
 4367SOL    HW224564   0.826   3.764  10.377 -0.0346 -0.6125  0.5054
 4368SOL     OW24565   3.220   0.908   6.792 -0.3194 -0.0683  0.0519
 4368SOL    HW124566   3.228   0.961   6.871 -0.6815  1.4262 -0.9015
 4368SOL    HW224567   3.271   0.829   6.808  0.9665  1.1106  1.7405
 4369SOL     OW24568   2.433   3.632  17.075 -0.0740  0.9078  0.5757
 4369SOL    HW124569   2.437   3.725  17.053  3.0381  0.9817  1.4497
 4369SOL    HW224570   2.483   3.628  17.157  2.0858  1.2329 -0.7089
 4370SOL     OW24571   1.589   2.556   3.243 -0.0740 -0.1209 -0.0933
 4370SOL    HW124572   1.550   2.606   3.315 -1.4068 -0.7713 -0.3733
 4370SOL    HW224573   1.679   2.590   3.242 -0.4714  0.8698 -1.8903
 4371SOL     OW24574   1.567   3.475  15.445  0.4665 -0.2516  0.6611
 4371SOL    HW124575   1.651   3.501  15.406  0.3202  0.9055  1.1190
 4371SOL    HW224576   1.537   3.401  15.392  1.4906 -0.9833  1.0856
 4372SOL     OW24577   1.107   2.770   4.784 -0.2574  0.3872 -0.5528
 4372SOL    HW124578   1.097   2.859   4.752 -2.3784  1.1784  2.2569
 4372SOL    HW224579   1.161   2.792   4.860 -0.6051 -1.5540  0.2676
 4373SOL     OW24580   1.848   2.617   3.277  0.3163  0.4875  0.0811
 4373SOL    HW124581   1.858   2.661   3.362 -2.0391  0.7134  0.2315
 4373SOL    HW224582   1.872   2.685   3.214 -0.9204  0.1519 -0.7404
 4374SOL     OW24583   1.695   1.361  13.827  0.2407  0.0758 -0.7644
 4374SOL    HW124584   1.649   1.434  13.784 -1.6261 -1.0446 -0.6856
 4374SOL    HW224585   1.626   1.296  13.837 -1.2508  1.5731 -1.2377
 4375SOL     OW24586   1.800   0.314   2.484  0.2241  0.2918 -0.6527
 4375SOL    HW124587   1.877   0.266   2.454  0.4240  1.2216 -1.6593
 4375SOL    HW224588   1.784   0.371   2.409 -1.4338  0.7320  0.0448
 4376SOL     OW24589   4.598   2.851   6.335  0.0594 -0.1810 -0.4658
 4376SOL    HW124590   4.544   2.921   6.298 -0.9820 -0.5201  0.4009
 4376SOL    HW224591   4.685   2.877   6.305  0.4331  1.9019  2.3738
 4377SOL     OW24592   1.396   2.606   2.252 -0.0760 -0.2901  0.0614
 4377SOL    HW124593   1.355   2.637   2.333 -0.6170  2.1898 -1.1593
 4377SOL    HW224594   1.325   2.547   2.226  1.6292 -1.7010 -1.3946
 4378SOL     OW24595   3.995   0.002   0.432  0.5411  1.3223 -0.1385
 4378SOL    HW124596   3.997   0.097   0.423 -1.4498  1.7230  3.5227
 4378SOL    HW224597   3.942   0.001   0.512  2.0522  1.3387  0.8780
 4379SOL     OW24598   1.558   1.765  12.832  0.4489  0.3519 -0.0844
 4379SOL    HW124599   1.597   1.735  12.915  0.7672  0.8037 -0.0691
 4379SOL    HW224600   1.552   1.858  12.853 -1.9959  0.1858 -0.1338
 4380SOL     OW24601   2.546   0.364  16.443  0.1385  0.6037 -0.1980
 4380SOL    HW124602   2.564   0.441  16.389 -0.3697  0.0663 -1.1301
 4380SOL    HW224603   2.496   0.398  16.518  1.2174 -0.8487  1.1737
 4381SOL     OW24604   1.032   1.302   5.835  0.3640 -0.3386 -0.2775
 4381SOL    HW124605   0.970   1.370   5.862 -0.4982 -1.6666  1.0514
 4381SOL    HW224606   1.108   1.315   5.892 -0.2534 -0.2320  0.5133
 4382SOL     OW24607   2.870   2.076   2.272 -0.0118 -0.7120 -0.3152
 4382SOL    HW124608   2.900   2.051   2.184  2.8392 -2.0096  1.0167
 4382SOL    HW224609   2.932   2.148   2.286 -0.4497 -0.1094 -1.5165
 4383SOL     OW24610   4.080   4.602   6.505  0.0165 -0.1902  0.7248
 4383SOL    HW124611   4.160   4.624   6.552  1.3433  0.3476 -1.7700
 4383SOL    HW224612   4.029   4.683   6.511 -1.9524 -1.3708  0.1614
 4384SOL     OW24613   0.661   2.895  14.848  1.0473 -0.2716 -0.6909
 4384SOL    HW124614   0.671   2.894  14.943 -1.0624  0.8174 -0.4531
 4384SOL    HW224615   0.566   2.903  14.839  1.0785 -0.2995 -1.0454
 4385SOL     OW24616   3.726   1.805   7.174  0.1485 -0.5163 -0.2962
 4385SOL    HW124617   3.641   1.765   7.157  0.5983 -1.8220  0.5695
 4385SOL    HW224618   3.776   1.784   7.095 -1.6984 -1.5927 -1.1870
 4386SOL     OW24619   4.593   3.856   4.414 -0.4467  0.2000 -1.2790
 4386SOL    HW124620   4.646   3.825   4.341  0.3703  2.0877 -1.4893
 4386SOL    HW224621   4.616   3.948   4.410  0.2408  0.0861  0.0806
 4387SOL     OW24622   4.669   1.364   4.166 -0.3085  0.1040  0.5978
 4387SOL    HW124623   4.664   1.351   4.071  0.9641 -0.6689  0.6282
 4387SOL    HW224624   4.681   1.459   4.170 -1.5852  0.3486 -1.4297
 4388SOL     OW24625   0.120   3.776   1.144 -0.2210 -0.3934  0.1114
 4388SOL    HW124626   0.116   3.852   1.201 -1.2381 -1.1016  0.9833
 4388SOL    HW224627   0.111   3.809   1.054  3.3514  0.4339  0.0580
 4389SOL     OW24628   2.894   4.014   3.452 -0.4672 -0.2185  0.1178
 4389SOL    HW124629   2.922   4.090   3.503 -0.2428 -0.9450  1.0674
 4389SOL    HW224630   2.981   4.001   3.414  0.7786  3.2993  1.7836
 4390SOL     OW24631   0.205   4.277   7.467 -0.3139 -0.7358 -0.2546
 4390SOL    HW124632   0.131   4.217   7.461 -1.1884  0.7162 -3.6376
 4390SOL    HW224633   0.149   4.343   7.506 -0.5987  0.0386 -1.9629
 4391SOL     OW24634   1.596   2.598   7.432 -0.4269  0.2698 -0.5449
 4391SOL    HW124635   1.516   2.569   7.389 -1.6818  1.7856  0.7850
 4391SOL    HW224636   1.555   2.580   7.517 -1.6798  0.3229 -1.1358
 4392SOL     OW24637   0.294   1.342   5.237  0.2829 -0.0885  0.4774
 4392SOL    HW124638   0.249   1.424   5.215 -3.1517 -2.0431  0.2902
 4392SOL    HW224639   0.382   1.368   5.209 -0.5768  2.5439  0.2199
 4393SOL     OW24640   4.196   1.895   6.518  0.0545 -0.2240  0.3555
 4393SOL    HW124641   4.281   1.889   6.476  0.1947  0.2199  0.5723
 4393SOL    HW224642   4.218   1.971   6.573 -1.1925  0.0634  0.4585
 4394SOL     OW24643   3.993   2.925   1.050  0.1193 -0.3384  0.1315
 4394SOL    HW124644   3.925   2.992   1.043 -0.6166 -1.2492 -1.7203
 4394SOL    HW224645   3.955   2.860   1.109 -3.0425 -0.0917 -1.6084
 4395SOL     OW24646   3.809   3.961   6.658  0.0981  0.8450  0.6188
 4395SOL    HW124647   3.766   4.046   6.644 -0.7444  0.3963  0.4914
 4395SOL    HW224648   3.884   3.993   6.708 -1.9699  5.0512  1.0688
 4396SOL     OW24649   3.754   0.148   6.966 -0.4740  0.4027  0.5944
 4396SOL    HW124650   3.747   0.232   7.011  0.7380  1.1975 -0.7047
 4396SOL    HW224651   3.661   0.135   6.944 -0.1749 -1.3388  0.3863
 4397SOL     OW24652   1.380   1.622   4.707  0.4683  0.0023 -0.1186
 4397SOL    HW124653   1.428   1.654   4.631  0.6443 -0.3574 -0.1588
 4397SOL    HW224654   1.312   1.573   4.661 -0.8923  2.5227 -0.7602
 4398SOL     OW24655   0.029   0.099   3.508 -0.2452 -0.1674  0.0078
 4398SOL    HW124656   0.071   0.185   3.511 -1.3844  0.2623  3.9275
 4398SOL    HW224657   0.013   0.097   3.413  3.3358 -1.6306 -0.5552
 4399SOL     OW24658   2.236   2.648   6.689 -0.1647  0.7357  0.4216
 4399SOL    HW124659   2.195   2.601   6.762 -0.1480 -0.2909 -0.2361
 4399SOL    HW224660   2.328   2.625   6.700 -1.2106 -1.7229  3.8866
 4400SOL     OW24661   4.076   1.097   5.273  0.4517 -0.1637  0.0852
 4400SOL    HW124662   4.069   1.116   5.366 -0.7632 -0.5775  0.0765
 4400SOL    HW224663   4.028   1.167   5.228  0.2390  0.3890  1.1710
 4401SOL     OW24664   1.059   1.365   3.365  0.2773  0.2516 -0.2670
 4401SOL    HW124665   1.065   1.305   3.439 -2.0402 -0.7244 -0.8968
 4401SOL    HW224666   1.033   1.444   3.414  0.0205  0.7708 -1.2469
 4402SOL     OW24667   1.140   3.948   8.622 -0.1808  0.2504  0.5406
 4402SOL    HW124668   1.153   3.854   8.613 -0.0406  0.2513  0.7377
 4402SOL    HW224669   1.133   3.979   8.532  1.5596  0.5664  0.5251
 4403SOL     OW24670   4.249   1.181  10.663  0.0348  0.0886 -0.1547
 4403SOL    HW124671   4.169   1.134  10.686 -0.5085  1.4835  0.8021
 4403SOL    HW224672   4.248   1.200  10.569  0.6968 -1.7537 -0.5365
 4404SOL     OW24673   4.674   2.214   4.010 -0.7463 -0.1555  0.0745
 4404SOL    HW124674   4.600   2.275   4.004  0.8400  1.9144  1.3654
 4404SOL    HW224675   4.701   2.228   4.101 -0.3094  2.2826 -0.4415
 4405SOL     OW24676   2.202   1.190   5.829  0.4041  0.1313 -0.3813
 4405SOL    HW124677   2.155   1.178   5.911  2.9215  0.2423  1.0467
 4405SOL    HW224678   2.245   1.273   5.850  0.7870  0.3322 -1.9345
 4406SOL     OW24679   0.157   2.604  16.799 -0.3015  0.4805 -0.4029
 4406SOL    HW124680   0.207   2.631  16.722  0.6986 -1.2159 -0.3729
 4406SOL    HW224681   0.118   2.518  16.781  1.1078 -0.1527 -0.4403
 4407SOL     OW24682   1.908   3.418   3.067 -0.3557 -0.5003  0.0999
 4407SOL    HW124683   1.825   3.464   3.069  0.4345  0.8990  0.9182
 4407SOL    HW224684   1.942   3.450   2.983  3.3364  0.4786  1.9522
 4408SOL     OW24685   4.517   0.586  12.107 -0.2962 -0.2656  0.0846
 4408SOL    HW124686   4.430   0.556  12.134 -0.2263 -0.8706 -0.3619
 4408SOL    HW224687   4.544   0.514  12.050 -1.2238 -0.0051 -0.6819
 4409SOL     OW24688   0.527   4.569  14.251  0.0285 -0.6493  0.0330
 4409SOL    HW124689   0.443   4.609  14.276 -0.9652 -1.2405 -2.2799
 4409SOL    HW224690   0.510   4.557  14.157  1.7787 -0.5025 -0.2948
 4410SOL     OW24691   0.661   2.436   8.996  0.2443  0.3118  0.4315
 4410SOL    HW124692   0.631   2.353   8.957 -0.3850  0.1052  1.3454
 4410SOL    HW224693   0.586   2.487   8.966  0.6900  0.5700 -0.2364
 4411SOL     OW24694   1.396   2.439   5.789 -0.4847  0.0586 -0.1113
 4411SOL    HW124695   1.348   2.515   5.822  1.7150  1.4397 -0.0878
 4411SOL    HW224696   1.424   2.396   5.870  0.7684 -1.0066 -1.1281
 4412SOL     OW24697   1.363   4.005   4.464 -0.9465  0.1105 -0.3145
 4412SOL    HW124698   1.302   3.953   4.515 -0.3881 -0.2883 -0.0573
 4412SOL    HW224699   1.447   3.981   4.502 -0.9163 -3.0463 -2.3835
 4413SOL     OW24700   0.338   4.485   5.076 -0.1305 -0.1134  0.1848
 4413SOL    HW124701   0.252   4.508   5.112 -0.5645  0.8323 -1.4317
 4413SOL    HW224702   0.362   4.567   5.032  2.4191  0.1534  2.0444
 4414SOL     OW24703   3.913   1.911  17.467 -0.6780 -0.3442 -0.0968
 4414SOL    HW124704   3.859   1.971  17.518  0.5825  0.2518  0.5535
 4414SOL    HW224705   3.928   1.843  17.534 -0.2423 -1.2853 -1.1428
 4415SOL     OW24706   2.472   2.526  11.397 -0.4890  0.2050 -0.2398
 4415SOL    HW124707   2.508   2.490  11.478  1.5850  0.7372 -0.9297
 4415SOL    HW224708   2.552   2.569  11.365  0.5992 -0.4680  1.6071
 4416SOL     OW24709   2.297   0.008  11.375 -0.0847  0.1596  0.6245
 4416SOL    HW124710   2.223   0.020  11.435 -0.4540 -2.1549  0.6155
 4416SOL    HW224711   2.364   4.702  11.438 -1.9011 -0.2575  2.3749
 4417SOL     OW24712   0.316   4.376   2.047  0.1406 -0.1832 -0.6260
 4417SOL    HW124713   0.331   4.330   2.130 -0.6916  1.4017  0.4131
 4417SOL    HW224714   0.312   4.461   2.092  0.4522 -0.8803  0.7322
 4418SOL     OW24715   0.772   4.157   6.145  0.3865  0.3199  0.0346
 4418SOL    HW124716   0.818   4.219   6.089 -0.3069  0.6400 -0.1820
 4418SOL    HW224717   0.764   4.089   6.078 -0.1348 -1.1013  1.5327
 4419SOL     OW24718   1.515   3.649   1.401  0.1405 -0.2795  0.1950
 4419SOL    HW124719   1.454   3.649   1.327 -0.1273 -0.2446  0.4160
 4419SOL    HW224720   1.543   3.558   1.410 -0.3904 -0.5929 -1.2658
 4420SOL     OW24721   0.847   1.850   5.601 -0.3679  0.0364 -0.3722
 4420SOL    HW124722   0.814   1.878   5.687  1.5429 -1.1697  0.7727
 4420SOL    HW224723   0.770   1.866   5.547 -1.2900  0.9417  1.1795
 4421SOL     OW24724   1.203   2.388   1.968  0.1870  0.1268 -0.2890
 4421SOL    HW124725   1.176   2.404   2.059  0.5427  1.6803 -0.4547
 4421SOL    HW224726   1.269   2.454   1.948  0.7526 -0.6204 -0.8817
 4422SOL     OW24727   2.720   0.966  16.660  0.2599 -0.4470 -0.4033
 4422SOL    HW124728   2.738   0.890  16.606  0.4852 -0.2940 -0.5444
 4422SOL    HW224729   2.666   1.013  16.596  1.5831 -0.0090 -1.1855
 4423SOL     OW24730   3.775   3.446   2.394 -0.3457 -0.2362  0.8214
 4423SOL    HW124731   3.829   3.475   2.468 -2.0515  3.6181  0.5081
 4423SOL    HW224732   3.841   3.398   2.344 -1.6284 -0.5061 -0.5847
 4424SOL     OW24733   4.705   1.499   2.936 -0.1609 -0.8777 -0.0995
 4424SOL    HW124734   4.668   1.425   2.984 -1.5709 -0.0906  0.0615
 4424SOL    HW224735   4.625   1.539   2.902  0.0871  0.9015  1.3925
 4425SOL     OW24736   2.062   1.632   7.381 -0.4746  0.1960 -0.4703
 4425SOL    HW124737   1.992   1.678   7.334 -1.8676  0.4907  1.8977
 4425SOL    HW224738   2.104   1.707   7.422 -0.1504 -0.0007 -0.4484
 4426SOL     OW24739   1.630   2.964   8.829  0.3568  0.2878 -0.5760
 4426SOL    HW124740   1.618   3.013   8.911 -1.0296 -0.2499 -0.4581
 4426SOL    HW224741   1.551   2.992   8.782 -0.7982 -0.0848  1.1617
 4427SOL     OW24742   1.348   0.660  17.277 -0.5344 -0.2180  0.5013
 4427SOL    HW124743   1.434   0.704  17.282 -0.7685  0.4627 -1.3212
 4427SOL    HW224744   1.304   0.671  17.192  1.3047 -2.2174 -0.7206
 4428SOL     OW24745   1.126   2.408   5.670 -0.3221 -0.0634  0.6415
 4428SOL    HW124746   1.175   2.433   5.749  1.1245  0.7057 -0.4985
 4428SOL    HW224747   1.060   2.476   5.655 -0.5848 -0.0129  2.0027
 4429SOL     OW24748   0.814   0.540   7.416 -0.8732 -0.0167  0.2550
 4429SOL    HW124749   0.881   0.494   7.365 -1.1682  1.8366 -1.8115
 4429SOL    HW224750   0.796   0.626   7.378 -1.3945 -0.4365 -0.4574
 4430SOL     OW24751   1.088   2.112   9.704 -0.7039  0.2018 -0.2793
 4430SOL    HW124752   1.112   2.198   9.669  0.7911 -0.8099 -1.7172
 4430SOL    HW224753   1.133   2.127   9.787  0.8333 -0.5236 -0.9839
 4431SOL     OW24754   3.903   3.580  15.140  0.2553  0.4887 -0.3415
 4431SOL    HW124755   3.820   3.606  15.180  0.3869 -0.1697  0.3571
 4431SOL    HW224756   3.960   3.644  15.182  1.0271 -1.0966  1.0283
 4432SOL     OW24757   1.669   4.354   8.254 -0.0151  0.2311 -0.0829
 4432SOL    HW124758   1.656   4.417   8.183  1.4143 -0.4280 -0.9188
 4432SOL    HW224759   1.581   4.330   8.284  0.1399 -1.5882 -1.0864
 4433SOL     OW24760   2.330   2.660   7.681  1.0987  0.0081 -0.0220
 4433SOL    HW124761   2.351   2.739   7.631 -0.4104 -0.5230 -1.5167
 4433SOL    HW224762   2.315   2.604   7.605 -1.8203  1.0749 -0.2384
 4434SOL     OW24763   4.251   1.366  12.469  0.3286  0.4448 -0.3979
 4434SOL    HW124764   4.167   1.366  12.515  0.5653 -2.0029  0.0002
 4434SOL    HW224765   4.228   1.311  12.394 -2.2016  1.8201 -0.6558
 4435SOL     OW24766   2.187   0.127  10.949 -0.9165 -0.3402 -0.0362
 4435SOL    HW124767   2.129   0.058  10.918  0.2616 -1.4684  0.2751
 4435SOL    HW224768   2.236   0.085  11.020  0.2672 -2.3445 -2.0667
 4436SOL     OW24769   1.758   2.084  10.153 -0.2687 -0.2957  0.9427
 4436SOL    HW124770   1.701   2.022  10.108  0.5029 -0.5868  0.3655
 4436SOL    HW224771   1.714   2.169  10.143  2.4715  1.0363  0.2581
 4437SOL     OW24772   3.427   0.895  11.206 -0.0121  0.9772 -0.1848
 4437SOL    HW124773   3.360   0.836  11.242  0.0061  0.7436 -0.5383
 4437SOL    HW224774   3.384   0.980  11.217 -0.1798  0.9646 -0.7728
 4438SOL     OW24775   2.551   1.155   4.275 -0.2361  0.1496 -0.8598
 4438SOL    HW124776   2.496   1.082   4.246 -1.4808  0.7047  0.0749
 4438SOL    HW224777   2.487   1.200   4.330  0.7330  1.2734 -0.6518
 4439SOL     OW24778   0.324   1.655  12.761 -0.1248 -0.1711  0.0918
 4439SOL    HW124779   0.291   1.633  12.674  0.4289  2.9903 -0.9163
 4439SOL    HW224780   0.348   1.563  12.775  2.2164  0.6034  1.2381
 4440SOL     OW24781   2.935   3.980   2.557 -1.1361 -0.2015 -0.0184
 4440SOL    HW124782   2.922   4.074   2.569 -1.1641 -0.5969  3.1162
 4440SOL    HW224783   3.024   3.973   2.593 -0.7337  0.9069 -0.7909
 4441SOL     OW24784   2.113   3.531   5.914  0.3536  0.0191 -0.0618
 4441SOL    HW124785   2.148   3.445   5.937  0.5396  0.5671  1.7314
 4441SOL    HW224786   2.166   3.559   5.840 -1.0451 -1.0990 -1.5092
 4442SOL     OW24787   0.762   1.968   4.651  0.8248 -0.0328  0.2832
 4442SOL    HW124788   0.736   2.049   4.696 -1.3626  0.1711 -1.3197
 4442SOL    HW224789   0.687   1.912   4.670  2.0610 -1.9903 -0.6205
 4443SOL     OW24790   2.575   1.861   7.483 -0.4488 -0.1715 -0.0508
 4443SOL    HW124791   2.640   1.924   7.450 -0.3061  0.6870  1.8545
 4443SOL    HW224792   2.600   1.785   7.431 -0.6055 -0.9729  1.0455
 4444SOL     OW24793   2.715   1.302  15.436  0.1354 -0.5866 -0.2388
 4444SOL    HW124794   2.722   1.379  15.380  1.5600 -1.1820 -0.8801
 4444SOL    HW224795   2.691   1.338  15.521  0.0316 -0.0578 -0.4882
 4445SOL     OW24796   2.248   1.500   6.717 -0.4494 -0.0956 -0.0094
 4445SOL    HW124797   2.322   1.558   6.729  0.2440 -1.0181  0.2114
 4445SOL    HW224798   2.284   1.450   6.644 -1.4351 -0.8454  0.0139
 4446SOL     OW24799   2.065   3.258   2.643 -0.5626  0.7529  0.2924
 4446SOL    HW124800   2.068   3.174   2.690  1.6737  1.1378  0.8300
 4446SOL    HW224801   2.029   3.221   2.563 -2.3752  0.5788  1.1846
 4447SOL     OW24802   0.173   4.648   0.215 -0.2918 -0.3991  0.0220
 4447SOL    HW124803   0.145   4.562   0.185 -2.1957  0.7482 -1.4703
 4447SOL    HW224804   0.250   4.630   0.268  0.4206  0.5200 -0.6965
 4448SOL     OW24805   1.574   3.365   8.835  0.2706 -0.0201  0.2161
 4448SOL    HW124806   1.531   3.348   8.919 -3.1582 -0.1146 -1.5814
 4448SOL    HW224807   1.666   3.350   8.856  0.0231 -1.2110  0.4579
 4449SOL     OW24808   1.703   4.400   7.946  0.1444  0.0560  0.1977
 4449SOL    HW124809   1.625   4.451   7.922  0.0585  1.0632  2.6348
 4449SOL    HW224810   1.768   4.461   7.911  3.3017 -2.3383  1.8971
 4450SOL     OW24811   1.539   0.777   3.196 -0.3694  0.3715 -0.2731
 4450SOL    HW124812   1.515   0.688   3.170  0.0905  0.7484 -1.9599
 4450SOL    HW224813   1.465   0.827   3.163 -0.0271  1.8851  1.2825
 4451SOL     OW24814   0.945   1.986  15.091 -0.2879 -0.6157 -0.1075
 4451SOL    HW124815   1.012   2.053  15.084 -1.9479  1.1708  1.2030
 4451SOL    HW224816   0.944   1.967  15.185  1.7584  1.9862  0.4259
 4452SOL     OW24817   1.618   0.860   8.531  0.5411  0.6264 -0.3937
 4452SOL    HW124818   1.706   0.859   8.495  1.4457 -2.5776  1.9507
 4452SOL    HW224819   1.585   0.950   8.532  0.3293  0.5635 -1.3379
 4453SOL     OW24820   3.229   2.263   6.355 -0.4761  0.4014 -0.1073
 4453SOL    HW124821   3.299   2.307   6.403  0.2119 -1.2727  0.4156
 4453SOL    HW224822   3.212   2.205   6.429  2.1787 -0.7171 -0.3427
 4454SOL     OW24823   0.199   0.206   5.323 -0.2939  0.3634 -0.1979
 4454SOL    HW124824   0.167   0.267   5.257  0.6711  0.8002 -0.2597
 4454SOL    HW224825   0.117   0.167   5.353  0.7314 -2.2950 -0.8930
 4455SOL     OW24826   2.067   1.143   2.216 -0.5383 -0.0491 -0.0473
 4455SOL    HW124827   2.092   1.051   2.210 -0.7673 -0.1589  0.7149
 4455SOL    HW224828   2.025   1.148   2.130 -1.4038  0.1232  0.3818
 4456SOL     OW24829   0.007   3.799   4.997  0.0452  0.2505 -0.2372
 4456SOL    HW124830   4.716   3.749   4.916 -0.2325 -0.4981  0.2619
 4456SOL    HW224831   0.101   3.817   4.990  0.1742 -0.4620 -0.3498
 4457SOL     OW24832   0.508   4.281   5.970  0.1877  0.1620  0.0383
 4457SOL    HW124833   0.510   4.276   5.875  0.1604 -0.8579  0.0869
 4457SOL    HW224834   0.564   4.206   5.991 -0.0997  0.2330  1.0825
 4458SOL     OW24835   2.993   2.710  15.747  0.1307 -0.5914  0.5394
 4458SOL    HW124836   2.942   2.670  15.818  2.5582 -0.4564  2.3558
 4458SOL    HW224837   2.981   2.645  15.677 -0.4557  0.0319  0.0626
 4459SOL     OW24838   1.951   1.945   9.032 -0.1244 -0.4489 -0.0903
 4459SOL    HW124839   1.865   1.959   9.073 -0.7911 -0.4412 -1.4885
 4459SOL    HW224840   1.981   1.865   9.075 -0.4651 -1.1368 -1.1315
 4460SOL     OW24841   4.464   1.317   6.267  0.7630 -0.3040  0.1532
 4460SOL    HW124842   4.368   1.310   6.267  0.9620 -3.1257  2.6850
 4460SOL    HW224843   4.491   1.364   6.188  1.0305 -2.4635 -1.0229
 4461SOL     OW24844   1.174   3.184   3.511 -0.2350 -0.8294  0.0925
 4461SOL    HW124845   1.096   3.131   3.523  0.0078 -0.9958  0.9195
 4461SOL    HW224846   1.241   3.117   3.499  0.4617 -0.1907  0.3658
 4462SOL     OW24847   4.051   2.588   0.250 -0.0847 -0.4052  0.1933
 4462SOL    HW124848   4.120   2.534   0.212  0.2338 -1.2492  1.9693
 4462SOL    HW224849   3.977   2.528   0.265  0.5136 -1.1213  0.2723
 4463SOL     OW24850   4.410   3.386   1.226 -0.3102  1.1020  0.3185
 4463SOL    HW124851   4.337   3.429   1.270 -0.3900  1.9544 -0.6462
 4463SOL    HW224852   4.474   3.449   1.193  1.1306  0.3746  1.7154
 4464SOL     OW24853   4.189   0.854   0.860 -0.2671 -0.0523 -0.0394
 4464SOL    HW124854   4.117   0.793   0.873 -0.7268  0.3752 -0.5743
 4464SOL    HW224855   4.220   0.867   0.950 -1.0022  3.4224 -0.2914
 4465SOL     OW24856   1.896   0.087   4.603 -0.0531 -0.9440  0.1345
 4465SOL    HW124857   1.991   0.092   4.592 -0.2006 -0.8235 -1.1127
 4465SOL    HW224858   1.874   4.716   4.579 -2.1348 -0.3137 -0.3930
 4466SOL     OW24859   4.702   0.605   2.613  0.0528  0.7358 -0.4995
 4466SOL    HW124860   0.034   0.525   2.603 -1.3995  0.0262 -2.4655
 4466SOL    HW224861   4.618   0.559   2.619  1.3439 -1.5935 -0.3745
 4467SOL     OW24862   3.692   4.582   6.846  0.0567 -0.4579  0.1765
 4467SOL    HW124863   3.761   4.546   6.791  1.5310  0.2802  1.5208
 4467SOL    HW224864   3.741   4.583   6.929  2.1257  1.9467 -1.0439
 4468SOL     OW24865   1.672   3.633   8.257  0.4511  0.4036  0.0626
 4468SOL    HW124866   1.748   3.674   8.299  0.0817 -0.9817  2.0740
 4468SOL    HW224867   1.655   3.708   8.199 -0.9306 -1.1883 -1.6119
 4469SOL     OW24868   1.766   0.949   1.380 -0.0964  0.1014 -0.5229
 4469SOL    HW124869   1.688   0.898   1.403 -0.4035 -0.5362 -2.9853
 4469SOL    HW224870   1.750   1.043   1.389  1.3383  0.4349 -1.5140
 4470SOL     OW24871   2.632   3.035   3.074 -0.3099 -0.4032  0.3696
 4470SOL    HW124872   2.653   2.943   3.059 -0.0583 -0.4965  1.2902
 4470SOL    HW224873   2.586   3.050   2.992  0.3015  1.3165  0.3297
 4471SOL     OW24874   0.832   0.903   6.402  0.1368 -0.3690  0.0063
 4471SOL    HW124875   0.887   0.888   6.325 -1.3809 -0.3603 -1.0722
 4471SOL    HW224876   0.830   0.998   6.411 -0.3571 -0.6423  2.7379
 4472SOL     OW24877   1.627   3.492  11.430 -0.6180 -0.3865 -0.3039
 4472SOL    HW124878   1.544   3.514  11.388 -0.4133 -0.0777 -0.5432
 4472SOL    HW224879   1.596   3.412  11.473  0.9675  0.0127  1.5643
 4473SOL     OW24880   3.005   2.928  11.146  0.2118 -0.5579  0.3384
 4473SOL    HW124881   3.081   2.893  11.194 -0.7152 -1.0473  1.4372
 4473SOL    HW224882   2.969   2.844  11.116 -0.6628 -0.2833  0.6446
 4474SOL     OW24883   0.289   3.393  13.966  0.4728  0.3007 -0.5046
 4474SOL    HW124884   0.199   3.420  13.986  0.4759  0.8324 -1.2229
 4474SOL    HW224885   0.298   3.411  13.873 -3.1453 -1.0014 -1.1316
 4475SOL     OW24886   0.654   2.637   6.403  0.8654 -0.5287  0.1359
 4475SOL    HW124887   0.673   2.575   6.474  1.1398 -1.9175 -1.1542
 4475SOL    HW224888   0.738   2.677   6.379  1.9865 -2.4621  0.7780
 4476SOL     OW24889   1.845   3.500   3.906 -0.0926  0.1286 -0.2653
 4476SOL    HW124890   1.875   3.589   3.887  0.7470 -0.0137  0.4314
 4476SOL    HW224891   1.766   3.510   3.960  1.0897 -2.9824  2.0481
 4477SOL     OW24892   3.295   2.683   4.006  0.1434  0.0789 -0.7939
 4477SOL    HW124893   3.222   2.745   4.000  0.0092  0.2314  2.3111
 4477SOL    HW224894   3.253   2.597   4.008  0.5365 -0.0538  3.4240
 4478SOL     OW24895   2.098   1.525   3.478  0.0344  0.0360  0.0714
 4478SOL    HW124896   2.135   1.508   3.391 -0.0985 -0.2440  0.0687
 4478SOL    HW224897   2.034   1.591   3.451 -1.8810 -2.0689 -0.6097
 4479SOL     OW24898   3.605   2.162   6.577 -0.2069 -0.5350  0.1905
 4479SOL    HW124899   3.530   2.204   6.619  0.3865  0.0132  0.7260
 4479SOL    HW224900   3.680   2.184   6.633 -0.3723 -0.6952  0.4781
 4480SOL     OW24901   4.300   1.022   6.754  0.0235  0.1171  0.2937
 4480SOL    HW124902   4.373   0.961   6.755 -1.4850 -1.7094 -1.0376
 4480SOL    HW224903   4.324   1.087   6.820 -0.1005 -0.3964  0.8372
 4481SOL     OW24904   0.652   1.874  10.709 -0.3900  0.3275  0.0456
 4481SOL    HW124905   0.699   1.917  10.780  0.0158 -2.2545  1.3424
 4481SOL    HW224906   0.699   1.791  10.706  0.2912  0.7610 -1.1853
 4482SOL     OW24907   0.803   2.030   2.576  0.3443 -0.0352  0.1368
 4482SOL    HW124908   0.807   2.017   2.481 -2.1734 -0.6069  0.1121
 4482SOL    HW224909   0.719   1.984   2.580  0.0579  0.6607  1.9566
 4483SOL     OW24910   3.380   3.315  16.999  0.4976 -0.0429 -0.2117
 4483SOL    HW124911   3.307   3.335  16.940 -0.2538  0.4905  0.8956
 4483SOL    HW224912   3.434   3.394  16.989 -1.7476  1.5227  0.1340
 4484SOL     OW24913   2.739   2.294  12.033 -0.2636 -0.5166 -0.0161
 4484SOL    HW124914   2.701   2.325  12.116 -2.1007  1.1413 -1.4913
 4484SOL    HW224915   2.832   2.298  12.058 -0.3908 -0.2695  0.4188
 4485SOL     OW24916   3.392   1.137   1.120 -0.1061  0.2658  0.3239
 4485SOL    HW124917   3.315   1.186   1.149 -1.0629 -0.6185 -0.7083
 4485SOL    HW224918   3.419   1.091   1.200 -3.0096  1.6529  2.0787
 4486SOL     OW24919   1.027   3.045   8.242 -0.8517 -0.2332  0.3737
 4486SOL    HW124920   1.092   3.116   8.238 -1.0398  0.0259  1.6738
 4486SOL    HW224921   0.946   3.090   8.265 -1.1100 -1.2294  1.4648
 4487SOL     OW24922   2.938   1.985   6.198 -0.5002  0.1271 -0.2591
 4487SOL    HW124923   2.993   1.994   6.276  1.6588  0.4781 -1.8268
 4487SOL    HW224924   2.945   1.890   6.182  3.2381 -0.0861  2.7636
 4488SOL     OW24925   1.129   3.779   5.404  0.2859 -0.2826 -0.1801
 4488SOL    HW124926   1.098   3.753   5.317  0.8987 -1.3152 -0.0897
 4488SOL    HW224927   1.056   3.826   5.443  0.5482  2.2575 -2.6773
 4489SOL     OW24928   1.991   2.679  10.216  0.1752  0.2027  0.0256
 4489SOL    HW124929   1.908   2.726  10.216  0.1723  0.2070  1.6098
 4489SOL    HW224930   2.009   2.658  10.308 -2.6785 -2.3502 -0.0107
 4490SOL     OW24931   0.902   3.395   7.643 -0.1598  0.7989 -0.6301
 4490SOL    HW124932   0.905   3.349   7.559 -1.1801  0.6645 -0.5907
 4490SOL    HW224933   0.810   3.418   7.657 -0.0567  0.1489  1.1626
 4491SOL     OW24934   1.861   3.611   3.628 -0.1839  0.0471  0.4036
 4491SOL    HW124935   1.956   3.625   3.625 -0.2948  0.5142 -0.7669
 4491SOL    HW224936   1.837   3.660   3.550 -1.0685  0.6349  1.0522
 4492SOL     OW24937   3.621   3.923  12.757  0.1480  0.3136  0.4332
 4492SOL    HW124938   3.635   3.849  12.816 -1.8213 -1.4039 -1.2616
 4492SOL    HW224939   3.648   3.891  12.671  2.4817  1.3569  0.7632
 4493SOL     OW24940   0.558   1.064   5.219  0.4832  0.2367 -0.5235
 4493SOL    HW124941   0.551   0.968   5.215 -0.5619  0.3193 -0.5909
 4493SOL    HW224942   0.653   1.076   5.221  0.5385 -0.2084 -0.2891
 4494SOL     OW24943   1.273   3.588  11.554 -0.0724  0.0073 -0.3129
 4494SOL    HW124944   1.304   3.678  11.541  0.5229 -0.1753 -0.1509
 4494SOL    HW224945   1.308   3.548  11.474  2.8449 -0.3073  1.1260
 4495SOL     OW24946   2.393   3.146   2.197 -0.3767 -0.2678 -0.0299
 4495SOL    HW124947   2.370   3.137   2.105  0.6149  1.8008 -0.4633
 4495SOL    HW224948   2.405   3.053   2.217 -2.0274 -0.6104 -0.7096
 4496SOL     OW24949   3.447   0.977   4.704 -0.3075 -0.1901 -0.2985
 4496SOL    HW124950   3.465   0.883   4.699 -0.8344 -0.2775 -0.5878
 4496SOL    HW224951   3.404   0.986   4.789  0.3255 -0.1638  0.0185
 4497SOL     OW24952   3.289   3.845  16.466 -0.3362  0.1348 -0.5114
 4497SOL    HW124953   3.344   3.831  16.389  1.7469 -1.1549  1.2181
 4497SOL    HW224954   3.225   3.913  16.443  0.7585  0.8512 -1.4052
 4498SOL     OW24955   1.629   2.632   4.613 -0.1500  0.2650 -0.0035
 4498SOL    HW124956   1.715   2.671   4.596  1.1296 -2.0930  1.0003
 4498SOL    HW224957   1.577   2.663   4.540  1.1594  0.8349 -0.6916
 4499SOL     OW24958   2.041   4.128   2.010  0.0743 -0.0298 -0.0403
 4499SOL    HW124959   1.956   4.140   2.051  0.9976  0.6363  1.7058
 4499SOL    HW224960   2.083   4.088   2.087  0.8740  0.5846 -0.1497
 4500SOL     OW24961   0.821   1.364   4.360  0.0640  0.3105 -0.0255
 4500SOL    HW124962   0.839   1.397   4.448 -1.9971  0.5194  0.3194
 4500SOL    HW224963   0.816   1.443   4.305 -0.7313 -0.2938 -0.8188
 4501SOL     OW24964   3.366   3.310   2.879 -0.2990  0.6873 -0.3717
 4501SOL    HW124965   3.430   3.275   2.941 -2.5372  0.3788  1.7664
 4501SOL    HW224966   3.386   3.259   2.800 -0.1826  0.6790 -0.3373
 4502SOL     OW24967   3.856   1.750  14.764 -0.4186 -0.4555  0.4824
 4502SOL    HW124968   3.796   1.700  14.710 -1.1089 -0.6853  1.4667
 4502SOL    HW224969   3.855   1.833  14.717  0.5620 -1.6809 -1.7388
 4503SOL     OW24970   1.356   3.231  10.958  0.4651 -0.8931  0.2984
 4503SOL    HW124971   1.411   3.261  10.886 -0.2823  0.0284  0.1202
 4503SOL    HW224972   1.297   3.306  10.968  0.4980 -0.7042 -0.8882
 4504SOL     OW24973   2.381   0.484   2.328 -0.4320 -0.1518  0.1174
 4504SOL    HW124974   2.415   0.513   2.244 -1.3383 -0.9665 -0.5413
 4504SOL    HW224975   2.305   0.543   2.334 -0.1195  0.2518  0.0636
 4505SOL     OW24976   1.375   0.843   7.147  0.2355  0.0634  0.1148
 4505SOL    HW124977   1.306   0.907   7.159  1.3846  1.0787  1.3233
 4505SOL    HW224978   1.353   0.817   7.058 -1.6352  0.8671  0.3536
 4506SOL     OW24979   2.610   0.595   2.524  0.0422  0.5216  0.3512
 4506SOL    HW124980   2.654   0.574   2.441 -0.2196 -1.9690  0.8334
 4506SOL    HW224981   2.623   0.689   2.523 -1.6909  0.7564  0.2946
 4507SOL     OW24982   0.613   3.214   3.231  0.2041 -0.1854 -0.1320
 4507SOL    HW124983   0.535   3.184   3.183  0.4348 -0.9522 -0.0257
 4507SOL    HW224984   0.653   3.127   3.229  2.7173  0.9972 -0.5682
 4508SOL     OW24985   2.092   0.390  15.718 -0.2846 -0.8878 -0.3990
 4508SOL    HW124986   2.039   0.350  15.649 -1.5317  0.5894 -0.2874
 4508SOL    HW224987   2.076   0.325  15.787 -0.7168 -1.8580 -1.4070
 4509SOL     OW24988   3.654   4.105   5.438 -0.2463 -0.2378  0.1849
 4509SOL    HW124989   3.647   4.181   5.495 -0.7755 -0.0003 -0.1959
 4509SOL    HW224990   3.585   4.050   5.475  0.3880 -0.0321  1.6619
 4510SOL     OW24991   1.597   1.965   6.688 -0.5799 -0.1003 -0.4595
 4510SOL    HW124992   1.512   1.922   6.700  0.3301 -1.4507  1.1722
 4510SOL    HW224993   1.581   2.054   6.658  1.2181 -0.4148 -2.3225
 4511SOL     OW24994   1.023   0.249   2.141 -0.3691 -0.0486  1.0123
 4511SOL    HW124995   0.933   0.263   2.110 -0.1135  1.6240  1.0264
 4511SOL    HW224996   1.065   0.317   2.090  0.5753 -0.0920  1.7369
 4512SOL     OW24997   3.398   4.325   4.895 -0.1095 -0.3065 -0.1517
 4512SOL    HW124998   3.479   4.293   4.935 -0.1344  2.3168  2.0023
 4512SOL    HW224999   3.431   4.357   4.810  0.7854  0.5260  0.5081
 4513SOL     OW25000   3.050   2.893  15.380  0.5681 -0.0619  0.2074
 4513SOL    HW125001   3.010   2.851  15.456 -0.2096  1.0509  0.4112
 4513SOL    HW225002   3.115   2.953  15.417  0.6439  0.0559 -0.1199
 4514SOL     OW25003   0.511   2.045   8.342 -0.0751  0.1179 -0.0410
 4514SOL    HW125004   0.600   2.063   8.310  0.2118  0.2821  0.8646
 4514SOL    HW225005   0.482   1.992   8.268  2.9455 -0.0278 -1.1203
 4515SOL     OW25006   2.650   2.578   8.995  0.4541  0.6468 -0.2411
 4515SOL    HW125007   2.568   2.530   9.005  0.1601  0.5653 -3.1664
 4515SOL    HW225008   2.653   2.622   9.080  2.7342 -0.2443  0.1464
 4516SOL     OW25009   3.196   3.051   2.807  0.0736 -0.0020 -0.0198
 4516SOL    HW125010   3.249   2.971   2.808 -1.7250 -1.2100 -2.4979
 4516SOL    HW225011   3.137   3.030   2.880  1.8828 -2.8961  0.6269
 4517SOL     OW25012   3.930   2.592  16.524  0.0208  0.2453 -0.5478
 4517SOL    HW125013   3.847   2.624  16.490 -0.0421  0.9856  0.3068
 4517SOL    HW225014   3.928   2.497  16.512  1.4293  0.0835  0.4651
 4518SOL     OW25015   0.575   0.078   9.875 -0.0490  0.2326 -0.6348
 4518SOL    HW125016   0.569   0.155   9.819  1.2774  0.0864 -0.9858
 4518SOL    HW225017   0.619   0.022   9.811 -1.5093 -2.4156  0.6817
 4519SOL     OW25018   4.180   1.246   2.024 -0.8419 -0.3018 -0.1866
 4519SOL    HW125019   4.119   1.320   2.014  1.6822  2.0704  1.9243
 4519SOL    HW225020   4.120   1.175   2.046 -1.6749  0.7392  0.9106
 4520SOL     OW25021   2.310   2.670   1.940  0.2599 -0.0173 -0.2889
 4520SOL    HW125022   2.305   2.574   1.932 -0.3724  0.0564 -0.7779
 4520SOL    HW225023   2.216   2.684   1.935  0.4498  1.2664 -0.1830
 4521SOL     OW25024   1.137   4.043  14.547 -0.1032 -0.6789  0.0211
 4521SOL    HW125025   1.219   4.082  14.517 -0.0864 -1.8188 -1.4486
 4521SOL    HW225026   1.168   3.994  14.623  2.4091  0.1435 -0.4531
 4522SOL     OW25027   4.165   0.955  13.444  0.0379  0.0074 -0.2741
 4522SOL    HW125028   4.171   0.860  13.449  1.2529  0.0812 -0.2760
 4522SOL    HW225029   4.187   0.967  13.352  1.0414 -2.8532 -0.4154
 4523SOL     OW25030   4.027   3.980   0.644 -0.0220 -0.1752 -0.5764
 4523SOL    HW125031   4.034   3.889   0.672  1.9429 -0.3511 -1.5732
 4523SOL    HW225032   4.114   3.992   0.605  0.3748 -1.1070  0.0169
 4524SOL     OW25033   3.682   1.712   8.058  0.6608  0.1164 -0.6498
 4524SOL    HW125034   3.658   1.736   7.969  0.4904  0.6063 -0.4728
 4524SOL    HW225035   3.604   1.662   8.082  0.4266 -0.2690 -2.2123
 4525SOL     OW25036   4.102   3.000   8.431 -0.0275 -0.0675 -0.1935
 4525SOL    HW125037   4.062   3.083   8.404 -0.6461  0.2923  1.8271
 4525SOL    HW225038   4.178   3.037   8.476  0.1835 -0.5432 -0.1553
 4526SOL     OW25039   4.321   4.063   0.880 -0.2827  0.5551  0.3179
 4526SOL    HW125040   4.341   3.995   0.816  2.7097  0.5311  1.2851
 4526SOL    HW225041   4.254   4.112   0.832 -0.2115  0.2974 -0.0455
 4527SOL     OW25042   1.866   0.613   9.182  0.0018 -0.2982 -0.1864
 4527SOL    HW125043   1.898   0.524   9.195 -1.9990 -1.1261 -0.8817
 4527SOL    HW225044   1.942   0.665   9.210 -0.0668 -0.6509  0.6535
 4528SOL     OW25045   4.361   3.154   6.869 -0.7072  0.1657 -0.0889
 4528SOL    HW125046   4.284   3.161   6.926  0.1257 -1.4123  1.2306
 4528SOL    HW225047   4.418   3.206   6.927  0.8392 -0.0664 -1.4013
 4529SOL     OW25048   4.686   4.656  13.444 -0.4613  0.1413  0.6983
 4529SOL    HW125049   4.675   4.654  13.349  1.5635  0.2027  0.4667
 4529SOL    HW225050   4.624   0.002  13.476 -0.7212 -1.0812  2.6834
 4530SOL     OW25051   3.275   3.241   1.759  0.0102  0.5288 -0.6120
 4530SOL    HW125052   3.182   3.229   1.740 -0.2400 -1.2445  1.7225
 4530SOL    HW225053   3.297   3.312   1.699  0.1536 -0.2062 -1.4429
 4531SOL     OW25054   0.659   1.784  11.155  0.1335  0.3431  0.1831
 4531SOL    HW125055   0.683   1.874  11.178 -2.4845  0.9778  0.4258
 4531SOL    HW225056   0.750   1.763  11.134  0.2471  0.7230  0.2954
 4532SOL     OW25057   2.018   2.906   7.307 -0.1605 -0.3774 -0.0195
 4532SOL    HW125058   2.002   2.988   7.355  1.4348  0.3802 -0.8041
 4532SOL    HW225059   1.931   2.865   7.309  0.3711 -1.5136 -0.7853
 4533SOL     OW25060   3.761   3.100   2.726 -0.3762  1.2057  0.2519
 4533SOL    HW125061   3.730   3.158   2.795 -1.9493  1.2462 -0.4861
 4533SOL    HW225062   3.685   3.042   2.721  0.4051 -0.1267  3.7090
 4534SOL     OW25063   3.570   0.163   6.473 -0.1250 -0.3764 -0.5053
 4534SOL    HW125064   3.526   0.093   6.425 -0.3621 -1.3142  1.0841
 4534SOL    HW225065   3.567   0.127   6.561 -0.0725  0.9809  0.0372
 4535SOL     OW25066   0.339   2.905   5.668  0.4158 -0.0164 -0.1963
 4535SOL    HW125067   0.247   2.918   5.691  0.4561  0.7399 -0.4683
 4535SOL    HW225068   0.392   2.955   5.731  1.7914 -1.1840 -0.4154
 4536SOL     OW25069   3.187   4.246  15.396 -0.2798 -0.3160 -0.1889
 4536SOL    HW125070   3.208   4.313  15.331 -1.3317 -0.6364 -0.8521
 4536SOL    HW225071   3.097   4.266  15.422 -0.0069  2.8571 -1.6397
 4537SOL     OW25072   2.712   4.164  14.350 -0.3106 -0.6121  0.0795
 4537SOL    HW125073   2.715   4.123  14.263  1.2487 -0.6953  0.1687
 4537SOL    HW225074   2.695   4.093  14.411  0.3514 -2.5543 -1.9713
 4538SOL     OW25075   4.348   2.275   7.527 -0.1850  0.3177 -0.0134
 4538SOL    HW125076   4.396   2.297   7.447 -0.2970 -0.5799 -0.3241
 4538SOL    HW225077   4.352   2.180   7.533  3.1813  0.4654  0.0270
 4539SOL     OW25078   4.140   4.579   5.810  0.0737 -0.3676 -0.9554
 4539SOL    HW125079   4.230   4.591   5.842  0.6161  0.3696 -2.7656
 4539SOL    HW225080   4.100   4.515   5.869  0.2824 -0.1280 -0.5581
 4540SOL     OW25081   1.756   1.371   6.663 -0.0036  0.0700  0.2570
 4540SOL    HW125082   1.803   1.305   6.714 -0.9053 -1.2942 -0.6771
 4540SOL    HW225083   1.809   1.450   6.669 -1.2932  0.7156  3.0017
 4541SOL     OW25084   1.632   4.139  11.485  0.1421 -0.0379 -0.2867
 4541SOL    HW125085   1.684   4.091  11.550 -0.1491 -0.4296 -0.3421
 4541SOL    HW225086   1.623   4.225  11.526  2.7089 -0.0863  0.3914
 4542SOL     OW25087   0.689   1.086   2.184 -0.0378  0.6496 -0.1840
 4542SOL    HW125088   0.703   1.057   2.274  0.8137 -0.0283 -0.5442
 4542SOL    HW225089   0.610   1.140   2.199  0.1653  1.1152 -0.8127
 4543SOL     OW25090   3.493   3.108   1.859 -0.2570 -0.0890 -0.3422
 4543SOL    HW125091   3.422   3.172   1.857 -0.8050 -0.7416 -1.7276
 4543SOL    HW225092   3.465   3.058   1.782  0.7881  0.5129 -1.0984
 4544SOL     OW25093   4.497   1.110   4.819 -0.1978  0.2896 -0.0356
 4544SOL    HW125094   4.584   1.131   4.853  1.4000 -1.6719 -2.9161
 4544SOL    HW225095   4.490   1.166   4.742 -4.1388 -0.6205 -0.3166
 4545SOL     OW25096   1.847   2.419   8.433  0.1897  0.2524 -0.2184
 4545SOL    HW125097   1.927   2.404   8.484 -0.7606 -2.0828  0.5472
 4545SOL    HW225098   1.802   2.496   8.470  0.4631  0.2192  0.1848
 4546SOL     OW25099   1.554   1.347   5.759  0.8741  0.2335 -0.7956
 4546SOL    HW125100   1.630   1.323   5.812 -1.7227 -0.1003  2.7392
 4546SOL    HW225101   1.519   1.261   5.736  0.1803  0.2462  0.2146
 4547SOL     OW25102   0.854   0.325   5.453 -0.3172 -0.2273 -0.2234
 4547SOL    HW125103   0.846   0.404   5.506 -0.0891 -2.1278  2.6535
 4547SOL    HW225104   0.762   0.298   5.454  0.4021 -2.7278  0.6800
 4548SOL     OW25105   3.833   4.572   3.720  0.4288 -0.0162 -0.7379
 4548SOL    HW125106   3.923   4.538   3.724 -0.0873 -1.1827  0.9905
 4548SOL    HW225107   3.783   4.491   3.727 -0.2708  0.3733 -1.3034
 4549SOL     OW25108   1.555   2.959   6.022  0.7526 -0.5644 -0.4251
 4549SOL    HW125109   1.600   2.953   6.106  2.8182 -0.6852 -1.5325
 4549SOL    HW225110   1.567   2.869   5.992 -0.6370 -1.2685  1.1675
 4550SOL     OW25111   2.418   0.193   4.517 -0.5226 -0.1046  0.6689
 4550SOL    HW125112   2.432   0.243   4.437  0.6820  0.1987  1.0750
 4550SOL    HW225113   2.474   0.122   4.485  0.1113  0.9987 -0.6815
 4551SOL     OW25114   0.041   0.184   0.222  0.2200 -0.5402 -0.1181
 4551SOL    HW125115   0.091   0.229   0.153 -0.1674  1.3322  0.8234
 4551SOL    HW225116   0.094   0.105   0.227 -1.9223 -1.7586  3.0346
 4552SOL     OW25117   2.714   0.780   8.150  0.2716 -0.2707  0.1675
 4552SOL    HW125118   2.803   0.815   8.150  0.1495  0.0501 -1.4222
 4552SOL    HW225119   2.723   0.734   8.233  0.7076  1.1989  0.9344
 4553SOL     OW25120   4.249   1.045   3.735  0.3724  0.1170 -0.3295
 4553SOL    HW125121   4.199   1.076   3.810  0.3664 -1.0063  0.1267
 4553SOL    HW225122   4.326   1.095   3.762  0.2700  0.3700 -0.4977
 4554SOL     OW25123   2.553   2.157   9.519  0.5717 -0.8527  0.4120
 4554SOL    HW125124   2.595   2.165   9.433  0.8704 -0.0480  0.6369
 4554SOL    HW225125   2.549   2.062   9.531  1.9948 -0.9980 -0.1852
 4555SOL     OW25126   4.502   1.209   6.947  0.8120 -0.7306  0.1613
 4555SOL    HW125127   4.541   1.137   6.998  1.7256 -0.5975 -0.3484
 4555SOL    HW225128   4.557   1.189   6.871  1.6890  1.1066  0.3253
 4556SOL     OW25129   1.666   3.380   3.484  0.6570 -0.0325 -0.2305
 4556SOL    HW125130   1.658   3.298   3.435 -1.4727 -0.0949  0.2608
 4556SOL    HW225131   1.678   3.446   3.416 -1.2522  0.7419  0.2080
 4557SOL     OW25132   0.394   2.735   5.460 -0.3299  0.6309  0.3630
 4557SOL    HW125133   0.426   2.784   5.535 -2.2341  1.4921  0.6071
 4557SOL    HW225134   0.388   2.647   5.498  1.5623  0.1411 -0.4802
 4558SOL     OW25135   3.062   3.348  13.222 -0.1588  0.3819 -0.1442
 4558SOL    HW125136   2.997   3.415  13.201  1.2866  2.2099  1.1482
 4558SOL    HW225137   3.020   3.267  13.193 -0.4563  0.4733  0.0313
 4559SOL     OW25138   0.189   1.511  13.484  0.2467  0.0698 -0.3407
 4559SOL    HW125139   0.154   1.581  13.428 -1.4086 -0.9633 -0.6035
 4559SOL    HW225140   0.114   1.453  13.479 -2.7133  3.8339 -0.0294
 4560SOL     OW25141   3.607   2.098   4.034  0.9793 -0.1013  0.2452
 4560SOL    HW125142   3.674   2.103   3.966  0.6353 -2.9992 -0.2848
 4560SOL    HW225143   3.659   2.138   4.104  0.4807 -1.2254  1.2650
 4561SOL     OW25144   0.894   1.038   4.027  0.3538  0.2721  0.7382
 4561SOL    HW125145   0.896   1.026   4.122 -0.4223 -0.1860  0.6944
 4561SOL    HW225146   0.981   1.078   4.019 -0.4707  1.9901  0.3539
 4562SOL     OW25147   0.162   0.673   7.743 -0.3875  0.6352 -0.5390
 4562SOL    HW125148   0.190   0.699   7.831  1.7472 -4.6031  0.3579
 4562SOL    HW225149   0.084   0.623   7.766 -0.4981  2.1140  2.3729
 4563SOL     OW25150   2.251   4.609  13.592  0.4457 -0.1722 -0.2659
 4563SOL    HW125151   2.258   4.704  13.583 -1.2404  0.0874  1.3931
 4563SOL    HW225152   2.319   4.591  13.657 -0.8087 -0.4318  0.9665
 4564SOL     OW25153   0.117   2.693   3.926  0.0186 -0.4464  0.0444
 4564SOL    HW125154   0.119   2.607   3.968 -2.6189  0.5202  2.1801
 4564SOL    HW225155   0.114   2.671   3.833  1.0658 -1.2184  0.1897
 4565SOL     OW25156   1.776   1.424   3.771 -0.2259 -0.3430 -0.0773
 4565SOL    HW125157   1.852   1.439   3.714 -0.2172  1.1710  0.3573
 4565SOL    HW225158   1.815   1.445   3.855 -0.4667  1.2892 -0.3854
 4566SOL     OW25159   1.988   1.938  10.132 -0.3102  0.1768  0.5623
 4566SOL    HW125160   1.902   1.976  10.152 -1.3944 -2.0401  0.1091
 4566SOL    HW225161   1.985   1.849  10.166 -1.8524  0.1825  0.4827
 4567SOL     OW25162   2.392   4.528  13.100 -0.1577  0.1677 -0.3473
 4567SOL    HW125163   2.416   4.620  13.111  1.7876 -0.4918  0.9892
 4567SOL    HW225164   2.346   4.517  13.183 -0.0127  0.1835 -0.2637
 4568SOL     OW25165   1.124   2.593   8.743 -0.0539  0.4849  0.2113
 4568SOL    HW125166   1.148   2.529   8.675 -0.8425  0.1973  0.2039
 4568SOL    HW225167   1.148   2.546   8.822 -0.0917 -0.4688 -0.3463
 4569SOL     OW25168   4.157   3.202   7.069 -0.4153 -0.5630 -0.1808
 4569SOL    HW125169   4.175   3.227   7.159 -0.5061  1.6802 -0.7730
 4569SOL    HW225170   4.105   3.124   7.087  0.9326 -1.4399 -0.0794
 4570SOL     OW25171   1.098   3.423  11.680 -0.2195  0.2735 -0.1870
 4570SOL    HW125172   1.033   3.412  11.610 -0.2617 -1.1077  0.0688
 4570SOL    HW225173   1.172   3.465  11.635 -0.8438  0.1345 -1.3299
 4571SOL     OW25174   4.380   1.200   8.820 -0.0883  0.1009 -0.4635
 4571SOL    HW125175   4.337   1.282   8.796 -1.0683 -1.2193 -3.2612
 4571SOL    HW225176   4.381   1.208   8.915 -0.0129 -0.3923 -0.4185
 4572SOL     OW25177   3.203   3.592   3.750 -0.6623  0.2113 -0.2774
 4572SOL    HW125178   3.133   3.551   3.699 -1.6138  0.7564  0.5913
 4572SOL    HW225179   3.226   3.669   3.699  2.2294 -0.5029 -0.0365
 4573SOL     OW25180   0.633   2.791   8.640  0.0123 -0.2812 -0.7551
 4573SOL    HW125181   0.666   2.880   8.627 -1.0544  0.2104 -0.0894
 4573SOL    HW225182   0.702   2.753   8.696  1.7314 -0.2159 -2.8185
 4574SOL     OW25183   0.408   0.675  13.935 -0.2259 -0.0527 -0.0076
 4574SOL    HW125184   0.392   0.636  13.850 -1.4070 -1.0300  0.6591
 4574SOL    HW225185   0.325   0.656  13.979 -0.3753 -1.5705 -0.9429
 4575SOL     OW25186   3.465   3.100   7.834  0.1174 -0.4133  0.5911
 4575SOL    HW125187   3.478   3.152   7.913 -1.2700  2.2228 -0.8837
 4575SOL    HW225188   3.379   3.062   7.851  0.1515 -0.7574 -0.0077
 4576SOL     OW25189   3.681   1.372  16.030 -0.7332 -0.2443  0.6258
 4576SOL    HW125190   3.747   1.386  16.098 -1.9126 -0.5915  1.8424
 4576SOL    HW225191   3.688   1.277  16.021 -3.2593 -0.5462  1.6409
 4577SOL     OW25192   0.687   1.518   8.476  0.1863 -0.5648  0.0982
 4577SOL    HW125193   0.685   1.533   8.382  1.0323 -0.9788  0.0136
 4577SOL    HW225194   0.598   1.487   8.494 -0.7615  1.7779 -0.5531
 4578SOL     OW25195   0.479   0.264  17.212  0.2897  0.6892  0.3601
 4578SOL    HW125196   0.460   0.173  17.193  0.1517  0.5259  1.2589
 4578SOL    HW225197   0.565   0.257  17.254 -1.1393 -0.4560  3.1227
 4579SOL     OW25198   1.260   1.209   8.550 -0.1450  0.0546 -0.2844
 4579SOL    HW125199   1.241   1.275   8.484 -1.7602  1.5862  1.6993
 4579SOL    HW225200   1.305   1.144   8.496  1.4456  0.7200  0.2224
 4580SOL     OW25201   4.349   2.088   4.402 -0.5934 -0.1893  0.1650
 4580SOL    HW125202   4.370   1.998   4.379  0.4517  0.0628  0.1300
 4580SOL    HW225203   4.332   2.084   4.496  1.3036  2.2516  0.6468
 4581SOL     OW25204   1.698   1.256   1.216  0.0059 -0.2249  0.0130
 4581SOL    HW125205   1.738   1.334   1.253  1.5131 -0.5761 -0.8558
 4581SOL    HW225206   1.606   1.269   1.237 -0.1071 -1.3846  0.2656
 4582SOL     OW25207   0.085   2.010  12.401  0.1177 -0.3577 -0.2498
 4582SOL    HW125208   0.099   2.001  12.495 -0.2511  1.2714 -0.0549
 4582SOL    HW225209   0.116   2.100  12.390  0.8093 -0.2723  2.5430
 4583SOL     OW25210   2.520   0.307  13.856  0.2254 -0.7029  0.2816
 4583SOL    HW125211   2.499   0.231  13.801  0.4755  0.9437 -2.0614
 4583SOL    HW225212   2.610   0.285  13.880  0.2547  0.2935  1.0878
 4584SOL     OW25213   3.197   4.325  12.398  0.0297 -0.1605  0.3150
 4584SOL    HW125214   3.277   4.274  12.409  0.7654  0.7651 -0.6130
 4584SOL    HW225215   3.130   4.265  12.367 -1.0140  0.6350  1.0454
 4585SOL     OW25216   0.517   3.882  15.472  0.3202 -0.1433 -0.4359
 4585SOL    HW125217   0.601   3.843  15.497  0.0772 -1.0976 -1.1311
 4585SOL    HW225218   0.528   3.977  15.485 -0.9893  0.1264 -1.3238
 4586SOL     OW25219   2.072   2.431   1.332 -0.4862  0.8530 -0.1670
 4586SOL    HW125220   2.085   2.490   1.258  1.0445  0.8268  0.0839
 4586SOL    HW225221   2.109   2.349   1.301 -2.0958 -0.2514  0.8034
 4587SOL     OW25222   3.322   1.510   6.060  0.0750 -0.2630  0.4426
 4587SOL    HW125223   3.302   1.603   6.077  0.4008 -0.1169  0.0278
 4587SOL    HW225224   3.391   1.480   6.120 -1.0730  0.7884  2.3122
 4588SOL     OW25225   3.072   1.635   7.973  0.2506  0.0730  0.1951
 4588SOL    HW125226   3.159   1.659   8.005 -0.4022  1.3683  1.0381
 4588SOL    HW225227   3.070   1.701   7.904 -0.6929  0.4109  0.5391
 4589SOL     OW25228   3.836   1.630   4.272  0.2708 -0.8786 -0.3819
 4589SOL    HW125229   3.831   1.573   4.195  0.6674 -0.2114 -0.8992
 4589SOL    HW225230   3.910   1.598   4.322  0.9168  0.2737 -0.6032
 4590SOL     OW25231   2.239   4.337   5.622 -0.0772  0.1589 -0.3883
 4590SOL    HW125232   2.290   4.323   5.701 -0.0519  2.0089 -0.0592
 4590SOL    HW225233   2.195   4.420   5.641 -1.4789 -1.0463  1.5198
 4591SOL     OW25234   3.457   1.050  11.676 -0.4398  0.5222 -0.7120
 4591SOL    HW125235   3.379   1.038  11.623 -0.4312  0.5728 -0.7363
 4591SOL    HW225236   3.484   1.139  11.652  0.2068  0.3909 -0.4683
 4592SOL     OW25237   0.109   3.137  10.631 -0.3122  0.3116 -0.0241
 4592SOL    HW125238   0.071   3.050  10.618 -0.5801  0.3467  0.5345
 4592SOL    HW225239   0.116   3.167  10.540 -1.6190  0.3482 -0.1178
 4593SOL     OW25240   4.223   3.405   3.790  0.3031  0.4915  0.7834
 4593SOL    HW125241   4.180   3.416   3.706 -1.6888  2.0189  1.9953
 4593SOL    HW225242   4.180   3.331   3.833  2.3512  0.7917  3.4112
 4594SOL     OW25243   3.770   3.748   4.890 -0.0609  0.0115 -0.0990
 4594SOL    HW125244   3.769   3.780   4.800 -3.1435  2.1613  0.6962
 4594SOL    HW225245   3.813   3.819   4.937  2.1145  0.0683 -2.2014
 4595SOL     OW25246   0.496   4.109   2.722 -0.3352 -0.9386 -0.1898
 4595SOL    HW125247   0.474   4.072   2.637 -0.7534 -3.0187  0.8070
 4595SOL    HW225248   0.490   4.030   2.777 -1.0390  0.7717  2.1939
 4596SOL     OW25249   2.046   3.956   1.370  0.6194  0.5788 -0.7419
 4596SOL    HW125250   2.124   3.970   1.423 -1.3322  1.2665  1.9542
 4596SOL    HW225251   2.060   3.871   1.329  1.1300 -0.9342  2.5790
 4597SOL     OW25252   3.484   1.654  14.708 -0.2384  0.1921 -0.0103
 4597SOL    HW125253   3.522   1.656  14.795  1.3496 -0.4988 -0.6813
 4597SOL    HW225254   3.558   1.682  14.653 -0.6060  0.2299 -0.4901
 4598SOL     OW25255   3.447   2.277   9.098  0.0669  0.2713 -0.1025
 4598SOL    HW125256   3.511   2.211   9.125 -0.9951 -1.3721 -1.5514
 4598SOL    HW225257   3.384   2.216   9.060 -1.1356  0.7412  1.1580
 4599SOL     OW25258   4.418   2.657   0.100  0.1466  0.0890 -0.1915
 4599SOL    HW125259   4.434   2.691   0.189 -0.5136  0.7839 -0.3426
 4599SOL    HW225260   4.346   2.601   0.129 -0.0847 -0.0869 -1.1178
 4600SOL     OW25261   4.291   4.334  12.679  0.4650  0.2409 -0.2452
 4600SOL    HW125262   4.310   4.409  12.735 -0.4299  0.5674 -0.3851
 4600SOL    HW225263   4.205   4.305  12.709  0.2393  0.4042 -0.7311
 4601SOL     OW25264   0.947   2.506   3.987  0.3853 -0.0886  0.4197
 4601SOL    HW125265   0.982   2.568   3.923 -0.0983 -1.1956 -0.9114
 4601SOL    HW225266   0.898   2.444   3.934  2.4249 -2.6026  1.4375
 4602SOL     OW25267   1.883   3.965   4.796 -0.4896 -0.7403  0.3636
 4602SOL    HW125268   1.906   3.889   4.743  1.2070  0.2216 -0.2802
 4602SOL    HW225269   1.952   3.963   4.862  0.4236 -1.2991 -0.5948
 4603SOL     OW25270   4.274   3.167   1.968  0.1750 -0.0189  0.0940
 4603SOL    HW125271   4.229   3.245   1.936  0.1799 -0.4957 -1.0793
 4603SOL    HW225272   4.197   3.109   1.970  0.7406 -0.6970  1.9507
 4604SOL     OW25273   4.631   1.345   5.016  0.4942 -0.0967  0.1088
 4604SOL    HW125274   4.707   1.312   4.968  0.4455 -0.0930  0.0285
 4604SOL    HW225275   4.640   1.313   5.105  1.8098  1.6026  0.5838
 4605SOL     OW25276   0.696   2.621   9.672 -0.1161 -0.1805 -0.2332
 4605SOL    HW125277   0.786   2.587   9.670  0.7741  2.1397  0.7644
 4605SOL    HW225278   0.651   2.550   9.718  0.4357  0.1940  0.8786
 4606SOL     OW25279   4.405   3.505   6.345  0.3665  0.4813 -0.6739
 4606SOL    HW125280   4.389   3.464   6.430 -0.0115 -0.2710 -1.1108
 4606SOL    HW225281   4.334   3.569   6.353 -1.1412 -1.1165 -1.2754
 4607SOL     OW25282   2.640   1.881  10.744 -0.0647 -0.4260 -0.4994
 4607SOL    HW125283   2.559   1.830  10.738 -0.2646 -0.1771  0.0065
 4607SOL    HW225284   2.607   1.961  10.786  0.8835 -1.5600  2.4274
 4608SOL     OW25285   3.227   0.694   7.103  0.0618 -0.3333  0.0273
 4608SOL    HW125286   3.188   0.626   7.158 -0.3859  0.1069  0.2550
 4608SOL    HW225287   3.149   0.718   7.052 -0.7880  0.7280  1.8143
 4609SOL     OW25288   1.592   1.660  10.258  0.1722 -0.2269  0.6639
 4609SOL    HW125289   1.619   1.638  10.168  3.7604  2.2960  1.0965
 4609SOL    HW225290   1.503   1.626  10.260 -0.2956  0.9198 -0.5713
 4610SOL     OW25291   0.127   2.283   9.046  0.5707 -0.4807 -0.6185
 4610SOL    HW125292   0.113   2.207   8.988 -0.2083 -0.4146 -0.5201
 4610SOL    HW225293   0.045   2.332   9.039  0.3116 -0.8420 -0.0953
 4611SOL     OW25294   3.843   4.040   5.838 -0.0998 -0.1585 -0.5458
 4611SOL    HW125295   3.785   4.055   5.913  1.9812  0.4917  0.9271
 4611SOL    HW225296   3.812   3.953   5.814 -1.5534  0.5490 -1.2404
 4612SOL     OW25297   0.277   1.886   3.610  0.2948 -0.2436 -0.5169
 4612SOL    HW125298   0.298   1.837   3.689 -0.7370 -0.2873 -0.2665
 4612SOL    HW225299   0.276   1.822   3.539  1.0344  0.3311 -1.0462
 4613SOL     OW25300   3.106   3.876   6.287  0.1141  0.1712 -0.1909
 4613SOL    HW125301   3.069   3.948   6.237  0.0687  1.1273  1.2251
 4613SOL    HW225302   3.174   3.841   6.230  1.5315 -1.0534  2.2363
 4614SOL     OW25303   0.923   4.280   4.009 -0.3320  0.3856 -0.5394
 4614SOL    HW125304   0.888   4.235   4.085  1.5977 -2.0363 -1.0982
 4614SOL    HW225305   0.842   4.268   3.959 -1.3288 -0.9515  1.3838
 4615SOL     OW25306   3.168   1.970  17.018 -0.2595  0.5254  0.1956
 4615SOL    HW125307   3.200   2.061  17.021  1.0632  0.0652 -0.0493
 4615SOL    HW225308   3.073   1.974  17.029 -0.4726 -0.3232 -1.3500
 4616SOL     OW25309   0.290   1.639   3.473 -0.3075 -0.6305 -0.2155
 4616SOL    HW125310   0.376   1.598   3.468 -0.5349 -1.2430  0.8882
 4616SOL    HW225311   0.252   1.626   3.386  0.8159  1.0410 -0.9658
 4617SOL     OW25312   1.721   3.311  16.939  0.6993 -0.1080 -0.0293
 4617SOL    HW125313   1.667   3.272  16.870  0.5247  2.5867 -1.4120
 4617SOL    HW225314   1.805   3.310  16.894  1.0286  0.0185  0.5843
 4618SOL     OW25315   2.640   4.662  12.813  0.1216  0.1628 -0.1894
 4618SOL    HW125316   2.710   4.632  12.756 -1.0556 -0.2259 -1.4407
 4618SOL    HW225317   2.564   4.615  12.780 -1.0863 -0.1798  3.0174
 4619SOL     OW25318   4.104   3.883   8.086 -0.4531 -0.1278 -0.2967
 4619SOL    HW125319   4.050   3.901   8.163  1.1124 -0.7662  0.9559
 4619SOL    HW225320   4.074   3.796   8.060 -2.4145 -1.1287  5.2308
 4620SOL     OW25321   1.664   2.880  13.469  0.2423 -0.0159  0.3867
 4620SOL    HW125322   1.671   2.891  13.374 -0.5628 -0.0903  0.3197
 4620SOL    HW225323   1.577   2.839  13.469  0.0281  0.4263 -0.6096
 4621SOL     OW25324   4.286   0.135   6.378 -0.0169  0.1929 -0.3912
 4621SOL    HW125325   4.192   0.125   6.364  0.5213 -1.8719 -2.5170
 4621SOL    HW225326   4.323   0.116   6.291  1.1494  1.9157 -0.2808
 4622SOL     OW25327   1.803   0.409   8.616  0.2202  0.3266  0.1370
 4622SOL    HW125328   1.783   0.331   8.564  1.1962 -0.3958  0.8555
 4622SOL    HW225329   1.897   0.397   8.623  0.2476  0.4621 -0.0094
 4623SOL     OW25330   2.501   4.017   1.326 -0.4400  0.5580  0.2017
 4623SOL    HW125331   2.416   3.973   1.331 -0.2959  0.0766 -1.6196
 4623SOL    HW225332   2.524   4.026   1.418  1.7838  0.4832 -0.3354
 4624SOL     OW25333   2.649   3.104   1.036  0.4184 -0.3993  0.3516
 4624SOL    HW125334   2.646   3.016   1.072 -1.4462 -0.5117 -0.0781
 4624SOL    HW225335   2.699   3.137   1.110  0.3900 -1.5308  0.8778
 4625SOL     OW25336   3.388   1.493   1.883  0.0344 -0.3940 -0.2905
 4625SOL    HW125337   3.428   1.578   1.898  1.8547 -0.8286 -2.6538
 4625SOL    HW225338   3.446   1.441   1.939  0.0799  0.3353  0.3467
 4626SOL     OW25339   2.205   4.384   0.510  0.2558  0.3025  0.3432
 4626SOL    HW125340   2.246   4.363   0.594  0.4901  0.3369  0.2368
 4626SOL    HW225341   2.260   4.335   0.448  0.4762 -0.4023  1.0908
 4627SOL     OW25342   4.281   0.781   1.111 -0.0991 -0.3825  0.2485
 4627SOL    HW125343   4.197   0.738   1.126 -0.8056  0.1628 -2.0591
 4627SOL    HW225344   4.346   0.717   1.141 -0.5720 -1.0370 -0.1242
 4628SOL     OW25345   4.193   3.098   3.709 -0.4092 -0.2066  0.5698
 4628SOL    HW125346   4.228   3.140   3.630  0.3872  0.1633  1.1192
 4628SOL    HW225347   4.157   3.018   3.669 -0.0394  1.3128 -2.8032
 4629SOL     OW25348   3.155   4.066  13.114 -0.0617 -0.7875  0.0719
 4629SOL    HW125349   3.086   4.014  13.155 -0.9890 -0.4224 -1.0394
 4629SOL    HW225350   3.106   4.145  13.090  2.2623  0.9077  0.8406
 4630SOL     OW25351   1.636   2.721  17.080  0.4631 -0.0102  0.0656
 4630SOL    HW125352   1.582   2.765  17.145 -0.2135  2.0908 -1.9491
 4630SOL    HW225353   1.715   2.708  17.132 -1.1042 -0.3953  2.3331
 4631SOL     OW25354   0.408   2.623   6.300 -0.1526  0.2935 -0.2763
 4631SOL    HW125355   0.412   2.702   6.247 -1.1224  1.6147  1.6273
 4631SOL    HW225356   0.481   2.628   6.362  0.0796 -0.2428 -0.4990
 4632SOL     OW25357   0.617   3.314  10.266  0.0127 -0.5119  0.3659
 4632SOL    HW125358   0.586   3.330  10.355  0.3285  0.9256  0.2155
 4632SOL    HW225359   0.538   3.328  10.213  0.8491 -1.3303 -1.0855
 4633SOL     OW25360   0.070   2.185   2.599 -0.0059  0.0980 -0.1367
 4633SOL    HW125361   4.711   2.154   2.643 -0.4683  1.5615  0.0949
 4633SOL    HW225362   0.142   2.157   2.654 -0.2906 -2.7684 -1.2423
 4634SOL     OW25363   2.810   2.897   3.675 -0.1953 -0.2222  0.1280
 4634SOL    HW125364   2.837   2.953   3.602  0.5155  1.0412  1.3749
 4634SOL    HW225365   2.770   2.970   3.722 -2.5843 -1.2511 -0.3365
 4635SOL     OW25366   3.649   1.576   5.367 -0.3602  1.0827  0.4738
 4635SOL    HW125367   3.725   1.530   5.400  0.4134  1.5065 -0.7055
 4635SOL    HW225368   3.685   1.647   5.313 -1.1633  0.9574 -0.2256
 4636SOL     OW25369   4.684   1.010   4.081 -0.5608  0.2346 -0.0653
 4636SOL    HW125370   0.033   0.946   4.065  0.8362  0.7834  3.7410
 4636SOL    HW225371   0.013   1.089   4.107 -0.7690  0.1889  0.4647
 4637SOL     OW25372   1.600   1.915   4.551  0.0071 -0.5890  0.2769
 4637SOL    HW125373   1.608   2.003   4.587  0.5327  0.6422 -2.8807
 4637SOL    HW225374   1.622   1.856   4.623 -1.8092  0.6317  1.8151
 4638SOL     OW25375   1.445   2.223   8.999 -0.2607 -0.0007 -0.3208
 4638SOL    HW125376   1.406   2.137   8.985  0.1251 -0.4544  1.4064
 4638SOL    HW225377   1.458   2.253   8.909  0.7700  1.0301  0.1670
 4639SOL     OW25378   0.483   0.254  11.415 -0.4249  0.3335  0.0107
 4639SOL    HW125379   0.535   0.243  11.494 -0.1744  0.3778 -0.1480
 4639SOL    HW225380   0.425   0.329  11.429  1.6330  1.3657  3.0682
 4640SOL     OW25381   2.455   3.994   5.211  0.2274 -0.2688 -0.2611
 4640SOL    HW125382   2.381   4.052   5.193 -0.2810 -0.4754  1.1876
 4640SOL    HW225383   2.520   4.063   5.196  1.2882 -1.3441 -0.6378
 4641SOL     OW25384   0.963   2.068   4.384  0.4114  0.4256  0.0491
 4641SOL    HW125385   1.017   1.998   4.348  1.2532 -0.4230  3.0254
 4641SOL    HW225386   0.880   2.027   4.405 -0.3572  0.9602 -1.8956
 4642SOL     OW25387   0.850   0.867   9.123  0.3760 -0.7963  0.4031
 4642SOL    HW125388   0.771   0.916   9.104 -0.7654 -2.6103  0.4804
 4642SOL    HW225389   0.837   0.854   9.216  3.2498  0.0932  0.9365
 4643SOL     OW25390   0.487   2.061   3.632 -0.0300  0.8249  0.1566
 4643SOL    HW125391   0.492   2.048   3.538  0.0581 -1.3422  0.4610
 4643SOL    HW225392   0.409   2.009   3.651  0.7156 -0.1276  0.6526
 4644SOL     OW25393   2.841   1.204   4.224 -0.7146 -0.3699 -0.6414
 4644SOL    HW125394   2.855   1.118   4.264 -2.2566 -0.7892 -0.9558
 4644SOL    HW225395   2.747   1.193   4.239 -0.7259 -0.8121 -1.0239
 4645SOL     OW25396   4.545   1.280   9.346 -0.6898  0.5976 -0.4518
 4645SOL    HW125397   4.538   1.268   9.441  2.8195 -0.3534 -0.2993
 4645SOL    HW225398   4.484   1.216   9.309 -0.3444  0.0073  0.0076
 4646SOL     OW25399   3.136   1.971   4.109 -0.1984  0.1709 -0.3707
 4646SOL    HW125400   3.184   1.953   4.190  1.8001  0.3214 -1.5183
 4646SOL    HW225401   3.195   2.024   4.055  1.8718 -2.6045 -0.8687
 4647SOL     OW25402   2.572   1.200   5.577 -0.4452 -0.3315  0.5894
 4647SOL    HW125403   2.608   1.283   5.544 -1.0316 -0.0374  0.7002
 4647SOL    HW225404   2.503   1.184   5.513 -0.9169  0.5819  0.8766
 4648SOL     OW25405   2.013   0.927  11.151 -0.2459 -0.6057  0.1285
 4648SOL    HW125406   1.993   0.891  11.064  0.1946 -2.7826  0.9250
 4648SOL    HW225407   2.103   0.900  11.167  0.7617  3.0130  0.4977
 4649SOL     OW25408   1.892   3.043  11.824  0.4543 -0.2353 -0.4197
 4649SOL    HW125409   1.946   3.007  11.754 -1.3804  1.2181 -2.6045
 4649SOL    HW225410   1.825   2.975  11.834 -2.2224  2.6304  1.0801
 4650SOL     OW25411   1.986   0.388   7.860 -0.6634  0.3577 -0.1697
 4650SOL    HW125412   1.946   0.470   7.889 -0.8191 -0.4369  1.8208
 4650SOL    HW225413   2.070   0.386   7.905 -1.2060  0.3990  0.8519
 4651SOL     OW25414   4.008   0.265   4.447  0.5653  0.3619 -0.4882
 4651SOL    HW125415   4.017   0.301   4.359  1.6429 -1.2065 -1.0296
 4651SOL    HW225416   4.082   0.302   4.495 -0.1974  1.3683 -0.0941
 4652SOL     OW25417   0.789   3.227   8.317  0.2247 -0.7337  0.5334
 4652SOL    HW125418   0.757   3.291   8.381 -0.4904  1.7944 -2.3513
 4652SOL    HW225419   0.715   3.218   8.257  0.7729  1.2767 -0.4182
 4653SOL     OW25420   2.445   2.728   5.812 -0.5551  1.2209  0.3258
 4653SOL    HW125421   2.505   2.784   5.861  1.7708 -0.1113 -1.0097
 4653SOL    HW225422   2.488   2.643   5.816  0.8557  1.9574  0.7771
 4654SOL     OW25423   4.704   0.728   4.945 -0.0869  0.3418  0.4625
 4654SOL    HW125424   0.051   0.792   4.971  0.1367  0.5973 -0.7638
 4654SOL    HW225425   4.667   0.749   4.860 -0.2241  2.8742  1.1411
 4655SOL     OW25426   0.510   3.579   8.648 -0.1654  0.5791 -0.4486
 4655SOL    HW125427   0.445   3.509   8.650  0.3352  0.1265 -0.1174
 4655SOL    HW225428   0.458   3.651   8.613  0.2030  1.3032  0.5044
 4656SOL     OW25429   1.631   1.199   5.443 -0.2598  0.4981  0.2698
 4656SOL    HW125430   1.583   1.163   5.369 -2.0584  0.4262  1.4713
 4656SOL    HW225431   1.573   1.170   5.514  0.9108 -1.0375  0.5997
 4657SOL     OW25432   1.340   2.795   6.519 -0.2159  0.1646  0.2067
 4657SOL    HW125433   1.288   2.791   6.599 -0.9769 -0.9862 -0.3520
 4657SOL    HW225434   1.413   2.737   6.541 -1.6339 -1.1833  1.4099
 4658SOL     OW25435   1.776   3.612  12.401 -0.2006 -0.3113  0.1453
 4658SOL    HW125436   1.753   3.578  12.314  0.2838 -1.3682  0.4302
 4658SOL    HW225437   1.853   3.666  12.383  0.4212 -1.1318  0.3620
 4659SOL     OW25438   2.705   3.345   4.316  0.3790  0.7597  0.5716
 4659SOL    HW125439   2.641   3.327   4.385 -0.2524  2.3234  0.3941
 4659SOL    HW225440   2.783   3.372   4.365  1.1866  2.0024 -1.4115
 4660SOL     OW25441   4.343   0.805   7.048 -0.3634  0.1048  0.1114
 4660SOL    HW125442   4.290   0.741   7.001 -3.0582  3.0422 -0.8338
 4660SOL    HW225443   4.387   0.829   6.967 -0.7625 -2.1875 -0.8037
 4661SOL     OW25444   0.992   1.803   7.966 -0.1273  0.3107 -0.0685
 4661SOL    HW125445   1.011   1.893   7.939  0.9493  0.4164  1.0015
 4661SOL    HW225446   0.905   1.806   8.005  0.1614  0.0983  0.6051
 4662SOL     OW25447   3.005   4.349   6.990  0.0319 -0.6219  0.3075
 4662SOL    HW125448   3.012   4.393   7.075 -2.1837  0.0714  0.1449
 4662SOL    HW225449   2.932   4.290   7.008 -0.0114 -1.1872 -1.7281
 4663SOL     OW25450   2.496   0.189   5.810  0.2058  1.1319  0.3745
 4663SOL    HW125451   2.584   0.162   5.785 -0.3382  1.2795 -1.7215
 4663SOL    HW225452   2.497   0.143   5.893 -2.1790 -1.5964 -1.1037
 4664SOL     OW25453   4.534   4.532   2.670 -0.6974  0.8487  0.2333
 4664SOL    HW125454   4.527   4.560   2.579 -2.9718 -3.0856 -0.8109
 4664SOL    HW225455   4.460   4.471   2.669 -0.5144  0.6208  0.5159
 4665SOL     OW25456   2.509   0.299  16.859  0.1503  0.2957 -0.3712
 4665SOL    HW125457   2.544   0.358  16.925  0.4766 -0.0287 -0.2587
 4665SOL    HW225458   2.448   0.362  16.820 -1.7212 -1.8814 -0.9771
 4666SOL     OW25459   1.660   4.051   4.887  0.4697 -0.7317  0.2890
 4666SOL    HW125460   1.740   4.021   4.844  1.2698  0.7650  0.7437
 4666SOL    HW225461   1.647   3.979   4.949  1.1751 -1.7757 -0.7746
 4667SOL     OW25462   3.499   0.585   7.149 -0.0740 -0.2266 -0.0983
 4667SOL    HW125463   3.559   0.637   7.095 -0.4351 -1.2205 -1.4497
 4667SOL    HW225464   3.415   0.604   7.109  1.7334 -0.7378 -4.0927
 4668SOL     OW25465   2.665   3.809  13.010  0.9355 -0.0389 -0.0565
 4668SOL    HW125466   2.592   3.786  13.066  0.5438  2.4662  0.4716
 4668SOL    HW225467   2.612   3.856  12.946  1.8944 -1.1213 -1.6601
 4669SOL     OW25468   1.336   4.305   9.200 -0.3061  0.0571 -0.7464
 4669SOL    HW125469   1.340   4.240   9.129  0.8056  0.4578 -1.0525
 4669SOL    HW225470   1.248   4.282   9.231  1.1982 -1.8616  2.0251
 4670SOL     OW25471   2.589   2.915   4.111 -0.5619  0.1432  0.6546
 4670SOL    HW125472   2.534   2.989   4.136 -0.6868  0.6652 -1.1888
 4670SOL    HW225473   2.565   2.848   4.175 -1.3410 -0.1515  0.0457
 4671SOL     OW25474   0.260   0.160  10.070  0.3986  0.1050 -0.3046
 4671SOL    HW125475   0.339   0.116  10.040  0.3536 -1.1651  1.4452
 4671SOL    HW225476   0.232   0.097  10.136  0.3812  0.5777  0.1319
 4672SOL     OW25477   2.538   0.642   7.957 -0.1804 -0.0275  0.7241
 4672SOL    HW125478   2.602   0.692   8.006  1.1676  0.9489 -2.0120
 4672SOL    HW225479   2.495   0.598   8.030 -0.3722  1.5791  1.5609
 4673SOL     OW25480   4.109   3.405   1.424  0.6126  0.1481 -0.1478
 4673SOL    HW125481   4.135   3.496   1.437 -0.1806  0.4432 -0.6449
 4673SOL    HW225482   4.058   3.425   1.345 -0.0582 -2.6496 -0.4079
 4674SOL     OW25483   3.099   2.506   1.621  0.3338  0.4647  0.1448
 4674SOL    HW125484   3.123   2.452   1.545 -1.4669  0.5144 -0.4483
 4674SOL    HW225485   3.128   2.451   1.694 -0.8061 -1.6151 -0.9623
 4675SOL     OW25486   0.689   1.569  14.800  0.4333 -0.7562  0.5637
 4675SOL    HW125487   0.658   1.507  14.867  0.0772 -0.8163  0.3427
 4675SOL    HW225488   0.782   1.571  14.823  0.1858  0.3465  1.4542
 4676SOL     OW25489   1.991   3.194  10.361 -0.1844 -0.2555  0.2017
 4676SOL    HW125490   1.989   3.249  10.283 -2.0086  0.8165  0.9947
 4676SOL    HW225491   1.908   3.147  10.353 -0.4879  0.9719 -3.5840
 4677SOL     OW25492   0.806   1.290   9.665  0.2595  0.1564  0.2879
 4677SOL    HW125493   0.853   1.210   9.639  1.5508  1.1353 -0.3750
 4677SOL    HW225494   0.724   1.250   9.693 -1.6810  3.6620 -0.4432
 4678SOL     OW25495   1.748   1.083   1.759 -0.5496  0.0159 -0.1887
 4678SOL    HW125496   1.744   0.990   1.738 -0.9501  0.2287 -1.0531
 4678SOL    HW225497   1.721   1.126   1.678  0.6195  0.0934 -0.5443
 4679SOL     OW25498   2.458   3.748   3.485  0.8673 -0.1710 -0.3382
 4679SOL    HW125499   2.431   3.809   3.554  0.1920  0.2731 -1.0073
 4679SOL    HW225500   2.516   3.798   3.427 -0.6740  2.1514  0.1406
 4680SOL     OW25501   2.145   0.745   6.465  0.2503  0.1532 -0.2582
 4680SOL    HW125502   2.214   0.704   6.413  1.9702  1.7071  0.8048
 4680SOL    HW225503   2.189   0.828   6.488  0.2840 -0.1327  0.7262
 4681SOL     OW25504   1.839   2.420   6.295 -0.0313  0.0016  0.4765
 4681SOL    HW125505   1.899   2.348   6.312  0.1353  0.2217  0.8193
 4681SOL    HW225506   1.846   2.418   6.200 -0.2337 -3.1778  0.5141
 4682SOL     OW25507   4.363   4.354   1.418  0.3754 -0.2073 -0.4064
 4682SOL    HW125508   4.455   4.371   1.436  0.3469  0.5396 -0.9801
 4682SOL    HW225509   4.357   4.338   1.324  0.3745  1.2511 -0.6593
 4683SOL     OW25510   2.146   3.993  17.418 -0.1539  0.1911  0.0653
 4683SOL    HW125511   2.110   4.082  17.425 -0.6592  0.1565 -2.0752
 4683SOL    HW225512   2.066   3.941  17.425 -0.2405  0.1681 -1.0731
 4684SOL     OW25513   1.400   0.177   8.480 -0.1078 -0.0843  0.0491
 4684SOL    HW125514   1.410   0.227   8.561 -0.1130  1.3426 -0.8331
 4684SOL    HW225515   1.339   0.107   8.502 -0.7682  1.0909  1.8902
 4685SOL     OW25516   3.816   4.319  17.305 -0.0232 -0.3803 -0.4886
 4685SOL    HW125517   3.756   4.388  17.335  1.0939  0.3594  0.0284
 4685SOL    HW225518   3.876   4.374  17.255 -0.0175  0.7754  0.7981
 4686SOL     OW25519   1.644   3.464   5.813  0.3017 -0.1815  0.5065
 4686SOL    HW125520   1.662   3.396   5.877 -0.6515 -1.1664 -0.2659
 4686SOL    HW225521   1.733   3.498   5.801 -0.3915  1.6208  0.4643
 4687SOL     OW25522   4.069   0.617  12.956  0.3338 -0.1391  0.2507
 4687SOL    HW125523   4.018   0.652  13.030 -0.7733 -1.1017 -0.0501
 4687SOL    HW225524   4.147   0.671  12.960 -0.3312  0.9284 -1.1988
 4688SOL     OW25525   3.725   0.040   8.220  0.5573  0.2677  0.5058
 4688SOL    HW125526   3.656   0.004   8.164  0.8017 -0.3089  0.5850
 4688SOL    HW225527   3.743   4.688   8.280  1.1716  0.8325  0.9952
 4689SOL     OW25528   0.707   3.434  13.306 -0.2225  0.5924  0.0679
 4689SOL    HW125529   0.785   3.485  13.330 -0.4485  0.8347  0.2843
 4689SOL    HW225530   0.740   3.345  13.318  1.7480  1.5001  1.5443
 4690SOL     OW25531   2.864   0.758   7.416 -0.2290 -0.0070  0.2532
 4690SOL    HW125532   2.903   0.792   7.497  1.5412 -1.1225 -0.1445
 4690SOL    HW225533   2.854   0.665   7.437  0.4203 -0.0104  0.5369
 4691SOL     OW25534   4.539   3.218  14.121  0.2761 -0.2277  0.0451
 4691SOL    HW125535   4.563   3.252  14.035  0.6103  0.4135  0.3989
 4691SOL    HW225536   4.609   3.181  14.174 -0.2346  1.4206  1.8848
 4692SOL     OW25537   1.430   0.638   5.302  1.0293  0.3063 -0.4224
 4692SOL    HW125538   1.484   0.678   5.234 -0.4136  1.4434 -0.8846
 4692SOL    HW225539   1.489   0.632   5.377 -1.5231 -0.0221  1.5643
 4693SOL     OW25540   1.105   1.587   3.847  0.6433  0.1132  0.2164
 4693SOL    HW125541   1.130   1.540   3.926  0.9285 -0.5566 -0.2683
 4693SOL    HW225542   1.167   1.543   3.788  1.5768  2.6598 -0.7029
 4694SOL     OW25543   2.036   1.310   5.635  0.0847 -0.0971 -1.0198
 4694SOL    HW125544   2.082   1.252   5.695 -1.1675 -0.0374 -0.0205
 4694SOL    HW225545   1.981   1.247   5.588  1.3482 -2.6324  0.8994
 4695SOL     OW25546   3.169   3.607   6.921 -0.0355  0.1643 -0.5149
 4695SOL    HW125547   3.198   3.659   6.846  0.9306 -0.8541 -0.8352
 4695SOL    HW225548   3.114   3.540   6.881 -0.1503 -0.0969  0.0793
 4696SOL     OW25549   3.244   3.733   6.697 -0.5887 -0.5082  0.2912
 4696SOL    HW125550   3.315   3.674   6.672  0.5282  1.1520 -0.4569
 4696SOL    HW225551   3.253   3.805   6.635  0.9025 -0.4514  0.5916
 4697SOL     OW25552   2.086   0.567   5.601  0.1636 -0.6216  0.0803
 4697SOL    HW125553   2.166   0.593   5.556  0.5615  0.0291  1.1813
 4697SOL    HW225554   2.106   0.604   5.687 -2.0149 -1.6626  1.0402
 4698SOL     OW25555   3.402   0.611  12.920  0.4081 -0.0261 -0.3884
 4698SOL    HW125556   3.466   0.590  12.989  2.6736 -0.2708 -2.5755
 4698SOL    HW225557   3.441   0.557  12.851  1.3011  1.0249 -0.7078
 4699SOL     OW25558   1.622   0.423   3.659  0.4689  0.0882  0.1544
 4699SOL    HW125559   1.530   0.437   3.640  0.4373 -0.3083  0.0220
 4699SOL    HW225560   1.658   0.510   3.641  0.9468  0.5510  3.3591
 4700SOL     OW25561   0.531   2.055   7.005 -0.5114 -0.0538  0.1065
 4700SOL    HW125562   0.574   1.970   7.001 -0.3533 -0.1443  3.2213
 4700SOL    HW225563   0.601   2.103   7.051 -0.6632  0.8508 -0.6147
 4701SOL     OW25564   2.235   2.230   1.210  0.0879  0.2737  0.0333
 4701SOL    HW125565   2.155   2.214   1.160 -0.8778 -1.1597  2.0249
 4701SOL    HW225566   2.246   2.145   1.252  1.7022  0.3374 -0.2468
 4702SOL     OW25567   4.140   2.671   0.979 -0.3956 -0.3441  0.1745
 4702SOL    HW125568   4.078   2.627   1.037  0.9533 -0.1673  1.7658
 4702SOL    HW225569   4.213   2.612   0.997  0.3005  0.3031 -0.5766
 4703SOL     OW25570   3.444   0.788   7.485 -0.0847  0.4367  0.3822
 4703SOL    HW125571   3.426   0.869   7.438 -0.6553 -0.3258 -0.7213
 4703SOL    HW225572   3.357   0.761   7.515  0.7329 -2.4080  0.1447
 4704SOL     OW25573   0.977   2.604   9.310 -0.0429 -0.0925 -0.0264
 4704SOL    HW125574   0.951   2.650   9.390  0.3799  0.8305 -0.4063
 4704SOL    HW225575   1.029   2.669   9.261  2.3351 -0.8409  1.5009
 4705SOL     OW25576   0.470   3.542   6.944 -0.0529  0.1364 -0.0520
 4705SOL    HW125577   0.558   3.517   6.914 -0.5768 -0.0617 -1.4465
 4705SOL    HW225578   0.431   3.563   6.859 -2.2307 -0.8547  0.7003
 4706SOL     OW25579   3.737   2.765   3.823 -0.6626 -0.0118  0.3542
 4706SOL    HW125580   3.663   2.724   3.868  1.8841 -1.4527  3.2202
 4706SOL    HW225581   3.696   2.830   3.767  2.8906  1.2690 -0.7361
 4707SOL     OW25582   4.543   0.765   7.815 -0.0902 -0.0398 -0.4960
 4707SOL    HW125583   4.601   0.763   7.891  1.0920  1.3803 -1.3572
 4707SOL    HW225584   4.515   0.856   7.818  0.2308  0.0406  0.0458
 4708SOL     OW25585   2.589   2.599  14.754  0.1814 -0.1539 -0.0811
 4708SOL    HW125586   2.521   2.564  14.697 -1.1251  1.4684  0.5102
 4708SOL    HW225587   2.554   2.686  14.772 -1.5715 -0.6303 -1.1771
 4709SOL     OW25588   2.238   0.370   8.013  0.1465 -0.2310  0.3637
 4709SOL    HW125589   2.246   0.465   8.001  1.0129 -0.0973  2.0027
 4709SOL    HW225590   2.332   0.352   8.007  0.0602 -0.3557 -0.7334
 4710SOL     OW25591   1.345   2.492  14.681 -0.4981  0.2324 -0.0995
 4710SOL    HW125592   1.267   2.478  14.628  1.4439 -3.7232 -1.9133
 4710SOL    HW225593   1.420   2.455  14.635 -1.7184 -3.8392  1.1427
 4711SOL     OW25594   1.448   2.263   6.252 -0.1234 -0.0513  0.2156
 4711SOL    HW125595   1.376   2.220   6.298 -0.3808 -0.0531 -0.1963
 4711SOL    HW225596   1.407   2.344   6.223 -1.9191 -0.5676  1.3182
 4712SOL     OW25597   0.144   2.883   3.601  0.0065  0.3882  0.2088
 4712SOL    HW125598   0.120   2.963   3.649  0.0735  0.2784  0.4286
 4712SOL    HW225599   0.160   2.921   3.515 -0.5378 -1.1836 -0.5822
 4713SOL     OW25600   3.255   3.324   3.137 -0.0597  0.4020 -0.3659
 4713SOL    HW125601   3.280   3.313   3.045 -0.2563  0.7999 -0.4666
 4713SOL    HW225602   3.245   3.235   3.171 -2.6260  0.6096 -0.5676
 4714SOL     OW25603   2.411   1.910  11.836  0.1922 -0.0698 -0.3967
 4714SOL    HW125604   2.429   2.003  11.849  1.5015 -0.7099  2.4228
 4714SOL    HW225605   2.489   1.877  11.791  1.1555 -0.0736  1.2651
 4715SOL     OW25606   1.408   3.623   9.777  0.4770 -0.5318 -0.2354
 4715SOL    HW125607   1.433   3.602   9.687 -3.3314 -0.1420 -1.3965
 4715SOL    HW225608   1.326   3.673   9.770  0.0011 -1.2447  0.2519
 4716SOL     OW25609   3.750   3.908   7.344  0.3827  0.1919  0.0684
 4716SOL    HW125610   3.656   3.892   7.358  0.0240  0.3782 -2.0655
 4716SOL    HW225611   3.746   3.901   7.249  1.1754 -0.2956  0.0736
 4717SOL     OW25612   1.516   4.360   6.609  0.3082  0.4488 -0.8108
 4717SOL    HW125613   1.597   4.409   6.594  0.9727 -0.5567 -0.5485
 4717SOL    HW225614   1.459   4.391   6.538 -1.0928 -0.9714 -0.3028
 4718SOL     OW25615   0.466   0.320   3.847  0.5931 -0.6089  0.3182
 4718SOL    HW125616   0.550   0.344   3.810  0.9199 -1.3180  0.6125
 4718SOL    HW225617   0.476   0.362   3.932  0.8039  0.3785 -0.1931
 4719SOL     OW25618   2.719   2.103  11.032 -0.2531 -0.5002 -0.4081
 4719SOL    HW125619   2.643   2.080  10.977 -0.7581 -0.6038  0.3333
 4719SOL    HW225620   2.742   2.014  11.059  2.1302 -0.3323 -1.8867
 4720SOL     OW25621   3.657   1.884   6.089  0.4836  0.3290 -0.2949
 4720SOL    HW125622   3.750   1.908   6.082  0.9000 -1.6116 -1.3016
 4720SOL    HW225623   3.629   1.883   5.997  2.3701 -0.6540 -0.8494
 4721SOL     OW25624   1.774   2.790   7.387  0.6094  0.1861  0.0157
 4721SOL    HW125625   1.724   2.710   7.370  0.5604  0.7214 -2.3366
 4721SOL    HW225626   1.707   2.848   7.423  0.4856 -0.6979  1.2107
 4722SOL     OW25627   3.180   2.250   9.559 -0.2510  0.2832  0.8587
 4722SOL    HW125628   3.254   2.310   9.565 -0.6373  1.1854 -3.0124
 4722SOL    HW225629   3.100   2.298   9.583 -0.7863 -0.2482  0.1549
 4723SOL     OW25630   1.587   3.005   1.052  0.5238  0.0647 -0.0294
 4723SOL    HW125631   1.517   3.022   1.115  0.3720  1.4604 -0.5719
 4723SOL    HW225632   1.649   2.961   1.110  0.2506  1.1175  1.0736
 4724SOL     OW25633   4.208   3.929  13.007 -0.4868  0.3627  0.0513
 4724SOL    HW125634   4.257   3.876  13.070 -0.3153 -2.2577 -2.2971
 4724SOL    HW225635   4.144   3.973  13.063 -1.4610 -0.4703 -0.4061
 4725SOL     OW25636   0.979   4.572  14.198 -0.2971 -0.0116  0.2306
 4725SOL    HW125637   1.039   4.599  14.268  0.5023  1.2559 -0.9491
 4725SOL    HW225638   1.003   4.479  14.201 -0.5687 -0.1697 -2.1174
 4726SOL     OW25639   3.746   2.575   3.618 -0.3776 -0.5626  0.1547
 4726SOL    HW125640   3.738   2.628   3.697  1.9931 -1.5003  1.0223
 4726SOL    HW225641   3.839   2.551   3.618 -0.3669 -0.4938 -1.0490
 4727SOL     OW25642   1.764   4.606  13.930 -0.4383 -0.0567  0.0368
 4727SOL    HW125643   1.841   4.618  13.873 -0.7065  3.4968  0.4312
 4727SOL    HW225644   1.794   4.610  14.021 -0.0208  0.4329 -0.1233
 4728SOL     OW25645   2.677   2.548   4.275  0.0974 -0.0916  0.4623
 4728SOL    HW125646   2.772   2.560   4.268  0.0303  0.1773  0.0284
 4728SOL    HW225647   2.663   2.453   4.277  1.6877 -0.3063  1.6202
 4729SOL     OW25648   4.446   4.382   6.779  0.2661 -0.8575 -0.2258
 4729SOL    HW125649   4.469   4.292   6.753  2.3006 -0.3708 -0.1157
 4729SOL    HW225650   4.528   4.431   6.783 -0.9926  1.1798  0.4780
 4730SOL     OW25651   4.033   1.562   0.526 -0.4221  0.0450 -0.6170
 4730SOL    HW125652   4.035   1.467   0.534  2.2734  0.1528 -0.0843
 4730SOL    HW225653   4.052   1.600   0.611  0.4953  0.4951 -1.0291
 4731SOL     OW25654   1.593   3.419   0.259 -0.2032 -0.7168 -0.2381
 4731SOL    HW125655   1.547   3.338   0.279  0.2563 -0.8403  0.3356
 4731SOL    HW225656   1.634   3.395   0.177  2.0081  3.6348 -0.4133
 4732SOL     OW25657   2.349   2.302  14.305 -0.7537  0.1129  0.0336
 4732SOL    HW125658   2.259   2.289  14.273  0.6075 -0.4315 -3.5608
 4732SOL    HW225659   2.352   2.397  14.300 -1.0135  0.0897 -0.6235
 4733SOL     OW25660   3.609   4.301   3.192 -0.0706  0.2471  0.0943
 4733SOL    HW125661   3.701   4.288   3.217  0.0414 -0.1183 -0.5208
 4733SOL    HW225662   3.611   4.323   3.099  1.3629  0.2067  0.1175
 4734SOL     OW25663   2.668   3.383   7.981  0.3448 -0.2236  0.4920
 4734SOL    HW125664   2.675   3.385   8.077 -2.0685  1.8032  0.6348
 4734SOL    HW225665   2.601   3.451   7.973 -0.6451 -1.1582  0.8483
 4735SOL     OW25666   0.719   0.368   1.053 -0.2552  0.0403  0.5095
 4735SOL    HW125667   0.631   0.377   1.090 -0.1041  1.5389  0.5113
 4735SOL    HW225668   0.736   0.458   1.025 -1.0744 -0.0686 -0.3376
 4736SOL     OW25669   3.282   2.672   4.895  0.0845  0.1493  0.1911
 4736SOL    HW125670   3.210   2.623   4.933  2.9520 -2.2597  2.4977
 4736SOL    HW225671   3.289   2.754   4.944  1.0374  0.8186 -1.0529
 4737SOL     OW25672   0.726   0.891   3.015  0.1055 -0.8048  0.2194
 4737SOL    HW125673   0.762   0.818   3.065 -0.7368 -0.8639  0.7372
 4737SOL    HW225674   0.719   0.860   2.925  0.2802 -0.7976  0.2033
 4738SOL     OW25675   4.580   2.257  10.912  0.0229 -0.3028  0.1993
 4738SOL    HW125676   4.669   2.223  10.923  1.4451  3.0585 -0.8778
 4738SOL    HW225677   4.550   2.211  10.833  0.5145 -1.6815  0.8107
 4739SOL     OW25678   2.758   2.502  14.948 -0.3780  0.4496 -0.0146
 4739SOL    HW125679   2.706   2.433  14.988  0.5232 -0.4575 -0.4015
 4739SOL    HW225680   2.702   2.579  14.953  0.1454  0.9367 -1.7376
 4740SOL     OW25681   0.992   0.488   4.870  0.1027  0.3302  0.5409
 4740SOL    HW125682   0.979   0.403   4.827  1.5825  0.8108 -0.8664
 4740SOL    HW225683   1.014   0.532   4.788 -0.5713 -2.0738 -0.9453
 4741SOL     OW25684   2.499   3.562   2.406  0.4198 -0.0682  0.1379
 4741SOL    HW125685   2.568   3.498   2.388 -1.9716 -2.0295 -1.9651
 4741SOL    HW225686   2.477   3.545   2.498 -3.2966  3.1710 -0.1249
 4742SOL     OW25687   1.979   2.732  14.042  0.1085  0.7919  0.1718
 4742SOL    HW125688   1.986   2.696  14.130  2.8387 -1.6042 -1.0312
 4742SOL    HW225689   1.992   2.657  13.984 -2.5052  0.3026  0.2190
 4743SOL     OW25690   3.671   2.347  15.255  0.5081  0.3117  0.1750
 4743SOL    HW125691   3.658   2.369  15.163 -0.0663  2.1555  0.6938
 4743SOL    HW225692   3.658   2.434  15.293 -3.5018  0.0767 -0.7416
 4744SOL     OW25693   0.534   1.773   6.699 -0.3427  0.2390  0.3119
 4744SOL    HW125694   0.489   1.695   6.732 -1.3891  0.3220 -0.9038
 4744SOL    HW225695   0.589   1.730   6.633  0.7881  0.0271  1.4038
 4745SOL     OW25696   0.199   1.270  14.892  0.1386 -0.1625  0.5278
 4745SOL    HW125697   0.105   1.283  14.881  0.4585  1.6709 -0.0130
 4745SOL    HW225698   0.224   1.348  14.844 -1.3578 -1.4140 -2.2905
 4746SOL     OW25699   0.848   0.088  10.529  0.0398 -0.3183  0.6244
 4746SOL    HW125700   0.910   0.036  10.580 -0.4825 -0.1147  1.4626
 4746SOL    HW225701   0.874   0.060  10.441 -1.0578 -0.3298  0.3083
 4747SOL     OW25702   2.692   1.527   1.191  0.4549 -0.2716  0.4731
 4747SOL    HW125703   2.760   1.560   1.133 -0.7184  0.7627 -0.3033
 4747SOL    HW225704   2.678   1.441   1.151 -1.6971 -0.4642  1.6317
 4748SOL     OW25705   1.551   3.062   4.541  0.5684 -0.5928 -0.5237
 4748SOL    HW125706   1.611   2.987   4.543 -0.0925 -1.0639  1.2082
 4748SOL    HW225707   1.486   3.025   4.482 -1.5798  1.4031  0.5696
 4749SOL     OW25708   1.494   4.639   6.100  0.0122  0.2627 -0.0831
 4749SOL    HW125709   1.535   4.643   6.187 -0.4216 -0.6147  0.1624
 4749SOL    HW225710   1.565   4.645   6.036  0.5763  1.5561  0.6512
 4750SOL     OW25711   0.170   2.016   7.597  0.5661  0.3319 -0.9639
 4750SOL    HW125712   0.148   2.083   7.532  0.5607  0.7244 -0.5546
 4750SOL    HW225713   0.193   2.072   7.670  1.0599  0.1804 -1.0058
 4751SOL     OW25714   2.717   0.298   5.313  0.2229 -0.0690  0.2741
 4751SOL    HW125715   2.713   0.310   5.408 -1.3790 -0.3853  0.2491
 4751SOL    HW225716   2.624   0.289   5.293  0.0763  1.3666  0.3199
 4752SOL     OW25717   2.362   1.185   4.551 -0.0169  0.1402  0.1873
 4752SOL    HW125718   2.361   1.097   4.587 -2.5340 -0.1564 -0.6296
 4752SOL    HW225719   2.318   1.167   4.468  0.2070  1.0578 -0.1395
 4753SOL     OW25720   0.985   0.933   1.668  0.4104 -0.2851  0.0131
 4753SOL    HW125721   0.914   0.983   1.708 -1.1391 -1.2282 -1.5606
 4753SOL    HW225722   1.043   0.920   1.743  1.9047  1.1356 -0.8785
 4754SOL     OW25723   0.049   4.057  17.262  0.2689  0.3141 -0.1517
 4754SOL    HW125724   0.127   4.010  17.291 -1.2686 -2.8584 -1.1310
 4754SOL    HW225725   0.010   4.060  17.349  0.6410  3.4378 -0.0833
 4755SOL     OW25726   2.324   2.745   9.787  0.2090 -0.3528 -0.1618
 4755SOL    HW125727   2.366   2.806   9.847 -0.0749  0.6931 -1.0344
 4755SOL    HW225728   2.325   2.790   9.702  0.9970 -1.3616 -0.7039
 4756SOL     OW25729   3.383   0.141  12.642 -0.4008  0.1619 -0.2794
 4756SOL    HW125730   3.377   0.048  12.664 -0.1116  0.0561 -0.6370
 4756SOL    HW225731   3.325   0.173  12.710 -0.8730 -2.7124  0.6635
 4757SOL     OW25732   3.751   3.796  17.660  0.0256 -0.3849  0.9333
 4757SOL    HW125733   3.669   3.844  17.649 -0.5217 -1.6376 -0.4644
 4757SOL    HW225734   3.752   3.753   0.064 -1.2244  1.7614  2.0368
 4758SOL     OW25735   2.795   3.513   0.194  0.1991 -0.1778  0.0328
 4758SOL    HW125736   2.746   3.471   0.264  1.6514 -0.5933  0.7932
 4758SOL    HW225737   2.772   3.606   0.198 -2.0774 -0.7117 -0.6322
 4759SOL     OW25738   3.786   4.068   9.414  0.1243 -0.0155 -0.3985
 4759SOL    HW125739   3.777   4.161   9.393  0.1696  0.2409  0.7256
 4759SOL    HW225740   3.881   4.064   9.424  0.2927  0.7631 -1.6066
 4760SOL     OW25741   0.098   1.608   4.383 -0.0653 -0.3628 -0.0162
 4760SOL    HW125742   0.032   1.639   4.321 -1.4140 -0.0687  1.5825
 4760SOL    HW225743   0.173   1.661   4.356 -1.9311  2.8616  1.1456
 4761SOL     OW25744   2.206   3.499  13.551 -0.5946 -0.7873  0.0488
 4761SOL    HW125745   2.139   3.465  13.491 -1.2102  1.0845 -0.3190
 4761SOL    HW225746   2.199   3.594  13.542 -0.2601 -1.0549 -2.9101
 4762SOL     OW25747   0.432   2.746   8.479 -0.1184  0.5192 -0.1664
 4762SOL    HW125748   0.432   2.837   8.450  2.7809 -0.0922 -2.0776
 4762SOL    HW225749   0.518   2.740   8.521 -0.6458 -2.3247  0.4913
 4763SOL     OW25750   4.461   1.245   5.977  0.1951  0.0218 -0.4848
 4763SOL    HW125751   4.498   1.211   5.895  1.0800  0.6203 -0.3315
 4763SOL    HW225752   4.510   1.327   5.973 -0.4149  0.3337 -1.5859
 4764SOL     OW25753   2.967   3.300  17.537  0.2802 -0.0095 -0.1745
 4764SOL    HW125754   2.880   3.325  17.569 -1.2317 -3.3064 -1.6858
 4764SOL    HW225755   2.985   3.374  17.480  2.3896  0.6288  1.3200
 4765SOL     OW25756   4.084   4.714   0.813 -0.4248  0.1499  0.0106
 4765SOL    HW125757   4.049   0.013   0.900  2.1153  1.3690  0.7656
 4765SOL    HW225758   4.011   4.676   0.763 -0.3340  1.7418 -1.3390
 4766SOL     OW25759   0.537   0.599   5.432  0.4361  0.3737  0.1476
 4766SOL    HW125760   0.558   0.543   5.506  1.0012  0.0863 -0.2313
 4766SOL    HW225761   0.519   0.683   5.473  1.5029  0.2563  0.8447
 4767SOL     OW25762   1.862   1.963  16.085  0.2511 -0.1612 -0.0567
 4767SOL    HW125763   1.956   1.968  16.102 -0.2141  1.6181  1.9136
 4767SOL    HW225764   1.865   1.885  16.029 -0.9908  0.4437 -0.9725
 4768SOL     OW25765   0.117   4.014   5.303  0.6685  0.0162 -0.3235
 4768SOL    HW125766   0.127   4.083   5.238 -0.8230 -2.0943 -2.7738
 4768SOL    HW225767   0.150   4.057   5.382 -1.0057  1.5371 -0.4672
 4769SOL     OW25768   3.611   0.203   3.260 -0.1706  0.0396 -0.2188
 4769SOL    HW125769   3.636   0.127   3.208 -0.8252 -0.4012  0.1132
 4769SOL    HW225770   3.648   0.185   3.346 -1.1166  4.1090  1.0413
 4770SOL     OW25771   0.825   3.504  16.940  0.0485 -0.2206  0.0621
 4770SOL    HW125772   0.859   3.527  16.854 -0.0625 -0.0614  0.0610
 4770SOL    HW225773   0.737   3.534  16.917  0.4438  1.5616  0.8870
 4771SOL     OW25774   2.587   3.026   5.233  0.1732 -0.0838  0.3868
 4771SOL    HW125775   2.680   3.017   5.211 -0.7506 -1.2833 -3.0258
 4771SOL    HW225776   2.556   3.049   5.145 -1.4012  0.0739  0.9930
 4772SOL     OW25777   2.517   1.950   4.072 -0.5851  0.1152  0.0853
 4772SOL    HW125778   2.495   1.857   4.063 -1.4498  0.3044  0.3309
 4772SOL    HW225779   2.440   2.000   4.045 -1.0599 -1.2493 -1.1220
 4773SOL     OW25780   1.776   2.882  13.203  0.2517  0.4025  0.3886
 4773SOL    HW125781   1.783   2.788  13.183 -1.0244  0.3149  0.3898
 4773SOL    HW225782   1.863   2.909  13.233  0.4505  0.9680 -0.6870
 4774SOL     OW25783   2.325   2.144   3.249 -0.9597 -0.8320  0.4699
 4774SOL    HW125784   2.374   2.133   3.330 -0.5616 -0.8394  0.2284
 4774SOL    HW225785   2.358   2.227   3.215 -0.6910 -1.8377 -1.6921
 4775SOL     OW25786   2.214   0.779   2.793 -0.2486 -0.4657 -0.6855
 4775SOL    HW125787   2.266   0.740   2.723  1.5160  1.2449 -0.3240
 4775SOL    HW225788   2.276   0.843   2.827  0.8239 -1.4585 -0.7572
 4776SOL     OW25789   2.294   2.644   5.581  0.4011  0.4001  0.1160
 4776SOL    HW125790   2.262   2.563   5.621  1.9954 -1.5388 -2.4797
 4776SOL    HW225791   2.278   2.697   5.658  1.5306  0.4864  0.2842
 4777SOL     OW25792   0.851   4.302   4.330  0.0993 -0.3740 -0.3484
 4777SOL    HW125793   0.796   4.301   4.408  1.7343 -1.4068  0.7722
 4777SOL    HW225794   0.842   4.396   4.314 -0.7251 -0.5861 -1.1799
 4778SOL     OW25795   4.356   0.761  11.930 -0.0817 -0.2873  0.7060
 4778SOL    HW125796   4.442   0.736  11.966  0.5012  0.9672  0.1981
 4778SOL    HW225797   4.322   0.793  12.014  2.0015  0.8903  1.1378
 4779SOL     OW25798   1.514   2.328   4.154 -0.2609 -0.0168 -0.1743
 4779SOL    HW125799   1.492   2.385   4.080 -1.3641  2.5366  2.1118
 4779SOL    HW225800   1.582   2.273   4.114 -0.1098  0.3178 -0.3796
 4780SOL     OW25801   0.321   3.642   7.522 -0.4177  0.1958  0.4588
 4780SOL    HW125802   0.279   3.671   7.603 -1.5551 -1.7339  0.5831
 4780SOL    HW225803   0.259   3.608   7.457  1.3915 -2.2102 -0.0361
 4781SOL     OW25804   3.532   2.010   7.939 -0.0373 -0.6252  0.8798
 4781SOL    HW125805   3.453   1.961   7.963 -0.3612 -2.0357 -3.0682
 4781SOL    HW225806   3.570   1.933   7.897 -1.4950 -1.5337  1.1872
 4782SOL     OW25807   1.557   1.140   8.655 -0.3939 -0.6124 -0.3748
 4782SOL    HW125808   1.644   1.162   8.621 -0.1216 -0.6212  0.3031
 4782SOL    HW225809   1.527   1.231   8.658 -2.5942 -1.2726 -2.4619
 4783SOL     OW25810   0.176   3.875   5.937  0.9188 -0.3170 -0.1057
 4783SOL    HW125811   0.267   3.889   5.964  1.1294  1.4968 -1.7746
 4783SOL    HW225812   0.158   3.798   5.991  1.4223  0.0284  0.5550
 4784SOL     OW25813   3.172   2.754   2.140 -0.0729 -0.1427  0.0230
 4784SOL    HW125814   3.230   2.790   2.073  0.1499  1.7239  1.2205
 4784SOL    HW225815   3.208   2.794   2.219 -0.0821 -0.0084 -0.0393
 4785SOL     OW25816   4.594   3.127  17.545  0.2785 -0.2595  0.0305
 4785SOL    HW125817   4.638   3.207  17.573  0.0929 -0.2488  0.2835
 4785SOL    HW225818   4.509   3.149  17.582 -0.4282  0.6617 -2.0849
 4786SOL     OW25819   4.506   0.997   9.708  0.2015 -0.4443  0.5693
 4786SOL    HW125820   4.583   0.974   9.760 -0.4393 -3.1018  0.3797
 4786SOL    HW225821   4.461   0.912   9.704  1.8963 -1.2520 -1.9006
 4787SOL     OW25822   2.193   4.040   2.455 -0.2801  0.0813  0.3549
 4787SOL    HW125823   2.164   3.978   2.522  1.5173 -2.5650 -1.2900
 4787SOL    HW225824   2.157   4.123   2.486  1.2508  0.4349  1.1930
 4788SOL     OW25825   2.790   2.158  14.583 -0.8008  0.1250  0.5231
 4788SOL    HW125826   2.695   2.159  14.593 -0.9277 -0.8497 -0.5679
 4788SOL    HW225827   2.800   2.082  14.525 -1.9490  1.3287 -1.2528
 4789SOL     OW25828   1.606   4.080   6.584  0.0615  0.6810  0.1772
 4789SOL    HW125829   1.533   4.040   6.536  1.7898 -2.3959  0.1412
 4789SOL    HW225830   1.584   4.172   6.594  0.3906  0.5700  1.8366
 4790SOL     OW25831   0.939   0.157   9.989 -0.1624  0.1569 -0.0275
 4790SOL    HW125832   1.016   0.207   9.961  1.7051 -2.0010  1.2741
 4790SOL    HW225833   0.866   0.215   9.968  0.2925  0.6764 -0.1896
 4791SOL     OW25834   0.023   3.920   0.028  0.2799 -1.2105 -0.1756
 4791SOL    HW125835   4.663   3.901   0.077  0.4492  0.5762  0.7604
 4791SOL    HW225836   4.720   3.984  17.642  1.9408  0.5196  0.8990
 4792SOL     OW25837   3.145   3.004  11.592  0.0570  0.0325  0.0664
 4792SOL    HW125838   3.084   2.931  11.604  0.2092 -0.2899 -1.0755
 4792SOL    HW225839   3.216   2.953  11.551  0.4616  1.3034 -0.8130
 4793SOL     OW25840   0.102   2.190   4.845 -0.2045  0.0152  0.4628
 4793SOL    HW125841   0.025   2.145   4.879 -0.6034  0.0027 -0.4463
 4793SOL    HW225842   0.071   2.277   4.822 -0.3799  0.1041  1.0328
 4794SOL     OW25843   1.237   3.214   8.320 -0.0010 -0.1297 -0.3505
 4794SOL    HW125844   1.261   3.263   8.399 -0.6960  1.6693 -1.2531
 4794SOL    HW225845   1.322   3.174   8.302  0.3523  0.8526 -0.8779
 4795SOL     OW25846   1.863   0.368   3.917  0.3268 -0.0993 -0.0931
 4795SOL    HW125847   1.923   0.307   3.875 -0.3240  0.6032 -2.0259
 4795SOL    HW225848   1.861   0.438   3.852 -0.8376 -0.9132 -0.9103
 4796SOL     OW25849   4.214   0.830   5.437 -0.4591  0.0261 -0.6154
 4796SOL    HW125850   4.219   0.789   5.524  0.2676 -2.5193 -1.8417
 4796SOL    HW225851   4.272   0.905   5.444  2.6462 -2.4623  0.1860
 4797SOL     OW25852   0.947   2.314   7.927  0.4540 -0.2681  0.1187
 4797SOL    HW125853   0.852   2.322   7.917  0.1555 -2.2709  1.4309
 4797SOL    HW225854   0.964   2.407   7.909 -0.5327 -0.6807 -2.8896
 4798SOL     OW25855   2.888   4.118   7.648 -0.6822 -0.4119  0.5399
 4798SOL    HW125856   2.976   4.121   7.610 -1.4139 -1.8826 -1.3167
 4798SOL    HW225857   2.858   4.027   7.636 -0.6695 -0.4714  0.9735
 4799SOL     OW25858   2.893   2.848   4.539  0.5334  0.0294  0.3026
 4799SOL    HW125859   2.809   2.808   4.560  1.0025 -0.4052  1.3281
 4799SOL    HW225860   2.860   2.906   4.470  1.8999  0.8585  0.3539
 4800SOL     OW25861   1.901   0.311   1.401  0.3626 -0.2975  0.1280
 4800SOL    HW125862   1.923   0.380   1.463 -0.9390  2.0686 -2.0398
 4800SOL    HW225863   1.905   0.368   1.324 -3.4323  0.6322  0.5896
 4801SOL     OW25864   1.546   0.254   5.176  0.1870  0.0883 -0.0747
 4801SOL    HW125865   1.596   0.174   5.194 -0.7088 -0.5503 -0.4031
 4801SOL    HW225866   1.495   0.219   5.103  0.1730  1.4265 -0.6964
 4802SOL     OW25867   3.772   3.482   8.133  0.0816  0.3708 -0.1017
 4802SOL    HW125868   3.818   3.547   8.187  0.5967  1.1806 -1.5096
 4802SOL    HW225869   3.685   3.487   8.172 -0.4109 -0.0763 -1.1453
 4803SOL     OW25870   1.613   3.296   6.164 -0.3448  0.4877  0.2863
 4803SOL    HW125871   1.548   3.366   6.156  0.6100  1.5468  1.8391
 4803SOL    HW225872   1.566   3.224   6.208 -1.5508  2.7724  2.7616
 4804SOL     OW25873   3.257   1.320   5.481 -0.2729  0.1194  0.1506
 4804SOL    HW125874   3.318   1.259   5.521 -2.0674 -0.3325  2.1918
 4804SOL    HW225875   3.313   1.339   5.406 -1.2444  2.3497 -0.0090
 4805SOL     OW25876   2.533   4.620   6.737 -0.2844  0.2171  0.5069
 4805SOL    HW125877   2.498   4.661   6.817 -2.0191  0.4865 -0.3955
 4805SOL    HW225878   2.543   4.531   6.770  0.0039 -0.5777 -1.7844
 4806SOL     OW25879   4.002   1.452   1.689 -0.2670 -0.7772 -0.4188
 4806SOL    HW125880   3.949   1.516   1.643 -0.6066 -0.2470  0.7114
 4806SOL    HW225881   3.996   1.371   1.639 -0.8529  0.2895 -2.0596
 4807SOL     OW25882   4.346   0.755   6.540 -0.5943 -0.2452 -0.3243
 4807SOL    HW125883   4.337   0.850   6.547 -0.2108 -0.4087  2.3068
 4807SOL    HW225884   4.261   0.714   6.555 -0.5543  0.1387  0.9730
 4808SOL     OW25885   4.220   3.229  17.598  0.2704  0.1279  0.3514
 4808SOL    HW125886   4.182   3.253   0.001 -0.2730 -0.1388  0.1802
 4808SOL    HW225887   4.145   3.230  17.539  0.1602 -1.1618  0.4698
 4809SOL     OW25888   0.094   0.823   6.298 -0.1545  0.4947  0.0952
 4809SOL    HW125889   0.101   0.733   6.265  0.8438  0.2072  1.0665
 4809SOL    HW225890   0.076   0.871   6.218  0.9751 -2.3846 -1.8706
 4810SOL     OW25891   2.890   3.532   1.446  0.0023 -0.0185 -0.0364
 4810SOL    HW125892   2.905   3.589   1.370  1.7091 -0.0765  0.2609
 4810SOL    HW225893   2.981   3.527   1.475 -0.8841 -0.1485  2.6782
 4811SOL     OW25894   0.733   1.562   7.069 -0.7999  0.4473 -0.0782
 4811SOL    HW125895   0.821   1.575   7.103 -0.5771  3.7923 -1.9482
 4811SOL    HW225896   0.703   1.488   7.122  1.6597  1.1353  2.2767
 4812SOL     OW25897   3.333   2.100   3.989 -0.3807 -0.2871 -0.5044
 4812SOL    HW125898   3.346   2.188   3.952  0.3022 -0.4813 -0.7243
 4812SOL    HW225899   3.423   2.084   4.018  0.3241  0.7810 -2.0744
 4813SOL     OW25900   3.222   2.434   4.289 -0.4838 -0.1728  0.6229
 4813SOL    HW125901   3.191   2.443   4.199  2.1643  1.8617 -0.0962
 4813SOL    HW225902   3.305   2.481   4.284 -0.4947 -0.3497 -1.3416
 4814SOL     OW25903   1.005   1.954  13.458 -0.4894  0.3221 -0.6962
 4814SOL    HW125904   0.949   1.971  13.382 -1.7656 -1.1601 -0.0895
 4814SOL    HW225905   0.967   1.882  13.509 -1.4112  0.9745 -0.4724
 4815SOL     OW25906   1.975   2.639   0.913 -0.8432  0.4941 -0.0067
 4815SOL    HW125907   1.985   2.595   0.828  1.7985 -0.7611  0.9300
 4815SOL    HW225908   1.914   2.579   0.956 -0.4963 -0.4424 -0.8094
 4816SOL     OW25909   2.173   3.534   2.970 -0.4919  0.0982  0.5631
 4816SOL    HW125910   2.129   3.495   2.895  1.8481  2.4256 -2.0477
 4816SOL    HW225911   2.262   3.505   2.951 -1.2681 -0.5251 -2.0904
 4817SOL     OW25912   4.577   4.545  13.829 -0.6051  0.9616 -0.1601
 4817SOL    HW125913   4.510   4.477  13.821 -1.7893  1.8305  2.1953
 4817SOL    HW225914   4.619   4.527  13.913 -0.2421  1.8953 -0.1312
 4818SOL     OW25915   1.837   1.165   8.911 -0.1818 -0.3334 -0.3322
 4818SOL    HW125916   1.827   1.197   8.821 -1.4568  0.1917 -0.0037
 4818SOL    HW225917   1.836   1.073   8.882  0.0434 -0.6607  0.6980
 4819SOL     OW25918   4.562   0.347   0.250  0.2630  0.2649  0.7392
 4819SOL    HW125919   4.595   0.435   0.267  1.4096  0.2280 -1.2684
 4819SOL    HW225920   4.645   0.301   0.235 -0.6262 -1.0318 -0.1647
 4820SOL     OW25921   1.428   3.619  14.217  0.4843 -0.0757 -0.3570
 4820SOL    HW125922   1.475   3.692  14.258 -0.7982  1.1650 -1.0884
 4820SOL    HW225923   1.363   3.608  14.286  2.2298  0.7256  1.4449
 4821SOL     OW25924   2.915   2.043   3.360  0.1855  0.4099  0.3563
 4821SOL    HW125925   2.901   1.986   3.436 -0.9522  1.7330  1.1260
 4821SOL    HW225926   2.936   2.126   3.403  3.1485 -0.1082 -0.0776
 4822SOL     OW25927   4.422   4.489   6.449  0.1488  0.0476  0.0042
 4822SOL    HW125928   4.431   4.456   6.538 -0.9925  1.4764  0.6633
 4822SOL    HW225929   4.515   4.481   6.427 -0.5194  0.1521 -2.9428
 4823SOL     OW25930   4.233   1.387   2.723  0.8512  0.0048 -0.1778
 4823SOL    HW125931   4.220   1.296   2.696 -0.0690  0.1530 -0.2286
 4823SOL    HW225932   4.196   1.385   2.811 -0.1745 -0.0258 -0.6085
 4824SOL     OW25933   3.053   4.097   5.988 -0.0581 -0.4321  0.4346
 4824SOL    HW125934   3.009   4.016   5.962  1.2063 -1.4433  1.4289
 4824SOL    HW225935   3.003   4.138   6.058 -0.0287  1.5305 -0.7003
 4825SOL     OW25936   2.714   1.502   5.412  0.1048  0.0069 -0.2683
 4825SOL    HW125937   2.766   1.582   5.418 -0.1355  0.2161 -1.0477
 4825SOL    HW225938   2.656   1.512   5.488 -1.6173  0.1557 -1.5841
 4826SOL     OW25939   1.909   0.914   7.473 -0.4816 -0.2452 -0.1206
 4826SOL    HW125940   1.816   0.907   7.495 -0.6392 -0.4479 -0.8356
 4826SOL    HW225941   1.918   1.005   7.501 -0.2767 -0.4247  0.3970
 4827SOL     OW25942   1.320   4.388  12.659  0.7712 -0.1103  0.3485
 4827SOL    HW125943   1.381   4.322  12.690 -1.7353 -0.9177  3.5376
 4827SOL    HW225944   1.380   4.455  12.626 -0.3300  0.3716 -0.7043
 4828SOL     OW25945   3.385   3.809   0.357  0.2952  0.1959 -0.1849
 4828SOL    HW125946   3.456   3.873   0.356 -0.1095  0.7187  3.1666
 4828SOL    HW225947   3.394   3.768   0.271 -1.8402 -0.5128 -0.0830
 4829SOL     OW25948   2.640   4.702   7.914 -0.7345 -0.2149 -0.7086
 4829SOL    HW125949   2.663   4.609   7.908  0.6067 -0.0151  1.3773
 4829SOL    HW225950   2.565   4.689   7.972 -1.0842 -2.0188 -1.5524
 4830SOL     OW25951   2.111   0.360   5.983  0.4275 -0.0711 -0.4903
 4830SOL    HW125952   2.038   0.399   5.935 -0.7625 -0.1504  1.2370
 4830SOL    HW225953   2.189   0.375   5.929  2.0893 -0.7447  1.7401
 4831SOL     OW25954   3.061   1.797  10.881  0.1600  0.9623  0.2805
 4831SOL    HW125955   3.140   1.843  10.908  0.3277  0.5228  0.5428
 4831SOL    HW225956   3.055   1.830  10.791 -2.0634 -2.5453 -0.8888
 4832SOL     OW25957   1.637   0.694  17.300  0.4707 -0.4666  0.2230
 4832SOL    HW125958   1.621   0.602  17.279 -0.1433 -0.8054  2.0953
 4832SOL    HW225959   1.673   0.683  17.389 -0.6917 -2.7666  0.4130
 4833SOL     OW25960   3.709   1.282   7.908 -0.0066 -0.4838  0.3295
 4833SOL    HW125961   3.785   1.269   7.851 -0.5477  2.2729 -1.0216
 4833SOL    HW225962   3.735   1.365   7.948  2.4515 -1.9112  1.6680
 4834SOL     OW25963   0.926   4.208   8.625  0.1007  0.5257 -0.6142
 4834SOL    HW125964   0.990   4.214   8.696  0.3900  1.6423 -0.9705
 4834SOL    HW225965   0.945   4.291   8.581 -1.1732  0.9131 -0.4630
 4835SOL     OW25966   2.807   3.297  15.971 -0.2860 -0.5516 -0.3026
 4835SOL    HW125967   2.870   3.290  15.900  0.6790 -2.3262  0.7296
 4835SOL    HW225968   2.803   3.205  15.997 -0.4332  0.2735  2.5991
 4836SOL     OW25969   1.902   3.041   4.578 -0.1388  0.3781 -0.4473
 4836SOL    HW125970   1.874   3.102   4.646 -1.4391 -0.8936  0.1628
 4836SOL    HW225971   1.983   3.001   4.609 -1.2516 -0.1174  1.8007
 4837SOL     OW25972   4.334   0.843   5.796 -0.0203  0.6714 -0.1797
 4837SOL    HW125973   4.403   0.839   5.862 -0.1581 -4.1462 -0.3137
 4837SOL    HW225974   4.287   0.761   5.813 -0.3159  0.7411 -0.6565
 4838SOL     OW25975   1.137   3.039   4.693 -0.6507 -0.2384 -0.4023
 4838SOL    HW125976   1.177   3.119   4.657 -0.4868  0.3917  1.1798
 4838SOL    HW225977   1.219   3.014   4.736  0.2038 -0.3626 -2.0846
 4839SOL     OW25978   0.154   1.629  12.251 -0.5767 -0.5019 -0.2633
 4839SOL    HW125979   0.094   1.600  12.182  0.2898 -1.2150 -0.7277
 4839SOL    HW225980   0.156   1.722  12.230 -0.9725 -0.1864  1.1413
 4840SOL     OW25981   1.677   1.824   8.836  0.1428 -0.3988  0.2068
 4840SOL    HW125982   1.728   1.888   8.886  0.3147 -1.4000  1.3092
 4840SOL    HW225983   1.659   1.757   8.903  1.0316  0.2269  1.0729
 4841SOL     OW25984   1.731   1.857   3.005 -0.6768  0.3438  0.6409
 4841SOL    HW125985   1.807   1.915   2.999  0.8773 -1.6205  1.2814
 4841SOL    HW225986   1.707   1.867   3.098  0.9409  2.4549  0.8091
 4842SOL     OW25987   3.167   4.347   2.038 -0.2625 -0.0710 -0.2868
 4842SOL    HW125988   3.240   4.285   2.035 -1.6322 -1.6212 -1.1982
 4842SOL    HW225989   3.219   4.423   2.011 -0.5371  0.8401  1.7369
 4843SOL     OW25990   1.974   2.468   6.534  0.1011 -0.0134  0.3323
 4843SOL    HW125991   1.929   2.463   6.449  0.9673  0.6710 -0.1597
 4843SOL    HW225992   1.969   2.381   6.575  0.8346 -0.1964  0.0291
 4844SOL     OW25993   4.308   2.076   6.686  0.1985 -0.0398  0.0260
 4844SOL    HW125994   4.313   2.139   6.758 -2.0885  0.5029 -0.2913
 4844SOL    HW225995   4.399   2.048   6.675  0.2843  0.5841 -0.8336
 4845SOL     OW25996   0.449   1.769   1.379  0.0448  0.4937  0.1316
 4845SOL    HW125997   0.493   1.691   1.346 -2.2592  0.4836 -2.9828
 4845SOL    HW225998   0.388   1.779   1.306  0.2028  2.6139  0.2767
 4846SOL     OW25999   2.970   4.704   6.994  0.0139  0.4440  0.8536
 4846SOL    HW126000   2.983   4.643   7.067 -1.0370  0.4215  1.0291
 4846SOL    HW226001   2.875   0.000   6.999 -0.0726  0.6780 -1.6320
 4847SOL     OW26002   0.118   2.843   6.190  0.0183  0.3233 -0.4899
 4847SOL    HW126003   0.203   2.830   6.232 -1.1034  2.0314  2.3175
 4847SOL    HW226004   0.135   2.808   6.103  1.5632 -1.6629  0.6336
 4848SOL     OW26005   2.949   3.177   2.349  0.2169  0.3735  0.7580
 4848SOL    HW126006   2.955   3.105   2.286 -1.0678  0.0278  1.0244
 4848SOL    HW226007   2.919   3.244   2.289  2.7297 -0.7993 -1.8126
 4849SOL     OW26008   0.648   2.174  10.467 -0.4167  0.2744  0.0439
 4849SOL    HW126009   0.725   2.135  10.508  0.4787  1.2282 -0.7337
 4849SOL    HW226010   0.692   2.195  10.384 -0.0270  0.8405  0.3957
 4850SOL     OW26011   4.660   1.552   3.499 -0.1504  0.5216 -0.4155
 4850SOL    HW126012   4.588   1.538   3.438  0.7975 -2.1399 -0.9515
 4850SOL    HW226013   0.005   1.493   3.459 -0.5025 -1.4981  2.0497
 4851SOL     OW26014   1.663   1.345   9.478  0.0570  0.9212  0.2834
 4851SOL    HW126015   1.696   1.420   9.428  2.6242  0.1702  0.8485
 4851SOL    HW226016   1.740   1.289   9.493 -2.8924 -3.3009 -0.3578
 4852SOL     OW26017   1.313   1.737   3.180  0.5085  0.4051  0.3432
 4852SOL    HW126018   1.402   1.701   3.177  0.0753 -0.6316 -0.2262
 4852SOL    HW226019   1.291   1.691   3.261  0.9002 -1.2960 -0.4980
 4853SOL     OW26020   3.360   0.189   5.157  0.2266 -0.3547 -0.0002
 4853SOL    HW126021   3.361   0.260   5.092  2.7858 -1.0149 -0.6816
 4853SOL    HW226022   3.278   0.213   5.201  0.8122 -1.6293  1.7968
 4854SOL     OW26023   2.256   2.716   8.241 -0.1051 -0.6516  0.0400
 4854SOL    HW126024   2.279   2.807   8.257  0.5581 -0.5573 -1.4224
 4854SOL    HW226025   2.341   2.672   8.235  0.2039 -0.0467  0.0057
 4855SOL     OW26026   2.744   4.039  15.988  0.3172  1.0070 -0.8986
 4855SOL    HW126027   2.654   4.021  15.960  0.6350  0.8088 -1.7976
 4855SOL    HW226028   2.759   4.134  15.985 -1.2521  1.2200 -1.7413
 4856SOL     OW26029   2.194   0.847  11.720  0.0694  0.1321 -0.5095
 4856SOL    HW126030   2.208   0.888  11.805  1.1884  0.2126 -0.7333
 4856SOL    HW226031   2.256   0.775  11.714 -0.2569 -0.2878  1.4253
 4857SOL     OW26032   0.610   2.938  11.552 -0.6734 -1.1672  0.2966
 4857SOL    HW126033   0.525   2.976  11.571  0.8952  1.5394  1.8893
 4857SOL    HW226034   0.677   3.007  11.560 -2.2396  0.2052  1.4679
 4858SOL     OW26035   2.526   3.287   7.133  0.1038 -0.1577 -0.2989
 4858SOL    HW126036   2.574   3.368   7.115 -0.6186  0.3977  0.2633
 4858SOL    HW226037   2.479   3.276   7.051  0.9483  3.8970 -1.3597
 4859SOL     OW26038   0.389   4.624  14.627  0.1401  0.3051  0.3589
 4859SOL    HW126039   0.373   4.661  14.541 -3.0245  0.3261  0.9693
 4859SOL    HW226040   0.402   4.702  14.682 -0.3499  0.9163 -0.3916
 4860SOL     OW26041   0.200   2.276   3.319  0.2040  0.7455 -0.0774
 4860SOL    HW126042   0.165   2.271   3.230 -2.0580  1.2319  0.7998
 4860SOL    HW226043   0.281   2.323   3.296  0.2050  1.8556  2.2843
 4861SOL     OW26044   0.888   4.344   6.474 -0.3722  0.6856 -0.3752
 4861SOL    HW126045   0.906   4.429   6.514  1.4939 -0.3379  0.9172
 4861SOL    HW226046   0.886   4.297   6.557  0.4342  2.5068  0.6780
 4862SOL     OW26047   2.806   3.341  11.348  0.1817  0.0184  0.0052
 4862SOL    HW126048   2.727   3.327  11.297  1.0849 -0.8108 -1.1821
 4862SOL    HW226049   2.848   3.255  11.349 -0.3918 -0.2368  1.8435
 4863SOL     OW26050   3.218   4.700   5.641 -0.2985  0.1074 -0.1963
 4863SOL    HW126051   3.189   4.613   5.665  1.6429  0.1169  2.1389
 4863SOL    HW226052   3.218   4.711   5.545 -0.2023 -1.1330 -0.3355
 4864SOL     OW26053   0.312   1.628  10.957  0.2041 -0.4966  0.1983
 4864SOL    HW126054   0.400   1.591  10.963  0.4239 -0.3817 -2.2050
 4864SOL    HW226055   0.310   1.644  10.862 -1.5503  0.8186  0.4753
 4865SOL     OW26056   4.625   2.734   8.658 -0.1810 -0.1537  0.1861
 4865SOL    HW126057   4.625   2.823   8.624 -0.7967 -0.7914 -1.5140
 4865SOL    HW226058   4.716   2.708   8.672  0.4336  1.3974 -1.0226
 4866SOL     OW26059   4.518   4.221   3.634 -0.7632 -0.4696 -0.4002
 4866SOL    HW126060   4.582   4.240   3.566 -0.4326  1.3360  0.4229
 4866SOL    HW226061   4.472   4.154   3.583 -3.0047  0.4108  0.4728
 4867SOL     OW26062   2.351   3.351  15.759 -0.2759  0.3057 -0.2175
 4867SOL    HW126063   2.273   3.303  15.732  0.7971 -0.5037 -1.8707
 4867SOL    HW226064   2.416   3.328  15.693 -1.0721  2.1065 -1.6520
 4868SOL     OW26065   3.537   2.297   7.341 -0.0605  0.1261 -0.3457
 4868SOL    HW126066   3.632   2.307   7.331 -0.1063 -1.3460 -2.1133
 4868SOL    HW226067   3.508   2.374   7.391  0.8842  1.5396 -1.9627
 4869SOL     OW26068   2.534   2.116   8.304  0.0743 -0.4274 -0.0828
 4869SOL    HW126069   2.582   2.073   8.375  0.7594  1.2705  0.4727
 4869SOL    HW226070   2.457   2.059   8.291 -0.3365 -0.0372  0.6370
 4870SOL     OW26071   3.783   3.253   8.439  0.0029 -0.0340 -0.4740
 4870SOL    HW126072   3.790   3.346   8.422  0.7517  0.4473  2.3945
 4870SOL    HW226073   3.872   3.221   8.453  0.1445  0.7782  0.4771
 4871SOL     OW26074   0.674   1.183   5.840 -0.3944 -0.5485 -0.6325
 4871SOL    HW126075   0.753   1.168   5.788 -0.2075 -1.9337  0.0763
 4871SOL    HW226076   0.610   1.221   5.779  0.9632  1.6172 -0.7003
 4872SOL     OW26077   1.050   3.635   7.706 -0.3913 -0.1878 -0.2116
 4872SOL    HW126078   1.004   3.555   7.681  0.8350 -0.4435 -1.6204
 4872SOL    HW226079   1.096   3.604   7.784  0.0076  2.0211  0.4419
 4873SOL     OW26080   3.040   1.137   7.094  1.0478  0.0453 -0.4108
 4873SOL    HW126081   3.000   1.182   7.019  0.8748 -0.2218 -0.4758
 4873SOL    HW226082   2.966   1.083   7.121 -0.4550  1.6718 -1.2658
 4874SOL     OW26083   4.098   3.769   6.986 -0.3045  0.4412 -0.3012
 4874SOL    HW126084   4.042   3.787   7.061  0.0216 -0.4459  0.1546
 4874SOL    HW226085   4.101   3.674   6.997 -2.0835  0.5449  1.1244
 4875SOL     OW26086   0.958   3.601  10.387  0.3402 -0.0863  0.3858
 4875SOL    HW126087   1.025   3.533  10.386  0.2144 -0.2122  0.5761
 4875SOL    HW226088   0.972   3.644  10.471  0.2924  0.2636  0.2181
 4876SOL     OW26089   0.312   2.005   5.941  0.4719 -0.5815  0.3340
 4876SOL    HW126090   0.241   1.974   5.998  0.8340  0.2121  1.2230
 4876SOL    HW226091   0.374   2.035   6.007  0.1284  0.6194  0.1243
 4877SOL     OW26092   3.376   1.931   7.303  0.1622  0.2803  0.4664
 4877SOL    HW126093   3.449   1.902   7.357 -0.0980 -1.7776 -0.2658
 4877SOL    HW226094   3.398   2.024   7.302  0.8800  0.1089  0.5747
 4878SOL     OW26095   3.375   1.092  14.273  0.1785  0.2306 -0.0717
 4878SOL    HW126096   3.446   1.084  14.337  0.3159 -1.0882 -0.4052
 4878SOL    HW226097   3.374   0.998  14.256  0.7849 -0.2134  2.2710
 4879SOL     OW26098   1.998   4.639   6.172 -0.3063  0.7851  0.2883
 4879SOL    HW126099   2.080   4.658   6.218 -0.6213  0.4934  0.9665
 4879SOL    HW226100   2.022   4.597   6.089 -0.7396  0.6138  0.2515
 4880SOL     OW26101   0.812   4.664   5.542  0.0136  0.2797  0.0394
 4880SOL    HW126102   0.763   4.637   5.465 -0.3942  0.2890  0.2981
 4880SOL    HW226103   0.734   4.677   5.596 -0.3329 -1.7145 -0.0004
 4881SOL     OW26104   3.522   0.777   1.128 -0.0517  0.6960  0.2664
 4881SOL    HW126105   3.448   0.784   1.069 -0.5320  2.2103  1.0422
 4881SOL    HW226106   3.489   0.828   1.202  0.6953  1.0261  0.3745
 4882SOL     OW26107   2.228   0.200   5.329  0.2762  0.1604  0.6151
 4882SOL    HW126108   2.134   0.220   5.322 -0.1275 -1.9695 -0.3390
 4882SOL    HW226109   2.223   0.104   5.322  2.1958  0.1097 -0.1087
 4883SOL     OW26110   2.786   0.501   7.752  0.2187  0.1126 -0.1882
 4883SOL    HW126111   2.705   0.547   7.728  1.1777  1.6355 -0.4735
 4883SOL    HW226112   2.750   0.416   7.726 -2.1931  1.2552 -0.6620
 4884SOL     OW26113   2.638   2.260  12.382 -0.4892 -0.4749 -0.0922
 4884SOL    HW126114   2.632   2.346  12.340 -1.1287 -0.1537  0.6538
 4884SOL    HW226115   2.603   2.199  12.317 -0.0434  0.1293 -0.9018
 4885SOL     OW26116   4.647   2.665   8.336 -0.2655 -0.6774 -0.0557
 4885SOL    HW126117   4.584   2.700   8.399 -0.9421 -2.6020  0.3440
 4885SOL    HW226118   4.715   2.732   8.341  0.0786 -1.0640  0.3874
 4886SOL     OW26119   0.130   3.336  10.362 -0.2198 -0.4896 -0.1283
 4886SOL    HW126120   0.163   3.419  10.397 -2.0727 -0.6682  2.0144
 4886SOL    HW226121   0.153   3.332  10.269  0.5685  0.2648  0.0409
 4887SOL     OW26122   4.481   4.379  12.114  0.3387 -0.1731  0.5330
 4887SOL    HW126123   4.445   4.353  12.198 -0.8358  1.1530  0.4384
 4887SOL    HW226124   4.523   4.463  12.134  0.0375 -0.1337  0.9794
 4888SOL     OW26125   4.143   2.328   1.444  0.0156 -0.3437  0.4390
 4888SOL    HW126126   4.136   2.243   1.489  0.1030 -0.2633  0.6042
 4888SOL    HW226127   4.070   2.371   1.488 -0.3223 -2.6791  2.1725
 4889SOL     OW26128   2.901   1.927  12.955  0.0742 -0.1292 -0.5713
 4889SOL    HW126129   2.951   1.967  12.884  0.5190 -1.0084 -0.7528
 4889SOL    HW226130   2.875   2.006  13.003  2.5666  0.5041 -0.2518
 4890SOL     OW26131   0.502   1.495  10.304  0.0875  0.1767  0.3870
 4890SOL    HW126132   0.408   1.497  10.321  0.3850  2.2288  1.8136
 4890SOL    HW226133   0.544   1.444  10.374 -0.9767  0.3573  1.1554
 4891SOL     OW26134   4.194   2.603   5.176 -0.0258  0.4612  0.0832
 4891SOL    HW126135   4.256   2.567   5.113 -0.4055  0.9161 -0.5627
 4891SOL    HW226136   4.201   2.697   5.156  2.5298  0.3529  0.5283
 4892SOL     OW26137   2.585   2.848  10.816  0.4568  0.2748 -0.5106
 4892SOL    HW126138   2.565   2.854  10.722 -0.2935 -2.7656 -0.5406
 4892SOL    HW226139   2.669   2.893  10.826 -0.3189  1.4694  0.5250
 4893SOL     OW26140   4.451   2.714   5.795  0.1241 -0.2100  0.4375
 4893SOL    HW126141   4.541   2.710   5.828  0.2194  0.7908  0.3151
 4893SOL    HW226142   4.420   2.633   5.834 -0.3550 -0.1217  0.2437
 4894SOL     OW26143   1.501   4.571   7.845 -0.3093 -0.0126 -0.0694
 4894SOL    HW126144   1.410   4.545   7.846  0.1563 -1.5808  1.4100
 4894SOL    HW226145   1.533   4.541   7.760  0.8995 -0.4226  0.5320
 4895SOL     OW26146   4.691   3.001   8.123 -0.4780 -0.1020 -0.4674
 4895SOL    HW126147   4.658   3.004   8.033 -0.6309 -1.2389 -0.4566
 4895SOL    HW226148   4.616   3.031   8.174  0.3541 -0.2018  0.8381
 4896SOL     OW26149   4.362   0.913  12.389  0.1941  0.3381 -0.3139
 4896SOL    HW126150   4.341   0.992  12.439 -1.5773  1.5903 -3.0416
 4896SOL    HW226151   4.319   0.848  12.443  0.4949 -1.4053 -2.1953
 4897SOL     OW26152   2.711   1.459  16.794  0.0214 -0.0198  0.2053
 4897SOL    HW126153   2.782   1.506  16.838  0.5214  0.3443 -0.9872
 4897SOL    HW226154   2.666   1.537  16.762  1.6646  0.9681  0.3066
 4898SOL     OW26155   2.676   4.590   2.476 -0.2574 -0.9132  0.6375
 4898SOL    HW126156   2.755   4.554   2.434 -0.0841 -0.2447  0.3950
 4898SOL    HW226157   2.615   4.614   2.406 -2.3263 -0.6688  2.5476
 4899SOL     OW26158   0.042   0.760   7.284  0.5564  0.0693 -0.7046
 4899SOL    HW126159   0.002   0.736   7.367  0.3691 -2.5544 -1.5487
 4899SOL    HW226160   0.118   0.803   7.323  0.2994  0.4838 -0.6672
 4900SOL     OW26161   4.643   1.627   4.149  0.0206  0.0538  0.2628
 4900SOL    HW126162   4.717   1.660   4.099  1.1030  0.0032  1.8456
 4900SOL    HW226163   4.571   1.688   4.131 -0.8233 -0.0893  3.0821
 4901SOL     OW26164   0.049   2.647   6.926  0.1652  0.3988  0.5744
 4901SOL    HW126165   0.073   2.562   6.963 -1.3734 -0.2707  0.0719
 4901SOL    HW226166   0.066   2.708   6.997 -0.1115  0.2290  0.7866
 4902SOL     OW26167   3.400   1.812  14.130 -0.0639  0.1504 -0.2884
 4902SOL    HW126168   3.429   1.802  14.039 -0.7892  0.9412 -0.6121
 4902SOL    HW226169   3.307   1.824  14.109 -0.1188  0.4748  0.1307
 4903SOL     OW26170   3.150   2.225   8.066  0.0800 -0.2160  0.0425
 4903SOL    HW126171   3.080   2.222   8.132  1.2368 -0.7906  1.2463
 4903SOL    HW226172   3.221   2.255   8.122 -1.3878  3.0269  0.1840
 4904SOL     OW26173   3.722   0.549  14.536  0.0202 -0.2866  0.0613
 4904SOL    HW126174   3.761   0.532  14.450  3.2632  1.6355  1.1513
 4904SOL    HW226175   3.762   0.628  14.572  0.3113 -0.9247  1.1359
 4905SOL     OW26176   4.247   3.938   0.447 -0.2956  0.0583  0.5576
 4905SOL    HW126177   4.314   3.997   0.412 -1.3782 -0.2167 -1.9633
 4905SOL    HW226178   4.297   3.895   0.516  1.3922  0.8516 -0.1676
 4906SOL     OW26179   0.431   1.143   6.919  0.2331  0.1365 -0.0010
 4906SOL    HW126180   0.339   1.130   6.940  0.3604 -1.3064 -0.3879
 4906SOL    HW226181   0.432   1.238   6.934 -0.3522 -0.2554  2.4802
 4907SOL     OW26182   3.603   2.870   9.697  0.2392  0.2213  0.5642
 4907SOL    HW126183   3.554   2.796   9.733  1.0986 -0.3302  0.6198
 4907SOL    HW226184   3.658   2.837   9.626 -2.1741 -0.8257 -0.7952
 4908SOL     OW26185   1.944   2.534   5.323 -0.2856  0.1427 -0.1768
 4908SOL    HW126186   2.021   2.484   5.297 -0.1271  0.4453 -0.2777
 4908SOL    HW226187   1.919   2.548   5.231 -0.0534  0.7145 -0.1506
 4909SOL     OW26188   0.902   4.125   5.363 -0.7332  0.0821  0.8357
 4909SOL    HW126189   0.968   4.186   5.396 -1.1024  1.2874 -0.6402
 4909SOL    HW226190   0.955   4.092   5.290  1.4953  1.5913  1.7564
 4910SOL     OW26191   1.706   4.557  17.451  0.2373  0.2851 -0.1857
 4910SOL    HW126192   1.652   4.545  17.529  1.0293  0.7186  0.4294
 4910SOL    HW226193   1.664   4.497  17.390 -0.2285  0.5839 -0.1659
 4911SOL     OW26194   3.203   1.177   4.596 -0.1111  0.4011 -0.2797
 4911SOL    HW126195   3.121   1.161   4.641 -0.9440  0.0781 -1.9100
 4911SOL    HW226196   3.222   1.263   4.635  0.3014  0.2279 -0.1050
 4912SOL     OW26197   2.377   1.709  13.550 -0.5288  0.3528  0.0512
 4912SOL    HW126198   2.410   1.630  13.594  2.8438  0.9097 -1.4478
 4912SOL    HW226199   2.429   1.779  13.589 -1.0223  0.2490  0.8975
 4913SOL     OW26200   1.338   0.522   3.872  0.0506 -0.5245  0.6840
 4913SOL    HW126201   1.430   0.525   3.897  0.9359  0.3224 -2.6975
 4913SOL    HW226202   1.300   0.497   3.956  1.0013  4.1954  2.5392
 4914SOL     OW26203   3.147   2.467  10.229 -0.2173 -0.4542 -0.0356
 4914SOL    HW126204   3.232   2.455  10.187 -0.7645 -0.3233 -1.1718
 4914SOL    HW226205   3.165   2.531  10.298  2.2425 -1.4575  0.2429
 4915SOL     OW26206   0.520   2.536   7.516 -0.2842  0.2101 -0.5366
 4915SOL    HW126207   0.512   2.582   7.600  1.6200  2.4700 -1.5931
 4915SOL    HW226208   0.510   2.444   7.543 -0.4377  0.2568 -0.4289
 4916SOL     OW26209   1.684   3.572   6.548 -0.3508  0.0908 -0.1695
 4916SOL    HW126210   1.674   3.546   6.640  0.6164 -0.3206 -0.1797
 4916SOL    HW226211   1.708   3.665   6.555 -2.0870  0.5444 -0.1977
 4917SOL     OW26212   0.576   1.518   6.253  0.1433 -0.1878 -0.0010
 4917SOL    HW126213   0.576   1.514   6.158 -0.7583 -1.2118  0.0517
 4917SOL    HW226214   0.561   1.430   6.288 -0.8297  0.3524  0.9444
 4918SOL     OW26215   2.338   3.527   6.641 -0.2127 -0.7354 -0.4572
 4918SOL    HW126216   2.318   3.618   6.664  0.5488 -1.0064  1.3379
 4918SOL    HW226217   2.253   3.514   6.600 -0.2287  0.0384 -0.6685
 4919SOL     OW26218   0.530   1.627   4.900  0.2454 -0.2301  0.0768
 4919SOL    HW126219   0.449   1.582   4.877  0.3470 -0.6612  0.5577
 4919SOL    HW226220   0.576   1.549   4.933 -0.2009 -0.1723  0.8509
 4920SOL     OW26221   0.466   2.111   6.130  0.2595  0.1078  0.4509
 4920SOL    HW126222   0.560   2.125   6.115  0.3227  0.1603  0.8772
 4920SOL    HW226223   0.465   2.058   6.209 -1.8753  1.2972  1.2086
 4921SOL     OW26224   1.184   1.852   1.548  0.2314 -0.1938 -0.6982
 4921SOL    HW126225   1.091   1.871   1.559  0.5779  0.0982  1.6720
 4921SOL    HW226226   1.182   1.763   1.514  1.8835  0.8392 -3.5563
 4922SOL     OW26227   0.467   1.668   8.063 -0.0921  0.3629  0.1834
 4922SOL    HW126228   0.474   1.752   8.018 -0.6808  0.5201  0.3746
 4922SOL    HW226229   0.378   1.672   8.098 -0.1996  0.3263 -0.0834
 4923SOL     OW26230   3.933   3.051  11.310  0.6453  0.4427  0.7708
 4923SOL    HW126231   3.843   3.055  11.280  0.7434  1.4442  0.6106
 4923SOL    HW226232   3.909   3.024  11.398  2.4412 -0.7130  0.9284
 4924SOL     OW26233   0.257   1.314   7.241  0.8058 -0.1423 -0.0367
 4924SOL    HW126234   0.285   1.400   7.210  2.2095 -0.5662  0.0558
 4924SOL    HW226235   0.164   1.335   7.238  0.3804 -2.2660 -2.0778
 4925SOL     OW26236   4.457   0.266   4.804  0.2568 -0.1097 -0.0490
 4925SOL    HW126237   4.437   0.336   4.866 -0.0456  1.0147 -1.4126
 4925SOL    HW226238   4.376   0.259   4.753 -0.2613 -1.0157  0.9072
 4926SOL     OW26239   1.291   0.718  13.403  0.4675  0.5583  0.7520
 4926SOL    HW126240   1.276   0.750  13.492  4.8438  1.9449  1.0147
 4926SOL    HW226241   1.375   0.759  13.380 -0.4099  1.8589 -0.1264
 4927SOL     OW26242   1.161   1.642   7.812  0.0318 -0.0167 -0.0173
 4927SOL    HW126243   1.103   1.689   7.872 -3.2928  0.3367 -3.4855
 4927SOL    HW226244   1.099   1.595   7.756 -0.5331  1.0728 -0.3083
 4928SOL     OW26245   3.487   2.957   1.420 -0.2926 -0.3218 -0.1437
 4928SOL    HW126246   3.556   2.898   1.449 -0.2772 -1.0189 -1.5822
 4928SOL    HW226247   3.422   2.960   1.490  0.6662  0.7119  0.6900
 4929SOL     OW26248   3.399   4.609  12.672  0.1530 -0.3568  0.3592
 4929SOL    HW126249   3.471   4.567  12.624  1.7457 -0.3461  2.7206
 4929SOL    HW226250   3.403   4.559  12.753  0.9385 -0.8947 -0.0038
 4930SOL     OW26251   1.863   1.653  12.700 -0.0513  0.4984  0.2272
 4930SOL    HW126252   1.944   1.675  12.654 -0.4370  1.6584  0.1036
 4930SOL    HW226253   1.867   1.721  12.767  0.9902 -0.3051  0.9653
 4931SOL     OW26254   3.513   1.438   4.444 -0.0968 -0.0158  0.4224
 4931SOL    HW126255   3.500   1.346   4.465 -1.6216  0.1847  0.3733
 4931SOL    HW226256   3.555   1.424   4.359 -0.1531  1.3554  0.1633
 4932SOL     OW26257   3.110   4.079   3.910 -0.6228 -0.2774  0.1015
 4932SOL    HW126258   3.127   4.119   3.996  1.8004  1.4971 -1.2087
 4932SOL    HW226259   3.162   4.143   3.861  1.0645 -0.7956  1.2104
 4933SOL     OW26260   1.054   1.291  10.271  0.5324 -0.1032  0.4542
 4933SOL    HW126261   1.105   1.365  10.238  0.7153 -1.7620 -2.9568
 4933SOL    HW226262   0.987   1.335  10.324  0.4330  3.1466 -2.3244
 4934SOL     OW26263   3.559   1.356  15.535 -0.3023  0.2363 -0.1436
 4934SOL    HW126264   3.603   1.372  15.619 -0.5516 -1.9081  0.4223
 4934SOL    HW226265   3.515   1.273  15.555 -2.7891  1.6133  0.1161
 4935SOL     OW26266   1.608   3.833   8.048 -0.7003 -0.2606 -0.9629
 4935SOL    HW126267   1.625   3.927   8.051 -0.7997 -0.2552 -0.4771
 4935SOL    HW226268   1.524   3.836   8.002 -1.3838  1.1649  0.3778
 4936SOL     OW26269   2.790   0.752   2.745 -0.2032  0.2206 -0.2816
 4936SOL    HW126270   2.701   0.776   2.770  0.2891  1.2348  0.5129
 4936SOL    HW226271   2.833   0.798   2.817 -0.4364 -1.5873  1.0311
 4937SOL     OW26272   1.847   4.456   1.427  0.2233 -0.1849 -0.2901
 4937SOL    HW126273   1.758   4.429   1.446  0.3411 -0.2233  0.2101
 4937SOL    HW226274   1.885   4.378   1.388  0.3371 -1.9344  3.2922
 4938SOL     OW26275   3.464   4.092   6.644  0.1750  0.2351  0.0104
 4938SOL    HW126276   3.546   4.130   6.615  0.9855 -0.3954  1.4840
 4938SOL    HW226277   3.402   4.165   6.652  0.5276  0.5898 -0.5025
 4939SOL     OW26278   0.080   4.414   4.197 -0.4496 -0.4956  0.0317
 4939SOL    HW126279   0.133   4.351   4.149  0.1518  0.3700 -0.4481
 4939SOL    HW226280   0.102   4.406   4.290 -2.2817 -0.1325  0.4993
 4940SOL     OW26281   3.554   3.931  10.976  0.0105  0.7223 -0.5790
 4940SOL    HW126282   3.465   3.903  10.953 -0.6324  0.5127  2.0770
 4940SOL    HW226283   3.594   3.907  10.893 -1.7393 -1.9442 -0.6627
 4941SOL     OW26284   0.982   1.931  10.125  0.2464  0.2188 -0.1250
 4941SOL    HW126285   0.910   1.877  10.156  0.8871 -0.1354  0.7661
 4941SOL    HW226286   0.965   2.024  10.139 -1.1388  0.2312 -2.0600
 4942SOL     OW26287   0.824   0.388   4.092  0.3243 -0.0938 -0.2040
 4942SOL    HW126288   0.761   0.438   4.041 -0.9457 -1.7140 -0.2081
 4942SOL    HW226289   0.854   0.327   4.025  1.8067  1.2501 -0.7631
 4943SOL     OW26290   0.799   2.825   5.378  0.7927  0.7808  0.1231
 4943SOL    HW126291   0.734   2.786   5.320  0.1309 -0.3451  1.6061
 4943SOL    HW226292   0.779   2.918   5.373 -1.0823  0.2957 -1.2996
 4944SOL     OW26293   3.593   4.602   4.483  0.0622 -0.7102  0.1247
 4944SOL    HW126294   3.518   4.662   4.486  0.3825 -0.2813 -0.6984
 4944SOL    HW226295   3.621   4.602   4.392  1.0969 -2.1006  0.4425
 4945SOL     OW26296   4.138   1.971  13.034 -0.5055 -0.5430 -0.4824
 4945SOL    HW126297   4.050   1.991  13.002 -1.3726 -0.8155  1.7306
 4945SOL    HW226298   4.124   1.897  13.092 -0.1811  0.3394  0.7292
 4946SOL     OW26299   1.119   0.346   5.117  0.0639 -0.1757  0.2395
 4946SOL    HW126300   1.191   0.355   5.179 -1.5133  1.0106  1.8807
 4946SOL    HW226301   1.139   0.417   5.056  1.9617  0.4518  1.5889
 4947SOL     OW26302   3.829   2.715  14.851  0.2905  0.0686  0.2668
 4947SOL    HW126303   3.844   2.683  14.762  0.7442 -1.9672  1.0892
 4947SOL    HW226304   3.889   2.656  14.897 -0.4348 -0.9798 -0.1447
 4948SOL     OW26305   0.973   4.699   9.079  0.1566  0.0361 -0.4349
 4948SOL    HW126306   1.008   0.062   9.112  0.9959 -1.0032  1.2768
 4948SOL    HW226307   0.886   0.019   9.069 -1.6037 -2.9756  2.8770
 4949SOL     OW26308   4.079   2.088   4.278 -0.1762  0.2733  0.3631
 4949SOL    HW126309   4.152   2.104   4.337 -0.6291  0.5119  0.8600
 4949SOL    HW226310   4.085   1.994   4.265  2.4571  0.5194 -0.2274
 4950SOL     OW26311   1.331   4.013   7.064 -0.6394 -0.2285 -0.2485
 4950SOL    HW126312   1.345   4.022   6.970 -1.7134 -0.7273 -0.4543
 4950SOL    HW226313   1.375   3.931   7.086  1.6975  0.5909 -1.8902
 4951SOL     OW26314   1.144   1.859   7.005  0.6064  0.2284  0.2925
 4951SOL    HW126315   1.085   1.788   6.979  1.3204 -0.5218  0.7230
 4951SOL    HW226316   1.124   1.916   6.931  1.3968 -0.3228 -0.3368
 4952SOL     OW26317   4.015   3.559   4.889 -0.2590  0.2337  0.5179
 4952SOL    HW126318   3.923   3.569   4.913 -0.6826 -0.2951 -0.9049
 4952SOL    HW226319   4.048   3.519   4.970 -0.7644  0.8188  1.0194
 4953SOL     OW26320   1.520   4.109   3.814 -0.2281 -0.7105 -0.5369
 4953SOL    HW126321   1.514   4.202   3.795 -2.0431 -1.0103 -1.4292
 4953SOL    HW226322   1.543   4.069   3.730  0.1222  1.6174 -1.5609
 4954SOL     OW26323   0.585   1.650   3.716 -0.4943  0.6150 -0.1054
 4954SOL    HW126324   0.672   1.670   3.750 -1.0347  0.2686  1.4869
 4954SOL    HW226325   0.583   1.691   3.630 -0.6089  0.5865 -0.1161
 4955SOL     OW26326   3.643   0.965  14.765 -0.4168 -0.4011 -0.4193
 4955SOL    HW126327   3.591   1.043  14.782 -0.8089 -0.9882  1.0698
 4955SOL    HW226328   3.585   0.890  14.779 -0.8169  0.3171  1.7877
 4956SOL     OW26329   0.581   3.651   7.410  0.6488 -0.0103  0.1879
 4956SOL    HW126330   0.642   3.630   7.340 -1.5865 -0.8946 -1.4710
 4956SOL    HW226331   0.542   3.568   7.436 -0.9608  0.4133 -0.9085
 4957SOL     OW26332   3.230   2.216  12.180 -0.3388 -0.5806  0.4506
 4957SOL    HW126333   3.218   2.306  12.151  0.7929 -0.9841 -1.2660
 4957SOL    HW226334   3.138   2.188  12.169 -0.1816 -0.6788 -0.6311
 4958SOL     OW26335   0.496   1.736  10.499  0.5566  0.4666  0.0052
 4958SOL    HW126336   0.554   1.783  10.558 -2.1018  1.7834  1.5637
 4958SOL    HW226337   0.488   1.657  10.553 -0.0222 -0.2628 -1.1603
 4959SOL     OW26338   1.467   1.372   6.198 -0.1387 -0.2444 -0.5595
 4959SOL    HW126339   1.385   1.401   6.159 -0.0739 -0.0426 -0.5442
 4959SOL    HW226340   1.448   1.346   6.289  1.4492 -2.7316 -0.9158
 4960SOL     OW26341   4.228   3.456   7.966 -0.0311  0.0349 -0.1907
 4960SOL    HW126342   4.192   3.535   7.925 -2.4263 -1.6008 -1.2119
 4960SOL    HW226343   4.312   3.484   8.001 -1.0914  0.1398  2.2281
 4961SOL     OW26344   3.582   1.196   3.436 -0.1484 -0.1496 -0.1212
 4961SOL    HW126345   3.594   1.286   3.467  1.2780 -0.4972  0.3317
 4961SOL    HW226346   3.493   1.196   3.401  0.1021  1.4978 -0.7775
 4962SOL     OW26347   1.248   2.073   6.019 -0.7078 -0.6001 -0.3069
 4962SOL    HW126348   1.215   2.159   6.044 -0.5590  0.2041 -2.8994
 4962SOL    HW226349   1.178   2.041   5.961 -0.7032  0.1434 -0.7295
 4963SOL     OW26350   0.801   1.042   1.850 -0.0745 -0.4243  0.5711
 4963SOL    HW126351   0.859   1.113   1.878  0.2073  0.0258 -1.1316
 4963SOL    HW226352   0.774   0.999   1.931 -3.1542 -1.5691 -1.0423
 4964SOL     OW26353   1.539   0.052  13.459 -0.1483 -0.2047 -0.8904
 4964SOL    HW126354   1.589   4.692  13.477  1.5376  0.6439 -1.7365
 4964SOL    HW226355   1.558   0.100  13.540 -1.4274  1.5713 -1.6429
 4965SOL     OW26356   2.065   3.262  11.055 -0.0412  0.0311 -0.2660
 4965SOL    HW126357   2.036   3.246  11.145  1.2542  0.5924  0.2488
 4965SOL    HW226358   2.025   3.348  11.037 -0.2688 -0.4688 -2.1748
 4966SOL     OW26359   0.854   2.414   5.922  0.2166 -0.2897 -0.5935
 4966SOL    HW126360   0.880   2.466   5.998 -0.8474  0.9455 -1.0623
 4966SOL    HW226361   0.872   2.467   5.844  0.2444  0.5173 -0.0348
 4967SOL     OW26362   2.519   1.956   6.746 -0.3458  0.7760  0.2864
 4967SOL    HW126363   2.469   1.955   6.664 -0.2645  0.7532  0.2364
 4967SOL    HW226364   2.609   1.937   6.717 -0.3642  2.3144 -0.8021
 4968SOL     OW26365   1.678   1.031  14.915 -0.1675 -0.4486 -0.0708
 4968SOL    HW126366   1.596   0.999  14.875 -0.7257 -0.1806  0.8685
 4968SOL    HW226367   1.716   0.950  14.948 -0.2172 -1.5568 -2.6887
 4969SOL     OW26368   2.057   3.443  10.584  0.1102  0.3499 -0.0942
 4969SOL    HW126369   2.147   3.459  10.556 -0.2284  2.0373 -0.2570
 4969SOL    HW226370   2.030   3.378  10.519 -0.9212  0.7970 -0.1216
 4970SOL     OW26371   0.547   1.476   5.190  0.3919  0.4667 -0.1928
 4970SOL    HW126372   0.515   1.559   5.226 -0.9054  1.0969 -2.7677
 4970SOL    HW226373   0.600   1.437   5.260  0.9038 -1.7059 -1.7799
 4971SOL     OW26374   1.987   3.050   5.054  0.2894  0.5431  0.7643
 4971SOL    HW126375   2.019   2.992   5.123  4.5165  1.1393 -0.7312
 4971SOL    HW226376   2.068   3.088   5.021 -0.5884  2.2613  0.5654
 4972SOL     OW26377   1.218   4.423   2.155  0.7355  0.0468  0.0478
 4972SOL    HW126378   1.303   4.398   2.192 -0.3248 -1.2827  1.5452
 4972SOL    HW226379   1.169   4.458   2.229 -0.3889 -0.9127 -0.2461
 4973SOL     OW26380   3.051   0.588  12.315  0.1558 -0.7751  0.0302
 4973SOL    HW126381   3.041   0.520  12.382  1.5934 -0.9642  0.0499
 4973SOL    HW226382   2.971   0.638  12.326  0.8729  0.2858  0.4377
 4974SOL     OW26383   2.649   1.710  12.144 -0.0970 -0.0180 -0.0886
 4974SOL    HW126384   2.646   1.615  12.140  2.5307 -0.0766 -0.4032
 4974SOL    HW226385   2.602   1.722  12.227  0.3414 -3.2479  0.6413
 4975SOL     OW26386   0.739   0.168  14.343  0.1885  0.1596 -0.3447
 4975SOL    HW126387   0.706   0.140  14.429 -0.6346 -0.0684 -0.7376
 4975SOL    HW226388   0.700   0.104  14.283 -1.7251  0.1631  0.8560
 4976SOL     OW26389   4.286   1.001   2.325  0.0669  0.6385 -0.1638
 4976SOL    HW126390   4.294   0.910   2.353 -2.7037  0.8451  1.3426
 4976SOL    HW226391   4.206   1.025   2.371 -0.7084 -0.2038 -1.0452
 4977SOL     OW26392   0.127   4.313  15.532 -0.6234 -0.2507 -0.4596
 4977SOL    HW126393   0.175   4.241  15.492 -0.3842  0.8642 -2.1743
 4977SOL    HW226394   0.048   4.317  15.478 -1.4743  1.0480  0.8769
 4978SOL     OW26395   0.710   1.814  17.550  0.4789 -0.7238 -0.6488
 4978SOL    HW126396   0.798   1.776  17.553  0.5253 -0.5711 -0.0007
 4978SOL    HW226397   0.710   1.879  17.621  3.7586 -1.8145  0.3563
 4979SOL     OW26398   2.472   2.695  11.100  0.3936 -0.0585  0.1839
 4979SOL    HW126399   2.551   2.712  11.151 -0.2862 -0.1093  1.2455
 4979SOL    HW226400   2.487   2.749  11.022  1.8301  1.6443  1.6220
 4980SOL     OW26401   3.200   1.423  14.255 -0.1800  0.3475 -0.4567
 4980SOL    HW126402   3.220   1.469  14.173 -1.4512  0.6730 -0.5913
 4980SOL    HW226403   3.129   1.476  14.289  0.1611  0.5929 -0.1337
 4981SOL     OW26404   0.457   4.091   4.562 -0.1493  0.0949 -0.8280
 4981SOL    HW126405   0.419   4.044   4.636  1.6828 -0.2221 -0.0836
 4981SOL    HW226406   0.372   4.122   4.532 -1.9270 -0.0049  4.1127
 4982SOL     OW26407   4.103   3.704   4.669  0.0911 -0.1979  0.0278
 4982SOL    HW126408   4.183   3.742   4.705  0.9879 -1.8043 -0.2731
 4982SOL    HW226409   4.056   3.674   4.747 -1.1924  0.9654 -0.2842
 4983SOL     OW26410   1.479   0.601  10.935  0.1860  0.2098 -0.0094
 4983SOL    HW126411   1.484   0.628  10.843 -0.2596  0.0708 -0.0744
 4983SOL    HW226412   1.430   0.671  10.980  1.7181  2.0824 -1.2550
 4984SOL     OW26413   4.464   0.740   3.305  0.2500  0.8704 -0.5623
 4984SOL    HW126414   4.488   0.779   3.221 -1.5008  2.5330 -0.2829
 4984SOL    HW226415   4.378   0.700   3.290  0.2134  0.5089  0.5959
 4985SOL     OW26416   2.972   4.058   4.399  0.0530 -0.0532  0.4530
 4985SOL    HW126417   3.028   4.071   4.322 -0.4145 -2.6454 -0.3047
 4985SOL    HW226418   2.919   3.982   4.377 -1.9735  2.1906 -2.3651
 4986SOL     OW26419   1.706   1.411  13.538 -0.1284  0.9995 -0.0765
 4986SOL    HW126420   1.744   1.472  13.474  0.6206  1.7098  1.0295
 4986SOL    HW226421   1.631   1.384  13.486 -0.6209  0.3419  0.9614
 4987SOL     OW26422   0.080   4.436   3.577  0.0823  0.4777  0.3175
 4987SOL    HW126423   0.037   4.521   3.566 -0.4087  0.7602  4.4968
 4987SOL    HW226424   0.120   4.436   3.664  0.2190  1.9408  0.2501
 4988SOL     OW26425   1.780   0.197  12.381  0.2596  1.0932 -0.0684
 4988SOL    HW126426   1.859   0.191  12.435  0.2745  0.1113 -0.1937
 4988SOL    HW226427   1.780   0.291  12.365  1.4099  1.1059  0.0496
 4989SOL     OW26428   0.121   3.508   1.088 -0.1624 -0.3553 -0.0909
 4989SOL    HW126429   0.123   3.601   1.111 -0.0104  0.1765 -2.2111
 4989SOL    HW226430   0.177   3.507   1.011  1.7700  1.0617  1.3059
 4990SOL     OW26431   4.388   1.005  11.801  0.5438  0.4138  0.1526
 4990SOL    HW126432   4.383   0.912  11.783 -1.0349  0.5471 -0.0854
 4990SOL    HW226433   4.413   1.009  11.894  1.6311  0.6168 -0.1512
 4991SOL     OW26434   0.218   4.249   1.818  0.1939  0.1883  0.5546
 4991SOL    HW126435   0.225   4.331   1.768  0.2866  0.4714  1.0284
 4991SOL    HW226436   0.242   4.272   1.908  0.5459 -2.4962  1.1406
 4992SOL     OW26437   1.190   2.505   2.504 -0.2277  0.4228 -0.6376
 4992SOL    HW126438   1.213   2.596   2.523 -1.9886  0.9503 -1.0413
 4992SOL    HW226439   1.232   2.458   2.575  0.5561  1.2633 -0.5319
 4993SOL     OW26440   4.428   1.798   7.259 -0.1284  0.1493 -0.3297
 4993SOL    HW126441   4.514   1.836   7.242  0.0624 -0.5794 -0.9618
 4993SOL    HW226442   4.387   1.833   7.180  2.0655 -0.7650 -1.8700
 4994SOL     OW26443   3.999   1.207   1.569 -0.1194  0.1126  0.3506
 4994SOL    HW126444   3.958   1.170   1.648 -0.1852  0.0322  0.2780
 4994SOL    HW226445   3.945   1.166   1.502  0.6209  0.3429 -0.3861
 4995SOL     OW26446   1.586   2.967   7.454  0.8294  0.2709 -0.4840
 4995SOL    HW126447   1.554   2.943   7.541  1.0223 -1.3577 -0.8616
 4995SOL    HW226448   1.611   3.058   7.470  2.2604 -0.1707 -0.1757
 4996SOL     OW26449   0.734   2.344   8.411  0.6920  0.1734 -0.0341
 4996SOL    HW126450   0.785   2.425   8.406 -1.0340  1.0539 -3.1310
 4996SOL    HW226451   0.645   2.378   8.416  1.2831  2.0905 -2.5195
 4997SOL     OW26452   3.784   2.374   7.184  0.5983 -0.6442 -0.2811
 4997SOL    HW126453   3.765   2.280   7.191  0.0057 -0.5798 -1.0072
 4997SOL    HW226454   3.875   2.380   7.212  0.7686 -2.2092 -0.4823
 4998SOL     OW26455   2.390   4.076  11.022 -0.4484  0.1800  0.3428
 4998SOL    HW126456   2.393   4.139  10.951 -0.2646 -0.2976 -0.0769
 4998SOL    HW226457   2.421   3.997  10.978  0.4216  0.9507 -0.4230
 4999SOL     OW26458   1.029   3.075   5.266  0.2025 -0.3566  0.1168
 4999SOL    HW126459   1.091   3.064   5.195  0.9233 -0.0485  0.6998
 4999SOL    HW226460   0.954   3.120   5.228  1.4443  0.4336 -1.3475
 5000SOL     OW26461   2.955   2.224  12.285  0.5188  0.2726 -0.7999
 5000SOL    HW126462   2.915   2.137  12.282 -1.8686  1.4022 -1.7797
 5000SOL    HW226463   2.911   2.254  12.365  1.5070  0.7062 -0.4233
 5001SOL     OW26464   4.397   3.171   0.737  0.2596  0.2513  0.3203
 5001SOL    HW126465   4.459   3.240   0.712  2.0663 -1.3258  0.4076
 5001SOL    HW226466   4.434   3.148   0.822 -3.2840 -0.7139  1.5883
 5002SOL     OW26467   4.237   2.413  15.681  0.0559  0.5826 -0.8537
 5002SOL    HW126468   4.216   2.377  15.595  0.7077  0.0306 -0.7758
 5002SOL    HW226469   4.326   2.379  15.691  0.3851  1.8504  0.6306
 5003SOL     OW26470   0.503   2.553  10.622  0.0623  0.0517 -0.1287
 5003SOL    HW126471   0.552   2.597  10.553  2.0505  0.5428  1.5908
 5003SOL    HW226472   0.583   2.531  10.671 -1.2387 -1.2704  1.4194
 5004SOL     OW26473   3.415   3.190   8.356 -0.3823 -0.0140 -0.1515
 5004SOL    HW126474   3.442   3.262   8.413  0.0702 -0.0592 -0.3091
 5004SOL    HW226475   3.477   3.128   8.393 -0.1790  0.3858  0.1732
 5005SOL     OW26476   3.610   3.563   9.376  0.1130  0.0033 -0.0068
 5005SOL    HW126477   3.637   3.528   9.460 -0.6373  1.4810  0.8424
 5005SOL    HW226478   3.652   3.649   9.375  1.2342 -0.5394 -0.5622
 5006SOL     OW26479   1.106   4.684   3.166  0.3790 -0.4938 -0.0601
 5006SOL    HW126480   1.124   0.025   3.094 -1.0818 -0.4715 -0.4060
 5006SOL    HW226481   1.021   4.650   3.140  0.5750 -0.9968 -0.0331
 5007SOL     OW26482   2.342   3.325   0.848  0.1780 -0.6267 -0.3464
 5007SOL    HW126483   2.337   3.244   0.898  0.8741  0.9080  2.1960
 5007SOL    HW226484   2.249   3.343   0.831  0.2672  1.1511  1.0450
 5008SOL     OW26485   2.260   1.121   5.012  0.2527  1.0777  0.0287
 5008SOL    HW126486   2.272   1.040   5.062 -3.9205  0.5446  0.1364
 5008SOL    HW226487   2.344   1.130   4.966 -0.9990 -1.2589 -2.6870
 5009SOL     OW26488   2.823   0.708   6.197  0.2811 -0.3607 -0.2446
 5009SOL    HW126489   2.798   0.720   6.289 -0.5008  0.6764 -0.5823
 5009SOL    HW226490   2.908   0.665   6.208 -0.6359 -2.1016  0.0017
 5010SOL     OW26491   3.653   2.214  13.681  0.4440 -0.0605 -0.0723
 5010SOL    HW126492   3.574   2.234  13.732  1.2404 -0.8352  1.4666
 5010SOL    HW226493   3.735   2.249  13.717  0.1906  0.1040  0.3477
 5011SOL     OW26494   0.518   1.756   5.867 -0.1513 -0.5017 -0.3128
 5011SOL    HW126495   0.433   1.794   5.845 -0.2428 -0.5027  0.0397
 5011SOL    HW226496   0.498   1.742   5.960  1.1793 -0.4711 -0.0104
 5012SOL     OW26497   0.647   2.552  10.336 -0.1237 -0.1963 -0.4675
 5012SOL    HW126498   0.722   2.500  10.305  0.1535 -1.3849  2.1907
 5012SOL    HW226499   0.588   2.521  10.267  0.2540  0.3663 -1.0408
 5013SOL     OW26500   4.476   4.033   2.391  0.2839  0.2801  0.6935
 5013SOL    HW126501   4.403   3.992   2.345  0.2414 -0.4705  1.4373
 5013SOL    HW226502   4.539   3.961   2.386 -0.5691 -0.4694  0.8508
 5014SOL     OW26503   2.156   2.004  17.618  0.1148  0.5367 -0.2828
 5014SOL    HW126504   2.159   1.944  17.544  1.5727  0.1354  0.1014
 5014SOL    HW226505   2.082   1.974  17.671 -0.1568 -2.1093 -2.1941
 5015SOL     OW26506   3.838   0.867  10.929 -0.3405  0.0732 -0.1138
 5015SOL    HW126507   3.769   0.836  10.987 -0.5182  0.1760 -0.2699
 5015SOL    HW226508   3.782   0.870  10.852  0.4901 -1.9253 -0.7998
 5016SOL     OW26509   4.189   2.857  17.006  0.1423  0.2123 -0.2221
 5016SOL    HW126510   4.099   2.841  16.978  0.7085 -1.1452 -1.2966
 5016SOL    HW226511   4.226   2.888  16.923  1.5628 -0.4528  0.1692
 5017SOL     OW26512   4.511   3.102   1.949 -0.1590  0.4366 -0.2465
 5017SOL    HW126513   4.416   3.112   1.964 -0.2264 -1.2633  0.4141
 5017SOL    HW226514   4.545   3.163   2.015  1.5067 -1.5130  0.7044
 5018SOL     OW26515   3.071   4.199   4.170  0.1904 -0.2547  0.2154
 5018SOL    HW126516   3.040   4.284   4.202  0.6431 -0.2769  0.7159
 5018SOL    HW226517   3.166   4.209   4.181  0.0303  1.3266  0.1305
 5019SOL     OW26518   1.309   3.355   0.640  0.3664  0.0315 -0.3566
 5019SOL    HW126519   1.396   3.316   0.645 -0.2519 -1.2975  0.1739
 5019SOL    HW226520   1.250   3.289   0.677  0.7677 -1.5233 -2.5012
 5020SOL     OW26521   1.925   3.312  11.785 -0.0160 -0.0243  0.6696
 5020SOL    HW126522   1.909   3.227  11.828 -1.3746 -1.2109 -2.1843
 5020SOL    HW226523   2.018   3.325  11.800 -0.0776  0.3432  0.7150
 5021SOL     OW26524   2.449   1.821   6.981  0.1741 -0.1847  0.0019
 5021SOL    HW126525   2.365   1.834   6.936  0.8940  2.2924 -0.6782
 5021SOL    HW226526   2.509   1.852   6.913  2.0790  0.6089  2.0588
 5022SOL     OW26527   4.577   1.220  11.080  0.2529 -0.6858 -0.0420
 5022SOL    HW126528   4.488   1.189  11.094  0.0910  0.0028  0.4735
 5022SOL    HW226529   4.573   1.233  10.986  1.1607 -0.3847 -0.0404
 5023SOL     OW26530   2.611   1.880   3.264 -0.6109  0.0652 -0.3459
 5023SOL    HW126531   2.693   1.877   3.214  1.0790  0.6775  2.3837
 5023SOL    HW226532   2.608   1.957   3.321 -0.5350  0.1344 -0.4351
 5024SOL     OW26533   3.438   0.456  15.693 -0.0998 -0.1962  0.3222
 5024SOL    HW126534   3.529   0.454  15.661  0.9742 -0.0950  3.3765
 5024SOL    HW226535   3.384   0.420  15.623 -0.3287  1.1270 -0.1658
 5025SOL     OW26536   1.758   0.542   4.568  0.2136  0.0117  0.6257
 5025SOL    HW126537   1.833   0.600   4.560  0.6257 -0.0993  3.7652
 5025SOL    HW226538   1.725   0.559   4.656  1.2174 -0.9702  1.1947
 5026SOL     OW26539   1.210   1.197   2.974 -0.2894  0.0620 -0.2803
 5026SOL    HW126540   1.184   1.170   2.886 -3.1091  1.0493  0.2359
 5026SOL    HW226541   1.252   1.280   2.950  0.3820 -0.4628 -0.9035
 5027SOL     OW26542   3.079   2.292  15.520 -0.6076 -0.3928  0.1581
 5027SOL    HW126543   2.992   2.314  15.485 -0.1406  0.8887 -0.1741
 5027SOL    HW226544   3.094   2.206  15.480  0.5727  0.6468 -1.6334
 5028SOL     OW26545   1.695   1.496  14.092  0.2532 -0.2120  0.7772
 5028SOL    HW126546   1.726   1.572  14.043 -0.1972 -1.0225 -0.7621
 5028SOL    HW226547   1.653   1.441  14.027  0.3738  0.0997  0.4335
 5029SOL     OW26548   2.641   4.446   1.026  0.4202  0.3874 -0.4662
 5029SOL    HW126549   2.626   4.476   0.936  2.1574 -2.4818 -1.7060
 5029SOL    HW226550   2.641   4.350   1.019  2.4922  0.1582  2.9899
 5030SOL     OW26551   0.275   2.389   2.540  0.5053  0.4502  0.0519
 5030SOL    HW126552   0.220   2.329   2.591 -0.5472  0.6678 -0.8304
 5030SOL    HW226553   0.340   2.323   2.512 -0.3523 -0.3390 -0.0862
 5031SOL     OW26554   1.766   1.549   7.043 -0.7080 -0.1507  0.1549
 5031SOL    HW126555   1.818   1.607   7.099 -0.7280  0.5318 -0.5321
 5031SOL    HW226556   1.825   1.539   6.969 -2.2661 -1.2596 -0.9229
 5032SOL     OW26557   1.434   3.361   2.250  0.1393 -0.7069  0.5557
 5032SOL    HW126558   1.449   3.303   2.325  0.7613  1.0617  1.8113
 5032SOL    HW226559   1.341   3.382   2.259  0.9134  2.5829  1.0536
 5033SOL     OW26560   4.064   4.177   0.852 -0.3450  0.3442  0.2172
 5033SOL    HW126561   4.077   4.239   0.781  3.4285 -1.6566 -0.8705
 5033SOL    HW226562   4.016   4.106   0.810  1.0071 -0.8755  0.7105
 5034SOL     OW26563   3.173   3.466  16.831 -0.0575 -0.4927  0.0690
 5034SOL    HW126564   3.113   3.541  16.831  1.0177  0.3684 -1.1015
 5034SOL    HW226565   3.121   3.409  16.888 -1.0292 -0.0616 -0.3757
 5035SOL     OW26566   1.980   2.323   4.551 -0.0539 -0.0472  0.0313
 5035SOL    HW126567   1.990   2.230   4.529  1.5295  0.4617 -1.3575
 5035SOL    HW226568   1.903   2.348   4.498  1.0335  0.6653 -1.2238
 5036SOL     OW26569   3.865   1.556  10.150 -0.2108 -0.6441 -0.1173
 5036SOL    HW126570   3.798   1.555  10.219  2.1422 -2.5685  2.1027
 5036SOL    HW226571   3.939   1.597  10.194  0.2496 -0.5634 -0.9731
 5037SOL     OW26572   4.688   2.763   1.077 -0.1786 -0.9320 -0.5799
 5037SOL    HW126573   4.638   2.791   1.154  2.0221 -0.4440  0.6639
 5037SOL    HW226574   4.627   2.699   1.039 -1.8195  0.6179 -0.5999
 5038SOL     OW26575   1.244   3.579  10.425 -0.1262  0.6649  0.4097
 5038SOL    HW126576   1.310   3.643  10.451  0.4715  0.4650 -0.6059
 5038SOL    HW226577   1.203   3.575  10.511  0.8925  2.7428  1.0051
 5039SOL     OW26578   1.815   0.823   3.230  0.4200  0.3642 -0.4836
 5039SOL    HW126579   1.720   0.813   3.227  0.5299 -1.3960  1.2838
 5039SOL    HW226580   1.843   0.737   3.199  1.6057  0.6345 -0.1719
 5040SOL     OW26581   2.872   0.371   3.105 -0.5692 -0.5779 -0.0919
 5040SOL    HW126582   2.862   0.276   3.094 -0.1897 -0.5408 -0.6976
 5040SOL    HW226583   2.961   0.385   3.075 -0.3931 -1.4539  0.0130
 5041SOL     OW26584   2.546   0.388   3.139 -0.0755 -0.0322  0.5343
 5041SOL    HW126585   2.633   0.399   3.177  0.4103  0.9831 -0.8664
 5041SOL    HW226586   2.524   0.469   3.093 -2.0405 -0.4948  0.6562
 5042SOL     OW26587   3.651   0.229   2.097  0.4306 -0.4283 -0.0118
 5042SOL    HW126588   3.615   0.197   2.014 -0.0892 -0.4113  0.2063
 5042SOL    HW226589   3.739   0.251   2.067  0.0298  0.1118 -0.8101
 5043SOL     OW26590   1.632   4.104   7.887  0.1378 -0.5680  0.5277
 5043SOL    HW126591   1.548   4.123   7.930  0.2422 -0.6433  0.7647
 5043SOL    HW226592   1.663   4.194   7.891  1.6801 -0.9056 -3.6307
 5044SOL     OW26593   2.241   1.584   2.461 -0.1654  0.4848  0.1473
 5044SOL    HW126594   2.264   1.673   2.487 -0.8011  0.2631  1.4578
 5044SOL    HW226595   2.325   1.537   2.468 -0.0947  0.7023  0.7251
 5045SOL     OW26596   3.308   4.354   2.846  0.1056 -0.5078  0.8703
 5045SOL    HW126597   3.383   4.295   2.847 -1.0501 -1.9777 -0.0872
 5045SOL    HW226598   3.241   4.294   2.815 -0.7709 -0.4519  2.6666
 5046SOL     OW26599   2.210   0.540   9.140 -0.4125  0.4302 -0.6481
 5046SOL    HW126600   2.274   0.527   9.210 -0.0177 -1.7420 -1.4215
 5046SOL    HW226601   2.184   0.627   9.170 -0.4856  0.3282 -0.4161
 5047SOL     OW26602   3.719   2.015  16.499 -0.3330  0.3760 -0.0047
 5047SOL    HW126603   3.776   1.994  16.574  0.4941 -1.9186 -1.2667
 5047SOL    HW226604   3.631   1.992  16.527 -0.2244 -0.8405 -0.6513
 5048SOL     OW26605   0.923   0.700   4.112  0.4537  0.2302  0.2000
 5048SOL    HW126606   0.924   0.640   4.186  1.1889 -0.1268 -0.1066
 5048SOL    HW226607   0.830   0.698   4.090  0.7455  0.4821 -1.0482
 5049SOL     OW26608   3.228   0.286   7.893  0.0949  0.1263  0.5381
 5049SOL    HW126609   3.275   0.368   7.880  0.5099 -0.1398  0.3662
 5049SOL    HW226610   3.246   0.267   7.985 -0.5559 -3.9678 -0.1855
 5050SOL     OW26611   1.382   3.936   8.266  0.2586 -0.3849 -0.5370
 5050SOL    HW126612   1.430   3.955   8.185 -0.6013  1.2751 -0.6537
 5050SOL    HW226613   1.376   4.021   8.309  0.5217 -1.0846  0.8926
 5051SOL     OW26614   1.613   0.897   5.943  0.5175 -0.0923  0.2932
 5051SOL    HW126615   1.585   0.980   5.980  0.1357 -0.1773  0.2005
 5051SOL    HW226616   1.687   0.934   5.895  0.7817 -0.3989  0.4585
 5052SOL     OW26617   1.409   4.188   7.287 -0.3632 -0.0065 -0.6586
 5052SOL    HW126618   1.385   4.098   7.265  0.3388  0.2112 -2.3017
 5052SOL    HW226619   1.466   4.165   7.361  1.4466 -1.6694 -2.5418
 5053SOL     OW26620   0.903   3.029  14.808  0.3474 -0.3850  0.4905
 5053SOL    HW126621   0.826   2.976  14.786  0.8734 -0.8461 -0.2061
 5053SOL    HW226622   0.920   2.987  14.892 -2.0155  2.8086  2.6062
 5054SOL     OW26623   4.369   0.668  16.899  0.0278  0.1373  1.1418
 5054SOL    HW126624   4.299   0.624  16.850 -0.7412  0.6727  1.7477
 5054SOL    HW226625   4.441   0.620  16.858 -0.0987  0.5616  0.4263
 5055SOL     OW26626   1.141   2.062   2.045 -0.4579 -0.0261 -0.5529
 5055SOL    HW126627   1.120   2.091   1.956  0.9045 -2.1189 -1.5683
 5055SOL    HW226628   1.066   2.105   2.087 -1.0604 -2.6479  1.0761
 5056SOL     OW26629   3.479   2.580  14.966  0.2083 -0.1727 -0.5953
 5056SOL    HW126630   3.469   2.634  15.044  0.5525 -3.4907  1.7350
 5056SOL    HW226631   3.393   2.541  14.951  0.2613 -0.1225 -1.0225
 5057SOL     OW26632   0.912   1.423   2.873 -0.9613 -0.3236  0.4438
 5057SOL    HW126633   0.948   1.432   2.962  1.1307  0.1806 -0.4682
 5057SOL    HW226634   0.820   1.434   2.897 -0.9519  0.4449  0.1543
 5058SOL     OW26635   3.574   2.666   6.250  0.8663 -0.4004 -0.2543
 5058SOL    HW126636   3.593   2.715   6.169 -2.1214 -0.9105 -1.2462
 5058SOL    HW226637   3.479   2.674   6.247  0.9403  0.6766  0.1407
 5059SOL     OW26638   3.641   0.025  14.037  0.3277  0.1760  0.2842
 5059SOL    HW126639   3.729   4.712  14.053 -1.0092 -2.7207  1.7902
 5059SOL    HW226640   3.640   0.120  14.049 -0.2560 -0.0200  1.8291
 5060SOL     OW26641   3.057   0.798   6.616  0.2836 -0.2342 -0.1347
 5060SOL    HW126642   3.098   0.822   6.532 -0.6399 -2.0537 -1.0928
 5060SOL    HW226643   3.078   0.871   6.674  0.5325 -0.8616  0.5504
 5061SOL     OW26644   4.054   0.993  10.706  0.6287 -0.0268 -0.1200
 5061SOL    HW126645   4.047   0.917  10.649 -0.1082 -0.1331  0.1108
 5061SOL    HW226646   3.998   0.976  10.782 -0.0603  0.9231 -0.4183
 5062SOL     OW26647   4.463   4.041  12.672 -0.2094  0.1632 -0.1461
 5062SOL    HW126648   4.419   4.105  12.727  0.1587 -1.8304  2.4827
 5062SOL    HW226649   4.545   4.032  12.721  0.1595  0.8649 -0.6409
 5063SOL     OW26650   3.007   3.346   1.798  0.0921 -0.5910  0.8507
 5063SOL    HW126651   3.043   3.356   1.886 -0.4584  0.9533  0.8937
 5063SOL    HW226652   2.923   3.319   1.835  0.2494 -0.9858  0.9172
 5064SOL     OW26653   1.291   0.040  11.497  0.1590  0.0683 -0.1388
 5064SOL    HW126654   1.227   0.085  11.442 -0.0302 -1.2881 -1.0137
 5064SOL    HW226655   1.242   4.698  11.550 -0.7391  1.0244  0.1461
 5065SOL     OW26656   0.218   1.362   6.845 -0.3355  0.1799 -0.1950
 5065SOL    HW126657   0.137   1.412   6.833 -0.1436  0.4679 -0.3048
 5065SOL    HW226658   0.208   1.286   6.788 -0.5242 -1.8705  2.5787
 5066SOL     OW26659   1.132   3.001   0.685  0.2675 -0.3815  0.0731
 5066SOL    HW126660   1.187   2.924   0.668  1.1797  0.8506 -2.5250
 5066SOL    HW226661   1.082   3.000   0.604 -1.3083 -1.5121  1.0418
 5067SOL     OW26662   2.798   2.778   7.700  0.1503  0.1507 -0.3422
 5067SOL    HW126663   2.718   2.822   7.731  0.0280  0.9351 -1.7600
 5067SOL    HW226664   2.761   2.689   7.700 -1.0264  0.6412  0.4829
 5068SOL     OW26665   0.309   4.397   0.645 -0.5676  0.1246  0.2688
 5068SOL    HW126666   0.251   4.331   0.605  0.0349 -1.7073  2.3863
 5068SOL    HW226667   0.334   4.454   0.573  2.4481 -2.4037 -0.6593
 5069SOL     OW26668   2.133   3.865   7.157 -0.0044 -0.4335  0.1895
 5069SOL    HW126669   2.226   3.845   7.152  0.4383  2.2568 -2.3629
 5069SOL    HW226670   2.141   3.959   7.139  0.5519 -0.3866  0.7039
 5070SOL     OW26671   3.862   2.235   0.769 -0.9095 -0.5173  0.0914
 5070SOL    HW126672   3.773   2.219   0.736 -1.0965 -0.6027  0.6347
 5070SOL    HW226673   3.916   2.239   0.691  1.1028 -0.5953  1.4863
 5071SOL     OW26674   3.707   4.630  16.045  0.5320 -0.3148  0.4864
 5071SOL    HW126675   3.661   4.549  16.025  0.3594 -0.0460 -0.1881
 5071SOL    HW226676   3.759   4.610  16.124 -0.2120 -2.1268  0.5100
 5072SOL     OW26677   0.995   1.535   2.226 -0.1897 -0.5199 -0.1092
 5072SOL    HW126678   0.978   1.558   2.135 -0.1723 -1.5298 -0.3662
 5072SOL    HW226679   0.910   1.503   2.256 -0.4149 -0.5416 -0.7888
 5073SOL     OW26680   2.810   2.823   8.005  0.2375 -0.2612 -0.6153
 5073SOL    HW126681   2.868   2.899   8.011  0.8220 -0.8018  0.6379
 5073SOL    HW226682   2.838   2.785   7.922  2.4510 -2.5442  1.1617
 5074SOL     OW26683   3.888   2.725   1.254  0.3078  0.6238  0.1578
 5074SOL    HW126684   3.894   2.639   1.211 -1.8270 -0.0375  1.1933
 5074SOL    HW226685   3.967   2.725   1.308 -0.4692  1.6136  1.2830
 5075SOL     OW26686   2.275   3.207  10.315  0.0049 -0.6347  0.6549
 5075SOL    HW126687   2.281   3.264  10.239  1.5057 -0.9589  0.5411
 5075SOL    HW226688   2.180   3.195  10.327 -0.2437  1.8202  1.1432
 5076SOL     OW26689   1.841   4.248  11.296 -0.0785 -0.0080 -0.4067
 5076SOL    HW126690   1.789   4.294  11.362 -0.1611 -2.6550  1.4079
 5076SOL    HW226691   1.909   4.315  11.290  0.2460 -0.5094 -2.2594
 5077SOL     OW26692   1.973   1.020  17.158  0.0099  0.2346  0.3504
 5077SOL    HW126693   1.936   0.993  17.243  0.1499  0.3891  0.4602
 5077SOL    HW226694   2.035   1.085  17.189 -0.2552  1.5141 -1.8728
 5078SOL     OW26695   4.540   1.086  11.597 -0.1513 -0.3561  0.5759
 5078SOL    HW126696   4.626   1.072  11.636 -0.3596 -2.3021  0.3732
 5078SOL    HW226697   4.479   1.057  11.665  0.5127 -1.8506  0.5415
 5079SOL     OW26698   1.575   1.840   7.287  0.5025  0.1271 -0.0360
 5079SOL    HW126699   1.494   1.803   7.253 -0.2524  1.5806  0.1789
 5079SOL    HW226700   1.562   1.835   7.382 -0.9098  0.8538 -0.2006
 5080SOL     OW26701   2.208   3.356   1.738 -0.7699  0.2372  0.1790
 5080SOL    HW126702   2.263   3.430   1.712  0.9173 -0.3350  2.1742
 5080SOL    HW226703   2.219   3.299   1.663  2.2374  0.3612  0.5536
 5081SOL     OW26704   4.471   0.538   9.584  0.1433 -0.6946  0.3321
 5081SOL    HW126705   4.480   0.534   9.679 -2.4278 -0.7615  0.5704
 5081SOL    HW226706   4.539   0.602   9.566  1.7294 -2.3720  0.3700
 5082SOL     OW26707   4.153   4.696   6.877 -0.2457  0.6903  0.1801
 5082SOL    HW126708   4.221   4.665   6.938 -0.6619 -1.9119 -0.7172
 5082SOL    HW226709   4.195   4.687   6.791 -1.0165 -0.9039 -0.0235
 5083SOL     OW26710   3.910   1.068   7.380 -0.1883 -0.0817 -0.6528
 5083SOL    HW126711   3.828   1.018   7.388 -0.9217  1.2084  0.0422
 5083SOL    HW226712   3.970   0.995   7.367  0.1122 -0.1084  0.8060
 5084SOL     OW26713   3.370   4.359   4.431  0.0457 -0.4182 -0.0669
 5084SOL    HW126714   3.397   4.307   4.355  1.5815 -1.4429  1.2074
 5084SOL    HW226715   3.293   4.407   4.398 -0.2598 -0.8050  0.0847
 5085SOL     OW26716   0.830   2.266   7.047  0.6193 -0.1446  0.1061
 5085SOL    HW126717   0.887   2.204   7.093  1.1350  0.0662 -0.2532
 5085SOL    HW226718   0.758   2.259   7.110  0.6446  1.3199  0.3001
 5086SOL     OW26719   0.970   0.150   5.606 -0.0800 -0.1675  0.0772
 5086SOL    HW126720   0.899   0.092   5.578 -0.8644  0.4612  0.7612
 5086SOL    HW226721   0.959   0.225   5.548  1.4449  0.0879  0.1163
 5087SOL     OW26722   1.656   0.852   7.518 -0.6864  0.1166 -0.0346
 5087SOL    HW126723   1.584   0.898   7.476 -0.3821  0.8625  0.2662
 5087SOL    HW226724   1.607   0.775   7.548  2.4255 -2.2661 -1.0870
 5088SOL     OW26725   1.468   3.796   0.387 -0.1811  0.2119  0.1113
 5088SOL    HW126726   1.419   3.869   0.350 -1.2713 -1.4995 -1.8600
 5088SOL    HW226727   1.457   3.810   0.480 -0.3767 -0.5857  0.2129
 5089SOL     OW26728   3.421   1.609   3.951  0.4962  0.4986 -0.1418
 5089SOL    HW126729   3.469   1.528   3.963 -2.3459 -1.3384 -1.1409
 5089SOL    HW226730   3.442   1.653   4.034 -0.5126 -0.2434  0.5079
 5090SOL     OW26731   3.457   4.366   6.331 -0.0495 -0.1758  0.0732
 5090SOL    HW126732   3.550   4.371   6.354 -0.0852 -1.1481  0.4580
 5090SOL    HW226733   3.413   4.387   6.414 -1.5174 -0.1326 -0.7194
 5091SOL     OW26734   4.258   3.679   7.248  0.3632  0.2727  0.2239
 5091SOL    HW126735   4.303   3.666   7.164  1.7535  0.3478  0.9606
 5091SOL    HW226736   4.187   3.742   7.231  1.0739  0.5582 -1.7327
 5092SOL     OW26737   1.731   3.571  16.389 -0.4154  0.1301 -0.4404
 5092SOL    HW126738   1.817   3.568  16.431 -0.3183 -1.2242 -0.7167
 5092SOL    HW226739   1.735   3.663  16.363 -0.1900  0.1390 -0.3785
 5093SOL     OW26740   0.278   0.602   2.957 -0.5232  0.3743  0.4039
 5093SOL    HW126741   0.341   0.649   3.013  0.8947  0.1136 -0.9603
 5093SOL    HW226742   0.320   0.516   2.964 -0.5933  0.2957 -0.1723
 5094SOL     OW26743   0.791   1.569  13.146 -0.5412  0.5173  0.2521
 5094SOL    HW126744   0.715   1.593  13.093 -0.5149 -1.0699 -0.4911
 5094SOL    HW226745   0.804   1.475  13.135 -1.3402  0.4569 -0.1460
 5095SOL     OW26746   1.685   0.970  13.172  0.7673 -0.3827  0.0819
 5095SOL    HW126747   1.630   0.939  13.244 -0.0085 -2.7290 -1.5406
 5095SOL    HW226748   1.632   0.955  13.094  2.8055  0.2178 -1.3921
 5096SOL     OW26749   3.827   2.510   7.556  0.3073  0.1849  0.5979
 5096SOL    HW126750   3.845   2.493   7.649  0.1591  1.2437  0.8310
 5096SOL    HW226751   3.822   2.420   7.526 -0.3986  0.1997  0.6764
 5097SOL     OW26752   3.574   2.745   8.064 -1.0075 -0.0264  0.4484
 5097SOL    HW126753   3.640   2.804   8.028 -3.1132  1.8140 -0.3745
 5097SOL    HW226754   3.516   2.733   7.989  0.0462 -2.0966 -0.0295
 5098SOL     OW26755   1.702   4.023   2.828  0.4180 -0.0103  0.2707
 5098SOL    HW126756   1.667   4.108   2.855  0.6971  0.2168 -0.0712
 5098SOL    HW226757   1.793   4.028   2.856  0.7774 -2.7063 -0.3951
 5099SOL     OW26758   2.679   2.258  15.055 -0.3548 -0.0853 -0.2024
 5099SOL    HW126759   2.612   2.218  15.111 -0.6356 -1.9639 -1.8727
 5099SOL    HW226760   2.657   2.230  14.966 -3.3430  0.6968  0.2745
 5100SOL     OW26761   3.835   2.249   7.519  0.5816  0.0633 -0.6479
 5100SOL    HW126762   3.908   2.208   7.472  0.5744  0.2345 -0.8077
 5100SOL    HW226763   3.806   2.173   7.569 -3.2100  1.6478 -0.4915
 5101SOL     OW26764   2.440   4.337  15.259 -0.3227  0.3830  0.0331
 5101SOL    HW126765   2.478   4.324  15.172 -0.9750  2.5142 -0.5676
 5101SOL    HW226766   2.519   4.338  15.313 -0.9266 -1.3435  0.9386
 5102SOL     OW26767   3.530   0.914   0.575 -0.1663  0.0609 -0.0880
 5102SOL    HW126768   3.555   0.868   0.656  2.8419  1.7850 -0.0569
 5102SOL    HW226769   3.472   0.973   0.624  2.5236  3.5564 -1.0995
 5103SOL     OW26770   1.976   1.755   2.590  0.2726 -0.5496 -0.0092
 5103SOL    HW126771   1.996   1.718   2.504 -1.7737 -1.2803 -0.1541
 5103SOL    HW226772   2.037   1.828   2.590  0.6127 -0.8233  1.1168
 5104SOL     OW26773   1.388   4.123  12.440  0.0968  0.4359 -0.6563
 5104SOL    HW126774   1.397   4.159  12.352 -0.7490  0.6429 -0.6612
 5104SOL    HW226775   1.327   4.188  12.474 -1.0903  0.1293 -2.2212
 5105SOL     OW26776   1.921   0.106   0.387  0.1333 -0.3570 -0.2455
 5105SOL    HW126777   1.961   0.027   0.423  2.9318  1.4261  0.6007
 5105SOL    HW226778   1.927   0.087   0.293  0.6760 -0.7304 -0.1344
 5106SOL     OW26779   2.831   4.547   6.359 -0.4222  0.1251 -0.2619
 5106SOL    HW126780   2.840   4.571   6.451  0.4256  1.3400 -0.6605
 5106SOL    HW226781   2.742   4.579   6.344 -0.0994  1.4454  0.6182
 5107SOL     OW26782   2.787   3.436   0.829  0.3539  0.0000  0.0507
 5107SOL    HW126783   2.810   3.436   0.922  0.7644 -2.7114 -0.0620
 5107SOL    HW226784   2.696   3.466   0.833  0.3180 -0.1230  0.1668
 5108SOL     OW26785   1.680   3.016   5.493 -0.2845 -0.0950  0.2870
 5108SOL    HW126786   1.605   3.056   5.449 -0.0520 -4.5031 -4.0379
 5108SOL    HW226787   1.718   2.959   5.427  1.5864  1.7846 -0.2579
 5109SOL     OW26788   1.826   1.491  12.205 -0.0976 -0.2339  0.1714
 5109SOL    HW126789   1.796   1.562  12.148 -0.9002 -0.4104  0.3628
 5109SOL    HW226790   1.775   1.520  12.281  1.9818  2.7755  0.3735
 5110SOL     OW26791   2.687   1.011   6.950  0.1997 -0.1086 -0.1139
 5110SOL    HW126792   2.744   0.976   7.018  2.0380  1.6486 -0.7431
 5110SOL    HW226793   2.604   0.966   6.966  1.3276 -2.9756 -2.2988
 5111SOL     OW26794   1.470   2.762   2.040 -0.9608  0.4134  0.4315
 5111SOL    HW126795   1.443   2.729   2.126  1.1360 -0.6539  0.6887
 5111SOL    HW226796   1.470   2.678   1.994  0.5487  0.8193 -0.3248
 5112SOL     OW26797   3.055   3.640   4.808  0.3732  0.5067  0.4162
 5112SOL    HW126798   3.144   3.607   4.800  0.7975  0.8561  3.5301
 5112SOL    HW226799   3.033   3.603   4.894 -1.6276 -1.3964 -0.9357
 5113SOL     OW26800   3.696   1.207   1.308 -0.5917 -0.0782  0.2391
 5113SOL    HW126801   3.663   1.174   1.391 -1.8876  1.4190  0.3182
 5113SOL    HW226802   3.643   1.161   1.243 -0.2865 -1.0710  0.6893
 5114SOL     OW26803   0.475   2.130  16.467  0.1842 -0.2129 -0.2507
 5114SOL    HW126804   0.434   2.207  16.428 -1.0226 -1.9215 -2.3164
 5114SOL    HW226805   0.424   2.119  16.548  1.1861  0.3961  0.4586
 5115SOL     OW26806   1.470   4.388   5.430 -0.2312  0.4832  0.0227
 5115SOL    HW126807   1.447   4.408   5.339  0.8252  1.5683 -0.0130
 5115SOL    HW226808   1.540   4.450   5.453 -0.1333  1.1417 -1.9788
 5116SOL     OW26809   1.416   0.955  10.933 -0.1589 -0.7832 -0.1286
 5116SOL    HW126810   1.392   1.020  10.999 -0.3007  0.2110 -1.1644
 5116SOL    HW226811   1.326   0.933  10.908 -0.7589  0.9985  0.4808
 5117SOL     OW26812   2.101   1.463   1.206  0.1839 -0.0645  0.2824
 5117SOL    HW126813   2.068   1.549   1.179 -0.7326 -0.1340  1.1763
 5117SOL    HW226814   2.123   1.429   1.119 -1.1270  1.0051 -0.4872
 5118SOL     OW26815   2.610   4.447   5.896  0.5435  0.0981  0.2689
 5118SOL    HW126816   2.684   4.507   5.903  0.0042  0.8302 -0.3608
 5118SOL    HW226817   2.653   4.363   5.881 -0.2246 -0.2842  0.2057
 5119SOL     OW26818   2.363   2.175  17.480 -0.2248  0.0248  0.4633
 5119SOL    HW126819   2.279   2.156  17.522  0.0498 -0.5576  0.7521
 5119SOL    HW226820   2.397   2.085  17.475 -1.7815 -0.5600  0.4136
 5120SOL     OW26821   3.854   1.448   4.064  0.0524 -0.0578 -0.2634
 5120SOL    HW126822   3.884   1.486   3.981  1.3238 -0.3143  0.0779
 5120SOL    HW226823   3.905   1.368   4.071 -2.9899 -2.0443 -0.7061
 5121SOL     OW26824   2.643   1.288   3.248  0.5672 -0.2533 -0.4915
 5121SOL    HW126825   2.649   1.382   3.262 -0.6373 -0.3137  0.4382
 5121SOL    HW226826   2.721   1.251   3.288  1.1401  0.4005 -1.0192
 5122SOL     OW26827   3.013   0.645   9.630 -0.0244 -0.5612 -0.3197
 5122SOL    HW126828   2.950   0.573   9.634 -1.7179  0.8384 -1.7172
 5122SOL    HW226829   2.996   0.693   9.711  0.0388  0.9977 -1.2355
 5123SOL     OW26830   1.558   1.665   3.107  0.0520  0.2573  0.1009
 5123SOL    HW126831   1.604   1.721   3.044 -0.1411 -0.4628 -0.6621
 5123SOL    HW226832   1.569   1.580   3.065  0.8812 -0.6377  2.1240
 5124SOL     OW26833   2.597   3.225  11.220  1.1361 -0.4140 -0.0975
 5124SOL    HW126834   2.517   3.266  11.188  1.1826  0.0460  0.3719
 5124SOL    HW226835   2.636   3.192  11.139 -0.0057 -1.9467 -0.0197
 5125SOL     OW26836   0.003   1.627  13.311  0.1144 -0.4742  0.2200
 5125SOL    HW126837   4.685   1.715  13.310 -0.0810 -0.5053  3.0740
 5125SOL    HW226838   4.648   1.569  13.303  0.4573 -0.6665 -1.5122
 5126SOL     OW26839   0.205   0.296   9.108  0.2445 -0.5969 -0.4148
 5126SOL    HW126840   0.120   0.253   9.098  0.5222 -1.0816 -0.6973
 5126SOL    HW226841   0.208   0.295   9.204 -1.8088  1.5467 -0.3329
 5127SOL     OW26842   4.493   0.148  10.178  0.0347  0.3210 -0.3084
 5127SOL    HW126843   4.510   0.158  10.272 -0.1103 -1.4804 -0.0991
 5127SOL    HW226844   4.531   0.061  10.166 -1.2407  0.3226 -4.2816
 5128SOL     OW26845   0.992   4.132   9.611 -0.0198 -0.4571 -0.1975
 5128SOL    HW126846   0.921   4.196   9.608  0.9417  0.6852  1.7145
 5128SOL    HW226847   1.067   4.180   9.575 -0.6963  1.4945  0.9920
 5129SOL     OW26848   1.915   1.207   2.676  0.3806 -0.2142  0.6988
 5129SOL    HW126849   1.901   1.155   2.597 -1.4013  0.5112  0.5354
 5129SOL    HW226850   2.010   1.199   2.684  0.2865 -1.2889  0.6920
 5130SOL     OW26851   2.051   4.059  16.285 -0.4547 -0.1220 -0.0733
 5130SOL    HW126852   2.022   4.115  16.214  2.0851  1.1224 -0.1183
 5130SOL    HW226853   2.049   3.971  16.247 -1.3520 -0.0642 -0.1534
 5131SOL     OW26854   0.540   2.100   3.359  0.6646 -0.0798 -0.3793
 5131SOL    HW126855   0.488   2.026   3.329  0.5105 -0.3065  0.4416
 5131SOL    HW226856   0.625   2.058   3.344  0.0689 -1.0395 -1.0136
 5132SOL     OW26857   0.516   1.608   2.578 -0.3867  0.4265  0.1285
 5132SOL    HW126858   0.514   1.513   2.574 -2.3509  0.5667 -1.9070
 5132SOL    HW226859   0.526   1.617   2.483 -0.2067  1.2691  0.2255
 5133SOL     OW26860   2.853   3.043  16.047  0.6171  0.1784  0.1052
 5133SOL    HW126861   2.913   3.050  15.973 -0.0564 -0.6804 -0.5151
 5133SOL    HW226862   2.917   3.002  16.106  0.9985 -0.2939 -0.6467
 5134SOL     OW26863   4.501   2.353  15.684  0.2578  0.1676 -0.1597
 5134SOL    HW126864   4.527   2.417  15.751 -0.2564  0.2177 -0.0032
 5134SOL    HW226865   4.542   2.386  15.604  0.5201 -0.5735 -0.3269
 5135SOL     OW26866   2.852   0.005   9.760 -0.1077 -0.5697  0.0026
 5135SOL    HW126867   2.799   0.082   9.777  1.7453  0.9612 -1.1484
 5135SOL    HW226868   2.814   4.663   9.823  0.6959  2.0070  3.0107
 5136SOL     OW26869   2.533   4.316   4.812 -0.0199 -0.1650 -0.0027
 5136SOL    HW126870   2.533   4.408   4.786  0.8516 -0.3459 -0.6407
 5136SOL    HW226871   2.595   4.316   4.884  0.6740 -1.6873 -0.5856
 5137SOL     OW26872   4.669   3.699   8.151 -0.4989  0.0602  0.9621
 5137SOL    HW126873   4.645   3.791   8.161 -0.7068  0.0721  0.3644
 5137SOL    HW226874   0.038   3.715   8.120 -1.0590  1.4830  0.1032
 5138SOL     OW26875   4.344   3.267   4.668 -0.5881  0.4961 -0.5709
 5138SOL    HW126876   4.258   3.286   4.705 -1.2810 -2.0518 -0.9045
 5138SOL    HW226877   4.371   3.347   4.623  1.9510 -0.5045 -0.8830
 5139SOL     OW26878   3.855   3.320   0.001  0.3696  0.5018 -0.6990
 5139SOL    HW126879   3.815   3.301  17.598  0.1623 -1.1608 -0.2292
 5139SOL    HW226880   3.898   3.241   0.032  2.3481  2.5691  1.8516
 5140SOL     OW26881   3.948   3.866   6.457 -0.4226  1.3054  0.1509
 5140SOL    HW126882   3.877   3.827   6.406  0.4615 -1.3440  0.9664
 5140SOL    HW226883   3.897   3.902   6.530  0.0142 -2.4010  2.2915
 5141SOL     OW26884   0.945   2.619   5.142  0.2605  0.5601  0.1628
 5141SOL    HW126885   0.885   2.611   5.068  0.3694 -0.3493  0.1736
 5141SOL    HW226886   0.970   2.711   5.142 -2.0057  1.1725 -0.2264
 5142SOL     OW26887   1.733   0.277   3.384 -0.1016 -0.3012  0.4781
 5142SOL    HW126888   1.779   0.248   3.306  1.2517  1.5413  0.5787
 5142SOL    HW226889   1.810   0.270   3.442  0.5714 -1.1293 -0.5226
 5143SOL     OW26890   1.437   4.393   8.386  0.3717 -0.3459  0.1190
 5143SOL    HW126891   1.404   4.425   8.470 -2.1235 -0.4648 -0.8151
 5143SOL    HW226892   1.373   4.323   8.379 -0.0939  0.1294 -0.3810
 5144SOL     OW26893   4.083   3.764   2.749 -0.4478  0.1729  0.5307
 5144SOL    HW126894   4.068   3.857   2.761  0.3353  0.2933  0.5678
 5144SOL    HW226895   4.170   3.755   2.789 -0.2211 -2.3978 -0.5548
 5145SOL     OW26896   2.492   1.939   4.499 -0.0890 -0.4508  0.5417
 5145SOL    HW126897   2.569   1.885   4.482 -1.1679 -0.8072 -3.1813
 5145SOL    HW226898   2.533   1.987   4.571 -0.5072 -1.4271  1.4140
 5146SOL     OW26899   1.404   0.563  10.443  0.2583 -0.3870 -0.1669
 5146SOL    HW126900   1.377   0.481  10.400  0.5630 -0.4884 -0.1644
 5146SOL    HW226901   1.488   0.536  10.478  0.7878  0.6861 -0.6328
 5147SOL     OW26902   4.460   0.308   8.075  0.3769 -0.1585 -0.0381
 5147SOL    HW126903   4.536   0.259   8.042  0.4114  0.3040 -0.6517
 5147SOL    HW226904   4.416   0.230   8.109 -1.6982  0.3683 -1.5669
 5148SOL     OW26905   3.010   2.647   8.103 -0.0126 -0.3696 -0.6193
 5148SOL    HW126906   2.976   2.736   8.094  1.6146  0.1363 -1.7633
 5148SOL    HW226907   2.931   2.596   8.087 -1.8053  2.3350 -0.4864
 5149SOL     OW26908   1.076   1.352   8.983 -0.2575  0.6258 -0.4538
 5149SOL    HW126909   0.982   1.368   8.992 -0.5991 -1.7459  0.3351
 5149SOL    HW226910   1.094   1.302   9.063  0.7977  0.8841 -0.5251
 5150SOL     OW26911   1.975   2.279   8.692 -0.0053 -0.4388 -0.5289
 5150SOL    HW126912   1.957   2.185   8.687 -0.8236 -0.2728 -0.7418
 5150SOL    HW226913   1.958   2.287   8.786  2.8355  2.1357 -0.2406
 5151SOL     OW26914   1.881   2.758   9.404 -0.2522 -0.1977 -0.2887
 5151SOL    HW126915   1.803   2.718   9.365  0.2848 -1.8192  0.3003
 5151SOL    HW226916   1.837   2.776   9.487  1.2078  1.0657  0.2111
 5152SOL     OW26917   0.313   1.204   4.578 -0.3471 -0.0853  0.6415
 5152SOL    HW126918   0.218   1.205   4.589 -0.2856 -2.0282  1.3666
 5152SOL    HW226919   0.340   1.114   4.599  2.9700  0.8443  0.3875
 5153SOL     OW26920   2.004   3.180   7.414  0.0993  0.2418  0.5383
 5153SOL    HW126921   2.069   3.239   7.451 -0.1231  0.5075  0.5082
 5153SOL    HW226922   1.927   3.233   7.435 -0.9217 -0.2563 -1.9461
 5154SOL     OW26923   2.241   0.504   5.038  0.4149 -0.4142 -0.6539
 5154SOL    HW126924   2.269   0.518   5.128  2.7283 -2.7283 -1.0219
 5154SOL    HW226925   2.308   0.441   5.012 -0.4915 -2.1002  1.0777
 5155SOL     OW26926   0.314   2.510  11.362  0.6082 -0.7814  0.2606
 5155SOL    HW126927   0.383   2.577  11.368 -1.5302  1.3338  1.2401
 5155SOL    HW226928   0.237   2.561  11.339  0.5644 -0.9102  0.1210
 5156SOL     OW26929   2.247   3.727   0.521 -0.5396  0.0702 -0.0377
 5156SOL    HW126930   2.315   3.681   0.471 -1.8473 -2.7903  0.7785
 5156SOL    HW226931   2.174   3.666   0.531  0.6956 -1.6390 -1.3329
 5157SOL     OW26932   4.030   3.653  14.538  0.3480 -0.8045  0.2510
 5157SOL    HW126933   4.119   3.619  14.546  0.3808 -1.0220 -1.0043
 5157SOL    HW226934   4.050   3.742  14.568  1.0607 -0.0563 -2.4140
 5158SOL     OW26935   3.732   2.244   3.300 -0.3873 -0.1237 -0.5274
 5158SOL    HW126936   3.817   2.233   3.342  0.6327 -1.1723 -2.8765
 5158SOL    HW226937   3.674   2.255   3.375 -0.5745  0.1876 -0.7188
 5159SOL     OW26938   2.900   0.068   6.164  0.2351 -0.3445  0.0074
 5159SOL    HW126939   2.983   0.046   6.206 -0.4468  1.6396  2.4205
 5159SOL    HW226940   2.843   0.046   6.238 -3.0940  0.4335 -2.3537
 5160SOL     OW26941   3.235   0.321   2.713  0.5060 -0.4195 -0.4952
 5160SOL    HW126942   3.219   0.241   2.662 -0.0827 -1.3304  1.1290
 5160SOL    HW226943   3.309   0.369   2.675 -1.9270  2.6653 -1.3119
 5161SOL     OW26944   4.548   2.815   4.710  0.2212 -0.5871  0.1361
 5161SOL    HW126945   4.494   2.743   4.677  1.3927  0.4160 -3.9391
 5161SOL    HW226946   4.508   2.891   4.669  1.0293 -0.0700  0.3114
 5162SOL     OW26947   4.718   4.260   1.220  0.3606  0.4683 -0.2566
 5162SOL    HW126948   0.087   4.278   1.187  0.9561  1.0601  1.6564
 5162SOL    HW226949   4.665   4.231   1.147 -1.0937  1.0082  0.5916
 5163SOL     OW26950   4.447   2.483   6.627  0.3596 -0.8075 -0.4212
 5163SOL    HW126951   4.430   2.534   6.547  0.6702  0.5096  0.3527
 5163SOL    HW226952   4.479   2.550   6.687 -0.3637 -1.0865  0.2753
 5164SOL     OW26953   4.000   2.221  16.183 -0.0733 -0.0832  0.5636
 5164SOL    HW126954   3.958   2.300  16.149 -2.3866 -1.4813  0.1737
 5164SOL    HW226955   3.918   2.185  16.216 -0.9763  2.0042  0.5796
 5165SOL     OW26956   1.648   3.429   1.481  0.0394 -0.4795  0.2017
 5165SOL    HW126957   1.623   3.353   1.534  0.3495  0.3345  1.5137
 5165SOL    HW226958   1.724   3.464   1.527  0.3554  1.0263 -1.4667
 5166SOL     OW26959   1.767   4.113  14.939 -0.4511 -0.2652  0.9341
 5166SOL    HW126960   1.771   4.060  14.859  1.0200  1.1504  0.0671
 5166SOL    HW226961   1.808   4.196  14.916 -1.5375  0.5085  1.7899
 5167SOL     OW26962   3.326   4.559  14.728  0.2398 -0.3897  0.0887
 5167SOL    HW126963   3.304   4.627  14.664  4.5387 -0.2504 -1.1937
 5167SOL    HW226964   3.410   4.532  14.691 -0.8308 -0.0512 -2.6495
 5168SOL     OW26965   3.135   2.441   4.022 -0.1157 -0.0357 -0.2638
 5168SOL    HW126966   3.175   2.393   3.950  0.2890 -0.9737  0.5757
 5168SOL    HW226967   3.045   2.457   3.995  0.5852  1.2129 -1.8892
 5169SOL     OW26968   1.859   4.510   1.929  0.0332 -0.5873 -0.0062
 5169SOL    HW126969   1.951   4.488   1.912 -0.2188 -2.0294  0.4235
 5169SOL    HW226970   1.869   4.598   1.965 -2.0028 -1.2733  2.2315
 5170SOL     OW26971   4.178   4.230   7.800  0.0551  0.0165  0.5357
 5170SOL    HW126972   4.140   4.210   7.885  1.3965 -0.6333  0.9799
 5170SOL    HW226973   4.187   4.139   7.774 -0.7168  0.7190 -2.2622
 5171SOL     OW26974   3.967   0.999   2.284 -0.6155 -0.7422 -0.1546
 5171SOL    HW126975   4.004   0.988   2.196  1.3373 -0.0499  0.5682
 5171SOL    HW226976   4.003   1.085   2.307 -3.3815  1.0198 -2.3889
 5172SOL     OW26977   0.576   3.849  11.246  0.0504 -0.0524 -0.2119
 5172SOL    HW126978   0.494   3.834  11.293  0.8661 -0.5282  1.0300
 5172SOL    HW226979   0.564   3.944  11.235  2.9863  0.5164  1.4513
 5173SOL     OW26980   1.271   4.054   3.367 -0.3360  0.0329 -0.2535
 5173SOL    HW126981   1.238   4.043   3.278  0.9921 -2.0431 -0.5072
 5173SOL    HW226982   1.360   4.019   3.363 -0.1162  0.7132 -1.4766
 5174SOL     OW26983   3.749   0.183   4.144 -0.0313  0.1720 -0.1318
 5174SOL    HW126984   3.795   0.131   4.079  0.1230  1.6437 -1.1942
 5174SOL    HW226985   3.679   0.214   4.088 -0.1154  0.6226  0.2158
 5175SOL     OW26986   3.598   2.360   6.380  0.5098 -0.6158 -0.2511
 5175SOL    HW126987   3.670   2.313   6.338  1.4593  0.7981 -0.1963
 5175SOL    HW226988   3.553   2.404   6.309 -1.6260 -0.3064  1.3085
 5176SOL     OW26989   0.667   1.881  17.290 -0.6793  0.8171  0.3605
 5176SOL    HW126990   0.594   1.939  17.270 -0.7679 -0.3585 -2.7043
 5176SOL    HW226991   0.657   1.863  17.384  2.2633 -0.2918  0.4586
 5177SOL     OW26992   3.181   1.702  13.071 -0.2514  0.3189 -0.1791
 5177SOL    HW126993   3.141   1.703  13.158 -0.1521  0.3957 -0.1348
 5177SOL    HW226994   3.218   1.789  13.057  1.0337 -0.0997  0.6829
 5178SOL     OW26995   0.338   1.621   2.162 -0.1727 -0.2840  0.0191
 5178SOL    HW126996   0.269   1.560   2.187 -0.9897 -0.0564 -1.6740
 5178SOL    HW226997   0.395   1.576   2.098  1.4685  1.2130  0.4333
 5179SOL     OW26998   2.341   4.217  16.160  0.5284  0.2611  0.2332
 5179SOL    HW126999   2.403   4.204  16.232  1.2400 -0.2190 -0.4703
 5179SOL    HW227000   2.260   4.248  16.199  1.9848  1.5986  2.1765
 5180SOL     OW27001   1.371   4.172   0.142 -0.0689  0.6048 -0.3170
 5180SOL    HW127002   1.364   4.256   0.187  0.4447  0.7049 -0.4181
 5180SOL    HW227003   1.458   4.170   0.101  0.0165 -0.2245 -0.0966
 5181SOL     OW27004   2.424   4.194   7.197 -0.1488 -0.2026  0.1392
 5181SOL    HW127005   2.402   4.287   7.192  0.3070 -0.1527 -1.1029
 5181SOL    HW227006   2.369   4.155   7.129 -0.1461  0.0980 -0.0321
 5182SOL     OW27007   2.726   2.070   7.396  0.2930  0.1270 -0.0385
 5182SOL    HW127008   2.719   2.128   7.321  0.6519  0.0098 -0.1633
 5182SOL    HW227009   2.761   2.134   7.458  1.8241  0.6910 -1.4744
 5183SOL     OW27010   2.535   2.926   6.991  0.4488  0.0869  0.3984
 5183SOL    HW127011   2.498   2.856   7.046  2.5460 -2.0092 -0.8565
 5183SOL    HW227012   2.602   2.952   7.054  1.8347 -0.2179 -0.9553
 5184SOL     OW27013   0.471   3.609  15.332  0.4679 -0.1294  0.2702
 5184SOL    HW127014   0.464   3.581  15.423 -2.9917  1.5814  0.5402
 5184SOL    HW227015   0.476   3.704  15.340  0.0530  0.0958 -2.1239
 5185SOL     OW27016   2.564   3.798   7.436 -0.1715  0.2474 -0.2246
 5185SOL    HW127017   2.549   3.704   7.427 -0.0433  0.3358 -1.3814
 5185SOL    HW227018   2.636   3.814   7.375  0.8620  0.0796  0.9356
 5186SOL     OW27019   2.492   3.300  17.250  0.1760  0.8393  0.3258
 5186SOL    HW127020   2.486   3.254  17.334  0.0748 -0.8907 -0.6277
 5186SOL    HW227021   2.541   3.380  17.270  0.1743  1.0058 -0.3269
 5187SOL     OW27022   1.696   1.209   9.147 -0.3791 -0.3000  0.3934
 5187SOL    HW127023   1.680   1.303   9.136  0.2848 -0.0362  1.6504
 5187SOL    HW227024   1.741   1.191   9.065  0.2253  0.0556  0.6469
 5188SOL     OW27025   3.084   1.527   9.572 -0.3036 -0.3864 -0.2428
 5188SOL    HW127026   2.997   1.487   9.577 -0.2557 -0.1451  2.2282
 5188SOL    HW227027   3.081   1.568   9.485 -1.5559 -1.2236 -0.5988
 5189SOL     OW27028   1.915   2.375  16.566 -0.2805 -0.2116 -0.2579
 5189SOL    HW127029   1.863   2.362  16.645  1.8649  2.4631  1.6075
 5189SOL    HW227030   1.954   2.461  16.582 -0.6632 -0.1656  0.4056
 5190SOL     OW27031   1.900   3.951   8.098  0.0853 -0.6291 -0.6531
 5190SOL    HW127032   1.889   4.010   8.173  0.5068 -0.7745 -0.4789
 5190SOL    HW227033   1.957   3.994   8.035 -0.9106 -1.0450 -1.8344
 5191SOL     OW27034   4.027   2.177   5.399  0.2387 -0.0506 -0.1687
 5191SOL    HW127035   4.017   2.129   5.316 -0.8391  1.1615 -0.7345
 5191SOL    HW227036   4.035   2.266   5.364  1.4667 -0.0755  0.0248
 5192SOL     OW27037   3.471   1.770   4.154  0.5838  0.5962 -0.3350
 5192SOL    HW127038   3.409   1.817   4.209 -0.0114 -1.5571  0.8589
 5192SOL    HW227039   3.543   1.831   4.139  0.7993  0.4548  0.1353
 5193SOL     OW27040   1.923   0.657   2.557 -0.3570 -0.2655 -0.1691
 5193SOL    HW127041   1.978   0.677   2.632 -1.6511  1.7380  0.2351
 5193SOL    HW227042   1.953   0.567   2.541  2.9694  1.1054 -1.7018
 5194SOL     OW27043   3.672   0.893  10.713 -0.3939 -0.2339  0.2724
 5194SOL    HW127044   3.623   0.860  10.638 -0.9351  0.3269  0.3720
 5194SOL    HW227045   3.633   0.980  10.716 -1.6206 -0.7231 -1.7368
 5195SOL     OW27046   2.832   1.568   7.533 -0.2789  0.3639  0.1188
 5195SOL    HW127047   2.790   1.483   7.522  0.4490 -0.1676  1.3763
 5195SOL    HW227048   2.795   1.603   7.452 -0.2480  0.0502 -0.0351
 5196SOL     OW27049   2.469   0.372   4.705  0.4760  0.1297  0.4978
 5196SOL    HW127050   2.451   0.304   4.641  1.6376  0.5556 -0.2687
 5196SOL    HW227051   2.448   0.452   4.657  2.7690  0.8770  0.7020
 5197SOL     OW27052   4.483   0.574   3.696  0.2282 -0.4894  0.0413
 5197SOL    HW127053   4.521   0.539   3.777 -1.7455 -1.2492  0.6689
 5197SOL    HW227054   4.437   0.654   3.723  0.0730 -0.3416 -0.6513
 5198SOL     OW27055   0.736   0.729   1.525 -0.3088 -0.4508  0.0244
 5198SOL    HW127056   0.770   0.676   1.453 -0.2150  0.0749 -0.3205
 5198SOL    HW227057   0.767   0.819   1.511 -2.9634  0.2318 -1.4828
 5199SOL     OW27058   1.457   0.795   4.910  0.2495  0.3303 -0.0809
 5199SOL    HW127059   1.478   0.701   4.908  1.9966  0.6534  2.8435
 5199SOL    HW227060   1.483   0.816   5.000  2.2735  0.1007 -0.6041
 5200SOL     OW27061   0.429   3.418  14.734 -0.1143  0.1676 -0.5491
 5200SOL    HW127062   0.492   3.482  14.699  0.0677 -0.3717 -1.1900
 5200SOL    HW227063   0.356   3.438  14.677 -0.2257  1.8699  0.1759
 5201SOL     OW27064   1.348   3.721   2.713 -0.2022  0.1871  0.3162
 5201SOL    HW127065   1.269   3.768   2.740  0.2392  0.7928  0.5467
 5201SOL    HW227066   1.307   3.687   2.634  2.0556 -0.3639 -0.6044
 5202SOL     OW27067   2.354   1.054   6.156 -0.3386 -0.1938 -0.5824
 5202SOL    HW127068   2.281   1.095   6.203  0.7516  0.5754  0.4394
 5202SOL    HW227069   2.371   1.125   6.095 -1.2918  0.7613  0.2669
 5203SOL     OW27070   1.642   3.676  13.979  0.3065 -0.3450 -0.2457
 5203SOL    HW127071   1.698   3.649  14.052  0.6444 -2.5482 -1.3347
 5203SOL    HW227072   1.704   3.742  13.949  0.8102 -0.7703 -0.1375
 5204SOL     OW27073   3.762   3.746   6.337 -0.1103 -0.0752 -0.5000
 5204SOL    HW127074   3.757   3.698   6.254  1.3844  0.0494 -0.6623
 5204SOL    HW227075   3.679   3.792   6.322  0.1328  0.5944  0.2135
 5205SOL     OW27076   1.625   2.108  16.129  0.0817  0.3646  0.2638
 5205SOL    HW127077   1.593   2.048  16.196 -0.6459 -0.5586 -0.8995
 5205SOL    HW227078   1.718   2.087  16.135  0.0554  0.2776  0.3661
 5206SOL     OW27079   0.971   1.515   0.720  0.4833 -0.2229  0.0442
 5206SOL    HW127080   0.961   1.490   0.629  0.9713  0.4335 -0.1835
 5206SOL    HW227081   0.889   1.559   0.742  1.4723  1.4339  0.4259
 5207SOL     OW27082   0.009   2.661   5.956  0.8051  0.2592  0.1184
 5207SOL    HW127083   0.018   2.578   5.910  2.1415 -0.0463  0.9196
 5207SOL    HW227084   0.097   2.697   5.943  1.4667 -0.4262  2.7346
 5208SOL     OW27085   3.955   2.845   5.221  0.3744 -0.7383 -0.6193
 5208SOL    HW127086   4.039   2.838   5.177  0.7468  0.5840 -0.1274
 5208SOL    HW227087   3.895   2.815   5.152 -0.7994  1.2869 -0.4870
 5209SOL     OW27088   2.710   2.354   2.187  0.0968 -0.2881 -0.2309
 5209SOL    HW127089   2.652   2.286   2.154 -0.3589 -0.3628  0.7102
 5209SOL    HW227090   2.668   2.377   2.270 -0.5697  1.0248 -0.9349
 5210SOL     OW27091   3.140   1.980   6.404 -0.2864 -0.3000 -0.7791
 5210SOL    HW127092   3.177   2.026   6.480 -0.3380 -0.2906 -0.7602
 5210SOL    HW227093   3.198   1.908   6.380 -3.3275 -2.0937 -2.7074
 5211SOL     OW27094   4.603   3.300   3.160 -0.2501 -0.3376  0.3566
 5211SOL    HW127095   4.673   3.361   3.136  1.5571 -2.9720 -0.9698
 5211SOL    HW227096   4.530   3.362   3.168  0.5815  0.3433  2.5059
 5212SOL     OW27097   2.358   3.103   2.686 -0.5437 -0.5535  0.3936
 5212SOL    HW127098   2.432   3.163   2.698 -1.8365  0.6594  2.2547
 5212SOL    HW227099   2.316   3.150   2.614  3.1582  1.0365 -0.7203
 5213SOL     OW27100   1.041   0.496   1.518  0.1687  0.2152 -0.4746
 5213SOL    HW127101   1.012   0.409   1.493 -2.1511  0.7001  0.5764
 5213SOL    HW227102   0.975   0.517   1.584  0.1030  0.8483 -0.7352
 5214SOL     OW27103   3.786   1.998   5.653 -0.1641  0.2654 -0.3842
 5214SOL    HW127104   3.764   1.979   5.744 -1.1509  1.5769 -0.3552
 5214SOL    HW227105   3.882   1.999   5.650 -0.1271 -0.6081  0.5210
 5215SOL     OW27106   0.981   1.195  14.659  0.8420 -0.0635  0.2708
 5215SOL    HW127107   0.915   1.144  14.612 -1.6593  1.9001  1.6351
 5215SOL    HW227108   0.946   1.284  14.650 -2.5406 -1.3050  1.0070
 5216SOL     OW27109   1.310   4.585   4.576  0.1367  0.3431  0.5946
 5216SOL    HW127110   1.385   4.569   4.633 -0.4030  1.6062  1.6745
 5216SOL    HW227111   1.310   4.498   4.536 -0.4304  0.1265  1.0765
 5217SOL     OW27112   2.736   0.390   6.380 -0.1733  0.2761  0.1258
 5217SOL    HW127113   2.741   0.367   6.473 -0.9570 -0.9467 -0.1310
 5217SOL    HW227114   2.664   0.453   6.383 -0.2392  0.1913  0.3134
 5218SOL     OW27115   3.627   0.295  10.766  0.3267 -0.3854  0.2768
 5218SOL    HW127116   3.645   0.276  10.858  1.8519  0.2711  0.1272
 5218SOL    HW227117   3.552   0.354  10.778 -0.0910 -0.8753  0.0500
 5219SOL     OW27118   4.428   3.184   0.991  0.1372  0.4660 -0.3427
 5219SOL    HW127119   4.466   3.239   1.060 -0.2776 -0.4152  0.5983
 5219SOL    HW227120   4.344   3.228   0.990  0.2323  0.6056 -1.6524
 5220SOL     OW27121   0.475   1.036   6.186 -0.1088  0.1310  0.2170
 5220SOL    HW127122   0.554   1.029   6.132 -0.4826 -0.8939 -0.2007
 5220SOL    HW227123   0.462   0.942   6.180  0.7654  0.0227 -0.0904
 5221SOL     OW27124   3.219   3.662   2.718 -0.2468  0.0637  0.3684
 5221SOL    HW127125   3.298   3.645   2.770  0.2192  0.4165 -0.2261
 5221SOL    HW227126   3.213   3.597   2.648 -2.2629  0.2276  0.3788
 5222SOL     OW27127   3.972   0.158   8.632  0.0466  0.1616  0.6357
 5222SOL    HW127128   4.034   0.087   8.617  0.6936  0.4888  1.7138
 5222SOL    HW227129   3.924   0.166   8.550  0.3898 -1.0408  0.3145
 5223SOL     OW27130   4.687   3.708   6.671 -0.0862  0.0331  0.2547
 5223SOL    HW127131   4.686   3.804   6.672 -3.3838  0.0268 -1.6910
 5223SOL    HW227132   0.038   3.693   6.608 -0.4952 -1.9003  0.2542
 5224SOL     OW27133   2.405   1.405  11.901  0.4417  0.3925 -0.5371
 5224SOL    HW127134   2.357   1.483  11.930 -2.8887 -1.9264  0.1572
 5224SOL    HW227135   2.406   1.434  11.810 -3.3588  0.3426 -0.5809
 5225SOL     OW27136   2.124   0.442  14.008 -0.4740 -0.0533  0.4957
 5225SOL    HW127137   2.156   0.476  14.091 -2.0182  0.1577  1.0040
 5225SOL    HW227138   2.198   0.461  13.949 -1.1304  0.7509 -0.0718
 5226SOL     OW27139   0.976   1.493   1.977  0.4405  0.0473  0.1818
 5226SOL    HW127140   0.920   1.421   2.006  0.5775 -0.2150 -0.2060
 5226SOL    HW227141   0.945   1.496   1.886 -1.0724 -0.6252  0.6830
 5227SOL     OW27142   2.043   3.706   1.230  0.1709 -0.0510  0.0073
 5227SOL    HW127143   2.041   3.662   1.145 -0.6992  0.9838 -0.5144
 5227SOL    HW227144   1.953   3.694   1.261  0.1709  0.1392  0.0830
 5228SOL     OW27145   2.847   0.616   4.166  0.1344 -0.5997  0.1130
 5228SOL    HW127146   2.789   0.621   4.243  0.3567  1.1385  0.1470
 5228SOL    HW227147   2.827   0.528   4.132 -2.6475  0.1534 -0.2290
 5229SOL     OW27148   2.391   4.699  10.766  0.1998 -0.5916  0.2461
 5229SOL    HW127149   2.427   4.629  10.820  0.4126  0.1622  1.0908
 5229SOL    HW227150   2.337   0.036  10.821  0.2677 -1.3415  1.0743
 5230SOL     OW27151   1.294   4.287  16.759 -0.6422  0.2667 -0.5431
 5230SOL    HW127152   1.351   4.363  16.771  2.9730 -2.4138 -0.8355
 5230SOL    HW227153   1.211   4.312  16.800 -0.4382 -0.0902  0.0796
 5231SOL     OW27154   3.555   3.147   6.400  0.3986 -0.1206 -0.0433
 5231SOL    HW127155   3.597   3.097   6.329  0.2854 -0.2485 -0.0195
 5231SOL    HW227156   3.531   3.068   6.448 -2.9898  1.0777  0.1754
 5232SOL     OW27157   3.518   3.857   7.212  0.0113 -0.6780  0.5699
 5232SOL    HW127158   3.489   3.770   7.184 -0.7726  0.3120 -1.6580
 5232SOL    HW227159   3.514   3.900   7.127  1.7793 -0.1084  0.7653
 5233SOL     OW27160   1.947   0.257  15.532 -0.1842  0.5633  0.5561
 5233SOL    HW127161   2.004   0.208  15.473  0.9535  2.8496 -0.2588
 5233SOL    HW227162   1.864   0.227  15.495  1.0971 -1.0427 -1.0492
 5234SOL     OW27163   2.523   2.798   9.133  0.0547  0.2684  0.4232
 5234SOL    HW127164   2.445   2.752   9.101  0.4272  0.0979 -0.2423
 5234SOL    HW227165   2.491   2.888   9.137 -1.6838 -0.3423  0.1053
 5235SOL     OW27166   4.544   2.855  14.239  0.6302 -0.3102  0.5402
 5235SOL    HW127167   4.622   2.812  14.205 -0.5276 -1.3852 -0.7698
 5235SOL    HW227168   4.582   2.908  14.309  1.2976  1.1078 -0.8998
 5236SOL     OW27169   2.757   2.016  12.140  0.5665  0.0633  0.2359
 5236SOL    HW127170   2.717   1.935  12.172  1.3295  0.7086  2.7884
 5236SOL    HW227171   2.677   2.069  12.137  0.5383 -0.0305 -0.6113
 5237SOL     OW27172   4.382   0.702  17.215  0.2587  0.2268 -0.3252
 5237SOL    HW127173   4.477   0.710  17.207 -0.0914  2.1214 -2.6846
 5237SOL    HW227174   4.352   0.714  17.125  1.7219 -1.4800 -1.0564
 5238SOL     OW27175   3.913   2.469  16.110  0.6818  0.0208 -0.1831
 5238SOL    HW127176   3.955   2.451  16.025 -0.8710  0.5265 -1.0468
 5238SOL    HW227177   3.938   2.559  16.131  1.8425  0.1490 -2.0964
 5239SOL     OW27178   3.813   4.175   7.456  0.0987 -0.3174  0.0949
 5239SOL    HW127179   3.765   4.236   7.400  1.1725  0.1463 -0.3171
 5239SOL    HW227180   3.816   4.096   7.402  0.7254 -1.7236  2.1665
 5240SOL     OW27181   4.370   0.798   7.475 -0.6165 -0.4054  0.1522
 5240SOL    HW127182   4.311   0.841   7.536  0.2508 -1.2920  1.6033
 5240SOL    HW227183   4.306   0.737   7.438  0.8821 -1.1561 -1.2190
 5241SOL     OW27184   1.465   4.555   4.308  0.0233 -0.5664  0.1558
 5241SOL    HW127185   1.561   4.557   4.303  0.0482 -0.3902  0.7789
 5241SOL    HW227186   1.452   4.624   4.374  2.3135 -0.9040  0.9808
 5242SOL     OW27187   1.833   1.398   1.523  0.1771  0.0811  0.0915
 5242SOL    HW127188   1.923   1.430   1.534  0.4282 -0.5395 -0.1520
 5242SOL    HW227189   1.849   1.305   1.507 -1.6749 -0.3268  0.6386
 5243SOL     OW27190   1.954   2.320   9.294 -0.3407  0.5699 -0.4773
 5243SOL    HW127191   1.977   2.232   9.323  0.0468  0.6893 -0.4163
 5243SOL    HW227192   1.873   2.323   9.345  0.0384 -1.4547  0.2610
 5244SOL     OW27193   2.250   0.888   9.624 -0.1920 -0.0787  0.5691
 5244SOL    HW127194   2.173   0.834   9.607  0.9429 -1.8554  1.0642
 5244SOL    HW227195   2.316   0.821   9.645  2.1995  1.3833 -2.2081
 5245SOL     OW27196   4.186   4.305  11.886 -0.1278  0.4213  0.4613
 5245SOL    HW127197   4.228   4.264  11.961  0.4971  1.4491  0.6789
 5245SOL    HW227198   4.202   4.393  11.921  1.3573 -0.5073  2.1137
 5246SOL     OW27199   4.660   3.449  17.586 -0.3320 -0.2886  0.2071
 5246SOL    HW127200   4.705   3.439  17.670  2.1478  2.7104 -0.7565
 5246SOL    HW227201   4.574   3.408  17.599 -1.3595  1.9570  0.5543
 5247SOL     OW27202   3.291   1.830  16.752 -0.0182  0.2469 -0.4059
 5247SOL    HW127203   3.223   1.881  16.795  1.1798 -0.2477  2.0514
 5247SOL    HW227204   3.326   1.787  16.829 -2.5522  0.1102  0.6720
 5248SOL     OW27205   0.764   0.858   2.076  0.5384  0.1336 -0.6367
 5248SOL    HW127206   0.733   0.940   2.114 -0.6450 -1.6700  2.3476
 5248SOL    HW227207   0.790   0.811   2.156 -0.0649  1.2322  0.2077
 5249SOL     OW27208   4.000   0.019   5.341 -0.0693  0.2167  0.5546
 5249SOL    HW127209   4.071   0.074   5.307  0.3012 -0.0245  0.9325
 5249SOL    HW227210   4.023   0.012   5.434  1.9300 -0.6434 -0.0146
 5250SOL     OW27211   3.868   2.963   4.703 -0.4556 -0.1552  0.0502
 5250SOL    HW127212   3.886   3.000   4.616  3.3366  0.4172  1.0885
 5250SOL    HW227213   3.911   2.879   4.691  2.4494  1.2974  0.3810
 5251SOL     OW27214   0.332   3.756   2.373 -0.1722  0.0104  0.0666
 5251SOL    HW127215   0.284   3.714   2.302  0.3440 -1.6599  0.7001
 5251SOL    HW227216   0.271   3.735   2.443  0.1528 -0.8036  0.1119
 5252SOL     OW27217   4.442   4.115   6.609  0.4855  0.3020 -0.7401
 5252SOL    HW127218   4.382   4.177   6.568 -1.1350 -0.1837  0.8968
 5252SOL    HW227219   4.396   4.037   6.579  2.0100 -1.0936  0.5495
 5253SOL     OW27220   1.708   2.400   6.717 -0.6259  0.1688  0.8396
 5253SOL    HW127221   1.654   2.466   6.761 -1.5097 -0.1290  0.1922
 5253SOL    HW227222   1.716   2.332   6.784 -0.8094 -1.6830 -1.0413
 5254SOL     OW27223   3.566   1.404   4.954 -0.4472  0.2974 -0.1085
 5254SOL    HW127224   3.624   1.471   4.990 -0.4810 -1.4999  3.2368
 5254SOL    HW227225   3.586   1.409   4.860 -0.1098 -0.4996 -0.0779
 5255SOL     OW27226   2.545   3.263  15.601  0.7450 -0.5433 -0.5620
 5255SOL    HW127227   2.635   3.297  15.605  0.7078 -0.7082  1.4573
 5255SOL    HW227228   2.537   3.271  15.506  1.0664  1.3444 -0.4356
 5256SOL     OW27229   3.027   4.054  14.690 -0.5050 -0.3523  0.0705
 5256SOL    HW127230   3.052   3.979  14.636 -1.5330 -1.3995  1.0559
 5256SOL    HW227231   3.054   4.015  14.773  0.4238 -1.0553 -0.5553
 5257SOL     OW27232   1.362   1.212  16.267  0.2148  0.2397  0.3921
 5257SOL    HW127233   1.347   1.233  16.360  0.6367 -1.3160  0.8111
 5257SOL    HW227234   1.298   1.143  16.251 -1.3017  1.7293  0.0213
 5258SOL     OW27235   1.739   0.011   3.900  0.2382 -0.2529 -0.5512
 5258SOL    HW127236   1.743   0.060   3.817  1.8565 -0.6604 -0.7038
 5258SOL    HW227237   1.646   4.708   3.905 -0.0667  1.5257  1.8427
 5259SOL     OW27238   1.790   0.870  15.945 -0.5605 -0.5386  0.2440
 5259SOL    HW127239   1.814   0.778  15.957 -1.3386 -0.8915 -0.8493
 5259SOL    HW227240   1.759   0.856  15.855  1.8434  0.0589 -0.6708
 5260SOL     OW27241   1.782   4.271   9.462  0.1175 -0.5724  0.0741
 5260SOL    HW127242   1.737   4.348   9.495  1.6131  0.4378 -0.2238
 5260SOL    HW227243   1.875   4.288   9.476 -0.0432  1.3939 -1.3428
 5261SOL     OW27244   4.059   3.100   1.324  1.0078 -0.2557  0.5205
 5261SOL    HW127245   4.100   3.014   1.315  1.3846  0.1893 -1.9743
 5261SOL    HW227246   4.108   3.144   1.394  3.8104 -0.4795 -1.3234
 5262SOL     OW27247   3.433   0.222   8.861 -0.1149  0.5281  0.0615
 5262SOL    HW127248   3.464   0.193   8.947 -0.4569 -1.3183 -0.4338
 5262SOL    HW227249   3.495   0.202   8.790  0.7319 -0.0496  0.9575
 5263SOL     OW27250   2.084   4.440   7.340 -0.1257 -0.2203 -0.8185
 5263SOL    HW127251   2.131   4.443   7.256  2.8046 -2.4713  0.7590
 5263SOL    HW227252   2.001   4.428   7.294 -0.0247 -1.8074 -0.5910
 5264SOL     OW27253   2.168   0.558  12.477 -0.1634  0.7621  0.6804
 5264SOL    HW127254   2.228   0.563  12.403 -0.8458 -0.4070  0.0522
 5264SOL    HW227255   2.213   0.615  12.540 -0.0336  1.3195  0.0803
 5265SOL     OW27256   3.955   3.893   2.136  0.1314 -0.1307 -0.0226
 5265SOL    HW127257   3.921   3.807   2.113 -0.7511  0.6224 -1.5000
 5265SOL    HW227258   3.946   3.930   2.048  1.1852 -0.3978 -0.2442
 5266SOL     OW27259   4.189   4.243   6.494  0.7611 -0.2683 -0.4012
 5266SOL    HW127260   4.188   4.257   6.588 -2.8026  0.8514 -0.6163
 5266SOL    HW227261   4.157   4.328   6.464 -1.0387 -0.1369  1.9653
 5267SOL     OW27262   3.485   0.015   2.572  0.6824  0.1560  0.2319
 5267SOL    HW127263   3.395   0.046   2.580  0.4288 -1.1636  2.6955
 5267SOL    HW227264   3.535   0.066   2.509 -0.4613 -0.4257 -1.1558
 5268SOL     OW27265   1.882   4.548   5.731 -0.4256  0.4024 -0.8992
 5268SOL    HW127266   1.853   4.458   5.718 -0.5525  0.2673  0.3163
 5268SOL    HW227267   1.962   4.532   5.782 -0.0169 -0.8661 -1.9473
 5269SOL     OW27268   4.503   4.595   1.200 -0.1813  0.1738 -0.1244
 5269SOL    HW127269   4.477   4.508   1.171 -0.8804 -0.2177  1.6573
 5269SOL    HW227270   4.462   4.651   1.135 -0.4324  1.0417  0.7907
 5270SOL     OW27271   0.013   2.451   7.563  0.1774  0.3514 -0.3440
 5270SOL    HW127272   0.064   2.532   7.566 -2.3391  1.8916  0.8965
 5270SOL    HW227273   4.673   2.466   7.636  2.4102 -0.3249  1.5928
 5271SOL     OW27274   1.695   1.892   3.298 -0.6635 -0.0047  0.0688
 5271SOL    HW127275   1.602   1.912   3.299 -0.4519  0.9990 -0.8331
 5271SOL    HW227276   1.733   1.965   3.249  2.6660 -2.2968 -0.7847
 5272SOL     OW27277   3.183   1.677   4.091 -0.0412 -0.2502  0.0282
 5272SOL    HW127278   3.205   1.770   4.095  0.5943 -0.4280  0.7491
 5272SOL    HW227279   3.264   1.638   4.058  0.7350  2.4932 -1.3514
 5273SOL     OW27280   0.806   0.865   5.437  0.2303  0.0532 -0.6072
 5273SOL    HW127281   0.899   0.882   5.453  0.3926  0.2739 -1.7852
 5273SOL    HW227282   0.804   0.770   5.438  1.1037  0.0433  1.6012
 5274SOL     OW27283   4.296   1.032   4.994  0.1813  0.0481  0.6203
 5274SOL    HW127284   4.349   0.959   5.025  0.8838  1.0352  1.7683
 5274SOL    HW227285   4.361   1.075   4.939 -2.5864  0.4447 -2.2885
 5275SOL     OW27286   2.174   3.747  14.494  0.1724 -0.3719 -0.1736
 5275SOL    HW127287   2.169   3.663  14.449  0.8168 -0.3186 -0.3530
 5275SOL    HW227288   2.261   3.782  14.473  1.2534 -0.9458  3.4252
 5276SOL     OW27289   0.563   4.102   6.842  0.9352  0.0002  0.0435
 5276SOL    HW127290   0.560   4.104   6.937  2.3185 -0.3283  0.0909
 5276SOL    HW227291   0.517   4.185   6.825 -0.3437 -0.7821 -0.3233
 5277SOL     OW27292   0.565   4.452   5.252  0.2766 -0.4151 -0.3207
 5277SOL    HW127293   0.552   4.418   5.341 -2.2800  1.3952  0.0107
 5277SOL    HW227294   0.475   4.467   5.222 -0.2973 -1.8668  0.6781
 5278SOL     OW27295   0.751   3.758  15.472 -0.4981  0.3821  0.5635
 5278SOL    HW127296   0.840   3.790  15.461 -0.7287  0.1430 -2.0518
 5278SOL    HW227297   0.758   3.686  15.409  0.9086  0.9399  0.0845
 5279SOL     OW27298   2.447   1.126  10.692  0.1845 -0.4202 -0.2471
 5279SOL    HW127299   2.475   1.112  10.782 -0.7551 -1.5464 -0.1248
 5279SOL    HW227300   2.353   1.144  10.696 -0.0355 -1.3769 -1.0046
 5280SOL     OW27301   4.560   3.006   3.283  0.6835 -0.1583  0.0796
 5280SOL    HW127302   4.498   2.948   3.327 -0.1811 -0.6672 -1.8071
 5280SOL    HW227303   4.494   3.054   3.232  0.2190 -0.1607  0.6876
 5281SOL     OW27304   4.621   3.939   0.694  0.7416  0.0862 -0.2791
 5281SOL    HW127305   4.663   3.861   0.730  2.0018 -0.2459 -2.4219
 5281SOL    HW227306   4.681   4.000   0.735  0.8948 -1.5095  1.8729
 5282SOL     OW27307   0.598   4.567  10.782 -0.1092 -0.0745  0.3719
 5282SOL    HW127308   0.561   4.481  10.762  1.9653 -0.6515 -1.0268
 5282SOL    HW227309   0.524   4.606  10.828 -0.7554  0.7254 -1.3575
 5283SOL     OW27310   0.248   1.681   5.496 -0.1893  0.6594 -0.8654
 5283SOL    HW127311   0.205   1.713   5.575  0.6166  1.1393 -0.6261
 5283SOL    HW227312   0.338   1.714   5.501  0.3617 -1.0255  0.2010
 5284SOL     OW27313   0.385   4.479   3.261 -0.4046 -0.0820 -0.3628
 5284SOL    HW127314   0.328   4.459   3.187 -1.1471  3.6855 -0.7999
 5284SOL    HW227315   0.361   4.569   3.282 -0.3609  0.0283 -0.7875
 5285SOL     OW27316   0.443   1.159   0.075  0.1660 -0.0500  0.1877
 5285SOL    HW127317   0.425   1.194   0.162 -2.3950 -1.7717  0.3444
 5285SOL    HW227318   0.356   1.121   0.065 -0.4036  0.6779  2.2814
 5286SOL     OW27319   3.493   1.101   5.478 -0.3949 -0.3126  0.4843
 5286SOL    HW127320   3.541   1.125   5.558 -0.8010 -1.4186  1.0572
 5286SOL    HW227321   3.428   1.036   5.504 -1.0345  0.5232  0.9858
 5287SOL     OW27322   2.978   2.299   6.236  0.1437  0.2951  0.1549
 5287SOL    HW127323   2.942   2.366   6.294  2.2216  0.4609  1.2478
 5287SOL    HW227324   3.070   2.287   6.260 -0.0575  1.4287  1.5274
 5288SOL     OW27325   3.531   3.651   2.995 -0.2552  0.2439 -0.4142
 5288SOL    HW127326   3.542   3.746   3.003  0.6347 -0.0926  2.2115
 5288SOL    HW227327   3.524   3.641   2.900 -2.5635  1.3002 -0.3688
 5289SOL     OW27328   1.038   1.478   6.407 -0.0922  0.3128  0.2934
 5289SOL    HW127329   1.082   1.555   6.370 -1.3901  0.7007 -0.4524
 5289SOL    HW227330   0.987   1.444   6.333  1.9344 -0.6538 -0.6440
 5290SOL     OW27331   4.470   3.075   4.927 -0.0782  0.3934 -0.5777
 5290SOL    HW127332   4.405   3.117   4.870  0.7989  1.8919 -0.4691
 5290SOL    HW227333   4.548   3.130   4.919  1.4789 -1.5145  1.4682
 5291SOL     OW27334   2.333   1.747   5.437  0.3642  0.1727 -0.3599
 5291SOL    HW127335   2.271   1.799   5.489  0.8445  2.5961 -2.1926
 5291SOL    HW227336   2.303   1.766   5.348  0.8227  0.6481 -0.4120
 5292SOL     OW27337   0.988   1.704  17.523  0.2511 -0.0345 -0.8190
 5292SOL    HW127338   1.038   1.731  17.601  3.1533 -1.8172 -2.0432
 5292SOL    HW227339   1.009   1.612  17.534 -1.0328 -0.2525 -0.2955
 5293SOL     OW27340   4.574   2.434   0.159  0.5303  0.5175  0.0717
 5293SOL    HW127341   4.532   2.508   0.116 -4.0010 -1.3461  1.2753
 5293SOL    HW227342   4.561   2.362   0.097  3.4556 -0.1708  0.2693
 5294SOL     OW27343   0.440   4.522  16.612  0.5496 -0.0395  0.1863
 5294SOL    HW127344   0.407   4.588  16.551  0.7566  0.8474  1.0443
 5294SOL    HW227345   0.394   4.548  16.692  0.4872 -1.3800  0.5815
 5295SOL     OW27346   2.484   0.662   6.631  0.3600  0.0441  0.1674
 5295SOL    HW127347   2.478   0.683   6.538  2.1928  1.2299  0.3220
 5295SOL    HW227348   2.428   0.733   6.662  0.0903  0.5984 -1.5631
 5296SOL     OW27349   0.496   1.339  16.817  0.5149 -0.7930 -0.1001
 5296SOL    HW127350   0.538   1.415  16.857 -1.8232  0.6442 -0.3416
 5296SOL    HW227351   0.403   1.344  16.838  0.1458  0.9142 -2.1131
 5297SOL     OW27352   1.467   1.008   8.878 -0.2548  0.0728  0.2464
 5297SOL    HW127353   1.489   1.046   8.793  0.0012 -2.1307 -0.6750
 5297SOL    HW227354   1.460   0.917   8.852 -0.6660  0.6468 -1.6519
 5298SOL     OW27355   1.474   2.616   8.421 -0.2329  0.4568  0.4839
 5298SOL    HW127356   1.478   2.549   8.352 -0.3536  0.6909  0.2505
 5298SOL    HW227357   1.493   2.697   8.375  0.2224 -0.9809 -1.8837
 5299SOL     OW27358   0.255   3.343   6.736  0.3351  0.1119 -0.2942
 5299SOL    HW127359   0.270   3.431   6.771  1.3895 -0.2188  0.0992
 5299SOL    HW227360   0.179   3.306   6.780 -1.3949  1.6091 -2.0053
 5300SOL     OW27361   0.039   1.238   4.545 -0.3056 -0.2337  0.2422
 5300SOL    HW127362   0.006   1.161   4.498  0.5124  0.0304 -0.7755
 5300SOL    HW227363   0.047   1.292   4.467 -0.7386 -0.0523  0.3195
 5301SOL     OW27364   1.298   3.409   5.531  0.1505 -0.1246 -0.8373
 5301SOL    HW127365   1.312   3.483   5.590  1.4015  1.7515 -3.5180
 5301SOL    HW227366   1.269   3.446   5.448 -1.4160 -0.3179 -0.3823
 5302SOL     OW27367   4.244   1.782  12.766  0.0198  0.4689 -0.1051
 5302SOL    HW127368   4.254   1.689  12.746 -1.6416  0.3534 -0.4557
 5302SOL    HW227369   4.255   1.810  12.675  0.1659  2.6032  0.5699
 5303SOL     OW27370   0.615   4.104  11.613  0.1174  0.5515 -0.2025
 5303SOL    HW127371   0.643   4.123  11.703  0.2025 -3.0148  0.5624
 5303SOL    HW227372   0.521   4.090  11.621  0.4699 -2.0841 -0.5869
 5304SOL     OW27373   0.742   2.179  10.190 -0.7324 -0.0176 -0.2469
 5304SOL    HW127374   0.738   2.176  10.094 -1.3284 -1.6728 -0.1573
 5304SOL    HW227375   0.774   2.267  10.212 -1.1033  0.0786 -0.1051
 5305SOL     OW27376   4.192   4.438  14.349  0.3119 -0.0637  0.8809
 5305SOL    HW127377   4.121   4.433  14.412  1.2357 -2.0196  1.7439
 5305SOL    HW227378   4.265   4.408  14.403  0.1157 -0.3546  0.9791
 5306SOL     OW27379   2.494   4.546  13.774  0.0603 -0.8883  0.3289
 5306SOL    HW127380   2.435   4.512  13.841  1.5652 -2.2462  0.9724
 5306SOL    HW227381   2.568   4.485  13.767  0.1363 -0.5980 -1.3592
 5307SOL     OW27382   1.741   3.053   9.304 -0.0786  0.2056 -0.3104
 5307SOL    HW127383   1.735   3.029   9.397 -0.6392 -1.2111 -0.7112
 5307SOL    HW227384   1.675   2.988   9.280 -0.6788  2.0746 -3.6719
 5308SOL     OW27385   2.576   3.802   5.488 -0.3386  0.7057 -0.0780
 5308SOL    HW127386   2.586   3.708   5.503 -0.3984  0.4271 -1.6854
 5308SOL    HW227387   2.624   3.831   5.565 -0.6126 -1.3002  0.8737
 5309SOL     OW27388   3.182   1.114  10.630 -0.7339 -0.1424 -0.4248
 5309SOL    HW127389   3.099   1.070  10.608 -1.0803 -0.0523  0.6714
 5309SOL    HW227390   3.164   1.203  10.600 -2.0722  0.6030  2.5376
 5310SOL     OW27391   3.674   4.619   4.221  0.0277 -0.3130  0.5885
 5310SOL    HW127392   3.661   4.534   4.180 -0.3119 -1.1033  2.3578
 5310SOL    HW227393   3.665   4.670   4.140 -1.6681 -0.0724  0.9178
 5311SOL     OW27394   3.645   1.833   6.595  0.3231 -0.0304  0.4969
 5311SOL    HW127395   3.688   1.912   6.629 -0.5350  0.5651  0.2162
 5311SOL    HW227396   3.690   1.825   6.512  0.1837 -1.4531  0.5603
 5312SOL     OW27397   3.119   0.641  14.408 -0.1322 -0.1015 -0.0103
 5312SOL    HW127398   3.042   0.655  14.354  1.2811  3.3682 -1.0984
 5312SOL    HW227399   3.128   0.545  14.403  1.1793 -0.0297  1.0230
 5313SOL     OW27400   1.006   3.179   6.016 -0.5140 -0.7624  0.0377
 5313SOL    HW127401   1.097   3.159   6.039 -0.0433  0.7831 -0.4567
 5313SOL    HW227402   1.004   3.275   6.015  0.9980 -0.7436 -1.3663
 5314SOL     OW27403   2.988   4.202   1.526 -0.3794  0.3085 -0.2534
 5314SOL    HW127404   3.006   4.130   1.465  0.7277  0.0649  0.3614
 5314SOL    HW227405   3.062   4.259   1.507 -0.2822 -0.6208 -2.6821
 5315SOL     OW27406   2.137   2.432   7.397  0.2355  0.1756  0.3079
 5315SOL    HW127407   2.203   2.501   7.393 -2.1462  2.6360  3.0420
 5315SOL    HW227408   2.203   2.365   7.419  0.6630  0.2787 -0.6976
 5316SOL     OW27409   3.273   2.305   2.554 -0.4606 -0.0649 -0.5485
 5316SOL    HW127410   3.274   2.271   2.464 -1.2470  1.1746 -1.0358
 5316SOL    HW227411   3.354   2.268   2.588 -0.3557 -0.5996 -1.3755
 5317SOL     OW27412   1.067   2.703   9.808  0.2188  0.3696 -0.6392
 5317SOL    HW127413   1.103   2.665   9.888 -4.0387 -0.1638  1.0085
 5317SOL    HW227414   1.143   2.714   9.750 -0.3123 -0.8846 -1.5779
 5318SOL     OW27415   1.883   1.478  17.590  0.5373 -0.2136  0.0124
 5318SOL    HW127416   1.871   1.412  17.658 -2.0038 -0.5602 -0.7505
 5318SOL    HW227417   1.840   1.553  17.631  1.4877  0.2127  0.2237
 5319SOL     OW27418   0.545   0.363  15.920 -0.0134  0.6449  0.1724
 5319SOL    HW127419   0.474   0.425  15.902 -1.1194 -0.0266  2.3127
 5319SOL    HW227420   0.589   0.390  16.001  1.6948  2.1313 -1.2567
 5320SOL     OW27421   2.043   2.929   0.826 -0.3609  0.1257 -0.3235
 5320SOL    HW127422   1.952   2.957   0.828 -1.4697 -3.4822 -0.0464
 5320SOL    HW227423   2.039   2.838   0.854 -1.1005  0.4581  0.6458
 5321SOL     OW27424   3.020   3.945   2.030 -0.5738 -0.4986  0.3912
 5321SOL    HW127425   3.000   4.022   1.976  0.3986 -0.3091  0.2907
 5321SOL    HW227426   2.932   3.915   2.052 -1.4604  0.9658 -1.0964
 5322SOL     OW27427   1.250   4.559   8.101 -0.2706 -0.5019 -0.2634
 5322SOL    HW127428   1.280   4.555   8.010  0.5383  0.3375 -0.0427
 5322SOL    HW227429   1.286   4.646   8.121 -1.4597 -0.0035 -0.3319
 5323SOL     OW27430   0.467   2.248   9.712 -0.1801  0.2103  0.4361
 5323SOL    HW127431   0.436   2.329   9.672  0.7604 -0.0381 -0.8283
 5323SOL    HW227432   0.555   2.280   9.729  0.0011  0.7735 -1.4893
 5324SOL     OW27433   0.760   2.160   9.921  0.2916 -0.9820  0.2167
 5324SOL    HW127434   0.732   2.074   9.890  0.1949  0.0822 -2.6074
 5324SOL    HW227435   0.758   2.205   9.837 -0.2251 -1.3206  0.0449
 5325SOL     OW27436   1.891   3.252   8.061 -0.3584  0.1141  0.2932
 5325SOL    HW127437   1.859   3.298   7.983 -1.2531 -1.5783 -0.3371
 5325SOL    HW227438   1.837   3.293   8.129 -2.9896 -0.1597 -1.6380
 5326SOL     OW27439   3.048   1.082   8.352  0.0306  0.6282  0.4245
 5326SOL    HW127440   2.983   1.146   8.381  0.4786  1.4215 -0.2832
 5326SOL    HW227441   3.019   1.062   8.263  0.0043 -1.1326  0.8256
 5327SOL     OW27442   2.484   0.769   8.776  0.0826  0.1396 -0.1486
 5327SOL    HW127443   2.404   0.756   8.828 -0.0977 -0.6889 -0.6309
 5327SOL    HW227444   2.514   0.678   8.778 -0.2779  0.0260  0.1338
 5328SOL     OW27445   3.051   3.947  15.743  0.6240 -0.0431  0.1701
 5328SOL    HW127446   2.966   3.904  15.747  1.0649 -0.8918  0.3934
 5328SOL    HW227447   3.064   3.967  15.650 -0.7369 -0.0368 -0.0246
 5329SOL     OW27448   3.048   1.708   9.355 -0.0991 -0.1034  0.0685
 5329SOL    HW127449   3.115   1.697   9.287  0.0136  1.9723 -0.1656
 5329SOL    HW227450   2.971   1.733   9.304 -0.1327 -0.6861 -0.1652
 5330SOL     OW27451   1.518   2.219   6.552  0.1611  0.1609  0.0034
 5330SOL    HW127452   1.557   2.302   6.578  0.7882 -0.0519 -0.2297
 5330SOL    HW227453   1.434   2.249   6.517  0.6641 -0.9247 -2.1797
 5331SOL     OW27454   2.850   1.957   3.107  0.1662 -0.1902 -0.0626
 5331SOL    HW127455   2.889   1.955   3.195 -0.3505  1.5150  0.1915
 5331SOL    HW227456   2.848   2.050   3.085  0.1362  0.6701  3.4963
 5332SOL     OW27457   4.520   4.602   7.013  0.0157  0.1619  0.5815
 5332SOL    HW127458   4.446   4.582   7.071 -0.2562  2.3435  0.9955
 5332SOL    HW227459   4.588   4.632   7.075 -0.5376 -1.0668  1.7903
 5333SOL     OW27460   3.838   0.631  10.724 -0.2104  0.4317  0.2419
 5333SOL    HW127461   3.760   0.684  10.742 -0.1819  0.9296 -1.1126
 5333SOL    HW227462   3.858   0.610  10.815 -0.0021 -1.4767 -0.2355
 5334SOL     OW27463   1.283   1.984  13.677  0.2295  0.0947  0.8055
 5334SOL    HW127464   1.219   1.922  13.711  1.6206 -0.6977  1.9893
 5334SOL    HW227465   1.296   2.038  13.755 -0.1761  0.2331  0.7740
 5335SOL     OW27466   0.601   2.253   7.205  0.0528 -0.1421 -0.4640
 5335SOL    HW127467   0.602   2.335   7.253 -1.0401 -1.5254  1.9328
 5335SOL    HW227468   0.586   2.192   7.278  3.2639 -1.8286 -1.2086
 5336SOL     OW27469   3.046   1.621   3.444 -0.1141  0.1133 -0.0613
 5336SOL    HW127470   3.002   1.606   3.528  0.8546 -0.1056  0.4054
 5336SOL    HW227471   3.114   1.683   3.472  0.3780 -0.4919  0.0947
 5337SOL     OW27472   3.460   2.176   7.096 -0.0757 -0.2463  0.0136
 5337SOL    HW127473   3.461   2.244   7.164  1.5987  1.2408 -1.4688
 5337SOL    HW227474   3.553   2.154   7.094 -0.0719 -0.3591  1.4716
 5338SOL     OW27475   4.562   3.125   4.011 -0.3172 -0.6433  0.2478
 5338SOL    HW127476   4.550   3.219   4.002  0.1821 -0.5535  0.5344
 5338SOL    HW227477   4.516   3.115   4.094 -0.4334 -0.6132  0.1869
 5339SOL     OW27478   1.752   3.682   2.562 -0.0840  0.1438 -0.0149
 5339SOL    HW127479   1.845   3.705   2.569  0.7385 -3.9371  1.8951
 5339SOL    HW227480   1.743   3.684   2.467 -1.3769 -0.1470  0.1077
 5340SOL     OW27481   0.329   3.008   7.458 -0.4922  0.6407 -0.2150
 5340SOL    HW127482   0.379   3.060   7.395 -1.0482 -0.7912 -1.8609
 5340SOL    HW227483   0.361   2.922   7.430  2.0263  1.4612  0.1482
 5341SOL     OW27484   0.529   3.559   1.007  0.0989  0.5214 -0.1094
 5341SOL    HW127485   0.574   3.563   1.092 -1.8567  0.4183  0.9378
 5341SOL    HW227486   0.599   3.537   0.946 -1.7368 -1.9075 -1.3071
 5342SOL     OW27487   0.339   3.700   9.406  1.0052 -0.5847  0.1974
 5342SOL    HW127488   0.396   3.741   9.341  0.8734 -1.7763 -0.6717
 5342SOL    HW227489   0.258   3.695   9.354  0.3443 -1.1581  1.2863
 5343SOL     OW27490   0.543   0.024   3.987  0.0762  0.0549  0.0636
 5343SOL    HW127491   0.568   4.717   3.899  0.6924 -1.1650  0.6008
 5343SOL    HW227492   0.481   0.092   3.962  0.2742  0.9743  2.0546
 5344SOL     OW27493   4.490   0.460  10.549  0.3394 -0.2697  0.6062
 5344SOL    HW127494   4.412   0.405  10.543  0.9889 -1.2764  1.4951
 5344SOL    HW227495   4.540   0.412  10.615  0.3058 -1.2548 -0.0854
 5345SOL     OW27496   3.444   4.138  12.781  0.2768  0.1630  0.0884
 5345SOL    HW127497   3.427   4.118  12.873 -1.1537 -0.7701 -0.3747
 5345SOL    HW227498   3.506   4.066  12.767  1.2377  0.9152  0.4824
 5346SOL     OW27499   1.383   1.342   3.520 -0.3310 -0.7052 -0.3750
 5346SOL    HW127500   1.434   1.386   3.452  2.0132 -0.5977  1.4426
 5346SOL    HW227501   1.381   1.252   3.486 -1.4834 -1.0717  0.6473
 5347SOL     OW27502   2.398   2.250  11.352  0.0963 -0.1749 -0.3264
 5347SOL    HW127503   2.439   2.336  11.344 -0.3377 -0.0082 -0.7601
 5347SOL    HW227504   2.356   2.248  11.438  0.4353  2.2531 -0.1014
 5348SOL     OW27505   3.317   2.007   9.389  0.2626 -0.4426 -0.5756
 5348SOL    HW127506   3.361   1.976   9.310  1.5767 -0.1762  0.0520
 5348SOL    HW227507   3.341   1.937   9.450  0.7838  0.6832  0.5223
 5349SOL     OW27508   3.297   1.457   4.979 -0.6186 -0.0744  0.0232
 5349SOL    HW127509   3.252   1.408   5.048  1.2216  0.5488  1.6646
 5349SOL    HW227510   3.389   1.442   5.003 -0.8690  0.9082  1.6294
 5350SOL     OW27511   1.047   3.132   0.142 -0.0431 -0.2438 -0.5633
 5350SOL    HW127512   1.069   3.221   0.170 -0.2877 -0.6936  1.0385
 5350SOL    HW227513   1.060   3.149   0.049  2.4721 -2.7073 -0.6298
 5351SOL     OW27514   4.611   4.127   7.738 -0.6444 -0.9292  0.1261
 5351SOL    HW127515   4.583   4.080   7.659  1.7760 -0.2076 -1.1335
 5351SOL    HW227516   4.667   4.061   7.778 -0.5189 -0.5502  0.5731
 5352SOL     OW27517   2.712   4.561   9.915  0.2414  0.3380 -0.2655
 5352SOL    HW127518   2.674   4.556  10.003 -0.7901 -0.5921 -0.7578
 5352SOL    HW227519   2.625   4.554   9.875 -0.4227 -0.3154  1.2884
 5353SOL     OW27520   2.857   2.776   6.567 -0.2407  0.4107 -0.4272
 5353SOL    HW127521   2.947   2.770   6.600 -0.3927 -0.0432 -0.0979
 5353SOL    HW227522   2.815   2.791   6.652  0.8123 -1.1194  0.3619
 5354SOL     OW27523   4.218   4.123   4.477  0.2987 -0.1235  0.0407
 5354SOL    HW127524   4.300   4.075   4.466 -0.2221 -1.1402  0.5823
 5354SOL    HW227525   4.152   4.053   4.482  0.5895 -0.1637  3.4172
 5355SOL     OW27526   4.136   4.528   7.577 -0.1017 -0.4686 -0.7252
 5355SOL    HW127527   4.107   4.559   7.664  1.2996 -3.6081  0.8476
 5355SOL    HW227528   4.168   4.445   7.612  1.0813  0.8073  1.2037
 5356SOL     OW27529   1.174   0.300   2.731 -0.1983  0.3243  0.0523
 5356SOL    HW127530   1.196   0.301   2.638  0.0736  3.3541  0.1728
 5356SOL    HW227531   1.085   0.264   2.727  0.4853 -1.3301 -0.1426
 5357SOL     OW27532   0.670   1.023   0.013  0.3580  0.7153 -0.1163
 5357SOL    HW127533   0.599   1.075   0.051  0.8566  1.8746 -0.7666
 5357SOL    HW227534   0.716   0.996   0.093  1.8719  1.3155 -0.7810
 5358SOL     OW27535   0.371   3.846   3.722  0.0129 -0.4299 -0.0540
 5358SOL    HW127536   0.366   3.927   3.672  0.8042  0.1015  0.7276
 5358SOL    HW227537   0.464   3.826   3.734  0.7191  3.5877  1.1299
 5359SOL     OW27538   3.434   1.134   1.933 -0.1217  0.1459  0.0638
 5359SOL    HW127539   3.474   1.210   1.976  0.4322  1.3145 -2.4991
 5359SOL    HW227540   3.444   1.056   1.987  0.2784 -0.6908 -1.2189
 5360SOL     OW27541   3.382   0.256   3.128  0.0665 -0.3144  0.5404
 5360SOL    HW127542   3.425   0.295   3.052 -1.5330  0.9095  0.2746
 5360SOL    HW227543   3.458   0.234   3.181 -0.4100 -0.0140  1.3388
 5361SOL     OW27544   3.618   1.497  17.024 -0.4373  0.1610  0.4467
 5361SOL    HW127545   3.586   1.550  17.097  0.3021  0.0440  0.8524
 5361SOL    HW227546   3.711   1.517  17.016 -0.7408  1.2785 -0.1851
 5362SOL     OW27547   4.315   3.073  13.405 -0.3371 -0.0075  0.8066
 5362SOL    HW127548   4.260   3.109  13.336  0.6821 -1.7527 -0.9044
 5362SOL    HW227549   4.383   3.023  13.360  0.1959  2.2613 -0.8961
 5363SOL     OW27550   4.471   1.514  16.399  0.5515 -0.0837 -0.0839
 5363SOL    HW127551   4.455   1.608  16.412 -1.7139 -0.8946  2.9181
 5363SOL    HW227552   4.559   1.514  16.361  0.8827  0.4698  0.6798
 5364SOL     OW27553   3.443   2.911   5.569  0.1151 -0.5993  0.9817
 5364SOL    HW127554   3.416   3.002   5.583 -2.1108 -1.1181 -0.0080
 5364SOL    HW227555   3.372   2.856   5.601 -2.1574  0.6491 -1.9583
 5365SOL     OW27556   1.122   4.117   8.817 -0.1854 -0.3119  0.5593
 5365SOL    HW127557   1.126   4.044   8.756  1.2853  1.6601 -1.6752
 5365SOL    HW227558   1.053   4.080   8.873 -1.1842 -0.4157 -0.7318
 5366SOL     OW27559   2.363   0.497   8.466  0.2728  0.6677 -0.0148
 5366SOL    HW127560   2.296   0.518   8.531 -0.3222 -1.2673 -0.0288
 5366SOL    HW227561   2.346   0.403   8.459  1.1119  0.1985  3.8429
 5367SOL     OW27562   1.610   3.595  17.372  0.1218 -0.6085 -0.4244
 5367SOL    HW127563   1.521   3.573  17.400  1.4725 -1.6879  3.0093
 5367SOL    HW227564   1.606   3.683  17.335 -0.7679 -0.3503  0.2807
 5368SOL     OW27565   3.210   3.901   5.180 -0.4055  0.0288  0.1892
 5368SOL    HW127566   3.235   3.831   5.239 -1.5692 -2.6208 -2.4672
 5368SOL    HW227567   3.268   3.972   5.207 -1.8697  0.7490  1.4379
 5369SOL     OW27568   3.695   0.610   7.421 -0.1012 -0.2590 -0.5222
 5369SOL    HW127569   3.656   0.522   7.420  1.8147 -1.1396  0.7272
 5369SOL    HW227570   3.646   0.648   7.348  0.1290 -0.1472 -0.6157
 5370SOL     OW27571   2.246   2.959  16.071 -0.2857  0.0818  0.2568
 5370SOL    HW127572   2.246   2.910  16.154  1.1292 -0.0749  0.1653
 5370SOL    HW227573   2.320   2.921  16.025 -0.3053 -0.8204  0.9804
 5371SOL     OW27574   3.603   1.664  13.606  0.7560 -0.5965  0.5272
 5371SOL    HW127575   3.556   1.661  13.523 -0.7386 -1.0784  1.3841
 5371SOL    HW227576   3.610   1.758  13.624  1.3996 -0.9105  1.9384
 5372SOL     OW27577   3.256   4.221   6.221  0.2288  0.6394  0.2058
 5372SOL    HW127578   3.305   4.292   6.261  0.0144  1.6871 -1.3737
 5372SOL    HW227579   3.218   4.186   6.302 -0.9316  1.0544 -0.1557
 5373SOL     OW27580   4.190   3.307   0.179 -0.1302  0.1629 -0.2414
 5373SOL    HW127581   4.254   3.250   0.220 -0.7085  1.1864  2.0857
 5373SOL    HW227582   4.112   3.253   0.190  0.2552 -0.4529 -0.5753
 5374SOL     OW27583   1.015   1.584  13.322 -0.0947 -0.3088  0.6785
 5374SOL    HW127584   1.055   1.525  13.258 -1.0532 -2.1532  1.7857
 5374SOL    HW227585   0.926   1.565  13.293  0.1759 -1.4004  0.5477
 5375SOL     OW27586   2.575   0.348   3.498  0.1612  0.2792 -0.3418
 5375SOL    HW127587   2.636   0.400   3.549 -0.1527  0.0208  0.3104
 5375SOL    HW227588   2.554   0.413   3.432 -2.9146  0.4272  0.7373
 5376SOL     OW27589   0.724   0.617   3.891 -0.1637 -0.3156  0.4418
 5376SOL    HW127590   0.667   0.589   3.963 -0.1317  1.2954  1.0808
 5376SOL    HW227591   0.662   0.671   3.842  1.1110 -0.6606 -1.5227
 5377SOL     OW27592   4.008   3.692  17.282  0.0500 -0.0065 -0.2201
 5377SOL    HW127593   3.949   3.767  17.290 -1.7112 -1.3013 -1.1804
 5377SOL    HW227594   3.957   3.632  17.227 -2.4576  0.5155  1.5365
 5378SOL     OW27595   0.077   0.914   8.368 -0.0154 -0.0979  0.3532
 5378SOL    HW127596   0.135   0.919   8.444 -1.9383  1.2316  1.7238
 5378SOL    HW227597   0.002   0.875   8.413  1.0078 -0.4242  1.7784
 5379SOL     OW27598   2.025   4.604   0.506 -0.3468  0.2724 -0.1163
 5379SOL    HW127599   2.047   4.681   0.559  3.0584 -1.3013  0.7687
 5379SOL    HW227600   2.109   4.558   0.505 -0.2327  0.4512  0.8503
 5380SOL     OW27601   2.488   3.616  16.368  0.3256  0.5092 -0.3242
 5380SOL    HW127602   2.429   3.591  16.297 -0.1293 -0.9594  0.5645
 5380SOL    HW227603   2.548   3.674  16.321  1.8845  0.3995  1.5066
 5381SOL     OW27604   2.232   4.694   5.854 -0.5985 -0.6723  0.0879
 5381SOL    HW127605   2.178   0.033   5.803 -0.4123  0.4110  1.1424
 5381SOL    HW227606   2.287   0.037   5.901 -0.9100 -0.7829  0.6064
 5382SOL     OW27607   0.388   1.058  14.678 -0.3473  0.7517  0.2895
 5382SOL    HW127608   0.385   0.988  14.743 -0.8158  0.6821  0.1971
 5382SOL    HW227609   0.458   1.118  14.704 -0.0911  0.0405  1.2450
 5383SOL     OW27610   3.716   1.149   8.698  0.1022 -0.0336  0.0317
 5383SOL    HW127611   3.652   1.200   8.648 -0.6801 -2.6108 -1.5556
 5383SOL    HW227612   3.773   1.217   8.734  1.0980 -1.4339  1.1199
 5384SOL     OW27613   2.733   3.756   9.078 -0.0743 -0.1277 -0.2677
 5384SOL    HW127614   2.683   3.762   9.159  0.2685  1.0062 -0.1444
 5384SOL    HW227615   2.711   3.669   9.044  2.4772 -0.4927 -1.0148
 5385SOL     OW27616   1.217   2.792   2.870  0.3876  0.4667  0.2644
 5385SOL    HW127617   1.240   2.704   2.840  0.0226 -0.8961  3.9725
 5385SOL    HW227618   1.295   2.844   2.851  0.1527  0.6476 -0.1908
 5386SOL     OW27619   3.162   3.251   2.627 -0.4051  0.1070  0.1882
 5386SOL    HW127620   3.253   3.267   2.603 -0.9346  0.8663 -1.2984
 5386SOL    HW227621   3.171   3.186   2.697  1.7615 -1.2693 -1.3736
 5387SOL     OW27622   2.992   2.300   2.331  0.0175  0.5238  0.0699
 5387SOL    HW127623   3.029   2.368   2.275  2.6636  0.3830  1.6470
 5387SOL    HW227624   2.939   2.350   2.393  0.2527  0.7681  0.0783
 5388SOL     OW27625   1.921   3.785   7.301 -0.5342  0.2180 -0.5279
 5388SOL    HW127626   1.856   3.855   7.309 -0.0314  0.8871 -2.3567
 5388SOL    HW227627   1.991   3.824   7.248 -1.9507  0.6117 -2.1090
 5389SOL     OW27628   3.214   3.135  14.053 -0.0898 -0.1874  0.9543
 5389SOL    HW127629   3.177   3.177  13.976  0.4667 -0.6010  0.4562
 5389SOL    HW227630   3.297   3.106  14.014 -0.6182 -1.0457  0.4639
 5390SOL     OW27631   2.181   1.326   0.290 -0.0438 -0.2604  0.4660
 5390SOL    HW127632   2.220   1.398   0.239  1.0410 -1.0897  0.1316
 5390SOL    HW227633   2.264   1.302   0.332 -1.5867 -0.3716  3.5088
 5391SOL     OW27634   1.549   4.650   2.375 -0.2391  0.9852 -0.1283
 5391SOL    HW127635   1.539   4.598   2.455  0.1066  0.8834 -0.1510
 5391SOL    HW227636   1.559   0.016   2.416 -0.2966  0.8291  0.2107
 5392SOL     OW27637   3.829   2.540   8.422  0.3511  0.8109  0.0669
 5392SOL    HW127638   3.804   2.466   8.366 -2.9668  2.3301 -0.5106
 5392SOL    HW227639   3.832   2.508   8.512  2.3356 -0.3856 -0.4346
 5393SOL     OW27640   3.198   1.619   6.640  0.8130  0.1898 -0.0176
 5393SOL    HW127641   3.200   1.523   6.644 -0.0197  0.1707 -0.1438
 5393SOL    HW227642   3.280   1.633   6.687 -0.2628  0.2114  1.8597
 5394SOL     OW27643   4.061   3.013   6.226 -0.7021 -0.2497  0.4304
 5394SOL    HW127644   4.016   2.989   6.307 -1.6330 -2.3511 -0.7193
 5394SOL    HW227645   4.150   3.012   6.263  0.0862  0.5146 -1.4326
 5395SOL     OW27646   0.932   2.481  15.916  0.0353  0.0573 -0.4265
 5395SOL    HW127647   0.887   2.558  15.952 -1.5339 -1.0243 -0.0673
 5395SOL    HW227648   0.884   2.409  15.959 -0.3191 -0.9377 -2.4881
 5396SOL     OW27649   4.671   3.974   6.686  0.0094  0.4959  0.1202
 5396SOL    HW127650   4.615   4.050   6.668  0.8121  0.8133 -1.0100
 5396SOL    HW227651   0.034   4.018   6.705 -1.0126  2.2324  0.6457
 5397SOL     OW27652   1.901   1.442  15.971 -0.1015  0.1183  0.0279
 5397SOL    HW127653   1.888   1.466  16.063  0.9800  2.7634 -0.5154
 5397SOL    HW227654   1.858   1.357  15.974  0.9524 -0.4825 -1.9531
 5398SOL     OW27655   0.800   0.522   1.319 -0.3955  0.5106  0.4381
 5398SOL    HW127656   0.835   0.437   1.347 -0.1803 -0.0465 -1.4930
 5398SOL    HW227657   0.809   0.520   1.224  0.4026  0.3830  0.5120
 5399SOL     OW27658   4.198   0.734   3.998 -0.2111  0.3054  0.0946
 5399SOL    HW127659   4.215   0.821   4.034  0.6458 -0.7874  2.3294
 5399SOL    HW227660   4.103   0.731   4.012  0.0148  0.3300  1.6127
 5400SOL     OW27661   2.604   0.331   7.059 -0.2118  0.1232  0.2864
 5400SOL    HW127662   2.555   0.309   6.980 -0.6554  1.9140  0.0629
 5400SOL    HW227663   2.589   0.252   7.111 -2.1683  2.2121  2.8936
 5401SOL     OW27664   0.791   1.760   1.993  0.0554 -0.1084 -0.8311
 5401SOL    HW127665   0.865   1.813   2.021  0.7803 -1.1505 -0.7823
 5401SOL    HW227666   0.722   1.792   2.051  2.0836  0.3856  1.3038
 5402SOL     OW27667   1.827   3.962  10.271  0.6127  0.0955 -0.2815
 5402SOL    HW127668   1.814   3.979  10.177 -0.6612 -0.4144 -0.1973
 5402SOL    HW227669   1.883   4.038  10.288  0.1904  0.1930  0.6504
 5403SOL     OW27670   0.819   0.976   5.185 -0.1542 -0.0328  0.1530
 5403SOL    HW127671   0.797   0.957   5.276  1.2691 -1.8750  0.1133
 5403SOL    HW227672   0.825   0.885   5.156  0.0404  0.0076  0.0645
 5404SOL     OW27673   1.472   0.056   3.578 -1.1800 -0.8360 -0.1903
 5404SOL    HW127674   1.426   0.140   3.589  2.8906  1.4107 -0.2151
 5404SOL    HW227675   1.557   0.068   3.621 -1.0229 -2.4239 -0.0864
 5405SOL     OW27676   4.054   3.908   1.642  0.4357  0.3606 -0.1047
 5405SOL    HW127677   3.990   3.907   1.713 -0.0413 -0.3456 -0.5493
 5405SOL    HW227678   3.989   3.931   1.575 -1.2260 -2.0737  0.6689
 5406SOL     OW27679   0.399   3.215  14.907  0.2619  0.1249 -0.5772
 5406SOL    HW127680   0.403   3.247  14.817  0.0404  0.2250 -0.5515
 5406SOL    HW227681   0.422   3.123  14.894 -2.8175 -0.6353 -0.5797
 5407SOL     OW27682   3.844   1.112  17.562 -0.1799 -0.3720 -0.0868
 5407SOL    HW127683   3.914   1.173  17.538  0.8975 -0.4471  2.9013
 5407SOL    HW227684   3.793   1.155  17.630  1.3709  0.5952  0.4499
 5408SOL     OW27685   1.263   3.302   5.024  0.7952 -0.3907 -0.0708
 5408SOL    HW127686   1.211   3.318   5.102  0.6225  0.1486 -0.2979
 5408SOL    HW227687   1.245   3.383   4.975 -1.5163 -0.2874  0.9785
 5409SOL     OW27688   2.863   2.461  12.391  0.5226  0.1426 -0.3821
 5409SOL    HW127689   2.932   2.523  12.416  0.5090 -0.0004  0.0167
 5409SOL    HW227690   2.813   2.503  12.322  0.6160  0.2530 -0.3842
 5410SOL     OW27691   1.814   1.274   8.650  0.5326 -0.3376  0.4932
 5410SOL    HW127692   1.774   1.361   8.648 -0.6231 -0.8651  0.7049
 5410SOL    HW227693   1.865   1.278   8.569 -1.7576 -2.0808 -1.0319
 5411SOL     OW27694   1.634   2.230   8.420  0.7817  0.8456 -0.5262
 5411SOL    HW127695   1.704   2.292   8.402  1.3196  0.9274  1.8828
 5411SOL    HW227696   1.668   2.152   8.376  2.9922  1.2974  0.4439
 5412SOL     OW27697   1.880   1.250   4.063  0.3437 -0.9068  0.4986
 5412SOL    HW127698   1.798   1.212   4.032 -0.9172  1.7005  0.6732
 5412SOL    HW227699   1.920   1.172   4.101  0.2279 -0.4612  1.5281
 5413SOL     OW27700   0.744   4.290   1.200 -0.1557  0.2956 -1.1139
 5413SOL    HW127701   0.695   4.218   1.161 -1.1061 -0.1621  0.9540
 5413SOL    HW227702   0.789   4.254   1.277 -0.5137 -0.5750 -1.3166
 5414SOL     OW27703   2.989   0.287  16.575 -0.1105 -0.3593  0.5412
 5414SOL    HW127704   3.053   0.329  16.632  0.7587 -0.2389 -0.5386
 5414SOL    HW227705   2.979   0.350  16.504 -0.4114 -0.7431  0.2397
 5415SOL     OW27706   4.385   0.033  14.030 -0.2426 -0.2724  0.5590
 5415SOL    HW127707   4.326   0.105  14.007  2.0474  1.3212 -0.3309
 5415SOL    HW227708   4.365   4.689  13.962  3.7004 -1.7554  0.7980
 5416SOL     OW27709   1.754   2.568   5.799  0.8291 -0.0246 -0.1580
 5416SOL    HW127710   1.771   2.522   5.716  0.9697 -0.2890  0.0188
 5416SOL    HW227711   1.753   2.659   5.769 -0.7409 -0.0323 -0.1413
 5417SOL     OW27712   1.099   2.841   5.410  0.4190  0.0199  0.1312
 5417SOL    HW127713   1.176   2.881   5.370 -0.9234  2.3639 -0.1456
 5417SOL    HW227714   1.027   2.869   5.354  1.0078 -0.9843 -1.1323
 5418SOL     OW27715   1.827   1.434   3.233 -0.3959 -0.0199 -0.1663
 5418SOL    HW127716   1.867   1.431   3.146 -1.8883 -3.2091 -0.7392
 5418SOL    HW227717   1.767   1.361   3.216 -0.1419 -0.4853  0.9617
 5419SOL     OW27718   1.326   1.170   1.862  0.1107 -0.0367 -0.2328
 5419SOL    HW127719   1.269   1.107   1.818 -1.1589  0.9644 -0.0240
 5419SOL    HW227720   1.326   1.135   1.951  3.5506  0.6593  0.0239
 5420SOL     OW27721   4.418   2.312  10.118 -0.3369  0.2912  0.0085
 5420SOL    HW127722   4.331   2.351  10.126 -0.7970 -0.6046 -0.6600
 5420SOL    HW227723   4.388   2.231  10.160 -0.2214  0.0597 -0.3640
 5421SOL     OW27724   2.441   3.128   4.073  0.6104 -0.0181 -0.4331
 5421SOL    HW127725   2.356   3.154   4.107  0.4456 -0.4799 -0.4937
 5421SOL    HW227726   2.412   3.080   3.996  0.9505 -0.6051 -0.1967
 5422SOL     OW27727   2.450   2.701   4.253 -0.2095 -0.1156  0.4739
 5422SOL    HW127728   2.386   2.650   4.204 -0.7309 -0.4511  1.5026
 5422SOL    HW227729   2.512   2.643   4.296  0.7455  0.5371 -0.0457
 5423SOL     OW27730   1.017   0.665   7.561  0.3994 -0.0642  0.1441
 5423SOL    HW127731   0.939   0.621   7.527  1.2836  0.2831 -2.3250
 5423SOL    HW227732   1.053   0.589   7.606 -0.6033 -1.0699 -0.7756
 5424SOL     OW27733   4.506   1.751   8.236  0.1320 -0.0917  0.5667
 5424SOL    HW127734   4.422   1.773   8.276  0.6815  0.2022  1.5599
 5424SOL    HW227735   4.562   1.748   8.314 -1.4132 -2.5783  1.5905
 5425SOL     OW27736   0.373   4.060   7.573  0.1573  0.0771  0.0711
 5425SOL    HW127737   0.366   3.981   7.519  0.5777  1.0558 -1.3964
 5425SOL    HW227738   0.301   4.107   7.531  0.7773 -0.7966 -1.9575
 5426SOL     OW27739   3.445   3.998   6.991 -0.1217 -0.1445  0.4465
 5426SOL    HW127740   3.476   3.969   6.905 -0.1701  1.3207 -0.0719
 5426SOL    HW227741   3.398   4.079   6.973 -0.9972 -1.3570 -2.6385
 5427SOL     OW27742   3.267   3.873   0.054 -0.6924 -0.1622  0.2098
 5427SOL    HW127743   3.263   3.893   0.148  1.4515 -2.9397  0.8985
 5427SOL    HW227744   3.176   3.893   0.030 -1.2997 -2.5862  0.4724
 5428SOL     OW27745   3.948   1.240   6.140 -0.4243  0.0999 -0.8228
 5428SOL    HW127746   3.916   1.307   6.079  2.1869  1.9742 -0.1361
 5428SOL    HW227747   3.959   1.168   6.078 -0.2718 -1.4891  1.0944
 5429SOL     OW27748   0.087   4.553   5.972  0.1533 -0.4388  0.1816
 5429SOL    HW127749   0.146   4.614   5.927 -0.7846 -0.4776 -1.1109
 5429SOL    HW227750   0.048   4.515   5.893 -0.1941 -0.6195  0.4461
 5430SOL     OW27751   2.229   3.166   5.000  0.5499  0.1271  0.3055
 5430SOL    HW127752   2.304   3.226   5.003  0.4984  0.4592 -4.4295
 5430SOL    HW227753   2.276   3.082   5.004  0.3255  0.0045  0.3425
 5431SOL     OW27754   1.690   0.181   9.300 -0.3388  0.3423 -0.2310
 5431SOL    HW127755   1.686   0.259   9.355 -2.2311  0.0286  0.0972
 5431SOL    HW227756   1.686   0.115   9.370  4.1824 -1.2156 -1.4368
 5432SOL     OW27757   2.199   2.857   0.575 -0.0590 -0.1357  0.0521
 5432SOL    HW127758   2.103   2.861   0.577 -0.1289 -2.0325  0.5813
 5432SOL    HW227759   2.218   2.859   0.482 -0.1960  0.2164  0.0327
 5433SOL     OW27760   4.682   0.344   2.940  0.6076  0.0899 -0.0919
 5433SOL    HW127761   0.019   0.268   2.932  0.8847  0.2847  0.0280
 5433SOL    HW227762   4.596   0.301   2.944 -0.1099  1.4826 -0.4978
 5434SOL     OW27763   0.851   0.605   2.965  0.1204 -0.0615  0.7714
 5434SOL    HW127764   0.888   0.627   2.879 -0.3103  0.0512  0.6134
 5434SOL    HW227765   0.917   0.551   3.008 -0.0386 -2.6322 -2.1842
 5435SOL     OW27766   3.065   3.915   4.780 -0.0648 -0.2182  0.3530
 5435SOL    HW127767   3.082   3.822   4.794  0.8159 -0.1495 -0.2438
 5435SOL    HW227768   3.147   3.957   4.806  0.0251 -0.0232 -0.2315
 5436SOL     OW27769   1.516   1.405   1.998  0.2544 -0.0317 -0.4010
 5436SOL    HW127770   1.513   1.315   1.966 -2.5804 -0.0072 -0.2197
 5436SOL    HW227771   1.585   1.429   1.936 -0.0175 -2.1132 -1.4975
 5437SOL     OW27772   2.460   0.902   7.856 -0.4089  0.7544  0.1185
 5437SOL    HW127773   2.495   0.919   7.944  0.3673  0.7107 -0.1765
 5437SOL    HW227774   2.426   0.813   7.863  1.9949 -0.2230 -0.6013
 5438SOL     OW27775   0.984   2.518   2.161 -0.0210  0.1058 -0.1185
 5438SOL    HW127776   1.061   2.483   2.205 -0.6446  1.8292  2.3073
 5438SOL    HW227777   0.931   2.552   2.233  2.7461  1.8135  1.1111
 5439SOL     OW27778   0.407   1.539   0.658  0.1167  0.2864  0.4125
 5439SOL    HW127779   0.370   1.626   0.643 -0.5038  0.0387  0.5316
 5439SOL    HW227780   0.419   1.537   0.753  2.7650 -0.4103  0.0647
 5440SOL     OW27781   0.583   4.266  10.751  0.1435  0.1494 -0.3281
 5440SOL    HW127782   0.676   4.269  10.726  0.7071 -0.0168  1.7154
 5440SOL    HW227783   0.591   4.208  10.827 -0.3509 -0.4721 -0.7506
 5441SOL     OW27784   3.804   0.828  13.887 -0.0154  0.2135  0.2715
 5441SOL    HW127785   3.898   0.845  13.880 -0.3308  1.2049 -1.5794
 5441SOL    HW227786   3.788   0.846  13.980  1.5664 -1.5598  0.8912
 5442SOL     OW27787   1.976   1.547   6.789 -0.3078  0.0762  0.2056
 5442SOL    HW127788   2.046   1.528   6.727 -0.1050 -0.4665  0.6008
 5442SOL    HW227789   2.033   1.587   6.855  1.2636 -2.0462  0.1466
 5443SOL     OW27790   1.542   2.412   1.453 -0.2679  0.0771  0.1909
 5443SOL    HW127791   1.522   2.388   1.362  1.1610 -0.5217  0.0299
 5443SOL    HW227792   1.628   2.453   1.447 -0.5687  0.7027  0.0869
 5444SOL     OW27793   1.349   2.232  17.636  0.1802  0.0584  0.0678
 5444SOL    HW127794   1.381   2.315  17.671  0.4977  1.1486 -2.7547
 5444SOL    HW227795   1.276   2.255  17.578  1.9540  1.9129 -1.4488
 5445SOL     OW27796   1.745   1.519   9.776 -0.2973  0.2601  0.0668
 5445SOL    HW127797   1.791   1.434   9.776  2.8023  1.9391  1.2626
 5445SOL    HW227798   1.799   1.581   9.727  1.0340  0.0103  1.1897
 5446SOL     OW27799   1.126   3.774  17.134  0.4208 -0.0081 -0.3065
 5446SOL    HW127800   1.043   3.810  17.103  0.8521  1.2291 -0.0065
 5446SOL    HW227801   1.182   3.824  17.075 -0.5047  1.5855  0.1482
 5447SOL     OW27802   3.316   2.987   8.935  0.2212  0.0832 -0.5726
 5447SOL    HW127803   3.363   2.925   8.991 -0.1975  0.5370  0.2800
 5447SOL    HW227804   3.240   2.933   8.915  0.2107  1.2393 -3.5280
 5448SOL     OW27805   4.261   1.963   3.694 -0.1441 -0.1984 -0.1727
 5448SOL    HW127806   4.352   1.946   3.717  0.5187  3.1758 -0.2299
 5448SOL    HW227807   4.221   1.927   3.773 -0.5533  0.3653 -0.1186
 5449SOL     OW27808   3.244   0.098   7.520  0.3763 -0.1293 -0.2143
 5449SOL    HW127809   3.227   0.009   7.489  1.2481 -0.7643  1.1256
 5449SOL    HW227810   3.273   0.085   7.610 -1.6289  0.4331  0.5149
 5450SOL     OW27811   4.705   2.075  10.158  0.7744 -0.0448 -0.0197
 5450SOL    HW127812   0.049   2.079  10.229  0.3877  0.2122  0.3125
 5450SOL    HW227813   4.714   2.166  10.129  0.6122  0.1128  0.4237
 5451SOL     OW27814   1.391   4.123  13.010 -0.4873  0.0230  0.2206
 5451SOL    HW127815   1.321   4.058  13.002  2.0112 -2.5514 -0.7393
 5451SOL    HW227816   1.335   4.198  12.989 -1.6459 -1.6605 -2.6853
 5452SOL     OW27817   2.779   3.873   7.642 -0.3445 -0.1801 -0.0080
 5452SOL    HW127818   2.725   3.858   7.720  1.7161 -3.1732  0.8214
 5452SOL    HW227819   2.721   3.852   7.569 -0.6278 -1.4134  0.5835
 5453SOL     OW27820   3.217   3.651   4.214 -0.3573  0.3475 -0.7183
 5453SOL    HW127821   3.196   3.597   4.138  0.6862 -1.2521  0.1195
 5453SOL    HW227822   3.142   3.641   4.272  0.2420 -0.2530 -0.0568
 5454SOL     OW27823   2.114   1.678  11.448  0.2331 -0.6222  0.4115
 5454SOL    HW127824   2.056   1.723  11.510 -0.6811 -0.7746 -0.3378
 5454SOL    HW227825   2.056   1.640  11.382  1.1871 -2.3910  0.5899
 5455SOL     OW27826   2.183   3.150   6.356 -0.5074  0.5364 -0.5020
 5455SOL    HW127827   2.204   3.062   6.325 -2.7799 -0.1631 -0.0386
 5455SOL    HW227828   2.103   3.138   6.408 -0.0606 -0.5043 -0.0552
 5456SOL     OW27829   4.631   4.603  10.062  0.3461  0.9096  0.4026
 5456SOL    HW127830   4.713   4.593  10.110  0.9372  2.2377 -0.3328
 5456SOL    HW227831   4.646   4.538   9.993  1.1265 -1.0117  2.3793
 5457SOL     OW27832   3.771   1.531   6.487  0.2570  0.6451  0.5556
 5457SOL    HW127833   3.859   1.555   6.515  0.3194 -0.7606  1.5427
 5457SOL    HW227834   3.787   1.443   6.452 -0.1704  0.4847  0.7589
 5458SOL     OW27835   3.926   0.083   3.401 -0.3519  1.0840  0.0115
 5458SOL    HW127836   3.851   0.045   3.447  0.6418  2.4356  2.6756
 5458SOL    HW227837   3.945   0.162   3.450 -1.1929  2.3298 -1.6600
 5459SOL     OW27838   2.081   4.222   7.586  0.5291 -0.0705  0.3210
 5459SOL    HW127839   2.155   4.181   7.630  0.5294 -0.2027  0.1951
 5459SOL    HW227840   2.011   4.191   7.644  0.9389 -1.3150  0.1468
 5460SOL     OW27841   1.189   0.313   7.042 -0.1122  0.1520  0.4250
 5460SOL    HW127842   1.271   0.262   7.038 -0.7299 -0.9956  2.5528
 5460SOL    HW227843   1.183   0.346   6.952  0.3147  1.7552  0.9993
 5461SOL     OW27844   0.558   0.606   2.795 -0.0483  0.5666  0.2691
 5461SOL    HW127845   0.518   0.527   2.831  0.6727  0.8239  1.6326
 5461SOL    HW227846   0.484   0.660   2.768  0.0522 -0.2816 -1.7456
 5462SOL     OW27847   0.700   2.951  14.505  0.3567 -0.4074 -0.7202
 5462SOL    HW127848   0.693   2.905  14.422 -0.7610 -0.0990 -0.7992
 5462SOL    HW227849   0.682   2.879  14.566 -1.8292  3.1323  2.7757
 5463SOL     OW27850   0.879   1.271   9.195  0.1089  0.7882  0.0100
 5463SOL    HW127851   0.915   1.183   9.206 -1.1516  0.3488  0.6517
 5463SOL    HW227852   0.801   1.257   9.141  0.2403  1.8489 -0.4431
 5464SOL     OW27853   2.884   1.712   5.423  0.5277  0.0319 -0.5470
 5464SOL    HW127854   2.948   1.708   5.494  1.7342  1.7681 -1.5149
 5464SOL    HW227855   2.953   1.711   5.357 -1.5104 -0.6934 -2.6588
 5465SOL     OW27856   1.223   3.535   7.912  0.1310  0.3549  0.1919
 5465SOL    HW127857   1.225   3.516   8.006  2.5687  0.1790  0.1145
 5465SOL    HW227858   1.185   3.455   7.876  1.6277 -1.1841  1.9975
 5466SOL     OW27859   2.415   0.547   7.137  0.0963 -0.3950  0.5056
 5466SOL    HW127860   2.493   0.493   7.131  0.9426  0.6554  2.0740
 5466SOL    HW227861   2.413   0.568   7.230 -0.1492  1.7352  0.0342
 5467SOL     OW27862   2.115   2.321   2.106 -0.8028 -0.0028 -0.0882
 5467SOL    HW127863   2.167   2.382   2.159  3.0286 -1.4352 -2.1707
 5467SOL    HW227864   2.036   2.371   2.091 -1.2129 -0.3266  0.9364
 5468SOL     OW27865   1.995   4.419   4.328  0.7788  0.2846  0.2113
 5468SOL    HW127866   1.966   4.467   4.251  0.7803  0.8193  0.5441
 5468SOL    HW227867   2.017   4.496   4.381  0.5914  0.0943  0.5661
 5469SOL     OW27868   0.008   0.066  15.984 -0.9127 -0.2709 -0.6048
 5469SOL    HW127869   0.094   0.029  16.002 -1.2623 -0.7819 -0.0029
 5469SOL    HW227870   4.680   4.708  15.955 -0.4288 -0.7345 -0.1379
 5470SOL     OW27871   4.066   0.915  14.976 -0.1536 -0.5248  0.1621
 5470SOL    HW127872   4.021   0.830  14.976  2.2805 -1.8290  0.1387
 5470SOL    HW227873   4.116   0.913  15.058 -2.0519  2.1933  1.3726
 5471SOL     OW27874   1.181   4.030   5.964 -0.2294 -0.3686 -0.4678
 5471SOL    HW127875   1.117   4.034   5.893 -0.0255 -1.0025 -0.6825
 5471SOL    HW227876   1.259   3.992   5.924 -0.9024  0.2569 -2.3833
 5472SOL     OW27877   3.355   4.448  13.711  0.0506 -0.3938 -0.1642
 5472SOL    HW127878   3.309   4.528  13.684  3.2181  1.6903  0.6223
 5472SOL    HW227879   3.443   4.469  13.680 -0.0722  0.7323  0.2725
 5473SOL     OW27880   2.701   2.758  11.258 -0.4487  0.3848 -0.2456
 5473SOL    HW127881   2.765   2.700  11.300  1.9169  0.6695 -3.5055
 5473SOL    HW227882   2.686   2.824  11.325  2.7772  2.0978 -1.2330
 5474SOL     OW27883   2.005   1.730  16.305  0.0155 -0.3460  0.3808
 5474SOL    HW127884   1.952   1.652  16.287  0.7327 -1.2855  2.3169
 5474SOL    HW227885   1.987   1.795  16.237 -0.5486 -0.2120  0.6542
 5475SOL     OW27886   0.914   2.873   9.280  0.1225 -0.0097  0.1267
 5475SOL    HW127887   0.859   2.857   9.357 -0.2342 -1.7246 -0.4698
 5475SOL    HW227888   0.865   2.827   9.211 -1.3095 -1.3389  2.0447
 5476SOL     OW27889   2.804   0.459   9.976  0.1351  0.4658 -0.2457
 5476SOL    HW127890   2.847   0.545   9.975  0.6784  0.2062  0.5847
 5476SOL    HW227891   2.747   0.460  10.053  2.1979 -0.3016  1.2743
 5477SOL     OW27892   4.310   1.229   1.289  0.4913  0.0497 -0.6500
 5477SOL    HW127893   4.359   1.220   1.207 -2.8420 -1.4590 -2.4596
 5477SOL    HW227894   4.293   1.323   1.299 -0.4746 -0.2884  0.8315
 5478SOL     OW27895   4.255   0.057   1.937 -0.0882  0.0760  0.3886
 5478SOL    HW127896   4.170   0.018   1.916  0.3374  0.1678 -1.4962
 5478SOL    HW227897   4.289   0.078   1.850 -2.3494 -2.5352 -1.1137
 5479SOL     OW27898   1.320   3.588   5.139  0.8106  0.4191 -0.5471
 5479SOL    HW127899   1.327   3.507   5.090 -1.2123 -0.9556  1.4141
 5479SOL    HW227900   1.243   3.578   5.195  0.7477 -1.0271 -0.9080
 5480SOL     OW27901   1.972   0.363   6.719  0.4078  0.1789 -0.2910
 5480SOL    HW127902   1.998   0.361   6.811 -0.4667 -0.9076 -0.0673
 5480SOL    HW227903   1.976   0.458   6.702  1.3930  0.0368 -0.9241
 5481SOL     OW27904   3.246   2.401   1.383  0.1919  0.0571  0.0628
 5481SOL    HW127905   3.314   2.455   1.422 -1.1431  0.6138  1.6060
 5481SOL    HW227906   3.241   2.429   1.291  2.4880 -0.4957 -0.2151
 5482SOL     OW27907   3.040   2.477  10.636  0.0535  0.3233  0.3054
 5482SOL    HW127908   3.116   2.430  10.600 -2.4928 -1.5331 -2.6050
 5482SOL    HW227909   2.973   2.448  10.574 -0.0409  1.0848  0.0574
 5483SOL     OW27910   3.115   2.880   4.244 -0.1857  0.0264  0.3516
 5483SOL    HW127911   3.137   2.971   4.226 -1.9566  0.4206  0.1139
 5483SOL    HW227912   3.178   2.853   4.310  2.5494  0.2420 -2.1836
 5484SOL     OW27913   1.491   1.366   0.962 -0.3092  0.1626  0.3304
 5484SOL    HW127914   1.534   1.451   0.969  0.6289 -0.0513 -2.9806
 5484SOL    HW227915   1.554   1.305   1.001  0.4317 -0.2177 -1.4467
 5485SOL     OW27916   2.885   1.927   3.585 -0.1670 -0.3338 -0.6608
 5485SOL    HW127917   2.975   1.932   3.615  0.0044  0.8267 -1.4048
 5485SOL    HW227918   2.853   1.846   3.627 -2.6257  1.0296  0.0816
 5486SOL     OW27919   1.806   3.902   5.888  0.0986 -0.6579 -0.4217
 5486SOL    HW127920   1.788   3.840   5.818 -0.4652 -0.7828 -0.1697
 5486SOL    HW227921   1.768   3.859   5.964  0.2628  1.2447  0.7500
 5487SOL     OW27922   2.036   1.849   3.881 -0.3652  0.0397  0.1552
 5487SOL    HW127923   2.043   1.941   3.858  1.4280 -0.6322 -1.9165
 5487SOL    HW227924   2.041   1.868   3.975 -1.9849  1.0321  0.0467
 5488SOL     OW27925   1.343   0.575   8.130  0.3957 -0.1010  0.4326
 5488SOL    HW127926   1.432   0.608   8.119  0.8851 -2.3650 -2.2794
 5488SOL    HW227927   1.362   0.506   8.193 -2.3317 -3.4148 -2.3633
 5489SOL     OW27928   4.681   0.224   6.058 -0.2868  0.2893  0.7853
 5489SOL    HW127929   0.041   0.205   6.010 -0.0626 -1.7013  1.9355
 5489SOL    HW227930   4.709   0.266   6.140  2.1292  1.2966 -0.5787
 5490SOL     OW27931   0.719   3.260   9.215  0.0657 -0.5301  0.1635
 5490SOL    HW127932   0.791   3.301   9.262  1.3378 -0.8132 -1.5278
 5490SOL    HW227933   0.745   3.173   9.184  2.0303  0.1682 -0.1620
 5491SOL     OW27934   0.994   2.223   6.048 -0.1922  0.0607  0.3597
 5491SOL    HW127935   0.955   2.290   5.992 -0.1891 -0.8356 -0.7319
 5491SOL    HW227936   1.030   2.157   5.989 -0.3350  0.5793 -0.3060
 5492SOL     OW27937   0.461   0.517   8.246  0.2247 -0.7255 -0.3621
 5492SOL    HW127938   0.386   0.526   8.305 -0.4096  1.7068 -1.5492
 5492SOL    HW227939   0.418   0.525   8.161  3.4879  1.0210 -1.8270
 5493SOL     OW27940   4.203   3.989   6.404 -0.0716  0.1299  0.4065
 5493SOL    HW127941   4.108   3.983   6.413 -0.3460  1.7506 -1.3203
 5493SOL    HW227942   4.209   4.083   6.422  0.7130  0.0075  0.7968
 5494SOL     OW27943   3.572   0.499  11.027  0.3120 -0.0337 -0.1194
 5494SOL    HW127944   3.524   0.509  11.109  0.3990  2.0954 -0.3422
 5494SOL    HW227945   3.632   0.572  11.041  0.1354  0.5741 -2.5948
 5495SOL     OW27946   1.982   3.522  11.049 -0.0652 -0.2325  0.5859
 5495SOL    HW127947   1.959   3.615  11.041 -1.6455 -0.6066  0.8533
 5495SOL    HW227948   1.941   3.497  11.132 -0.6725  1.1689  0.7048
 5496SOL     OW27949   1.246   1.802   8.276  0.0819 -0.0314 -0.3147
 5496SOL    HW127950   1.319   1.854   8.242  0.2717 -0.2206 -0.1919
 5496SOL    HW227951   1.257   1.798   8.371  0.3852 -2.1352 -0.4393
 5497SOL     OW27952   0.009   3.814   4.183 -0.1770  0.6090  0.2200
 5497SOL    HW127953   0.039   3.875   4.115  1.3832  0.7043  0.9937
 5497SOL    HW227954   4.681   3.751   4.128  1.0013 -0.3518  0.2995
 5498SOL     OW27955   3.452   1.425   2.824  0.4634  0.4994  0.2986
 5498SOL    HW127956   3.481   1.438   2.914  2.0709 -4.3139  0.4757
 5498SOL    HW227957   3.372   1.479   2.822 -0.0681 -0.3201 -0.8182
 5499SOL     OW27958   2.502   3.733  10.621  0.5463  0.0582 -0.2513
 5499SOL    HW127959   2.511   3.756  10.713 -0.0190  1.8543 -0.6522
 5499SOL    HW227960   2.446   3.807  10.600  0.6513 -0.2648 -1.7021
 5500SOL     OW27961   4.528   1.732   8.794 -0.0962  0.1636 -0.5720
 5500SOL    HW127962   4.486   1.808   8.834  0.7106  0.5588 -0.4722
 5500SOL    HW227963   4.477   1.664   8.837  0.0413  0.7293  0.4755
 5501SOL     OW27964   4.531   4.314   7.151 -0.2846  0.1037 -0.0279
 5501SOL    HW127965   4.620   4.339   7.126 -0.6559  1.4804  0.0138
 5501SOL    HW227966   4.481   4.304   7.070 -1.0265 -0.4878  0.5098
 5502SOL     OW27967   4.143   2.772  10.136  0.2811 -0.2657 -0.1431
 5502SOL    HW127968   4.049   2.767  10.150  0.2996  0.0794  0.0902
 5502SOL    HW227969   4.150   2.725  10.052  0.3324  0.2706 -0.4389
 5503SOL     OW27970   0.087   3.496  17.354 -0.7796 -0.1728  0.2314
 5503SOL    HW127971   0.034   3.494  17.434 -1.5020  0.2773 -0.2280
 5503SOL    HW227972   0.022   3.469  17.289 -0.5082 -0.2668  0.0041
 5504SOL     OW27973   3.324   1.026   3.591 -0.1665  0.3203 -0.0513
 5504SOL    HW127974   3.241   1.066   3.619 -1.7507 -3.2658  0.3683
 5504SOL    HW227975   3.330   1.067   3.505 -0.9322  0.7014  0.0734
 5505SOL     OW27976   3.829   1.050   0.568 -0.1099  0.2980 -0.0591
 5505SOL    HW127977   3.866   1.003   0.643  1.0936  2.0460  0.4514
 5505SOL    HW227978   3.771   1.111   0.613 -0.5544 -0.1722  0.0023
 5506SOL     OW27979   1.798   1.796   6.633 -0.3127 -0.0517 -0.3626
 5506SOL    HW127980   1.823   1.758   6.717 -1.8131 -1.8118 -0.7043
 5506SOL    HW227981   1.744   1.867   6.668  0.7506  0.4256  0.2873
 5507SOL     OW27982   2.054   2.145   2.796 -0.4905 -0.5605  0.3241
 5507SOL    HW127983   2.093   2.179   2.716 -1.6538  0.3852  0.1641
 5507SOL    HW227984   1.967   2.119   2.764 -0.0792  0.3604 -1.5392
 5508SOL     OW27985   2.765   1.974   8.112  0.2805  0.1932 -0.2364
 5508SOL    HW127986   2.677   2.011   8.103  0.1065 -0.1980 -0.1471
 5508SOL    HW227987   2.805   1.990   8.027  0.6280  0.1400 -0.0829
 5509SOL     OW27988   3.122   1.177   3.685 -0.0392 -0.4602 -0.5292
 5509SOL    HW127989   3.118   1.266   3.649 -1.3988 -0.3975 -0.2059
 5509SOL    HW227990   3.030   1.162   3.704  0.3551  0.4557  2.1307
 5510SOL     OW27991   2.803   2.476   8.078  0.2271 -0.4125 -0.6225
 5510SOL    HW127992   2.720   2.430   8.077 -0.0783  0.1001  1.8621
 5510SOL    HW227993   2.839   2.458   7.991 -2.7422 -0.3179 -1.8559
 5511SOL     OW27994   3.810   1.823  10.340  0.0993 -0.3221  0.0405
 5511SOL    HW127995   3.790   1.851  10.430  1.3408  2.0418 -0.4317
 5511SOL    HW227996   3.756   1.745  10.353 -2.1519  1.2052 -0.0543
 5512SOL     OW27997   0.798   1.984   0.089 -0.4608  0.9086  0.0472
 5512SOL    HW127998   0.836   2.072   0.096 -1.1785  1.4253 -2.5867
 5512SOL    HW227999   0.722   1.989   0.147 -0.6331  1.7854 -0.2482
 5513SOL     OW28000   4.539   1.101   3.619 -0.1903 -0.0879  0.0909
 5513SOL    HW128001   4.627   1.136   3.604 -0.1903 -0.1565 -0.0680
 5513SOL    HW228002   4.556   1.036   3.688  1.0172 -1.0165 -1.0758
 5514SOL     OW28003   3.157   1.886   1.505  0.4019 -1.6801  0.2090
 5514SOL    HW128004   3.130   1.817   1.445 -2.3658 -0.4847  0.0808
 5514SOL    HW228005   3.189   1.963   1.459 -2.7865 -1.8555 -2.2979
 5515SOL     OW28006   4.338   3.970   3.244  0.2817 -0.3259 -0.4958
 5515SOL    HW128007   4.408   3.921   3.202  1.2179 -1.2749  2.2120
 5515SOL    HW228008   4.373   4.059   3.243  2.6313 -1.2584 -0.6691
 5516SOL     OW28009   1.776   2.338   2.588  0.5564 -0.0035 -0.4579
 5516SOL    HW128010   1.796   2.258   2.638  1.6956  0.5632  0.0094
 5516SOL    HW228011   1.716   2.380   2.650 -1.8010 -0.2587 -2.6101
 5517SOL     OW28012   0.672   4.111  11.887 -0.0278  0.7362 -0.1627
 5517SOL    HW128013   0.603   4.045  11.884  0.3940  0.2823  0.1675
 5517SOL    HW228014   0.689   4.142  11.976 -1.0862 -0.8035  0.5841
 5518SOL     OW28015   2.965   4.061   5.519  0.6929 -0.3760  0.5032
 5518SOL    HW128016   2.874   4.075   5.546  0.3939  1.9980 -1.7112
 5518SOL    HW228017   2.950   3.988   5.458 -1.7300  0.1622  0.4745
 5519SOL     OW28018   2.917   0.945   3.696 -0.7070  0.2164  0.1552
 5519SOL    HW128019   2.898   0.871   3.754 -0.0563 -2.8084 -3.4478
 5519SOL    HW228020   2.917   0.912   3.606 -1.9889  0.1578  0.1753
 5520SOL     OW28021   0.908   4.716   4.669  0.4086  0.2362  0.9503
 5520SOL    HW128022   0.918   4.631   4.711 -1.4001 -0.7916 -0.7004
 5520SOL    HW228023   0.853   4.701   4.592  0.6507 -0.0886  0.8421
 5521SOL     OW28024   2.151   0.636   3.846 -0.7402 -0.6634  0.2447
 5521SOL    HW128025   2.109   0.717   3.874 -0.1184 -0.0772 -0.5109
 5521SOL    HW228026   2.105   0.610   3.766 -1.8771 -3.0116  1.6273
 5522SOL     OW28027   3.100   1.890  15.512 -0.3573 -0.1605 -0.2917
 5522SOL    HW128028   3.149   1.910  15.432 -2.1807 -1.5362 -1.7709
 5522SOL    HW228029   3.012   1.900  15.476 -0.6012  0.1484  0.4053
 5523SOL     OW28030   2.415   1.031   9.435 -0.2097  0.1589 -0.0263
 5523SOL    HW128031   2.375   0.992   9.357  1.2152 -0.1763 -0.5855
 5523SOL    HW228032   2.356   0.988   9.497  0.6178 -0.4227  0.3728
 5524SOL     OW28033   2.522   4.158   8.211  0.2512  0.3192 -0.5594
 5524SOL    HW128034   2.592   4.198   8.264 -2.5169  4.6688 -0.2163
 5524SOL    HW228035   2.456   4.218   8.245 -0.0400 -0.3002 -0.0366
 5525SOL     OW28036   1.585   2.468  12.316  0.3295 -0.3539  0.1668
 5525SOL    HW128037   1.622   2.544  12.271 -0.3789  0.4557  0.9507
 5525SOL    HW228038   1.659   2.408  12.324  0.0544 -1.0563 -2.3745
 5526SOL     OW28039   3.242   2.333  15.181  0.2590  0.2838 -0.0984
 5526SOL    HW128040   3.201   2.344  15.095 -1.2250  0.4744  0.6394
 5526SOL    HW228041   3.279   2.246  15.165 -1.3057 -0.2898 -0.6351
 5527SOL     OW28042   4.013   3.260  17.409 -0.4612  0.7778 -0.7282
 5527SOL    HW128043   3.981   3.181  17.365 -0.1687  0.4403 -0.3349
 5527SOL    HW228044   3.936   3.315  17.395  0.4431  2.0683 -0.5928
 5528SOL     OW28045   0.123   0.148   8.780 -0.3987  0.3617  0.1371
 5528SOL    HW128046   0.204   0.122   8.826 -0.0809 -1.0309 -1.2092
 5528SOL    HW228047   0.138   0.237   8.748 -0.7827  0.3202 -0.1537
 5529SOL     OW28048   1.305   1.666   4.979 -0.2545 -0.5633 -0.1461
 5529SOL    HW128049   1.211   1.683   4.990 -0.1480  0.1803 -0.3447
 5529SOL    HW228050   1.317   1.671   4.884 -2.1003  0.7611 -0.3285
 5530SOL     OW28051   0.275   0.170   7.080  0.1734  0.0256 -0.5550
 5530SOL    HW128052   0.277   0.183   7.175  2.3347 -0.2077 -0.5667
 5530SOL    HW228053   0.278   0.258   7.044  0.9836  1.2842  2.6037
 5531SOL     OW28054   3.847   1.090   5.706  0.0467 -0.0353 -0.2022
 5531SOL    HW128055   3.871   0.998   5.719  0.9919  0.1768 -0.4242
 5531SOL    HW228056   3.763   1.091   5.661  0.7652 -0.1671 -1.5700
 5532SOL     OW28057   2.647   1.215  16.852  0.3971 -0.4175  0.6564
 5532SOL    HW128058   2.567   1.209  16.800 -0.4160  0.6493  1.7738
 5532SOL    HW228059   2.677   1.298  16.815 -2.9098  0.4532 -0.0332
 5533SOL     OW28060   2.392   4.186  17.041 -0.2990 -0.1537 -0.2623
 5533SOL    HW128061   2.432   4.261  16.996 -0.6895  0.7934  0.9412
 5533SOL    HW228062   2.385   4.221  17.130  0.6031  0.5977 -0.4839
 5534SOL     OW28063   3.285   0.744   4.884  0.0729 -0.0730 -0.0625
 5534SOL    HW128064   3.214   0.728   4.822  0.6149 -0.0901 -0.6856
 5534SOL    HW228065   3.364   0.727   4.832 -1.2756 -0.2922 -2.0560
 5535SOL     OW28066   2.387   2.304   9.667 -0.2696 -0.4670 -0.1799
 5535SOL    HW128067   2.302   2.260   9.672 -0.0522 -0.8135  0.5456
 5535SOL    HW228068   2.434   2.249   9.605  2.6999  1.6537  0.1893
 5536SOL     OW28069   2.504   4.257   1.592 -0.1774  0.0859  0.0123
 5536SOL    HW128070   2.599   4.265   1.580  0.0642 -0.3194  1.5645
 5536SOL    HW228071   2.474   4.340   1.556 -1.2737  1.1054  3.2155
 5537SOL     OW28072   2.400   1.015   8.434 -0.1506 -0.2981  0.3243
 5537SOL    HW128073   2.405   1.043   8.526 -1.8333 -1.1371  0.6826
 5537SOL    HW228074   2.482   0.966   8.432 -0.9927 -1.5428 -3.4491
 5538SOL     OW28075   4.607   3.968   8.535 -0.1205 -0.1608 -0.3196
 5538SOL    HW128076   4.575   3.898   8.478  0.6682  0.6622 -1.7690
 5538SOL    HW228077   4.584   3.927   8.619 -0.9185 -2.3378 -1.5830
 5539SOL     OW28078   1.582   2.369   3.630  0.1147 -0.2449  0.1161
 5539SOL    HW128079   1.503   2.423   3.617 -0.3209 -1.4645 -2.2636
 5539SOL    HW228080   1.607   2.342   3.541 -2.2043 -0.2234 -0.5553
 5540SOL     OW28081   0.862   2.933   2.127  0.2792  0.0650 -0.5180
 5540SOL    HW128082   0.897   2.995   2.063 -1.7831  3.0445  1.2270
 5540SOL    HW228083   0.807   2.879   2.070 -2.0210 -0.2632  2.0022
 5541SOL     OW28084   0.037   1.509  16.375 -0.1323  0.2064  1.1412
 5541SOL    HW128085   0.066   1.423  16.407 -1.8408 -0.6136  0.4954
 5541SOL    HW228086   0.100   1.568  16.416  2.2512 -0.3156 -1.7633
 5542SOL     OW28087   1.654   2.096   7.848  0.3889 -0.1503 -0.1821
 5542SOL    HW128088   1.719   2.149   7.802  0.4431  0.8014  1.0119
 5542SOL    HW228089   1.704   2.064   7.923  0.6013  1.1804  0.2416
 5543SOL     OW28090   3.949   0.063   1.768  0.2907  0.3032  0.2732
 5543SOL    HW128091   3.875   0.122   1.784 -1.8866 -2.8651  2.0017
 5543SOL    HW228092   3.958   0.012   1.849  0.2912  0.6133  0.4716
 5544SOL     OW28093   2.635   0.833  13.084 -0.3878  0.0592 -0.2504
 5544SOL    HW128094   2.716   0.828  13.135  0.4766  0.3158 -1.5803
 5544SOL    HW228095   2.663   0.824  12.992 -0.6051 -1.5458 -0.1602
 5545SOL     OW28096   2.378   0.247   9.497 -0.2693  0.4443  0.1721
 5545SOL    HW128097   2.467   0.222   9.522 -0.2227  1.7357  1.3478
 5545SOL    HW228098   2.338   0.162   9.481 -0.6318  0.8739 -1.2251
 5546SOL     OW28099   2.176   2.792   7.883 -0.2816 -0.0106  0.3553
 5546SOL    HW128100   2.227   2.741   7.821 -0.7056 -2.5415  2.0948
 5546SOL    HW228101   2.106   2.825   7.827 -0.7573  1.3642  1.7612
 5547SOL     OW28102   0.754   0.816   9.647  0.9433 -0.3190 -0.5540
 5547SOL    HW128103   0.816   0.888   9.658  0.4586  0.0577 -0.2192
 5547SOL    HW228104   0.727   0.841   9.559  3.1128  0.3737 -1.0173
 5548SOL     OW28105   0.435   3.141   4.619  0.5991  0.3164 -0.4669
 5548SOL    HW128106   0.452   3.234   4.604  1.2251  0.1248 -0.9376
 5548SOL    HW228107   0.340   3.137   4.611  0.5442  1.4975 -0.4736
 5549SOL     OW28108   4.238   0.879  17.366  0.0529 -0.3498 -0.0857
 5549SOL    HW128109   4.290   0.953  17.336  1.4438 -1.3602 -0.1544
 5549SOL    HW228110   4.290   0.803  17.338 -0.2901 -0.1022 -1.4363
 5550SOL     OW28111   1.605   1.159   4.000 -0.3261 -0.0030  0.7410
 5550SOL    HW128112   1.572   1.193   3.917 -2.3753  0.2214  1.6715
 5550SOL    HW228113   1.571   1.069   4.006 -3.0107  0.9668 -0.0365
 5551SOL     OW28114   0.649   4.591  17.182 -0.3585 -0.5748 -0.6491
 5551SOL    HW128115   0.672   4.639  17.103 -2.3265  1.8367  0.2307
 5551SOL    HW228116   0.671   4.661  17.245  0.2400 -1.1325 -0.2298
 5552SOL     OW28117   4.332   3.889  10.335  0.1750  0.3486 -0.3136
 5552SOL    HW128118   4.400   3.946  10.371 -0.0701 -0.2692  1.1203
 5552SOL    HW228119   4.256   3.943  10.356  0.8874  0.9839  0.6482
 5553SOL     OW28120   3.762   0.112   7.597  0.4801  0.2062 -0.0754
 5553SOL    HW128121   3.690   0.101   7.536  0.3282  2.3260 -0.3025
 5553SOL    HW228122   3.813   0.033   7.582  0.1997 -0.1639  0.8778
 5554SOL     OW28123   4.196   2.879   4.818  0.3693  0.4589 -0.4562
 5554SOL    HW128124   4.165   2.794   4.786  0.1949  0.5489 -0.5200
 5554SOL    HW228125   4.290   2.879   4.797  0.3021 -1.4636 -0.7392
 5555SOL     OW28126   2.592   3.305   2.226  0.2317  0.2048 -0.0297
 5555SOL    HW128127   2.525   3.240   2.209  0.1947  0.0136  0.8146
 5555SOL    HW228128   2.665   3.248   2.204 -0.7439 -1.1792  0.3314
 5556SOL     OW28129   3.662   2.883   7.140  0.2447  0.1659 -0.6444
 5556SOL    HW128130   3.737   2.930   7.178 -1.0664  2.8637 -1.3321
 5556SOL    HW228131   3.694   2.795   7.157  0.1403 -0.0588 -1.6162
 5557SOL     OW28132   3.917   2.911  11.540  0.5965  0.0640  0.0175
 5557SOL    HW128133   4.002   2.868  11.536 -0.0837 -1.2165 -0.6932
 5557SOL    HW228134   3.939   2.997  11.577 -0.5693  0.3773 -0.0011
 5558SOL     OW28135   3.115   3.285   7.042  0.3287  0.2752 -0.3857
 5558SOL    HW128136   3.101   3.339   7.120  0.4595 -1.9892  1.2164
 5558SOL    HW228137   3.090   3.201   7.080  0.2664  0.4960  0.0717
 5559SOL     OW28138   1.601   2.648   8.075  0.8178  0.6340 -0.6020
 5559SOL    HW128139   1.659   2.624   8.147 -1.2365 -2.5018 -0.0031
 5559SOL    HW228140   1.544   2.572   8.068  1.3625  0.2242 -0.6099
 5560SOL     OW28141   2.712   0.045   5.741 -0.5593  0.6028 -0.1940
 5560SOL    HW128142   2.766   4.707   5.794 -1.6736 -1.1173 -0.9323
 5560SOL    HW228143   2.641   4.702   5.728  1.0211 -0.6794 -2.7077
 5561SOL     OW28144   1.080   4.111   8.412 -0.4525 -0.1215 -0.9360
 5561SOL    HW128145   1.128   4.194   8.414 -0.2152 -0.2831 -0.1133
 5561SOL    HW228146   1.023   4.128   8.487  0.6666 -0.4219 -0.0333
 5562SOL     OW28147   2.416   2.193   5.211 -0.4480 -0.2025 -0.0647
 5562SOL    HW128148   2.374   2.236   5.137 -1.6335  0.6572  1.1092
 5562SOL    HW228149   2.342   2.189   5.272  0.6117  3.4810  1.4660
 5563SOL     OW28150   3.028   3.452   3.606  0.0030  0.1044  0.2124
 5563SOL    HW128151   2.940   3.487   3.624 -0.2532 -0.4065 -0.0372
 5563SOL    HW228152   3.031   3.464   3.511 -2.2652  1.3758  0.3006
 5564SOL     OW28153   0.087   2.691   4.729  0.3536 -0.7123  0.4623
 5564SOL    HW128154   0.015   2.753   4.725  2.6225  1.7606 -2.3637
 5564SOL    HW228155   0.113   2.682   4.637 -1.8651  0.8047 -0.3266
 5565SOL     OW28156   3.999   4.418   8.334  0.4641  0.1253  0.5990
 5565SOL    HW128157   3.970   4.327   8.322  0.1867  0.0955  1.4906
 5565SOL    HW228158   3.919   4.454   8.371 -0.1231  0.6275 -1.1366
 5566SOL     OW28159   1.847   3.938   8.957  0.4639 -0.0527  0.3185
 5566SOL    HW128160   1.860   3.847   8.931 -0.2665 -0.2556  0.6807
 5566SOL    HW228161   1.905   3.975   8.890 -1.1783 -0.4647 -1.3277
 5567SOL     OW28162   2.895   1.685  16.925 -0.0742  0.1417 -0.2156
 5567SOL    HW128163   2.896   1.742  16.848 -3.0450  1.1443  0.4881
 5567SOL    HW228164   2.981   1.700  16.966  0.3503 -0.8770 -0.7408
 5568SOL     OW28165   2.041   2.068   2.499 -0.1919 -0.4670 -0.3964
 5568SOL    HW128166   1.984   2.015   2.444 -0.8651  0.2403 -0.3659
 5568SOL    HW228167   2.125   2.069   2.452 -0.2906 -0.4810 -0.5708
 5569SOL     OW28168   3.653   2.978   9.148 -0.6001 -0.1078 -0.3994
 5569SOL    HW128169   3.591   2.904   9.144 -1.0331  0.1645  0.9359
 5569SOL    HW228170   3.604   3.036   9.206  0.7688  1.8636 -1.2520
 5570SOL     OW28171   3.833   1.948  17.210 -0.4085  0.0865  0.3587
 5570SOL    HW128172   3.882   2.031  17.207  1.0271 -0.9030 -3.3562
 5570SOL    HW228173   3.860   1.926  17.299  0.1968 -1.5219 -0.2272
 5571SOL     OW28174   4.460   2.920  16.082  0.4217  0.2292  0.2204
 5571SOL    HW128175   4.419   2.947  16.000 -0.0131  0.3803  0.4885
 5571SOL    HW228176   4.509   2.842  16.053 -1.7874 -0.2508 -2.1887
 5572SOL     OW28177   0.525   3.911  13.298 -0.1318 -0.3141 -0.2536
 5572SOL    HW128178   0.603   3.906  13.353 -0.2946  0.6183  0.0625
 5572SOL    HW228179   0.562   3.891  13.212  2.6254 -2.3279  1.4003
 5573SOL     OW28180   0.198   1.433   0.252  0.2454 -0.2766 -0.1966
 5573SOL    HW128181   0.104   1.430   0.267 -0.3079  0.2196 -3.5777
 5573SOL    HW228182   0.233   1.402   0.336  1.3429  3.1592  0.6116
 5574SOL     OW28183   2.392   1.891   7.668 -0.0914  0.1212 -0.3379
 5574SOL    HW128184   2.348   1.809   7.691 -0.3327 -0.0710 -1.5195
 5574SOL    HW228185   2.454   1.854   7.605  0.8213  0.0767  0.5639
 5575SOL     OW28186   3.095   2.031   3.785  0.5532 -0.1502 -0.4881
 5575SOL    HW128187   3.155   1.971   3.829  0.6348 -1.1419 -1.9687
 5575SOL    HW228188   3.129   2.118   3.807 -0.1191  0.4055 -1.6260
 5576SOL     OW28189   3.623   2.656   1.197 -0.2292  0.2684  0.4905
 5576SOL    HW128190   3.698   2.713   1.210  0.3095  0.0997 -1.8168
 5576SOL    HW228191   3.638   2.590   1.265 -2.9919  0.0315  0.8601
 5577SOL     OW28192   3.658   1.109  15.995 -0.4594  0.1587 -0.5439
 5577SOL    HW128193   3.670   1.017  16.021 -2.0861 -0.7816 -3.1372
 5577SOL    HW228194   3.600   1.094  15.920 -0.0297  0.5668 -0.9562
 5578SOL     OW28195   1.534   1.955   1.606 -0.1081 -0.5143  0.4363
 5578SOL    HW128196   1.446   1.981   1.634 -0.3054 -0.4682 -0.2419
 5578SOL    HW228197   1.563   1.926   1.693  2.3146  1.3380  0.2375
 5579SOL     OW28198   2.732   4.330   7.513 -0.2372 -0.2813  0.4166
 5579SOL    HW128199   2.751   4.261   7.577 -0.0038  0.4653  1.1434
 5579SOL    HW228200   2.728   4.288   7.426  1.1501 -1.0238  0.7040
 5580SOL     OW28201   1.539   1.002  12.590  0.3349 -0.2159  0.7276
 5580SOL    HW128202   1.580   0.949  12.658 -0.5239  0.5201  1.8098
 5580SOL    HW228203   1.447   0.979  12.601  0.6117 -1.9566 -0.4864
 5581SOL     OW28204   2.413   3.099  14.259 -0.2582  0.0307 -0.1707
 5581SOL    HW128205   2.494   3.073  14.303  0.3291 -2.9678 -3.0394
 5581SOL    HW228206   2.369   3.149  14.327  0.5627  0.3175  0.1463
 5582SOL     OW28207   2.335   2.511   9.965  0.2833  0.6183 -0.2232
 5582SOL    HW128208   2.389   2.547  10.035  1.3777  0.8574 -1.2020
 5582SOL    HW228209   2.246   2.521   9.999  0.2231  2.1555 -0.8436
 5583SOL     OW28210   2.708   2.166   5.592 -0.1119  0.2576  0.0560
 5583SOL    HW128211   2.719   2.072   5.605 -1.1463  0.4279  2.0934
 5583SOL    HW228212   2.613   2.177   5.583  0.0025 -0.0730 -1.5278
 5584SOL     OW28213   0.254   3.944  16.282 -0.3651 -0.6989  0.0460
 5584SOL    HW128214   0.226   3.910  16.367  1.0890  0.6293  1.0695
 5584SOL    HW228215   0.181   4.002  16.263 -2.0615 -2.3226  1.6063
 5585SOL     OW28216   4.058   2.107   1.209 -0.1082 -0.2314  0.0096
 5585SOL    HW128217   4.091   2.189   1.171  0.0730  0.0393  0.7549
 5585SOL    HW228218   4.140   2.082   1.253  0.9515  2.2955 -0.5262
 5586SOL     OW28219   2.015   1.341   7.418  0.0435 -0.4098  0.6866
 5586SOL    HW128220   1.998   1.434   7.399 -0.3809 -0.9208 -1.4745
 5586SOL    HW228221   1.993   1.329   7.510  1.4345  0.6095  1.1605
 5587SOL     OW28222   2.071   1.427   0.926 -0.1908 -0.5968  0.2442
 5587SOL    HW128223   2.152   1.440   0.876 -1.6627 -0.9957 -2.2280
 5587SOL    HW228224   2.042   1.345   0.887 -0.7174  0.5282 -1.7722
 5588SOL     OW28225   2.381   0.918   6.530  0.3521  0.0851  0.3225
 5588SOL    HW128226   2.433   0.997   6.536 -0.0763  0.3678  0.3181
 5588SOL    HW228227   2.299   0.947   6.569  0.1678 -1.2244  0.9191
 5589SOL     OW28228   3.405   3.399   6.393 -0.6677 -0.3019 -0.0435
 5589SOL    HW128229   3.458   3.319   6.400 -0.0000  0.2529  1.1904
 5589SOL    HW228230   3.404   3.403   6.297 -0.0981  1.2623  0.0196
 5590SOL     OW28231   3.335   3.655   4.492  0.0812  0.4484  0.1491
 5590SOL    HW128232   3.339   3.668   4.397 -1.0560  1.1575  0.2099
 5590SOL    HW228233   3.366   3.743   4.514  0.8418 -0.3050  2.0859
 5591SOL     OW28234   0.089   2.162   1.495 -0.3832 -0.1642 -0.6042
 5591SOL    HW128235   0.117   2.246   1.458 -3.4930  1.9740  1.8734
 5591SOL    HW228236   0.070   2.204   1.580  0.7789 -0.3499 -0.2542
 5592SOL     OW28237   1.362   4.705   6.647 -0.1900 -0.1810  0.3287
 5592SOL    HW128238   1.450   4.674   6.624 -0.8772 -1.2380 -0.8889
 5592SOL    HW228239   1.352   4.676   6.738  0.5323 -0.9278  0.1708
 5593SOL     OW28240   1.849   0.946   8.374  0.3980  0.7508 -0.1421
 5593SOL    HW128241   1.861   0.929   8.281 -0.0437  1.5223 -0.3441
 5593SOL    HW228242   1.918   0.892   8.413 -0.8616 -0.8909 -0.2104
 5594SOL     OW28243   2.243   4.070   8.259 -0.1857 -0.1107 -0.2403
 5594SOL    HW128244   2.303   4.106   8.325 -0.2256  0.6801 -0.6336
 5594SOL    HW228245   2.176   4.137   8.272 -0.3048 -0.5648  1.4552
 5595SOL     OW28246   1.192   3.810  10.175 -0.1964  0.0847 -0.1516
 5595SOL    HW128247   1.287   3.806  10.179 -0.1750  3.1899  2.2400
 5595SOL    HW228248   1.169   3.758  10.251 -1.5038 -1.8241 -1.8439
 5596SOL     OW28249   3.142   0.933   7.332 -0.4213 -0.1690  0.5500
 5596SOL    HW128250   3.159   0.999   7.399  2.0443 -1.6260  1.3736
 5596SOL    HW228251   3.056   0.963   7.301  1.8566  2.3668 -3.3847
 5597SOL     OW28252   2.927   3.895   5.869 -0.2635  0.0518  0.5337
 5597SOL    HW128253   2.996   3.853   5.818  0.0989  0.8542  0.3656
 5597SOL    HW228254   2.915   3.826   5.934  3.6715  0.9742  2.2462
 5598SOL     OW28255   4.698   4.135  12.813 -0.2090  0.3058  0.0038
 5598SOL    HW128256   4.666   4.169  12.896 -3.1606  2.3677 -2.0032
 5598SOL    HW228257   4.681   4.204  12.750 -0.6693 -0.6487 -0.9200
 5599SOL     OW28258   4.427   0.496   3.120 -0.3645  0.4945 -0.4198
 5599SOL    HW128259   4.361   0.505   3.189 -0.5923  0.1443 -0.5967
 5599SOL    HW228260   4.405   0.417   3.071  0.7618  0.2562 -0.5458
 5600SOL     OW28261   4.076   2.508   8.322 -0.1252 -0.4754 -0.2402
 5600SOL    HW128262   3.986   2.539   8.319 -0.7861 -2.2123  1.5911
 5600SOL    HW228263   4.077   2.433   8.261 -0.5108  2.2680 -3.6071
 5601SOL     OW28264   1.637   2.275   5.034 -0.4976  0.2274 -0.1701
 5601SOL    HW128265   1.627   2.321   4.951 -2.5853 -2.7501 -1.5947
 5601SOL    HW228266   1.728   2.247   5.021 -0.4573 -0.1671  0.9755
 5602SOL     OW28267   2.866   0.723   8.657  0.0520  0.2753  0.5682
 5602SOL    HW128268   2.854   0.787   8.727  1.4158  0.0873  0.9689
 5602SOL    HW228269   2.931   0.763   8.598 -0.7797  0.1282 -0.4565
 5603SOL     OW28270   2.362   1.427   3.824 -0.4945  0.5140 -0.6068
 5603SOL    HW128271   2.304   1.503   3.824 -2.3958 -0.9401  1.4539
 5603SOL    HW228272   2.447   1.467   3.842  0.0981 -0.5703 -0.9550
 5604SOL     OW28273   1.817   0.901   8.895  0.1620  0.2597  0.0224
 5604SOL    HW128274   1.904   0.875   8.924 -0.6865  0.4701  2.8065
 5604SOL    HW228275   1.795   0.828   8.838  0.2239 -1.0802  1.6961
 5605SOL     OW28276   2.322   4.169   3.909 -0.1104  0.6696 -0.4017
 5605SOL    HW128277   2.327   4.253   3.955 -1.5952  3.1293 -4.7390
 5605SOL    HW228278   2.243   4.128   3.943  1.1283  0.1921  1.9216
 5606SOL     OW28279   3.052   1.727   6.164 -0.2222 -0.2733 -0.1282
 5606SOL    HW128280   3.074   1.655   6.223  0.9663 -0.2131 -0.4914
 5606SOL    HW228281   3.138   1.759   6.137 -0.3795  0.1183 -0.1628
 5607SOL     OW28282   3.806   0.506   3.931 -0.2968  0.8553  0.0461
 5607SOL    HW128283   3.868   0.446   3.973  0.5629  2.1340  0.5868
 5607SOL    HW228284   3.782   0.452   3.856 -0.9913  1.4272 -0.1465
 5608SOL     OW28285   3.876   3.796  17.026  0.4779 -0.0008  0.1006
 5608SOL    HW128286   3.809   3.780  16.960 -0.0433 -3.0106  1.3626
 5608SOL    HW228287   3.880   3.705  17.054  0.8454  0.5521  1.8721
 5609SOL     OW28288   3.865   2.821   0.162 -0.3518 -0.0327  0.0726
 5609SOL    HW128289   3.954   2.853   0.147 -0.7853  0.2360 -1.8905
 5609SOL    HW228290   3.874   2.777   0.247 -3.2746 -0.1730  0.3020
 5610SOL     OW28291   0.553   3.233   6.983 -0.1045 -0.4182 -0.0766
 5610SOL    HW128292   0.518   3.269   6.901  0.9532  0.0978 -0.3083
 5610SOL    HW228293   0.644   3.263   6.985 -0.0878 -0.4286 -0.5343
 5611SOL     OW28294   4.151   2.162  10.408  0.3141 -0.2668  0.2601
 5611SOL    HW128295   4.201   2.157  10.327 -1.1071  2.8994 -0.8215
 5611SOL    HW228296   4.212   2.211  10.463  0.1757 -0.0646  0.2355
 5612SOL     OW28297   1.047   3.976  12.203 -0.0731 -0.0289  0.1235
 5612SOL    HW128298   1.001   3.917  12.143  1.2160 -2.4955  1.5606
 5612SOL    HW228299   0.982   4.046  12.206  0.2331  0.1637  2.0828
 5613SOL     OW28300   0.068   0.959   5.206 -0.0201  0.1290  0.3493
 5613SOL    HW128301   0.066   1.053   5.227 -0.7021  0.1924 -0.0143
 5613SOL    HW228302   0.009   0.932   5.276 -0.9707  1.4319  0.0505
 5614SOL     OW28303   3.435   0.103   3.633  0.7674 -0.1292 -0.6920
 5614SOL    HW128304   3.360   0.101   3.573  1.0746 -0.3632 -1.0693
 5614SOL    HW228305   3.414   0.187   3.674 -0.9761  0.0916 -2.0013
 5615SOL     OW28306   2.032   2.152   3.970  0.5035  0.8695  0.2403
 5615SOL    HW128307   1.947   2.150   4.015 -0.7826  0.4614 -2.1977
 5615SOL    HW228308   2.017   2.235   3.926 -1.5726 -0.0353 -0.7888
 5616SOL     OW28309   1.844   3.786  13.832 -0.3403  0.5415  0.3755
 5616SOL    HW128310   1.836   3.768  13.738 -2.1374  0.6666  0.5110
 5616SOL    HW228311   1.906   3.717  13.855  1.1954  1.4469 -0.9801
 5617SOL     OW28312   3.628   1.149   0.369 -0.0594 -0.5224 -0.8516
 5617SOL    HW128313   3.548   1.202   0.380  0.9840  0.8180  0.2965
 5617SOL    HW228314   3.636   1.156   0.274 -0.3879  3.1833 -0.6283
 5618SOL     OW28315   1.802   2.969   8.603 -0.0259  0.0487 -0.1610
 5618SOL    HW128316   1.760   3.022   8.672 -0.6720  2.4885 -2.4523
 5618SOL    HW228317   1.893   2.976   8.632  0.2203  1.5168 -1.3009
 5619SOL     OW28318   4.405   0.270   6.102  0.4674 -0.0798  0.2428
 5619SOL    HW128319   4.438   0.359   6.117 -0.8788  0.4948 -0.2204
 5619SOL    HW228320   4.484   0.216   6.106  0.1409 -0.4654  1.2962
 5620SOL     OW28321   1.555   2.184   3.020  0.3230 -0.5912  0.4615
 5620SOL    HW128322   1.531   2.122   2.952  0.9880 -0.5691  0.2046
 5620SOL    HW228323   1.526   2.142   3.101 -0.6290 -2.1187 -0.6783
 5621SOL     OW28324   2.117   4.072  14.696 -0.2070  0.5644  0.1524
 5621SOL    HW128325   2.184   4.005  14.710 -0.6623  0.3995  1.5797
 5621SOL    HW228326   2.062   4.015  14.642  1.4735 -1.2218  0.3223
 5622SOL     OW28327   1.843   4.652   8.327 -0.2761  0.0323 -0.4437
 5622SOL    HW128328   1.845   4.605   8.410 -0.0896  0.7653 -0.0266
 5622SOL    HW228329   1.761   4.614   8.295  0.4445 -0.3888 -1.7939
 5623SOL     OW28330   4.341   0.069   8.151  0.0068 -0.0446 -0.3510
 5623SOL    HW128331   4.356   0.008   8.079 -0.7960  1.3999 -1.7669
 5623SOL    HW228332   4.266   0.035   8.199 -1.5696 -0.9713 -3.4733
 5624SOL     OW28333   1.715   1.637   5.735  0.1859 -0.0125  0.0897
 5624SOL    HW128334   1.785   1.573   5.750  0.3630 -0.1814 -1.4092
 5624SOL    HW228335   1.654   1.625   5.808 -0.6823  3.2994 -0.0770
 5625SOL     OW28336   0.785   2.833   3.672  0.2259  0.2211 -0.1016
 5625SOL    HW128337   0.726   2.820   3.598  2.2791 -0.1933 -1.6693
 5625SOL    HW228338   0.722   2.852   3.742  2.4136  2.2616  1.2872
 5626SOL     OW28339   0.866   0.804   5.984  0.4481 -0.0557 -0.3307
 5626SOL    HW128340   0.922   0.859   6.038 -0.0951 -1.1997  1.3875
 5626SOL    HW228341   0.894   0.726   6.033  1.8795  1.3126  1.0114
 5627SOL     OW28342   0.731   0.779   7.347  0.1952  0.0279  0.2150
 5627SOL    HW128343   0.680   0.802   7.269 -0.6084  1.2478  1.1017
 5627SOL    HW228344   0.810   0.833   7.338  0.2516 -0.3499 -1.4982
 5628SOL     OW28345   1.528   4.508   4.741  0.0028  0.4817  0.8786
 5628SOL    HW128346   1.524   4.552   4.826  2.1031 -1.2500  1.8632
 5628SOL    HW228347   1.536   4.420   4.776  1.9133  0.7339  1.0728
 5629SOL     OW28348   3.875   2.344   5.566  0.1238 -0.3269  0.0251
 5629SOL    HW128349   3.798   2.289   5.582  0.0861 -0.1235  0.5407
 5629SOL    HW228350   3.929   2.275   5.527  0.8345  1.7671 -2.7338
 5630SOL     OW28351   4.349   1.309   3.303 -0.0976 -0.5322  0.4566
 5630SOL    HW128352   4.326   1.236   3.360 -2.4351  1.7565  2.4120
 5630SOL    HW228353   4.280   1.307   3.237  0.9120 -3.4135 -0.5501
 5631SOL     OW28354   1.482   0.713   5.726 -0.0852 -0.2590  0.5623
 5631SOL    HW128355   1.547   0.644   5.711  0.2922  0.0673  0.6776
 5631SOL    HW228356   1.521   0.782   5.781  2.6321  0.9287 -2.8700
 5632SOL     OW28357   2.983   1.486   2.904 -0.6184 -0.1678 -0.1229
 5632SOL    HW128358   3.041   1.424   2.860 -0.2676  0.8070 -1.0544
 5632SOL    HW228359   3.036   1.557   2.941 -1.9775  1.2213 -0.8348
 5633SOL     OW28360   2.568   1.445   0.739  0.6242 -0.4958  0.1577
 5633SOL    HW128361   2.508   1.391   0.791  0.2852  0.9735  1.2953
 5633SOL    HW228362   2.632   1.379   0.711 -0.9968 -2.2579  0.6219
 5634SOL     OW28363   1.391   1.146   5.601 -0.1136 -0.0177 -0.6925
 5634SOL    HW128364   1.320   1.195   5.561  0.0092 -1.8637 -3.1786
 5634SOL    HW228365   1.352   1.102   5.677 -2.7575 -1.5047 -2.9306
 5635SOL     OW28366   1.201   0.876   2.527 -0.2759  0.1419  0.0723
 5635SOL    HW128367   1.204   0.843   2.616  0.7365  0.5756  0.2055
 5635SOL    HW228368   1.135   0.819   2.487 -1.1081  0.7439  0.5833
 5636SOL     OW28369   1.027   4.365   8.938  0.3152 -0.3254 -0.1878
 5636SOL    HW128370   0.954   4.310   8.967  1.2493 -0.9530  0.9743
 5636SOL    HW228371   0.990   4.447   8.904 -0.0616 -0.3956  0.0470
 5637SOL     OW28372   0.391   1.305   7.871 -0.1937 -0.1749  0.3171
 5637SOL    HW128373   0.376   1.399   7.868 -0.7528 -0.2973 -0.6682
 5637SOL    HW228374   0.399   1.300   7.966  0.5105 -0.5866  0.2399
 5638SOL     OW28375   3.066   3.155  12.266 -0.0127 -0.1004 -0.0973
 5638SOL    HW128376   3.023   3.119  12.189 -2.4508  0.9229  0.7849
 5638SOL    HW228377   3.046   3.248  12.266 -0.1313 -0.1282 -1.1178
 5639SOL     OW28378   2.997   1.074   8.079 -0.7097 -0.5868  0.1451
 5639SOL    HW128379   3.003   0.993   8.027 -0.5698  0.1397 -0.9731
 5639SOL    HW228380   2.948   1.127   8.016  0.6018 -1.1109 -1.3319
 5640SOL     OW28381   2.082   2.349  10.778  0.5750 -0.5287 -0.1521
 5640SOL    HW128382   2.020   2.367  10.849  1.2907  0.0743  0.3164
 5640SOL    HW228383   2.020   2.361  10.706 -0.0227 -2.3394  0.0640
 5641SOL     OW28384   2.448   2.018   3.525  0.5762  0.0498 -0.4219
 5641SOL    HW128385   2.520   2.036   3.465  0.4393 -0.4911 -0.7475
 5641SOL    HW228386   2.476   2.059   3.607 -2.8017 -2.1494  1.8900
 5642SOL     OW28387   1.175   1.224   2.687  0.1628  0.0512  0.3596
 5642SOL    HW128388   1.087   1.186   2.680  0.0895  0.2894  0.0186
 5642SOL    HW228389   1.192   1.273   2.607  0.4386  1.5694  1.3468
 5643SOL     OW28390   3.757   0.552  13.877 -0.1032  0.0230 -0.0617
 5643SOL    HW128391   3.770   0.646  13.860 -1.6549  0.3865  0.7531
 5643SOL    HW228392   3.663   0.541  13.890 -0.1313 -0.4875 -0.7089
 5644SOL     OW28393   1.457   3.513   6.269  0.2629  0.1573  0.4355
 5644SOL    HW128394   1.499   3.567   6.202 -0.2260 -0.3877 -0.3121
 5644SOL    HW228395   1.497   3.536   6.352 -0.8609  2.8338  0.2331
 5645SOL     OW28396   2.119   2.627   0.342  0.0254  1.0890 -0.8606
 5645SOL    HW128397   2.106   2.711   0.299  1.2816  2.4708  1.4413
 5645SOL    HW228398   2.176   2.582   0.280  0.7188  0.6253  0.0999
 5646SOL     OW28399   2.765   0.684  11.672 -0.7143 -0.2389  0.3591
 5646SOL    HW128400   2.844   0.645  11.710  1.4413  3.2354 -0.4779
 5646SOL    HW228401   2.713   0.605  11.662  0.4365 -1.0676  0.9674
 5647SOL     OW28402   2.519   2.328   4.755 -0.4193 -0.4961  0.4868
 5647SOL    HW128403   2.520   2.288   4.843  0.3069  0.9829  1.1529
 5647SOL    HW228404   2.600   2.288   4.724 -0.4384  0.0038 -0.2067
 5648SOL     OW28405   3.801   2.870   7.648  0.1864  0.1417 -0.1135
 5648SOL    HW128406   3.868   2.853   7.581  0.1915  1.3480 -0.4123
 5648SOL    HW228407   3.850   2.934   7.700  0.9379 -0.7306  0.2648
 5649SOL     OW28408   2.210   1.668   0.684  0.2988 -0.0271 -0.3243
 5649SOL    HW128409   2.151   1.594   0.667 -0.6303  0.8691 -1.0329
 5649SOL    HW228410   2.284   1.645   0.628  0.8495  1.5353 -0.2365
 5650SOL     OW28411   1.025   1.609   7.052 -0.4693 -0.5697  0.4549
 5650SOL    HW128412   1.072   1.612   6.969 -1.7917  0.7150 -0.2568
 5650SOL    HW228413   1.069   1.535   7.093  0.9486  0.5038  0.8905
 5651SOL     OW28414   1.388   4.435   8.664 -0.0534  0.5054  0.0275
 5651SOL    HW128415   1.429   4.378   8.729  2.7234  0.4195 -1.8006
 5651SOL    HW228416   1.393   4.516   8.715  0.6909  1.7548 -2.0264
 5652SOL     OW28417   1.614   3.148  17.148  0.0614 -0.1249  0.6160
 5652SOL    HW128418   1.641   3.207  17.078  0.0744  0.3722  1.0397
 5652SOL    HW228419   1.565   3.212  17.200  0.9928  0.2402  1.0528
 5653SOL     OW28420   2.314   0.162   6.077  0.1010  0.2317 -0.1709
 5653SOL    HW128421   2.295   0.127   6.164  1.4534  1.2546  0.5362
 5653SOL    HW228422   2.230   0.195   6.046 -0.2675 -0.4999  0.0561
 5654SOL     OW28423   3.237   1.328  12.405  0.1309 -0.1298  0.2818
 5654SOL    HW128424   3.225   1.236  12.382  0.1159 -0.6201  2.2390
 5654SOL    HW228425   3.152   1.353  12.440 -1.1415 -0.9956 -2.2172
 5655SOL     OW28426   3.353   1.968   0.639  0.5583 -0.2320  0.0908
 5655SOL    HW128427   3.350   2.053   0.684  2.9542 -1.3559  2.3161
 5655SOL    HW228428   3.348   2.002   0.549 -1.4666 -2.1803 -0.5447
 5656SOL     OW28429   1.238   1.405   7.425  0.0682 -0.8243  0.3821
 5656SOL    HW128430   1.275   1.440   7.506 -0.7393  0.3411  0.2500
 5656SOL    HW228431   1.177   1.346   7.468 -0.1637 -0.3359  0.7323
 5657SOL     OW28432   0.741   0.382   3.759 -0.4196  0.1405 -0.4110
 5657SOL    HW128433   0.738   0.473   3.788  1.0254  0.0007  0.1855
 5657SOL    HW228434   0.715   0.387   3.667  1.1862 -2.0491 -0.9849
 5658SOL     OW28435   3.494   1.342   3.988  0.2751 -0.3316 -0.1745
 5658SOL    HW128436   3.410   1.316   4.026 -0.1451  0.6119 -0.4390
 5658SOL    HW228437   3.476   1.324   3.895 -1.4193 -0.2239  0.1259
 5659SOL     OW28438   3.766   1.931   2.646 -0.3396  0.1843  0.4956
 5659SOL    HW128439   3.792   1.993   2.714 -0.3120  0.7401 -0.0269
 5659SOL    HW228440   3.691   1.885   2.685 -0.7008 -2.3940 -3.2696
 5660SOL     OW28441   3.032   4.626   3.149  0.2542 -0.2319  0.1495
 5660SOL    HW128442   3.045   4.685   3.074 -0.1127 -0.4029 -0.0521
 5660SOL    HW228443   2.974   4.678   3.204 -0.4823 -0.9134  0.0133
 5661SOL     OW28444   4.361   3.637   4.118  0.4975  0.3852  0.7556
 5661SOL    HW128445   4.320   3.707   4.168 -1.9421  0.0030 -0.6932
 5661SOL    HW228446   4.305   3.566   4.148 -2.1483  2.1894  0.1224
 5662SOL     OW28447   0.982   0.885  12.571 -0.6974  0.3015  0.0064
 5662SOL    HW128448   0.977   0.906  12.664 -0.7263 -0.0455  0.0838
 5662SOL    HW228449   0.905   0.828  12.574  0.9872 -1.9406  0.7941
 5663SOL     OW28450   1.789   1.579  11.189  0.0880  0.5083 -0.1319
 5663SOL    HW128451   1.719   1.556  11.250  1.0506 -0.0550  0.7621
 5663SOL    HW228452   1.760   1.528  11.113 -1.4871  0.1279  0.7198
 5664SOL     OW28453   3.823   4.275  12.930  0.4874  0.2907 -0.4889
 5664SOL    HW128454   3.806   4.208  12.996  1.6436  1.1415  0.6848
 5664SOL    HW228455   3.769   4.350  12.957  1.5336  0.8535  0.0636
 5665SOL     OW28456   0.380   3.471   9.181 -0.2179 -0.0722 -0.1861
 5665SOL    HW128457   0.293   3.447   9.211  0.0761 -0.4534  0.3495
 5665SOL    HW228458   0.421   3.478   9.267 -1.3120  1.7241  0.1920
 5666SOL     OW28459   4.139   0.963   2.845 -0.0975  0.5729  0.4452
 5666SOL    HW128460   4.046   0.979   2.862 -0.3234  0.7773 -0.9932
 5666SOL    HW228461   4.178   0.946   2.930  1.9668  0.3640 -0.5481
 5667SOL     OW28462   1.398   2.471   4.736  0.3442  0.0235 -0.2033
 5667SOL    HW128463   1.391   2.442   4.645 -0.4558 -1.5230  0.3456
 5667SOL    HW228464   1.492   2.480   4.750  0.3286 -0.1156 -0.0111
 5668SOL     OW28465   0.234   2.075   0.833  1.0118  0.5153  0.2522
 5668SOL    HW128466   0.324   2.104   0.850  1.0111  0.7228 -0.0978
 5668SOL    HW228467   0.203   2.157   0.794 -0.2052 -0.3094 -0.4994
 5669SOL     OW28468   3.679   4.587   2.674 -1.0223 -0.5438  0.3409
 5669SOL    HW128469   3.755   4.634   2.710  0.6579 -2.4711 -0.7202
 5669SOL    HW228470   3.629   4.661   2.640 -0.3934 -0.8329 -1.1899
 5670SOL     OW28471   0.235   4.205   1.018  0.1927  0.3842 -0.2801
 5670SOL    HW128472   0.258   4.193   1.110  0.2995 -2.3714 -0.6537
 5670SOL    HW228473   0.293   4.279   1.002 -0.7957  1.6976  2.1725
 5671SOL     OW28474   3.766   2.107   8.106 -0.1698 -0.9515  0.0967
 5671SOL    HW128475   3.707   2.074   8.038 -0.8895 -1.8379  1.1649
 5671SOL    HW228476   3.828   2.038   8.128  0.6517 -0.4083 -0.5049
 5672SOL     OW28477   0.202   3.463   4.096  0.1721  0.0984  0.1269
 5672SOL    HW128478   0.111   3.455   4.066  0.0893 -0.3538  0.4915
 5672SOL    HW228479   0.218   3.557   4.095  0.1434  0.1153  1.3209
 5673SOL     OW28480   0.618   0.460   6.869 -0.1124 -0.0474 -0.6382
 5673SOL    HW128481   0.528   0.442   6.841  0.4713 -1.0114 -1.8823
 5673SOL    HW228482   0.616   0.556   6.865  1.1514  0.0466  1.1872
 5674SOL     OW28483   2.734   3.182   0.759  0.0141 -0.4070 -0.2634
 5674SOL    HW128484   2.722   3.140   0.844  0.3099  1.2248  0.5829
 5674SOL    HW228485   2.743   3.274   0.783 -1.5740 -0.8819  2.1691
 5675SOL     OW28486   4.177   2.687  16.653  0.3238  0.2209  0.0652
 5675SOL    HW128487   4.092   2.690  16.611 -0.2749  0.5814  1.3033
 5675SOL    HW228488   4.215   2.775  16.643 -0.0441  0.3088 -0.5268
 5676SOL     OW28489   0.176   3.386  16.578 -0.4531 -0.4164  0.0846
 5676SOL    HW128490   0.203   3.294  16.579  0.1453 -0.2263  2.9530
 5676SOL    HW228491   0.204   3.426  16.661 -1.6902 -0.8129  0.6919
 5677SOL     OW28492   2.658   2.674   9.371  0.0505  0.0708  0.3180
 5677SOL    HW128493   2.621   2.586   9.382 -1.4203  0.6905  0.2983
 5677SOL    HW228494   2.600   2.712   9.305  0.3959 -0.6089 -0.3870
 5678SOL     OW28495   0.321   2.112   4.668 -0.1460 -0.0694  0.6992
 5678SOL    HW128496   0.411   2.140   4.683 -0.0262  0.2923 -0.6869
 5678SOL    HW228497   0.270   2.147   4.741  0.5261 -0.7310  1.4819
 5679SOL     OW28498   0.127   3.732   0.185 -0.2225  0.2096 -0.4522
 5679SOL    HW128499   0.094   3.790   0.117  0.5460 -0.9074 -1.7719
 5679SOL    HW228500   0.221   3.744   0.201  0.0618 -2.2048 -0.2918
 5680SOL     OW28501   1.680   1.929   3.585 -0.4847  0.0026 -0.6958
 5680SOL    HW128502   1.733   1.878   3.646 -0.9774 -0.6288 -0.7924
 5680SOL    HW228503   1.739   1.922   3.510  0.7221  0.4263  0.2309
 5681SOL     OW28504   3.599   2.969   6.609  0.2450 -0.0252  0.5758
 5681SOL    HW128505   3.638   2.892   6.568 -2.3140 -1.1891  0.3356
 5681SOL    HW228506   3.606   2.942   6.701  0.0383 -0.6147  0.4171
 5682SOL     OW28507   1.930   1.062   3.732  0.1992  0.0055  0.2879
 5682SOL    HW128508   1.950   1.106   3.650 -0.4845  0.6777  0.4847
 5682SOL    HW228509   1.841   1.094   3.748  0.5728  1.8163 -1.2932
 5683SOL     OW28510   0.487   2.664  12.734  0.4269 -0.2493  0.1045
 5683SOL    HW128511   0.468   2.570  12.738 -1.4125  0.1271  0.1808
 5683SOL    HW228512   0.582   2.659  12.739  0.6311  1.5109 -2.1345
 5684SOL     OW28513   1.999   2.830   6.580  0.1274  0.0826 -0.0365
 5684SOL    HW128514   1.978   2.760   6.641  1.9547  1.3720  2.0889
 5684SOL    HW228515   2.089   2.802   6.566  0.4108  0.6327  0.6858
 5685SOL     OW28516   2.094   1.553   5.530 -0.5007 -0.2515  0.6813
 5685SOL    HW128517   2.053   1.466   5.537 -1.1157  0.0795  1.1803
 5685SOL    HW228518   2.144   1.553   5.611  0.1915  0.5395  0.2565
 5686SOL     OW28519   0.879   2.373   1.832  0.0754 -0.4701  0.4262
 5686SOL    HW128520   0.887   2.466   1.852  0.5624 -0.2904 -0.5983
 5686SOL    HW228521   0.875   2.340   1.922  0.4344 -2.1681 -0.1690
 5687SOL     OW28522   3.460   3.828   3.641  0.1229 -0.1803  0.3442
 5687SOL    HW128523   3.497   3.816   3.554  1.2900  2.3368  0.4979
 5687SOL    HW228524   3.492   3.912   3.674  0.1292 -0.2505  0.5217
 5688SOL     OW28525   2.240   0.556   6.244  0.1780  0.3830  0.4367
 5688SOL    HW128526   2.303   0.491   6.212  0.3867 -0.1983  2.0055
 5688SOL    HW228527   2.157   0.521   6.212  0.0753  1.1147 -0.0962
 5689SOL     OW28528   2.015   0.350   4.948  0.2281  0.4989 -0.4452
 5689SOL    HW128529   2.041   0.309   4.866 -2.1849 -0.7332 -0.5963
 5689SOL    HW228530   2.097   0.395   4.966 -0.0210  1.1833 -1.0210
 5690SOL     OW28531   2.080   2.800   3.240  0.0156 -0.5028 -0.0277
 5690SOL    HW128532   2.088   2.848   3.322 -0.4051 -1.4109  0.5554
 5690SOL    HW228533   2.062   2.871   3.179 -1.7230  0.1887  1.2884
 5691SOL     OW28534   1.476   3.685   9.473  0.2156 -0.0597  0.1478
 5691SOL    HW128535   1.505   3.772   9.500  0.6597 -0.8883  2.2979
 5691SOL    HW228536   1.542   3.625   9.509 -0.1553 -1.5613 -1.6844
 5692SOL     OW28537   0.325   3.436  13.698  0.3605 -0.5280 -0.3807
 5692SOL    HW128538   0.300   3.407  13.610  0.7889  0.8704 -0.9475
 5692SOL    HW228539   0.417   3.455  13.682 -0.0901  1.3420 -0.7531
 5693SOL     OW28540   2.602   0.468  11.607  0.1039  0.0898  0.3655
 5693SOL    HW128541   2.618   0.422  11.525 -0.3746 -1.1249  0.9486
 5693SOL    HW228542   2.648   0.409  11.667  3.1418  0.8791 -1.2326
 5694SOL     OW28543   2.552   4.447   8.743  0.1791  0.8102  0.0291
 5694SOL    HW128544   2.596   4.428   8.660 -0.5315 -1.6512  0.2106
 5694SOL    HW228545   2.504   4.521   8.707  0.0271  0.5560 -0.2992
 5695SOL     OW28546   0.906   3.501   5.631  0.5248 -0.0624  0.7265
 5695SOL    HW128547   0.868   3.439   5.569  0.0400  1.7096 -0.7382
 5695SOL    HW228548   0.831   3.541   5.675 -0.6525 -1.6285  0.1333
 5696SOL     OW28549   0.869   3.676   8.176 -0.2662  0.4137  0.7519
 5696SOL    HW128550   0.923   3.709   8.104 -0.5875  0.5642  0.5784
 5696SOL    HW228551   0.853   3.764   8.210  0.1577  0.0119  1.9666
 5697SOL     OW28552   3.535   3.530   6.796 -0.4096  0.1488 -0.0564
 5697SOL    HW128553   3.604   3.464   6.805  0.4525  1.2339  1.3881
 5697SOL    HW228554   3.552   3.567   6.709 -2.2121 -1.1889 -0.9693
 5698SOL     OW28555   4.711   2.003   3.853 -0.1604  0.4834  0.4510
 5698SOL    HW128556   0.048   1.958   3.915 -0.2877  0.2369  0.3887
 5698SOL    HW228557   4.706   2.088   3.897  2.0724  1.3840 -0.9879
 5699SOL     OW28558   1.206   2.407  16.757 -0.2507 -0.1989  0.1001
 5699SOL    HW128559   1.263   2.482  16.768  1.9105 -2.2835  3.1897
 5699SOL    HW228560   1.128   2.457  16.733 -1.5557 -1.5078  1.5227
 5700SOL     OW28561   2.524   3.372   5.853 -0.1565 -0.5478  0.0506
 5700SOL    HW128562   2.559   3.441   5.909 -0.7679  0.3232 -0.6403
 5700SOL    HW228563   2.594   3.308   5.866 -0.0846 -0.6712 -0.9814
 5701SOL     OW28564   2.665   4.187  14.706 -0.1957 -0.1474 -0.2613
 5701SOL    HW128565   2.642   4.107  14.752  1.8305 -1.3425 -1.3537
 5701SOL    HW228566   2.728   4.154  14.642  1.4721  2.2269  0.1532
 5702SOL     OW28567   0.543   1.417   8.813 -0.4672 -0.0092  0.2863
 5702SOL    HW128568   0.460   1.375   8.786 -0.2044 -0.9710  0.9943
 5702SOL    HW228569   0.522   1.509   8.797  2.0257  0.4729 -0.1802
 5703SOL     OW28570   1.585   3.759   7.429 -0.3181  0.8448 -0.0382
 5703SOL    HW128571   1.506   3.759   7.483 -0.1068 -3.3652  0.2546
 5703SOL    HW228572   1.646   3.701   7.475 -0.6914  1.4025  1.1774
 5704SOL     OW28573   2.874   0.302  16.922  0.0077  0.1773 -0.2594
 5704SOL    HW128574   2.850   0.391  16.899 -1.7951  0.1640  1.5406
 5704SOL    HW228575   2.909   0.321  17.009  1.1526 -0.1699 -0.6430
 5705SOL     OW28576   4.075   4.686  15.766 -0.6942  0.1441 -0.1920
 5705SOL    HW128577   4.040   4.635  15.839  0.2406 -1.5831 -0.9642
 5705SOL    HW228578   4.137   0.028  15.806 -0.8156  0.3036 -0.2503
 5706SOL     OW28579   0.881   0.017   3.642  0.1606 -0.0528 -0.0902
 5706SOL    HW128580   0.958   0.072   3.628 -0.4770  0.9283  0.2357
 5706SOL    HW228581   0.854   4.716   3.552  0.1397  0.5627 -0.2307
 5707SOL     OW28582   2.185   2.860   6.281 -0.7844 -0.5268  0.1958
 5707SOL    HW128583   2.149   2.836   6.196  1.2477  0.1283 -0.8504
 5707SOL    HW228584   2.173   2.775   6.321 -0.3941  0.1503  1.7670
 5708SOL     OW28585   0.625   4.121   5.126  0.5105 -0.0804 -0.2228
 5708SOL    HW128586   0.566   4.192   5.153  0.4482  0.3947 -1.6040
 5708SOL    HW228587   0.599   4.117   5.033 -1.5774 -3.0166  0.4588
 5709SOL     OW28588   2.712   3.389   6.857  0.2590 -0.0046  0.1009
 5709SOL    HW128589   2.804   3.362   6.852  1.1621  2.7681  1.6296
 5709SOL    HW228590   2.673   3.337   6.787  0.2518  0.3440 -0.1541
 5710SOL     OW28591   2.531   1.029   9.831 -0.3227 -0.3559 -0.3912
 5710SOL    HW128592   2.520   0.993   9.919  0.1222 -0.6777 -0.4675
 5710SOL    HW228593   2.517   1.121   9.852  0.5393 -0.0068 -1.3571
 5711SOL     OW28594   3.324   1.864  13.512 -0.2917 -0.0033 -0.3308
 5711SOL    HW128595   3.360   1.843  13.598 -1.4793  2.2879  0.7195
 5711SOL    HW228596   3.347   1.786  13.462 -1.7594 -1.8666  1.9408
 5712SOL     OW28597   4.538   4.170   5.750 -0.4750  0.2960 -0.6050
 5712SOL    HW128598   4.595   4.116   5.805 -1.3326 -1.0951 -1.0718
 5712SOL    HW228599   4.572   4.254   5.781 -0.2293 -0.0074 -0.0493
 5713SOL     OW28600   1.006   0.305   1.828 -0.0387  0.0504  0.6143
 5713SOL    HW128601   1.010   0.398   1.807 -1.0234 -0.3658 -1.3578
 5713SOL    HW228602   0.920   0.281   1.795 -0.4027 -0.7744  2.1369
 5714SOL     OW28603   3.549   2.342   4.828 -0.4527  0.3191  0.5794
 5714SOL    HW128604   3.636   2.306   4.814 -1.5641 -2.1894  0.1637
 5714SOL    HW228605   3.552   2.421   4.773 -0.3386 -0.2697 -0.2586
 5715SOL     OW28606   1.337   0.387   5.281 -0.0528  0.4484 -0.1892
 5715SOL    HW128607   1.410   0.327   5.269  0.4559  0.4405  2.9226
 5715SOL    HW228608   1.379   0.473   5.280 -1.7494  1.2830  0.1988
 5716SOL     OW28609   2.948   2.350   9.690 -0.7018 -0.0896  0.2121
 5716SOL    HW128610   2.917   2.260   9.697  1.8494 -0.8719  1.8244
 5716SOL    HW228611   2.883   2.389   9.632  0.3135 -0.2737 -1.0567
 5717SOL     OW28612   4.403   1.287   4.645 -0.1906 -0.3835  0.1077
 5717SOL    HW128613   4.453   1.345   4.588 -1.7539  2.3043  1.4834
 5717SOL    HW228614   4.339   1.244   4.589 -1.2345  0.0660  0.9795
 5718SOL     OW28615   0.541   2.743   7.968  0.0810 -0.1806  0.4805
 5718SOL    HW128616   0.599   2.734   8.044 -1.4174 -0.5380  1.5758
 5718SOL    HW228617   0.458   2.736   8.015 -1.0059 -2.4444 -1.7809
 5719SOL     OW28618   1.693   4.286   1.928  0.5267  0.2106  0.3763
 5719SOL    HW128619   1.746   4.229   1.984  1.0930 -1.6557 -2.0816
 5719SOL    HW228620   1.756   4.358   1.934  0.9215 -0.1096  0.0047
 5720SOL     OW28621   2.815   2.474   1.740  0.0654  0.1471  0.1583
 5720SOL    HW128622   2.817   2.391   1.691 -1.6029  0.0686  0.2384
 5720SOL    HW228623   2.860   2.454   1.822 -3.7517 -1.7629  1.7546
 5721SOL     OW28624   2.621   2.508  10.822  0.1920 -0.3616  0.6131
 5721SOL    HW128625   2.694   2.567  10.802 -1.8932  2.1141  0.2040
 5721SOL    HW228626   2.611   2.469  10.735 -0.2392  1.3746 -0.1140
 5722SOL     OW28627   2.348   3.953   0.652  0.0131 -0.4093 -0.5176
 5722SOL    HW128628   2.300   3.877   0.619 -0.6843 -0.6955  1.2121
 5722SOL    HW228629   2.411   3.903   0.704  0.1120  0.4651  0.1889
 5723SOL     OW28630   0.253   1.549   6.579  0.4305  0.0442  0.2056
 5723SOL    HW128631   0.308   1.473   6.594 -0.5348 -0.5873  0.5550
 5723SOL    HW228632   0.242   1.587   6.666  0.7060 -0.2924  0.3885
 5724SOL     OW28633   3.988   3.921   2.433  0.0505  0.4379  0.1160
 5724SOL    HW128634   3.974   3.919   2.338  2.2759  2.5080 -0.2611
 5724SOL    HW228635   3.943   3.842   2.461 -0.7282  0.8636  0.0816
 5725SOL     OW28636   4.592   4.190  13.058  1.0584 -0.5716  0.1013
 5725SOL    HW128637   4.615   4.276  13.092 -0.5091  0.7464 -2.1831
 5725SOL    HW228638   4.497   4.197  13.053  1.2445  1.3326 -0.5754
 5726SOL     OW28639   2.677   3.658  12.753  0.1799  0.2630 -0.0108
 5726SOL    HW128640   2.607   3.680  12.691  2.6411  0.7659 -2.6132
 5726SOL    HW228641   2.662   3.724  12.820 -2.7546 -2.6449  2.1969
 5727SOL     OW28642   2.718   2.169   7.062  0.3171 -0.5051 -1.0170
 5727SOL    HW128643   2.710   2.212   6.977  0.0559 -0.1944 -0.8333
 5727SOL    HW228644   2.771   2.240   7.098  0.0300 -0.4167 -0.7754
 5728SOL     OW28645   1.434   1.116   2.655  0.5279 -0.8352 -0.3374
 5728SOL    HW128646   1.461   1.165   2.578  1.6554 -1.2129 -0.1961
 5728SOL    HW228647   1.363   1.173   2.682 -0.1236 -1.0654 -1.5686
 5729SOL     OW28648   1.002   1.254  13.400  0.0507 -0.0787  0.3062
 5729SOL    HW128649   1.095   1.241  13.380 -0.3042 -2.7398  0.4975
 5729SOL    HW228650   0.970   1.291  13.317 -2.6922  2.0261  2.3226
 5730SOL     OW28651   4.060   1.671  12.965 -0.0078  0.6787 -0.1609
 5730SOL    HW128652   4.142   1.710  12.935  0.4674  0.8834  1.3777
 5730SOL    HW228653   4.050   1.711  13.052 -1.2636 -1.5723  0.7230
 5731SOL     OW28654   0.814   1.572   4.559  0.0887  0.2271  0.6670
 5731SOL    HW128655   0.861   1.651   4.587 -0.5881  1.1834 -0.8789
 5731SOL    HW228656   0.805   1.532   4.645 -0.1818  0.9175  0.9589
 5732SOL     OW28657   3.485   0.341   0.073  0.1071  0.0889  0.9459
 5732SOL    HW128658   3.516   0.269   0.128  3.1761  0.2658 -0.5629
 5732SOL    HW228659   3.557   0.342   0.010  0.2148 -2.2103  1.0200
 5733SOL     OW28660   1.681   2.834   5.696 -0.5073 -0.0468 -0.0290
 5733SOL    HW128661   1.587   2.831   5.679 -0.7906 -1.4247  1.7181
 5733SOL    HW228662   1.695   2.913   5.645 -0.0972  0.2590  0.5672
 5734SOL     OW28663   3.175   2.030   3.284  0.6757 -0.4274  0.2143
 5734SOL    HW128664   3.196   2.007   3.193 -0.7280 -0.1480 -0.1711
 5734SOL    HW228665   3.081   2.024   3.297  0.8940 -2.5149  0.9919
 5735SOL     OW28666   0.556   4.326   7.481 -0.1544 -0.1785 -0.1532
 5735SOL    HW128667   0.534   4.385   7.409 -2.5415 -0.5659  0.2634
 5735SOL    HW228668   0.471   4.281   7.486 -1.4632  2.4420  0.9539
 5736SOL     OW28669   3.813   3.732   2.513  0.2080  0.2974 -0.3050
 5736SOL    HW128670   3.830   3.659   2.573 -2.7676  0.3711  0.6396
 5736SOL    HW228671   3.738   3.691   2.469  1.4718 -0.9785 -1.2713
 5737SOL     OW28672   0.173   0.970  14.031 -0.6931 -0.1467 -0.0940
 5737SOL    HW128673   0.145   0.881  14.008 -1.4837  0.5310 -1.7709
 5737SOL    HW228674   0.250   0.944  14.081 -0.2709  0.1049 -0.6095
 5738SOL     OW28675   3.349   4.476   7.899 -0.1335 -0.1568  0.0088
 5738SOL    HW128676   3.414   4.457   7.968 -0.0181  0.9724  0.1986
 5738SOL    HW228677   3.364   4.402   7.840 -0.1296  0.0962 -0.3021
 5739SOL     OW28678   2.428   3.475   2.863 -0.3110  0.4036  0.4750
 5739SOL    HW128679   2.473   3.402   2.820 -0.8303 -0.3452  1.2149
 5739SOL    HW228680   2.493   3.545   2.855 -0.2328  0.3878  1.0057
 5740SOL     OW28681   0.784   3.680   7.888  0.3663 -0.2436 -0.1358
 5740SOL    HW128682   0.869   3.715   7.861  0.9082 -0.6813  1.0420
 5740SOL    HW228683   0.744   3.700   7.803 -0.7120  0.9407  0.6500
 5741SOL     OW28684   1.821   2.149  15.888 -0.0815  0.5321  0.1786
 5741SOL    HW128685   1.840   2.107  15.804 -2.1164 -0.3893  0.1877
 5741SOL    HW228686   1.799   2.074  15.943 -0.5315  2.2764  2.3873
 5742SOL     OW28687   3.811   3.229   5.603 -0.0190 -0.0290 -0.2877
 5742SOL    HW128688   3.781   3.145   5.638 -1.1117  1.2513  1.8507
 5742SOL    HW228689   3.830   3.275   5.685 -1.0456  1.8288 -1.0978
 5743SOL     OW28690   0.937   4.047  11.521  0.2986 -1.0551 -0.4935
 5743SOL    HW128691   0.879   4.120  11.503  0.0301 -0.6725  1.9318
 5743SOL    HW228692   1.015   4.093  11.492  0.3806 -0.3609  0.8089
 5744SOL     OW28693   3.740   3.863   7.057  0.1857  0.3236  0.4749
 5744SOL    HW128694   3.814   3.924   7.055  0.5070 -0.1295 -1.6093
 5744SOL    HW228695   3.699   3.858   6.970 -0.6992 -0.9855  0.9651
 5745SOL     OW28696   2.400   0.601   8.208  0.2582  0.6536 -0.0628
 5745SOL    HW128697   2.366   0.690   8.215 -0.0762  0.3002  2.8611
 5745SOL    HW228698   2.363   0.564   8.288 -1.9470  0.0375 -1.3564
 5746SOL     OW28699   1.124   2.048   2.552  0.6105  0.4665 -0.7281
 5746SOL    HW128700   1.073   2.108   2.498  1.1574  0.9601 -0.7017
 5746SOL    HW228701   1.209   2.043   2.508  0.5887  0.6160 -0.7877
 5747SOL     OW28702   2.299   3.043  17.427  0.1298  0.5416 -0.2516
 5747SOL    HW128703   2.214   3.075  17.457  0.3598  3.7030 -2.9683
 5747SOL    HW228704   2.282   2.991  17.348 -1.2716  0.5068  0.0635
 5748SOL     OW28705   2.327   0.084  16.815 -0.4250 -0.7271 -0.1779
 5748SOL    HW128706   2.382   0.160  16.834 -0.2944 -0.8323 -0.1325
 5748SOL    HW228707   2.273   0.069  16.892  0.8051  4.2270  1.6243
 5749SOL     OW28708   2.342   2.799  14.061  0.1347  0.4192 -0.4375
 5749SOL    HW128709   2.291   2.766  13.986  1.5537 -0.8847 -0.8231
 5749SOL    HW228710   2.364   2.713  14.096  0.6393  0.9478  0.5206
 5750SOL     OW28711   3.498   2.479   7.816  0.3420 -0.9091  0.4054
 5750SOL    HW128712   3.532   2.568   7.815  1.7926 -1.4762 -0.7082
 5750SOL    HW228713   3.516   2.452   7.905  2.2743  0.2182  0.3627
 5751SOL     OW28714   3.957   0.678  14.938 -0.7346  0.3239 -0.6336
 5751SOL    HW128715   4.000   0.610  14.991  1.7220  1.7167 -0.8352
 5751SOL    HW228716   3.866   0.648  14.947 -0.3556 -0.9707 -1.1618
 5752SOL     OW28717   3.506   4.405   4.675 -0.2694 -0.0157 -0.0127
 5752SOL    HW128718   3.532   4.485   4.629  2.4579  1.4116  4.0032
 5752SOL    HW228719   3.441   4.376   4.611  0.5277 -1.0040 -0.3621
 5753SOL     OW28720   1.438   3.711  12.642  0.2187 -0.3681 -0.1969
 5753SOL    HW128721   1.425   3.749  12.729 -1.6819  0.2796 -0.7719
 5753SOL    HW228722   1.351   3.703  12.604 -0.5873 -0.3869  1.6455
 5754SOL     OW28723   3.729   4.644  11.539  0.3155  0.5562 -0.1442
 5754SOL    HW128724   3.717   4.704  11.612  0.0800  1.5915 -1.0409
 5754SOL    HW228725   3.643   4.645  11.497 -0.4346 -0.0211  1.3973
 5755SOL     OW28726   1.595   2.861  11.138 -0.0865 -0.2950  0.3132
 5755SOL    HW128727   1.501   2.845  11.127  0.2894 -0.7517 -2.3456
 5755SOL    HW228728   1.608   2.812  11.219  0.7040  0.7303  0.7939
 5756SOL     OW28729   2.294   3.915   0.277  0.1705 -0.0769  0.4641
 5756SOL    HW128730   2.226   3.961   0.229  1.3751  2.4978  1.2287
 5756SOL    HW228731   2.243   3.871   0.345 -0.6310  1.1939  0.6776
 5757SOL     OW28732   2.751   0.494  12.387 -0.6190  0.2599 -0.4499
 5757SOL    HW128733   2.783   0.552  12.318  0.2996  1.6961  1.1921
 5757SOL    HW228734   2.741   0.406  12.351 -0.2408 -1.1038  2.7666
 5758SOL     OW28735   0.641   0.256   4.775  0.0752  0.0512 -0.3041
 5758SOL    HW128736   0.637   0.254   4.870 -1.5208  2.1043 -0.3145
 5758SOL    HW228737   0.580   0.328   4.758 -2.4546 -2.0556 -0.1515
 5759SOL     OW28738   1.480   1.329   7.334 -0.3889 -0.1858  0.0543
 5759SOL    HW128739   1.397   1.375   7.347 -0.8886 -1.0152 -0.1492
 5759SOL    HW228740   1.478   1.261   7.402 -1.7731 -0.0706  0.1292
 5760SOL     OW28741   4.163   4.414  14.079 -0.3280 -0.2816  0.2708
 5760SOL    HW128742   4.171   4.416  14.174 -0.7037 -0.1164  0.2999
 5760SOL    HW228743   4.240   4.366  14.049 -0.1762 -0.6530  1.2637
 5761SOL     OW28744   0.167   2.148   8.234  0.2136 -0.0468  0.4112
 5761SOL    HW128745   0.074   2.151   8.259  0.8249 -0.3802  2.7171
 5761SOL    HW228746   0.166   2.057   8.206 -0.8763  0.8037 -2.3495
 5762SOL     OW28747   1.910   2.725   7.702  0.2468  0.4404  0.8853
 5762SOL    HW128748   1.834   2.772   7.735  0.9642  0.9758  1.7651
 5762SOL    HW228749   1.922   2.668   7.778  0.0150  0.2316  0.7659
 5763SOL     OW28750   0.183   2.260   9.989 -0.3146 -0.3132  0.3225
 5763SOL    HW128751   0.207   2.239  10.079  0.4607  0.0580  0.2074
 5763SOL    HW228752   0.214   2.196   9.924 -0.0704 -1.4808  1.5896
 5764SOL     OW28753   1.802   0.238   9.070 -0.2397  0.0741  0.1050
 5764SOL    HW128754   1.765   0.212   9.154 -0.3003 -0.7465 -0.1764
 5764SOL    HW228755   1.863   0.304   9.103  0.3216  0.2819 -1.3230
 5765SOL     OW28756   2.581   2.386  10.559 -0.3772  0.3776 -0.3082
 5765SOL    HW128757   2.614   2.297  10.548 -0.3411  0.3309  0.1454
 5765SOL    HW228758   2.500   2.366  10.607 -0.4649  3.0646  0.6758
 5766SOL     OW28759   3.997   0.686   0.591  0.2442 -0.0006  0.3506
 5766SOL    HW128760   3.950   0.653   0.514  1.5042  0.6848 -0.7240
 5766SOL    HW228761   4.063   0.746   0.555  0.6578 -0.8551 -0.3311
 5767SOL     OW28762   1.674   3.109  11.315  0.6668 -0.3708 -0.0414
 5767SOL    HW128763   1.652   3.038  11.255 -1.2742 -1.1517  1.5951
 5767SOL    HW228764   1.620   3.178  11.275 -1.0737 -1.1624  0.9244
 5768SOL     OW28765   1.250   3.925  15.967 -0.6687  0.3145 -0.1597
 5768SOL    HW128766   1.171   3.937  15.913 -1.5068 -1.5705  0.6521
 5768SOL    HW228767   1.252   3.830  15.968  1.2082  0.3693  0.5635
 5769SOL     OW28768   2.298   0.202  15.744 -0.1081 -0.5823 -0.4285
 5769SOL    HW128769   2.306   0.296  15.728  1.6551 -0.8343 -1.0767
 5769SOL    HW228770   2.376   0.165  15.701  1.5447  1.0875  1.1164
 5770SOL     OW28771   3.678   1.786  14.527 -0.0038  0.3918 -0.0769
 5770SOL    HW128772   3.747   1.783  14.461  0.8147  0.6545  0.7652
 5770SOL    HW228773   3.619   1.850  14.487 -1.3644  0.2627  1.6904
 5771SOL     OW28774   2.711   4.224   3.223 -0.1734 -1.0461 -0.1574
 5771SOL    HW128775   2.658   4.148   3.247 -1.1333 -0.6705 -1.1066
 5771SOL    HW228776   2.756   4.177   3.152  0.0630 -1.0778  0.0135
 5772SOL     OW28777   4.061   0.370   4.207  0.1521 -0.0545 -0.2795
 5772SOL    HW128778   4.141   0.413   4.177  0.4705 -0.5981 -0.2250
 5772SOL    HW228779   4.036   0.336   4.121 -0.3567 -2.0876  0.6758
 5773SOL     OW28780   0.130   4.483   7.290  0.7692 -0.2818  1.0490
 5773SOL    HW128781   0.100   4.491   7.200 -2.2472  1.0362  2.1392
 5773SOL    HW228782   0.066   4.432   7.339  0.5431 -0.1235  0.9180
 5774SOL     OW28783   4.684   2.530   9.913 -0.0703 -0.0085  0.2561
 5774SOL    HW128784   4.685   2.527  10.008 -1.2811  0.5574  0.2920
 5774SOL    HW228785   4.624   2.458   9.892 -0.3680 -0.0267  1.1575
 5775SOL     OW28786   2.546   2.496   5.555 -0.7626 -0.2731 -0.1577
 5775SOL    HW128787   2.474   2.555   5.577  1.5202  1.5007  2.4783
 5775SOL    HW228788   2.578   2.525   5.469 -1.1740 -0.0789 -0.2469
 5776SOL     OW28789   3.880   0.437   6.455 -0.0950  0.0677  0.0155
 5776SOL    HW128790   3.810   0.419   6.518 -0.6285  4.5764  0.7008
 5776SOL    HW228791   3.832   0.495   6.396  0.2954  1.9136  1.5301
 5777SOL     OW28792   4.176   1.694   6.194  0.5852  0.2155 -0.2716
 5777SOL    HW128793   4.231   1.617   6.182  0.4826  0.0672  0.2159
 5777SOL    HW228794   4.156   1.693   6.287  0.7581  1.0369 -0.2218
 5778SOL     OW28795   1.700   2.420   4.781  0.3491 -0.1312  0.5149
 5778SOL    HW128796   1.785   2.454   4.807  2.0073 -4.0876  0.3150
 5778SOL    HW228797   1.694   2.468   4.699  0.2623  0.2549  0.7496
 5779SOL     OW28798   3.329   2.473  10.015 -0.0234 -0.4930 -0.0802
 5779SOL    HW128799   3.405   2.414  10.020  0.0218 -0.5370 -1.2504
 5779SOL    HW228800   3.272   2.413   9.968 -0.7531  0.4503 -0.3984
 5780SOL     OW28801   1.597   4.222  12.689  0.2636 -0.1057  0.5398
 5780SOL    HW128802   1.608   4.168  12.611  0.5404  0.4955  0.1563
 5780SOL    HW228803   1.683   4.262  12.703 -0.4677  2.5251 -2.4965
 5781SOL     OW28804   4.044   4.568   2.923 -0.3380 -0.1676 -0.0677
 5781SOL    HW128805   4.034   4.484   2.969  0.7545 -0.3610 -0.1789
 5781SOL    HW228806   4.041   4.634   2.991  0.0441  0.1432 -0.3568
 5782SOL     OW28807   1.597   0.472   3.947  0.0615 -0.1069  0.4049
 5782SOL    HW128808   1.653   0.417   3.891 -1.3127 -0.7351 -0.3606
 5782SOL    HW228809   1.582   0.418   4.025 -1.0054  0.5276  0.6284
 5783SOL     OW28810   1.379   0.128   4.474 -0.5167  0.4676 -0.1415
 5783SOL    HW128811   1.327   0.158   4.400 -0.8984  1.6842  0.6035
 5783SOL    HW228812   1.315   0.079   4.526 -0.9814 -0.9155 -2.0664
 5784SOL     OW28813   1.685   2.536   9.495  0.5715 -0.3247  0.1759
 5784SOL    HW128814   1.663   2.461   9.550  3.1196  1.1742  3.2032
 5784SOL    HW228815   1.673   2.500   9.407 -2.5602  1.0306  0.0260
 5785SOL     OW28816   3.827   0.264   5.105 -0.0789  0.2794  0.4173
 5785SOL    HW128817   3.752   0.297   5.153 -0.9082 -0.7135 -0.1989
 5785SOL    HW228818   3.819   0.169   5.119  0.7642  0.4468  2.0753
 5786SOL     OW28819   0.128   0.053   8.201  0.4964 -0.4329 -0.1298
 5786SOL    HW128820   0.051   0.027   8.150  1.7472 -0.7475 -1.8700
 5786SOL    HW228821   0.125   0.149   8.212 -0.2769 -0.4895  0.2052
 5787SOL     OW28822   4.108   0.185   1.551 -0.2706 -0.4714 -0.2630
 5787SOL    HW128823   4.183   0.143   1.592 -0.8964 -0.8158  0.5398
 5787SOL    HW228824   4.038   0.172   1.615 -2.3549  3.9707 -1.6141
 5788SOL     OW28825   2.812   1.063  15.520  0.3006  0.0479  0.3005
 5788SOL    HW128826   2.898   1.089  15.553  0.8248 -1.3112 -0.0057
 5788SOL    HW228827   2.783   1.141  15.473 -0.0520  0.8766  1.8917
 5789SOL     OW28828   1.661   3.587   3.308  0.2279  0.0452 -0.9194
 5789SOL    HW128829   1.660   3.646   3.233  0.7129  1.2447  0.0148
 5789SOL    HW228830   1.689   3.648   3.376  0.6456 -1.1308 -0.0407
 5790SOL     OW28831   1.891   2.775   4.124  0.1999  0.2525  0.3866
 5790SOL    HW128832   1.805   2.798   4.160 -0.6292 -0.3511 -1.2277
 5790SOL    HW228833   1.936   2.732   4.197 -0.9068  0.0830  0.9818
 5791SOL     OW28834   4.020   2.274   9.900 -0.3499  0.3869  0.5880
 5791SOL    HW128835   4.030   2.205   9.966 -0.6871 -0.0409  0.1902
 5791SOL    HW228836   3.972   2.224   9.834 -0.0333 -1.2070  1.5602
 5792SOL     OW28837   0.899   4.180   2.970 -0.0814  0.2694  0.3053
 5792SOL    HW128838   0.950   4.252   2.934  1.1625 -2.0147 -2.5526
 5792SOL    HW228839   0.832   4.239   3.003 -0.0914 -0.8716  2.3789
 5793SOL     OW28840   3.269   4.253  10.543  0.1199 -0.3156  0.1614
 5793SOL    HW128841   3.261   4.346  10.563 -2.7619 -0.2513 -1.3506
 5793SOL    HW228842   3.349   4.242  10.492  1.1241 -2.3605  2.1670
 5794SOL     OW28843   2.870   0.996   7.215 -0.0616  0.0742  0.1851
 5794SOL    HW128844   2.856   0.919   7.270  0.9346  0.7944  1.4503
 5794SOL    HW228845   2.782   1.035   7.212  0.2645  0.7804 -0.0947
 5795SOL     OW28846   2.158   3.217   3.246  0.3695  0.4289  0.1431
 5795SOL    HW128847   2.122   3.283   3.306  1.0202  2.1633 -1.3911
 5795SOL    HW228848   2.076   3.200   3.201 -0.0463  1.5255  0.4935
 5796SOL     OW28849   2.341   3.006   3.825 -0.0728  0.2673  0.1037
 5796SOL    HW128850   2.270   3.068   3.843 -0.8503 -1.1765  1.9661
 5796SOL    HW228851   2.386   3.056   3.757 -1.1755 -0.1394 -0.9123
 5797SOL     OW28852   4.334   0.594   4.365  0.1133 -0.0914  0.2963
 5797SOL    HW128853   4.393   0.669   4.371 -0.7295  0.5103  1.0297
 5797SOL    HW228854   4.351   0.573   4.273 -2.9935 -2.4666  0.2752
 5798SOL     OW28855   4.534   2.666  15.643  0.2813 -0.2223  0.1870
 5798SOL    HW128856   4.534   2.610  15.565  1.5374 -1.2533  0.9370
 5798SOL    HW228857   4.439   2.675  15.649  0.3029  1.5265 -2.1016
 5799SOL     OW28858   1.560   3.768  14.388 -0.1262  1.0220  0.6387
 5799SOL    HW128859   1.571   3.844  14.445  2.1355  0.2773  1.1855
 5799SOL    HW228860   1.598   3.794  14.304  0.1764 -2.1045 -0.1811
 5800SOL     OW28861   4.002   4.380  16.333 -0.1768 -0.2316 -0.1553
 5800SOL    HW128862   3.965   4.298  16.300  2.9819 -0.1964 -3.7528
 5800SOL    HW228863   4.093   4.353  16.342 -0.1962 -0.2306  0.0476
 5801SOL     OW28864   3.165   0.648  12.629 -0.2637  0.6243 -0.2951
 5801SOL    HW128865   3.235   0.638  12.565  1.1702 -0.5270  1.4619
 5801SOL    HW228866   3.136   0.557  12.629  2.4075 -0.2063 -2.0119
 5802SOL     OW28867   0.155   4.100   0.205 -0.1031 -0.6496 -0.4755
 5802SOL    HW128868   0.161   4.039   0.279 -1.6653  0.7936  0.8250
 5802SOL    HW228869   0.065   4.086   0.178 -0.0949  2.2270 -1.9293
 5803SOL     OW28870   3.243   0.034   8.154  0.1148 -0.0088 -0.4371
 5803SOL    HW128871   3.167   0.092   8.148 -1.1316 -1.7606 -1.7458
 5803SOL    HW228872   3.316   0.095   8.155  0.8298 -0.8591 -0.4564
 5804SOL     OW28873   1.246   3.705   6.405  0.1333 -0.1192  0.3262
 5804SOL    HW128874   1.272   3.614   6.422 -1.7824 -0.7752 -0.2078
 5804SOL    HW228875   1.265   3.715   6.312 -1.0614  0.7728  0.1867
 5805SOL     OW28876   2.255   0.828   8.143 -0.1621  0.5321  0.5769
 5805SOL    HW128877   2.233   0.836   8.236  1.7909  3.5746  0.7687
 5805SOL    HW228878   2.271   0.916   8.111 -2.3214  1.2972  1.5302
 5806SOL     OW28879   1.693   3.697  16.715 -0.1057  0.1239 -0.1349
 5806SOL    HW128880   1.629   3.631  16.689 -0.9439  0.5142  0.9585
 5806SOL    HW228881   1.665   3.759  16.647 -0.4165  1.0809  0.8646
 5807SOL     OW28882   0.676   0.780  12.847  0.5116  0.5563  0.0090
 5807SOL    HW128883   0.755   0.824  12.878 -0.7554  3.4726 -0.9734
 5807SOL    HW228884   0.709   0.730  12.772 -0.6386 -0.9442  0.5043
 5808SOL     OW28885   1.342   2.025  15.389  0.2675  0.7044 -0.4224
 5808SOL    HW128886   1.296   2.109  15.387 -4.3309 -1.7826  0.3441
 5808SOL    HW228887   1.409   2.049  15.453 -0.9079 -3.4134  2.3658
 5809SOL     OW28888   0.403   0.329  13.487 -0.1246 -0.3687 -0.5363
 5809SOL    HW128889   0.490   0.368  13.496  0.1888 -1.1610 -0.1022
 5809SOL    HW228890   0.375   0.325  13.579 -0.4815  1.8240 -0.5539
 5810SOL     OW28891   2.031   2.148  11.507  0.8907  0.4705 -0.0855
 5810SOL    HW128892   2.087   2.104  11.442 -0.7042  1.7597 -2.3268
 5810SOL    HW228893   1.960   2.186  11.456  0.6894 -0.3417 -0.4268
 5811SOL     OW28894   0.647   4.436  15.884  0.1310  0.0761 -0.4621
 5811SOL    HW128895   0.601   4.486  15.951 -0.2081 -2.5592  1.2662
 5811SOL    HW228896   0.666   4.353  15.927  2.6812  1.0372  0.2992
 5812SOL     OW28897   2.546   3.579  17.332  0.4237  0.0620  0.4560
 5812SOL    HW128898   2.469   3.594  17.386  0.2461 -1.1122  0.5302
 5812SOL    HW228899   2.619   3.601  17.391 -0.3171 -0.0345  1.4052
 5813SOL     OW28900   0.534   3.812   4.015 -0.3029  0.4382  0.0856
 5813SOL    HW128901   0.579   3.729   4.031 -1.7681 -0.5620 -1.0286
 5813SOL    HW228902   0.549   3.819   3.921 -1.1142  2.1362  0.0849
 5814SOL     OW28903   3.098   3.687   5.734 -0.1869  0.1960 -0.7234
 5814SOL    HW128904   3.043   3.691   5.656 -2.6134 -0.6120  0.9290
 5814SOL    HW228905   3.099   3.595   5.761 -0.4545  0.2172 -0.6414
 5815SOL     OW28906   0.825   0.309  17.005 -0.4002 -0.1170  0.0509
 5815SOL    HW128907   0.759   0.341  16.943  1.2995 -0.2403 -1.7977
 5815SOL    HW228908   0.845   0.398  17.034 -0.3991  0.3506 -1.3728
 5816SOL     OW28909   3.694   0.755   7.980 -0.0317 -0.4344  0.0240
 5816SOL    HW128910   3.688   0.802   7.896 -1.0506  0.9865  0.8967
 5816SOL    HW228911   3.615   0.794   8.017  1.6577  1.7425  1.3801
 5817SOL     OW28912   1.772   3.117   5.199  0.2323  0.4103  0.0531
 5817SOL    HW128913   1.800   3.146   5.285 -0.1897  0.3629  0.2050
 5817SOL    HW228914   1.852   3.111   5.146  0.2108 -0.5183  0.1101
 5818SOL     OW28915   0.970   2.069  13.879 -0.7279 -0.0821 -0.3911
 5818SOL    HW128916   1.001   1.978  13.874  3.8900  1.6572 -3.0440
 5818SOL    HW228917   1.051   2.119  13.872 -0.5180 -0.4637 -0.6770
 5819SOL     OW28918   4.360   2.474   4.995  0.6094  0.0966 -1.1487
 5819SOL    HW128919   4.385   2.430   4.915 -1.7817 -1.7911 -0.8588
 5819SOL    HW228920   4.421   2.548   4.996 -0.1410  0.7133 -0.5630
 5820SOL     OW28921   1.955   2.851  15.911  0.3776  0.4286  0.5037
 5820SOL    HW128922   2.016   2.899  15.966  0.3257 -0.1609  1.0715
 5820SOL    HW228923   1.878   2.868  15.965 -0.0422 -2.1708  0.7197
 5821SOL     OW28924   2.867   3.071  17.210 -0.2594  0.4021 -0.3597
 5821SOL    HW128925   2.952   3.115  17.204  1.0651 -1.7631  2.7154
 5821SOL    HW228926   2.812   3.109  17.141  0.1201  1.0891 -0.2857
 5822SOL     OW28927   1.787   2.423  11.618  0.0966  0.0316 -0.2220
 5822SOL    HW128928   1.869   2.444  11.573  0.5478 -0.3718  0.4039
 5822SOL    HW228929   1.727   2.412  11.544 -0.0833 -0.5916  0.0120
 5823SOL     OW28930   4.038   1.783   3.566 -0.2363 -0.0596 -0.1958
 5823SOL    HW128931   3.978   1.856   3.576 -1.2404 -0.5618 -2.7021
 5823SOL    HW228932   4.125   1.824   3.568 -0.9143  1.3721  0.3005
 5824SOL     OW28933   1.779   0.445  12.310 -0.9307  0.4223  0.1781
 5824SOL    HW128934   1.831   0.522  12.335  0.6468 -1.6052  3.1107
 5824SOL    HW228935   1.772   0.469  12.218  1.1086 -0.3227 -0.1650
 5825SOL     OW28936   2.575   1.884   9.468  0.3492 -0.3399 -0.3410
 5825SOL    HW128937   2.595   1.919   9.382  1.0477 -0.1669 -0.1101
 5825SOL    HW228938   2.563   1.790   9.453  0.4990 -0.3676 -0.2927
 5826SOL     OW28939   2.063   1.096   7.273 -0.5404 -0.5970 -0.1389
 5826SOL    HW128940   2.051   1.167   7.336 -2.0047 -0.5766 -0.4510
 5826SOL    HW228941   2.050   1.022   7.332 -3.2885 -2.0230 -2.5510
 5827SOL     OW28942   1.741   3.027   0.809  0.4120  0.7891  0.1644
 5827SOL    HW128943   1.701   2.999   0.891  0.2960 -0.2282 -0.2258
 5827SOL    HW228944   1.671   3.000   0.748  2.1534 -1.3528 -0.8933
 5828SOL     OW28945   4.169   3.676   1.470 -0.3235  0.0272 -0.0525
 5828SOL    HW128946   4.189   3.714   1.385 -0.1741  0.3613  0.1280
 5828SOL    HW228947   4.188   3.736   1.543  1.0296 -0.6727  0.1779
 5829SOL     OW28948   1.513   3.768   3.115  0.4422  0.2047  0.5019
 5829SOL    HW128949   1.602   3.766   3.080  0.3774  1.9706  0.1982
 5829SOL    HW228950   1.512   3.848   3.169  1.6584  1.6601 -1.6328
 5830SOL     OW28951   2.814   3.572   5.728  0.0930  0.6409  0.4815
 5830SOL    HW128952   2.765   3.568   5.646  3.0545  1.9145 -1.3578
 5830SOL    HW228953   2.833   3.478   5.726  0.0885  0.6560 -0.8154
 5831SOL     OW28954   3.166   2.434  14.929  0.1225  0.2268 -0.2615
 5831SOL    HW128955   3.153   2.512  14.875 -0.7000  1.9273  2.4298
 5831SOL    HW228956   3.124   2.355  14.893  0.5932 -0.4982  0.7803
 5832SOL     OW28957   3.795   1.344   9.646 -0.2611 -0.3292 -0.1247
 5832SOL    HW128958   3.814   1.295   9.566 -0.0122  1.4687 -1.1573
 5832SOL    HW228959   3.776   1.267   9.701 -0.0841 -1.3564 -1.5116
 5833SOL     OW28960   4.132   1.798   6.957  0.4402  0.4491 -0.5119
 5833SOL    HW128961   4.141   1.879   7.009  2.5153 -0.2212  0.1790
 5833SOL    HW228962   4.212   1.748   6.977 -0.2151 -0.7440 -0.9232
 5834SOL     OW28963   2.221   0.376  15.075  0.7565 -0.3925  0.1771
 5834SOL    HW128964   2.164   0.368  15.151 -1.0503 -0.7739 -1.2342
 5834SOL    HW228965   2.235   0.283  15.059  0.2701 -0.2765 -0.9142
 5835SOL     OW28966   4.115   2.430  14.451 -0.2608 -0.2184  0.4549
 5835SOL    HW128967   4.084   2.505  14.400 -0.6473 -0.5350  0.2180
 5835SOL    HW228968   4.124   2.467  14.539  3.0019  0.4527 -0.1747
 5836SOL     OW28969   0.014   3.048   6.019  0.5221  0.4594  0.0111
 5836SOL    HW128970   4.693   3.014   6.099  2.5732  2.1043  1.7373
 5836SOL    HW228971   0.094   3.089   6.051  0.7090  2.6633 -3.3672
 5837SOL     OW28972   1.772   0.610   7.976 -0.7709 -1.0267  0.4671
 5837SOL    HW128973   1.706   0.540   7.974 -1.0200 -0.8137  1.1863
 5837SOL    HW228974   1.726   0.669   8.035 -0.5969 -0.0692 -0.3644
 5838SOL     OW28975   0.131   1.805   7.852 -0.1786 -0.4471  0.4569
 5838SOL    HW128976   0.194   1.745   7.891  1.5330  2.8371  2.8223
 5838SOL    HW228977   0.161   1.887   7.892 -0.2546  0.8002 -1.9923
 5839SOL     OW28978   3.054   1.385   4.202  0.0072 -0.0688 -0.0072
 5839SOL    HW128979   3.091   1.444   4.268  0.6603  0.2695 -0.6864
 5839SOL    HW228980   2.979   1.346   4.248 -0.1855  0.4467  0.1234
 5840SOL     OW28981   4.428   2.074  15.306  0.1103  0.1403  0.5442
 5840SOL    HW128982   4.403   2.002  15.248 -0.9566 -0.3388  1.6224
 5840SOL    HW228983   4.496   2.032  15.359 -0.3428 -0.2460  0.8131
 5841SOL     OW28984   2.916   1.254   3.964 -0.0537  0.0642 -0.3106
 5841SOL    HW128985   2.832   1.221   3.930 -0.6702  0.7382  0.5377
 5841SOL    HW228986   2.908   1.224   4.055 -0.8370  1.2463  0.0167
 5842SOL     OW28987   1.619   1.823   1.378  0.2032  0.0819 -0.1172
 5842SOL    HW128988   1.629   1.769   1.456  1.6773  0.7973  0.1826
 5842SOL    HW228989   1.585   1.894   1.433 -0.3916 -0.7943  0.6507
 5843SOL     OW28990   3.616   1.097   5.045  0.0417  0.4209  0.1330
 5843SOL    HW128991   3.528   1.071   5.020  0.2930 -1.1998  0.9722
 5843SOL    HW228992   3.610   1.191   5.025 -1.5480  0.4024  0.5626
 5844SOL     OW28993   4.074   0.525   7.801 -0.0286  0.3278  0.1281
 5844SOL    HW128994   4.032   0.441   7.821  1.1459 -0.3335 -0.1960
 5844SOL    HW228995   4.027   0.553   7.723  0.3573 -1.3257 -0.6914
 5845SOL     OW28996   0.045   0.971   6.088 -0.1334  0.4628 -0.2365
 5845SOL    HW128997   0.045   1.066   6.076 -1.2329  0.4170 -0.5876
 5845SOL    HW228998   0.103   0.941   6.018 -2.0305  1.7416 -2.3568
 5846SOL     OW28999   1.000   1.029   6.909 -0.5365  0.8701  0.2563
 5846SOL    HW129000   0.918   1.032   6.858  0.1912 -0.9446 -1.0272
 5846SOL    HW229001   1.056   1.080   6.849  0.3152  0.0271  0.3402
 5847SOL     OW29002   4.296   2.201   3.524  0.9612 -0.0817 -0.2188
 5847SOL    HW129003   4.274   2.127   3.581  0.7317 -0.0508 -0.2681
 5847SOL    HW229004   4.291   2.172   3.433  0.3653  0.4727 -0.3663
 5848SOL     OW29005   2.819   2.991  10.781 -0.2465  0.3987  0.1391
 5848SOL    HW129006   2.908   2.954  10.783 -1.3943 -2.3486 -0.0604
 5848SOL    HW229007   2.808   3.033  10.696  2.3993  0.7861 -0.0331
 5849SOL     OW29008   2.918   2.546  10.866  0.1782 -0.4397 -0.8512
 5849SOL    HW129009   2.910   2.452  10.880 -1.5548 -0.3721 -1.3688
 5849SOL    HW229010   2.946   2.545  10.774  2.2000  1.2171 -0.2618
 5850SOL     OW29011   0.121   4.386   0.169 -0.5202 -0.4129  0.0717
 5850SOL    HW129012   0.129   4.352   0.080  0.3984 -0.8297  0.3151
 5850SOL    HW229013   0.162   4.307   0.204 -0.8891 -0.1914  0.9996
 5851SOL     OW29014   4.103   2.897   0.133  0.5146  0.3739  0.2350
 5851SOL    HW129015   4.149   2.821   0.169  1.0612  0.5220 -0.1347
 5851SOL    HW229016   4.139   2.894   0.044  1.3145 -0.6435  0.5922
 5852SOL     OW29017   3.971   4.055   7.094 -0.1222  0.1853 -0.2611
 5852SOL    HW129018   3.958   4.091   7.006 -2.0210  2.0402  0.7671
 5852SOL    HW229019   4.018   4.125   7.138 -0.3076 -0.4245  0.9261
 5853SOL     OW29020   2.418   1.009   5.767  0.1332  0.1049 -0.0647
 5853SOL    HW129021   2.434   1.069   5.694  1.4213  0.4957  0.5512
 5853SOL    HW229022   2.333   1.043   5.796 -0.3454  0.5540 -1.9792
 5854SOL     OW29023   1.600   4.286   0.349 -0.0654  0.3362 -0.0008
 5854SOL    HW129024   1.664   4.221   0.320 -1.7308 -1.7867  1.0092
 5854SOL    HW229025   1.621   4.357   0.289  1.7397 -1.4743 -1.5440
 5855SOL     OW29026   1.970   2.214   8.954 -0.6272 -0.4040  0.9731
 5855SOL    HW129027   1.996   2.127   8.982  0.2065  0.6860  3.6377
 5855SOL    HW229028   1.882   2.223   8.990 -1.2571 -0.0890 -0.6298
 5856SOL     OW29029   1.374   3.764  16.893  0.4231 -0.1627 -0.2226
 5856SOL    HW129030   1.348   3.706  16.821 -0.9876  0.5355 -0.2746
 5856SOL    HW229031   1.305   3.830  16.891  2.4396  1.9490  0.7652
 5857SOL     OW29032   3.033   3.508   0.767 -0.0420  0.2641 -0.1644
 5857SOL    HW129033   3.037   3.464   0.683 -1.5361  0.2556 -0.2372
 5857SOL    HW229034   2.949   3.475   0.801  0.3716  1.2756  1.8484
 5858SOL     OW29035   0.433   2.389  14.860 -0.0944  0.7097  0.7076
 5858SOL    HW129036   0.434   2.356  14.950  2.7032 -1.8383 -0.2621
 5858SOL    HW229037   0.405   2.478  14.881 -3.0483  0.1266 -0.8196
 5859SOL     OW29038   1.368   4.678  12.210 -0.1512  0.3092 -0.1151
 5859SOL    HW129039   1.399   4.600  12.163 -2.2144 -0.3673 -0.3657
 5859SOL    HW229040   1.381   4.653  12.302 -0.3204  0.8863  0.0671
 5860SOL     OW29041   3.929   0.289   7.882  0.0816 -0.1659 -0.5324
 5860SOL    HW129042   3.849   0.320   7.925 -0.0638 -0.7193 -0.4048
 5860SOL    HW229043   3.958   0.220   7.941 -0.3611  0.7561  0.7703
 5861SOL     OW29044   4.637   3.498   0.819  0.2633  0.2236 -0.0654
 5861SOL    HW129045   4.707   3.539   0.769 -0.4824  0.2901 -1.0533
 5861SOL    HW229046   4.664   3.408   0.800 -3.1549 -0.4091 -1.8632
 5862SOL     OW29047   3.416   3.235   4.067 -0.1060 -0.2203 -0.3895
 5862SOL    HW129048   3.448   3.298   4.132  2.1995  0.1649 -1.8956
 5862SOL    HW229049   3.410   3.294   3.991 -1.6327 -1.7332 -1.4520
 5863SOL     OW29050   3.194   2.484   1.948 -0.1559  0.1586 -0.4996
 5863SOL    HW129051   3.099   2.484   1.953 -0.1981 -2.1263 -1.1939
 5863SOL    HW229052   3.214   2.396   1.982  0.3949 -0.1197 -1.5330
 5864SOL     OW29053   2.650   0.973  14.140 -0.2009 -0.1642 -0.1059
 5864SOL    HW129054   2.702   0.893  14.133 -2.3507 -1.7030  1.4765
 5864SOL    HW229055   2.682   1.001  14.226  3.0693 -0.3351 -1.2652
 5865SOL     OW29056   1.011   0.567   3.872  0.4987  0.4031 -0.0252
 5865SOL    HW129057   1.049   0.503   3.932  1.3802 -1.0787 -2.1605
 5865SOL    HW229058   0.975   0.629   3.936 -0.1233 -1.8774  1.8677
 5866SOL     OW29059   4.550   2.465  15.993  0.3030  0.2970  0.0343
 5866SOL    HW129060   4.466   2.429  16.024 -0.0717  1.8701  0.8040
 5866SOL    HW229061   4.614   2.406  16.034 -0.2303  1.2054  2.1826
 5867SOL     OW29062   3.131   3.954  11.876 -0.2349 -0.2328 -0.7768
 5867SOL    HW129063   3.186   3.976  11.801 -0.8044 -1.3032 -1.5087
 5867SOL    HW229064   3.184   3.896  11.931  1.6342  1.6104 -0.6086
 5868SOL     OW29065   2.024   3.286   4.842  0.0503 -0.4741 -0.1122
 5868SOL    HW129066   2.082   3.220   4.882 -0.2526 -0.7561 -0.1423
 5868SOL    HW229067   2.082   3.328   4.779  2.3621 -0.5823  1.9307
 5869SOL     OW29068   0.396   2.491   4.473 -0.5668 -0.2287  0.1336
 5869SOL    HW129069   0.319   2.544   4.454  0.9465  1.0835 -2.3006
 5869SOL    HW229070   0.465   2.548   4.439 -1.8459 -0.4901 -2.9469
 5870SOL     OW29071   3.306   2.221   3.081  0.0479 -0.7754 -0.3945
 5870SOL    HW129072   3.356   2.264   3.012  3.1610  0.5895  2.6800
 5870SOL    HW229073   3.302   2.288   3.149  2.1307  1.3727 -2.3843
 5871SOL     OW29074   3.508   1.595   6.453  0.3262  0.4534  0.3888
 5871SOL    HW129075   3.604   1.593   6.452  0.3625  0.6324  2.2163
 5871SOL    HW229076   3.501   1.626   6.544  0.3521  0.8815  0.2433
 5872SOL     OW29077   4.700   3.240   0.781  0.2534  0.3750 -0.3378
 5872SOL    HW129078   4.666   3.150   0.776  1.7416 -0.2578  0.9066
 5872SOL    HW229079   0.049   3.222   0.846  0.7446 -1.9868 -1.5239
 5873SOL     OW29080   4.505   0.540   8.418  0.2925 -0.1194  0.7549
 5873SOL    HW129081   4.475   0.560   8.330  1.7490 -2.2840 -0.2253
 5873SOL    HW229082   4.549   0.459   8.395 -1.7648 -0.8361 -0.6182
 5874SOL     OW29083   2.030   4.219  12.344  0.7014  0.6561 -0.2327
 5874SOL    HW129084   2.012   4.193  12.254  0.0202  0.4005 -0.0242
 5874SOL    HW229085   1.970   4.160  12.390 -0.2687  1.3732 -0.5929
 5875SOL     OW29086   4.219   3.809   0.072  0.5345  0.5027 -0.5445
 5875SOL    HW129087   4.149   3.807   0.007 -0.7188 -0.8740  0.8510
 5875SOL    HW229088   4.241   3.716   0.080  2.0864  0.6117 -3.3809
 5876SOL     OW29089   0.796   0.333  10.381  0.4580  0.0156  0.3336
 5876SOL    HW129090   0.888   0.324  10.355  0.4986  2.5590 -0.4187
 5876SOL    HW229091   0.778   0.240  10.397  0.6911 -0.2080 -0.6736
 5877SOL     OW29092   1.314   1.327   2.471  0.3829 -0.0830  0.0338
 5877SOL    HW129093   1.386   1.282   2.428 -0.2973 -0.0321 -1.1520
 5877SOL    HW229094   1.318   1.415   2.433  0.5756  0.9856  2.5312
 5878SOL     OW29095   3.362   2.664  17.121 -0.0822  0.1392  0.4477
 5878SOL    HW129096   3.362   2.671  17.216  2.2407 -1.7325  0.5819
 5878SOL    HW229097   3.359   2.758  17.104  2.7044  0.3117  0.8790
 5879SOL     OW29098   1.101   4.569   3.493 -0.2966  0.6866  0.0994
 5879SOL    HW129099   1.064   4.657   3.488 -2.7909 -0.2663  1.3857
 5879SOL    HW229100   1.021   4.519   3.510 -0.9685  1.9969  0.7628
 5880SOL     OW29101   4.489   3.084  16.346  0.0656  0.2759 -0.1472
 5880SOL    HW129102   4.494   3.073  16.251  0.8876  3.2152 -0.4448
 5880SOL    HW229103   4.548   3.157  16.366  1.1716 -0.7557  0.3490
 5881SOL     OW29104   0.907   4.391  15.166  0.3791 -0.0462 -0.6307
 5881SOL    HW129105   0.916   4.303  15.130  0.6299  0.5535 -2.0623
 5881SOL    HW229106   0.834   4.381  15.227 -0.1241  0.5142 -1.1307
 5882SOL     OW29107   2.421   2.576   7.929 -0.3356  0.0250  0.3914
 5882SOL    HW129108   2.404   2.625   7.849  2.1853 -0.1582 -0.2490
 5882SOL    HW229109   2.407   2.638   8.001 -1.4629  0.5510 -0.2813
 5883SOL     OW29110   1.636   0.261   0.213 -0.5856 -0.0507 -0.2390
 5883SOL    HW129111   1.577   0.186   0.207 -2.0875  1.0967  0.2452
 5883SOL    HW229112   1.715   0.211   0.191 -0.0933  1.0131 -0.9057
 5884SOL     OW29113   0.251   4.446  15.750 -0.2835 -0.2602 -0.2289
 5884SOL    HW129114   0.196   4.399  15.687  1.3947 -0.7907 -1.3153
 5884SOL    HW229115   0.333   4.447  15.700 -0.3284 -1.0308 -0.3197
 5885SOL     OW29116   1.707   4.081   3.598 -0.3906 -0.7876  0.4038
 5885SOL    HW129117   1.800   4.100   3.609 -0.0128 -1.8405 -0.8696
 5885SOL    HW229118   1.684   4.151   3.537 -1.5697 -1.4958  0.0308
 5886SOL     OW29119   1.529   2.126   3.727  1.0429 -0.1070 -0.2495
 5886SOL    HW129120   1.560   2.062   3.662  1.4482 -0.4677  0.3053
 5886SOL    HW229121   1.568   2.209   3.698 -0.8213  0.8022 -0.1327
 5887SOL     OW29122   4.664   2.987   8.522 -0.5040 -0.1291 -0.2586
 5887SOL    HW129123   0.014   3.016   8.580  0.0497 -0.1992 -0.8836
 5887SOL    HW229124   4.643   3.067   8.474 -2.7611 -1.0140 -0.7724
 5888SOL     OW29125   4.065   1.353   3.723  0.5712 -0.3628 -0.3294
 5888SOL    HW129126   3.989   1.297   3.737  0.2151  0.6838  1.9998
 5888SOL    HW229127   4.033   1.443   3.735  2.3733  0.2208  0.1545
 5889SOL     OW29128   3.576   0.854  15.464 -0.1320 -0.1903  0.0314
 5889SOL    HW129129   3.597   0.816  15.549 -0.4757 -0.0978  0.1610
 5889SOL    HW229130   3.613   0.793  15.401 -0.9008 -0.6624  0.0373
 5890SOL     OW29131   3.251   2.122   1.406  0.3920 -0.4137  0.1476
 5890SOL    HW129132   3.346   2.116   1.413  0.3847  0.0320  0.5977
 5890SOL    HW229133   3.238   2.216   1.398 -3.0146 -1.0827 -2.6137
 5891SOL     OW29134   1.984   2.074   4.508 -0.0759  0.2043 -0.0593
 5891SOL    HW129135   2.015   2.053   4.420 -1.5470  1.3918 -0.8481
 5891SOL    HW229136   1.972   1.986   4.545 -1.8676  0.2262 -0.6236
 5892SOL     OW29137   1.656   0.776   4.740  0.2527  0.2208 -0.0318
 5892SOL    HW129138   1.574   0.818   4.767  0.6070 -0.2919  1.8399
 5892SOL    HW229139   1.693   0.736   4.818 -0.1350 -1.5460 -0.7547
 5893SOL     OW29140   2.791   0.213  12.387 -0.2780  0.2103 -0.1789
 5893SOL    HW129141   2.840   0.131  12.394  0.7820  0.7435 -1.4160
 5893SOL    HW229142   2.802   0.243  12.478 -3.0683  0.4865  0.0589
 5894SOL     OW29143   3.428   2.994   7.055 -0.5531  0.2650  0.2348
 5894SOL    HW129144   3.503   2.970   7.109 -0.2424  1.9246  0.5358
 5894SOL    HW229145   3.434   3.089   7.052  0.4889  0.2634  1.7475
 5895SOL     OW29146   4.342   1.622   7.048  0.4104 -0.4983 -0.6411
 5895SOL    HW129147   4.428   1.580   7.040 -0.0166 -1.9542  2.2066
 5895SOL    HW229148   4.299   1.559   7.106 -0.3940 -1.4754 -2.2978
 5896SOL     OW29149   1.241   3.726   3.853 -0.6327  0.4305 -0.2913
 5896SOL    HW129150   1.240   3.650   3.912 -0.1711  1.8167  1.4969
 5896SOL    HW229151   1.184   3.789   3.895 -0.2629  1.1685 -0.8879
 5897SOL     OW29152   4.601   1.717  16.184  0.0175 -0.3565 -0.1597
 5897SOL    HW129153   4.683   1.765  16.172  1.6294 -2.9208  0.6428
 5897SOL    HW229154   4.582   1.748  16.273  0.0334 -1.0167  0.0793
 5898SOL     OW29155   4.525   0.475   3.993 -0.4588 -0.4019  0.3589
 5898SOL    HW129156   4.567   0.416   3.930  2.2323  0.6833  1.0952
 5898SOL    HW229157   4.574   0.447   4.071  1.1491  3.0877  0.6182
 5899SOL     OW29158   1.793   1.617   0.248  0.7062  0.4287 -0.6208
 5899SOL    HW129159   1.856   1.546   0.238 -2.1379 -2.1356 -0.1926
 5899SOL    HW229160   1.825   1.653   0.331 -0.8841 -3.0666  1.4612
 5900SOL     OW29161   0.788   1.738   2.403 -0.1451  0.5502 -0.4841
 5900SOL    HW129162   0.866   1.778   2.365  2.1214 -1.1039  2.4768
 5900SOL    HW229163   0.817   1.684   2.476 -0.2266  0.4448 -0.5298
 5901SOL     OW29164   1.071   1.426   4.089  0.4482 -0.0332  0.0256
 5901SOL    HW129165   1.136   1.439   4.158 -0.6114 -0.8759  1.2017
 5901SOL    HW229166   0.995   1.448   4.142  0.9461  0.0153  0.7254
 5902SOL     OW29167   2.328   2.322  10.664  0.5459  0.8370  0.0770
 5902SOL    HW129168   2.244   2.350  10.698  0.2432  0.8159 -0.6512
 5902SOL    HW229169   2.314   2.231  10.638 -1.1519  1.3538 -0.7884
 5903SOL     OW29170   3.080   2.178  12.883  0.1329 -0.6031  0.0839
 5903SOL    HW129171   3.164   2.215  12.912 -1.0632  0.7705  1.7151
 5903SOL    HW229172   3.104   2.100  12.833 -2.2351  0.0338 -2.0395
 5904SOL     OW29173   2.223   2.290  11.925  0.3351  0.0830 -0.2761
 5904SOL    HW129174   2.174   2.306  11.844  1.1475 -0.3571 -0.8528
 5904SOL    HW229175   2.156   2.269  11.991  3.6167 -5.2085  1.2810
 5905SOL     OW29176   4.675   0.022   8.947  0.2732 -0.2158  0.2170
 5905SOL    HW129177   4.711   0.059   8.866  0.5346 -1.1727 -0.1075
 5905SOL    HW229178   4.667   0.090   9.014  1.6126 -0.6981  0.8734
 5906SOL     OW29179   1.767   1.797  10.425 -0.4980  0.2304  0.0990
 5906SOL    HW129180   1.692   1.757  10.381 -0.3328 -0.9210  0.8480
 5906SOL    HW229181   1.735   1.887  10.427  1.8028  1.0511 -0.1425
 5907SOL     OW29182   0.975   3.363   6.866 -0.2798  0.2058 -0.2307
 5907SOL    HW129183   0.961   3.306   6.942 -2.5350  0.3586 -0.5379
 5907SOL    HW229184   1.034   3.308   6.815  0.1772  0.7653 -0.3076
 5908SOL     OW29185   0.913   2.229   4.842  0.1883 -0.3111  0.4043
 5908SOL    HW129186   0.960   2.241   4.759 -1.5898  2.6066 -0.1640
 5908SOL    HW229187   0.887   2.317   4.868  0.3268 -0.4158  0.8961
 5909SOL     OW29188   1.668   3.768  10.013 -0.5010 -0.0194 -0.7390
 5909SOL    HW129189   1.692   3.711   9.940 -1.3870 -0.2098 -0.8806
 5909SOL    HW229190   1.750   3.809  10.041 -0.8659 -0.6604  1.2534
 5910SOL     OW29191   3.625   3.304   7.064  0.5863 -0.5354  0.1016
 5910SOL    HW129192   3.538   3.284   7.030 -0.1428  3.0833 -0.1922
 5910SOL    HW229193   3.614   3.380   7.122 -1.2461 -1.1264  0.5338
 5911SOL     OW29194   2.693   3.764  16.199 -0.0911 -0.2375 -0.5086
 5911SOL    HW129195   2.712   3.679  16.159  2.9953 -0.8258  2.2135
 5911SOL    HW229196   2.754   3.821  16.152  1.8307 -0.0173  2.2183
 5912SOL     OW29197   2.941   0.659   2.498 -0.1633  0.3069  0.3216
 5912SOL    HW129198   3.005   0.633   2.432  0.4042 -0.7072  1.2771
 5912SOL    HW229199   2.975   0.743   2.529  0.9458 -0.3613  0.9226
 5913SOL     OW29200   0.582   0.177   6.817 -0.1839 -0.0041 -0.0295
 5913SOL    HW129201   0.618   0.260   6.849  0.4767 -0.7994  1.2697
 5913SOL    HW229202   0.662   0.128   6.834 -1.3927 -2.7967 -2.4993
 5914SOL     OW29203   1.128   4.054   0.333 -0.1213 -0.6302  0.5067
 5914SOL    HW129204   1.117   3.969   0.376 -0.6796  0.0108  1.6128
 5914SOL    HW229205   1.224   4.055   0.321 -0.1373 -0.8459  0.3508
 5915SOL     OW29206   2.748   0.199  10.353 -0.1871 -0.1323 -0.0195
 5915SOL    HW129207   2.678   0.144  10.318 -1.0111  0.2571  1.0142
 5915SOL    HW229208   2.697   0.253  10.414  0.8336  0.4278  0.3435
 5916SOL     OW29209   1.748   3.620   7.116  0.0392 -0.1484 -0.3231
 5916SOL    HW129210   1.742   3.712   7.144 -0.1503 -0.4247  0.5479
 5916SOL    HW229211   1.685   3.576   7.174 -1.9470  1.7356 -1.0470
 5917SOL     OW29212   1.134   3.494   2.069 -0.5974 -0.3881 -0.0647
 5917SOL    HW129213   1.148   3.530   2.156  0.5940  1.0185 -0.8370
 5917SOL    HW229214   1.045   3.457   2.071  0.0612 -1.8443  1.7887
 5918SOL     OW29215   0.807   4.406   4.631  0.1395  0.1896 -0.9975
 5918SOL    HW129216   0.778   4.432   4.718 -1.9110 -1.5802 -1.1544
 5918SOL    HW229217   0.774   4.470   4.568  0.3460  1.8511  0.5931
 5919SOL     OW29218   0.294   0.009   7.958  0.4699 -0.4701 -0.1547
 5919SOL    HW129219   0.269   4.702   8.047 -1.9342  1.6443 -0.1857
 5919SOL    HW229220   0.355   4.660   7.931  2.7512  2.1610 -1.7915
 5920SOL     OW29221   3.579   3.887  12.304  0.3289 -0.0857 -0.2158
 5920SOL    HW129222   3.535   3.924  12.228 -0.4873 -0.1690  0.2199
 5920SOL    HW229223   3.626   3.816  12.259  2.9748  1.2504  0.4329
 5921SOL     OW29224   4.337   4.496  17.570  0.0029  0.2643  0.1147
 5921SOL    HW129225   4.259   4.487  17.516  0.4527 -1.1700 -0.2836
 5921SOL    HW229226   4.302   4.452  17.648 -3.2402  2.1761 -0.2523
 5922SOL     OW29227   1.166   0.405  15.662 -0.0389 -0.1638 -0.5371
 5922SOL    HW129228   1.205   0.493  15.664 -0.6432  0.0497  1.9889
 5922SOL    HW229229   1.216   0.353  15.600 -0.9871 -2.3128  0.4934
 5923SOL     OW29230   1.858   2.243   7.775  0.1226  0.1337 -0.1409
 5923SOL    HW129231   1.925   2.274   7.836  2.6353 -0.1572 -2.7979
 5923SOL    HW229232   1.864   2.320   7.720  1.8259  2.3910  3.2137
 5924SOL     OW29233   0.419   2.931  15.089  0.0668 -0.0541 -0.0915
 5924SOL    HW129234   0.326   2.943  15.108  0.0447 -1.7398  0.8360
 5924SOL    HW229235   0.418   2.935  14.993 -1.1990  1.4073 -0.0294
 5925SOL     OW29236   2.249   2.228  10.277 -0.1943  0.2954 -0.2201
 5925SOL    HW129237   2.336   2.210  10.314  0.3266 -0.2415 -1.6811
 5925SOL    HW229238   2.238   2.136  10.252  0.1744  0.1071  0.3214
 5926SOL     OW29239   1.823   4.174   0.233  0.3372  0.2200  0.0030
 5926SOL    HW129240   1.843   4.094   0.283  1.1717  0.9345  0.8216
 5926SOL    HW229241   1.901   4.188   0.181  0.3539 -1.9531 -0.5710
 5927SOL     OW29242   3.073   3.160   4.635  0.2337  0.1888  0.0093
 5927SOL    HW129243   3.113   3.188   4.552  1.1032 -0.1484  0.3065
 5927SOL    HW229244   3.050   3.246   4.669  0.0601  2.1534 -4.9951
 5928SOL     OW29245   0.607   0.756   3.504 -0.0792 -0.0456 -0.0699
 5928SOL    HW129246   0.588   0.833   3.451 -0.6167 -0.3918 -0.3743
 5928SOL    HW229247   0.602   0.791   3.593  1.8859 -2.8902  1.1681
 5929SOL     OW29248   0.868   2.147   9.269  0.3577 -0.6977 -0.0129
 5929SOL    HW129249   0.803   2.082   9.295  1.1443 -0.6809  1.9248
 5929SOL    HW229250   0.846   2.174   9.179 -0.0726  2.6059  1.0742
 5930SOL     OW29251   3.941   0.238   0.635  0.1336 -0.4172  0.0510
 5930SOL    HW129252   3.885   0.306   0.671  0.0752 -0.4982  0.1142
 5930SOL    HW229253   4.024   0.276   0.604 -0.1344 -0.1968 -0.3870
 5931SOL     OW29254   1.297   1.200   0.828 -0.1788  0.3779 -0.4715
 5931SOL    HW129255   1.219   1.242   0.866  0.3657 -0.0661  1.1593
 5931SOL    HW229256   1.371   1.238   0.874 -0.5676  1.4893 -0.7676
 5932SOL     OW29257   2.225   3.825  14.742 -0.3646  0.5660 -0.5070
 5932SOL    HW129258   2.281   3.754  14.775 -1.3913 -0.3862 -0.8258
 5932SOL    HW229259   2.217   3.798  14.651 -0.0255 -1.5404  0.0704
 5933SOL     OW29260   0.785   1.392   8.939 -0.9922  0.1804  0.3850
 5933SOL    HW129261   0.754   1.473   8.981 -1.0704  1.3469 -1.8998
 5933SOL    HW229262   0.716   1.391   8.873 -1.1244 -0.9891  0.5427
 5934SOL     OW29263   1.887   1.062   5.005  0.0743 -0.1790  0.2774
 5934SOL    HW129264   1.945   1.103   4.940 -0.7571  0.8379  0.1843
 5934SOL    HW229265   1.802   1.066   4.963 -1.1217  1.0706  2.8048
 5935SOL     OW29266   1.118   2.610  12.149 -0.6925 -0.1233 -0.3432
 5935SOL    HW129267   1.090   2.519  12.161 -0.6841  0.1051  1.3659
 5935SOL    HW229268   1.122   2.647  12.237 -1.8857 -1.1916  0.1632
 5936SOL     OW29269   2.651   3.240   6.620 -0.4415 -0.1932  0.0961
 5936SOL    HW129270   2.716   3.186   6.665 -2.6792 -1.1614  2.1709
 5936SOL    HW229271   2.577   3.179   6.621  0.6071 -1.4334  0.8855
 5937SOL     OW29272   1.481   1.156   6.028  0.0694 -0.4433  0.6622
 5937SOL    HW129273   1.402   1.174   5.977  0.7314 -1.3427 -0.6967
 5937SOL    HW229274   1.486   1.238   6.076 -1.6746  0.0014  0.0703
 5938SOL     OW29275   2.512   0.071  15.558  0.2478 -0.2270 -0.0752
 5938SOL    HW129276   2.484   4.719  15.501 -0.5718 -0.1860  0.2728
 5938SOL    HW229277   2.555   0.120  15.489  1.7573 -0.9776  0.3289
 5939SOL     OW29278   0.839   1.581  17.329 -0.0115 -0.5127 -0.1848
 5939SOL    HW129279   0.888   1.645  17.381  2.8341 -2.0597 -0.9293
 5939SOL    HW229280   0.897   1.506  17.338  1.2037  0.4723  0.1710
 5940SOL     OW29281   0.534   0.093  16.809 -0.2405 -0.3337  0.1586
 5940SOL    HW129282   0.578   0.027  16.862  2.3353  0.2618 -1.1912
 5940SOL    HW229283   0.602   0.158  16.793 -2.1618  1.5207 -0.5092
 5941SOL     OW29284   0.297   3.243   3.340 -0.0313  0.1681  0.3633
 5941SOL    HW129285   0.342   3.162   3.363  1.2205  0.6504 -0.3511
 5941SOL    HW229286   0.265   3.270   3.426  2.3137 -0.2344  1.3594
 5942SOL     OW29287   4.438   2.766   4.251  0.5878 -0.0606 -0.2169
 5942SOL    HW129288   4.398   2.720   4.177  3.0643  1.0864 -2.2376
 5942SOL    HW229289   4.431   2.696   4.316 -1.2418  1.0764  0.8096
 5943SOL     OW29290   2.796   3.526   5.286  0.3429  0.7489  0.1560
 5943SOL    HW129291   2.763   3.527   5.375 -0.6036  0.3784 -0.1876
 5943SOL    HW229292   2.783   3.619   5.268  3.2915  0.6704 -2.4006
 5944SOL     OW29293   3.771   3.538   2.930  0.0511  0.3935 -0.1203
 5944SOL    HW129294   3.774   3.464   2.990  1.0194 -0.0079 -0.6487
 5944SOL    HW229295   3.698   3.587   2.966 -1.1707 -1.6127  0.1003
 5945SOL     OW29296   2.000   3.169   2.131  0.0774  0.0716 -0.0172
 5945SOL    HW129297   2.030   3.241   2.076  2.1761 -1.6041 -1.0860
 5945SOL    HW229298   2.063   3.098   2.119 -0.5730 -0.3234 -1.1454
 5946SOL     OW29299   1.971   1.535  13.392  0.0683  0.1411 -0.2777
 5946SOL    HW129300   2.012   1.498  13.314  0.4091  0.5556 -0.2908
 5946SOL    HW229301   2.036   1.543  13.462 -0.0167  1.7396 -0.3934
 5947SOL     OW29302   1.203   2.684   0.633  0.4633  0.1219  0.8778
 5947SOL    HW129303   1.235   2.667   0.722 -0.7783 -0.7528  1.1593
 5947SOL    HW229304   1.288   2.681   0.589 -0.1470 -0.8874 -0.2348
 5948SOL     OW29305   3.480   1.736   3.671 -0.0502 -0.5224 -0.6795
 5948SOL    HW129306   3.424   1.773   3.603  0.1859  2.3559  0.6978
 5948SOL    HW229307   3.441   1.649   3.672  1.8196 -1.4060 -4.0841
 5949SOL     OW29308   1.892   1.693   9.574 -0.0287 -0.0348  0.8223
 5949SOL    HW129309   1.958   1.641   9.619  2.3244  1.6052 -0.7255
 5949SOL    HW229310   1.866   1.646   9.495  0.6951  0.8286  0.0707
 5950SOL     OW29311   4.497   4.347   0.513 -0.2384 -0.3302  0.0487
 5950SOL    HW129312   4.493   4.358   0.418  4.0811 -0.5902 -0.1817
 5950SOL    HW229313   4.494   4.438   0.543  0.5107  0.1275 -1.2565
 5951SOL     OW29314   1.182   4.194   6.638  0.3017  0.6966 -0.1028
 5951SOL    HW129315   1.155   4.121   6.583  0.8915  0.7210 -0.4295
 5951SOL    HW229316   1.189   4.265   6.574  2.4857  1.0096  0.4783
 5952SOL     OW29317   2.213   2.339  11.087  0.4359  0.0887 -0.0726
 5952SOL    HW129318   2.291   2.378  11.046  1.5800 -3.2819 -1.0848
 5952SOL    HW229319   2.251   2.282  11.153  1.4511 -0.2432 -0.9245
 5953SOL     OW29320   3.648   1.689   4.714 -0.0999  0.6005  1.0580
 5953SOL    HW129321   3.652   1.734   4.630 -0.3184  2.3283  1.9730
 5953SOL    HW229322   3.674   1.749   4.783  2.4656 -0.8393  1.3592
 5954SOL     OW29323   2.330   4.393   0.994 -0.0550  0.0275 -0.2492
 5954SOL    HW129324   2.370   4.440   1.067  1.3120  0.1368 -1.0843
 5954SOL    HW229325   2.371   4.424   0.914  1.6903 -1.0488  0.2391
 5955SOL     OW29326   0.806   3.282   5.455 -0.3969 -0.3426  0.0456
 5955SOL    HW129327   0.758   3.215   5.405 -0.3932 -0.5226  0.2873
 5955SOL    HW229328   0.870   3.225   5.497  1.3628  0.0515 -2.1082
 5956SOL     OW29329   1.971   1.975   9.868  0.2052 -0.2398 -0.0798
 5956SOL    HW129330   2.042   1.917   9.842 -0.8475  0.2525 -4.0393
 5956SOL    HW229331   1.986   1.983   9.962  0.9301 -0.4693 -0.1781
 5957SOL     OW29332   0.646   1.665   6.470  0.1300 -0.7405  0.2210
 5957SOL    HW129333   0.621   1.609   6.397  3.5685 -0.1016 -1.4911
 5957SOL    HW229334   0.742   1.666   6.460  0.0297  0.8029 -0.5269
 5958SOL     OW29335   2.419   4.602  15.399  0.2047  0.3988  0.0924
 5958SOL    HW129336   2.449   4.515  15.375  1.6156  0.6814  0.8624
 5958SOL    HW229337   2.344   4.580  15.454 -1.2922 -1.9126 -2.8748
 5959SOL     OW29338   3.937   3.096  13.651 -0.0766 -0.3937 -0.6720
 5959SOL    HW129339   3.855   3.057  13.682  0.0919 -0.3135 -0.1240
 5959SOL    HW229340   3.917   3.107  13.559 -4.2821 -0.3288  0.2365
 5960SOL     OW29341   3.567   0.203  15.834  0.0837 -0.8577  0.4539
 5960SOL    HW129342   3.603   0.270  15.892  0.7542 -1.9309  1.2909
 5960SOL    HW229343   3.644   0.155  15.803  0.7993 -0.3316  1.3711
 5961SOL     OW29344   2.110   0.695   9.469 -0.0876 -0.7279  0.0591
 5961SOL    HW129345   2.170   0.623   9.450  2.8458  1.7008  0.1292
 5961SOL    HW229346   2.086   0.726   9.382  1.3655 -0.7840 -0.3615
 5962SOL     OW29347   2.271   1.328   7.296  0.2617  0.5273 -0.1208
 5962SOL    HW129348   2.276   1.395   7.227  0.3238  0.5271 -0.1162
 5962SOL    HW229349   2.177   1.324   7.315  0.3174 -3.7921 -0.8590
 5963SOL     OW29350   1.136   3.179   1.077 -0.1846 -0.4200 -0.5373
 5963SOL    HW129351   1.091   3.255   1.114  0.0911 -0.3162 -0.4118
 5963SOL    HW229352   1.104   3.176   0.987 -1.0789  0.5899 -0.2542
 5964SOL     OW29353   3.380   3.184   5.617  1.1206 -0.1469  0.3120
 5964SOL    HW129354   3.408   3.248   5.683  0.3955  1.5951 -1.0651
 5964SOL    HW229355   3.397   3.232   5.535  2.1286  0.3043  0.7803
 5965SOL     OW29356   0.833   3.182   7.455 -0.1430 -0.2586 -0.7089
 5965SOL    HW129357   0.816   3.122   7.383  3.0396 -2.2046  0.1666
 5965SOL    HW229358   0.743   3.189   7.489 -0.4259  0.9277 -1.7058
 5966SOL     OW29359   4.315   2.760   6.494  0.3418  0.1094 -0.0102
 5966SOL    HW129360   4.334   2.805   6.577 -1.7915 -3.1440  2.2187
 5966SOL    HW229361   4.299   2.836   6.438  0.2363 -0.6865 -1.0521
 5967SOL     OW29362   0.774   0.945   1.202 -0.4381 -0.8313  0.2683
 5967SOL    HW129363   0.842   0.922   1.266  0.1960 -1.0083 -0.4755
 5967SOL    HW229364   0.713   0.874   1.222 -0.7999 -0.9413 -1.2693
 5968SOL     OW29365   3.713   0.076   3.566 -0.3499  0.2159 -0.1181
 5968SOL    HW129366   3.617   0.072   3.568 -0.3547  0.5091  0.1332
 5968SOL    HW229367   3.734   4.715   3.612 -2.5048  0.6727  1.7015
 5969SOL     OW29368   3.119   1.310   2.749  0.1210 -0.2850  0.3129
 5969SOL    HW129369   3.179   1.237   2.762  0.6623  0.1945  0.5187
 5969SOL    HW229370   3.089   1.292   2.659 -1.0787 -0.1515  0.6813
 5970SOL     OW29371   0.730   2.057   4.955 -0.2734  0.0880  0.2388
 5970SOL    HW129372   0.672   2.096   4.890  1.4244  1.8785 -0.1836
 5970SOL    HW229373   0.808   2.110   4.938 -0.5395  0.6362  0.7415
 5971SOL     OW29374   3.200   0.075  11.992  0.1167 -0.8877  0.1272
 5971SOL    HW129375   3.113   0.058  12.026 -1.2315  1.9112 -1.9185
 5971SOL    HW229376   3.251   0.009  12.040 -0.0371 -1.0303  0.0928
 5972SOL     OW29377   3.270   4.182   6.901  0.4242  0.5391 -0.0309
 5972SOL    HW129378   3.239   4.092   6.886  0.1368  0.9829 -2.0191
 5972SOL    HW229379   3.196   4.222   6.856 -0.0539 -1.8470 -1.3777
 5973SOL     OW29380   3.806   0.954   4.536 -0.6251  1.0273  0.0190
 5973SOL    HW129381   3.776   1.027   4.590 -0.9844  1.0294 -0.1789
 5973SOL    HW229382   3.799   0.887   4.604 -1.1689  0.4074 -0.6471
 5974SOL     OW29383   2.081   2.643  15.797 -0.0437  0.3830 -0.3945
 5974SOL    HW129384   2.038   2.726  15.817 -0.9833 -0.5812  1.6445
 5974SOL    HW229385   2.154   2.683  15.750  1.5428  0.0527  1.8344
 5975SOL     OW29386   2.011   3.739   3.034  0.9625  0.1439  0.3064
 5975SOL    HW129387   2.078   3.670   3.035  1.6502  0.7656 -1.6035
 5975SOL    HW229388   2.058   3.817   3.064  0.3891  0.0394  1.4432
 5976SOL     OW29389   2.985   4.001   6.550  0.3606  0.2104  0.2438
 5976SOL    HW129390   3.001   3.907   6.558  2.1937  0.7416  2.5433
 5976SOL    HW229391   3.010   4.006   6.457 -1.9690  1.8374 -0.2998
 5977SOL     OW29392   2.501   3.331   0.109  1.3241 -0.9025  0.1350
 5977SOL    HW129393   2.502   3.427   0.106  1.6053 -0.8814  1.1552
 5977SOL    HW229394   2.415   3.315   0.069 -0.1687 -0.5731  3.2687
 5978SOL     OW29395   0.138   3.717   7.736  0.0891 -0.0750  0.0420
 5978SOL    HW129396   0.087   3.636   7.741  0.1423 -0.1843 -1.1645
 5978SOL    HW229397   0.070   3.783   7.724 -0.9337 -0.5500  3.3145
 5979SOL     OW29398   1.265   0.665  15.683 -0.6214  0.8000  0.1391
 5979SOL    HW129399   1.207   0.719  15.630  1.2647  2.8878  0.1919
 5979SOL    HW229400   1.334   0.726  15.708  0.1907 -0.7400  1.6833
 5980SOL     OW29401   0.649   4.565   8.829  0.0553  0.2401  0.6768
 5980SOL    HW129402   0.624   4.474   8.840 -0.7161  0.4419  0.5693
 5980SOL    HW229403   0.583   4.606   8.774  1.1235  2.4051  0.9973
 5981SOL     OW29404   2.559   4.392  12.909 -0.3078 -0.0573  0.0971
 5981SOL    HW129405   2.506   4.433  12.977 -0.8064  0.1256 -0.4052
 5981SOL    HW229406   2.634   4.451  12.901  0.4217 -0.9351  0.4385
 5982SOL     OW29407   1.486   0.239   2.197 -0.4201 -0.1602 -1.1876
 5982SOL    HW129408   1.529   0.182   2.261 -1.8052 -0.6760 -0.7218
 5982SOL    HW229409   1.540   0.316   2.212 -1.9594  1.0324 -1.7906
 5983SOL     OW29410   1.253   0.390   1.298 -0.2478 -0.0604 -0.4543
 5983SOL    HW129411   1.260   0.477   1.337  0.3223 -0.0920 -0.4885
 5983SOL    HW229412   1.171   0.398   1.249 -0.4931 -0.8535 -0.1653
 5984SOL     OW29413   0.857   0.837   5.730 -0.0493  0.2639  0.0578
 5984SOL    HW129414   0.868   0.843   5.825  1.2264  1.4656 -0.1644
 5984SOL    HW229415   0.893   0.922   5.707 -0.5720  0.7960  1.1765
 5985SOL     OW29416   1.148   0.997   3.755 -0.3602  0.2636 -0.3055
 5985SOL    HW129417   1.076   0.934   3.759  1.4874 -1.7292  1.2595
 5985SOL    HW229418   1.221   0.936   3.749 -1.3730 -0.8257 -1.4583
 5986SOL     OW29419   1.401   0.443   0.765  0.6311 -0.0841 -0.3048
 5986SOL    HW129420   1.368   0.444   0.675  1.4751 -0.8572 -0.6228
 5986SOL    HW229421   1.494   0.453   0.748  0.2690  2.4359 -0.8099
 5987SOL     OW29422   4.528   2.782   1.519 -0.4242 -1.0609  1.2912
 5987SOL    HW129423   4.551   2.844   1.588 -1.4474  0.7604  0.0019
 5987SOL    HW229424   4.566   2.701   1.554  1.4850  0.9032  3.7002
 5988SOL     OW29425   0.532   1.844  12.706  0.1672  0.3521  0.2525
 5988SOL    HW129426   0.463   1.782  12.726 -0.0535  0.6518  0.4171
 5988SOL    HW229427   0.599   1.786  12.669  0.0784  1.3756 -1.5368
 5989SOL     OW29428   0.275   3.811   5.323  0.1020 -0.0801  0.4699
 5989SOL    HW129429   0.244   3.725   5.352 -0.1925 -0.4439 -0.9177
 5989SOL    HW229430   0.195   3.861   5.339 -0.5085 -0.4175 -1.6034
 5990SOL     OW29431   3.369   1.694   4.751 -0.3642 -0.2308  0.1467
 5990SOL    HW129432   3.352   1.732   4.665 -0.0508 -1.3025 -0.3906
 5990SOL    HW229433   3.465   1.695   4.754 -0.4515  2.2265  1.9822
 5991SOL     OW29434   0.357   2.256  15.990  0.1427 -0.5510 -0.3326
 5991SOL    HW129435   0.429   2.303  15.946  0.6129 -1.1270 -0.1777
 5991SOL    HW229436   0.372   2.166  15.963 -1.7612 -0.6663 -0.9984
 5992SOL     OW29437   3.336   2.582   7.095  0.3971 -0.6137  0.0136
 5992SOL    HW129438   3.430   2.572   7.080  0.3933  0.5799 -0.8494
 5992SOL    HW229439   3.298   2.510   7.046 -1.3119 -0.8520  1.6692
 5993SOL     OW29440   0.413   0.455   5.782  0.1644 -0.0847 -0.0430
 5993SOL    HW129441   0.440   0.469   5.872 -0.0222 -2.1308  0.3308
 5993SOL    HW229442   0.416   0.359   5.779 -0.1377 -0.1138  0.5280
 5994SOL     OW29443   3.366   1.803   5.050 -0.0727 -0.5465  0.0216
 5994SOL    HW129444   3.318   1.766   5.125 -0.3007 -1.2679 -0.4741
 5994SOL    HW229445   3.361   1.728   4.991  1.0884 -1.8368  1.5367
 5995SOL     OW29446   2.799   2.158  15.360  0.6649 -0.4966 -0.1893
 5995SOL    HW129447   2.747   2.122  15.432  0.7114 -0.5059 -0.1606
 5995SOL    HW229448   2.724   2.162  15.300  1.3530  0.2519 -0.9950
 5996SOL     OW29449   1.403   1.737  13.642  0.4484 -0.4328 -0.2805
 5996SOL    HW129450   1.340   1.701  13.580 -1.1831  1.5863  0.1917
 5996SOL    HW229451   1.398   1.831  13.623 -0.7689 -0.2401  0.9210
 5997SOL     OW29452   2.723   1.582   9.661 -0.2540  0.1676  0.0319
 5997SOL    HW129453   2.774   1.503   9.641  0.5253  0.6399  0.1278
 5997SOL    HW229454   2.651   1.568   9.599 -1.4200  2.2166  0.9226
 5998SOL     OW29455   4.092   1.086   8.018  0.3191 -0.1493 -0.3253
 5998SOL    HW129456   4.185   1.062   8.020  0.4956  0.9143  3.3602
 5998SOL    HW229457   4.091   1.164   7.963  1.5003  0.7079  0.8711
 5999SOL     OW29458   2.473   4.573   4.729  0.1948 -0.0673 -0.7124
 5999SOL    HW129459   2.559   4.599   4.695  1.1696 -5.9709 -2.6996
 5999SOL    HW229460   2.431   4.561   4.643  3.2405 -0.6971 -2.1191
 6000SOL     OW29461   1.743   3.590  16.965 -0.8911 -0.0627  0.2288
 6000SOL    HW129462   1.741   3.619  16.874  1.0460 -1.4381 -0.2442
 6000SOL    HW229463   1.749   3.495  16.960  0.2498 -0.0111  0.6010
 6001SOL     OW29464   3.626   3.621   0.988  0.0579  0.0791 -0.1183
 6001SOL    HW129465   3.649   3.612   1.081 -0.2082  0.7437  0.0205
 6001SOL    HW229466   3.634   3.530   0.961 -2.8647  0.4195 -2.1990
 6002SOL     OW29467   2.762   2.418  11.757  0.7172 -0.2275  0.6449
 6002SOL    HW129468   2.693   2.469  11.801 -0.1361 -0.4716 -0.4088
 6002SOL    HW229469   2.781   2.358  11.829 -1.5395 -0.0556  1.4058
 6003SOL     OW29470   2.358   2.210   8.571 -0.5088 -0.0413  0.1129
 6003SOL    HW129471   2.319   2.203   8.484 -0.4914 -0.8395  0.1716
 6003SOL    HW229472   2.428   2.145   8.563 -0.4192 -0.2470  2.5331
 6004SOL     OW29473   2.837   1.847  15.363 -0.3860  0.1093 -0.5395
 6004SOL    HW129474   2.828   1.755  15.386 -0.6789  0.2203 -0.2079
 6004SOL    HW229475   2.761   1.853  15.305  1.1860  0.1499 -2.5866
 6005SOL     OW29476   2.028   3.443   7.582 -0.0585  0.3731 -0.1374
 6005SOL    HW129477   1.984   3.478   7.504 -1.3663 -0.7387  0.0844
 6005SOL    HW229478   1.993   3.501   7.649  1.9610 -1.4529  2.4647
 6006SOL     OW29479   4.032   0.844   5.200 -0.2351  0.9780  0.3510
 6006SOL    HW129480   4.043   0.939   5.197  1.5864  0.7467  0.1541
 6006SOL    HW229481   4.111   0.821   5.248 -0.4023  1.0221  0.6489
 6007SOL     OW29482   4.177   1.356   5.907  0.9896  0.4794  0.0793
 6007SOL    HW129483   4.204   1.267   5.930  1.0093  0.6737  0.7920
 6007SOL    HW229484   4.199   1.404   5.987 -2.6989  1.1505  0.6951
 6008SOL     OW29485   4.229   3.508  14.731  0.2444  0.2905  0.2832
 6008SOL    HW129486   4.320   3.528  14.754  0.3566 -0.7440  0.7391
 6008SOL    HW229487   4.244   3.458  14.650 -0.4359 -0.3021  0.5192
 6009SOL     OW29488   1.095   3.110   2.955  0.2238 -0.4953  0.0120
 6009SOL    HW129489   1.109   3.202   2.978  0.6162 -0.5000 -0.2032
 6009SOL    HW229490   1.102   3.108   2.860  0.2908 -2.4782  0.0634
 6010SOL     OW29491   3.692   1.472   6.121 -0.0477 -0.0432  0.7171
 6010SOL    HW129492   3.751   1.508   6.187  0.1716  1.2562 -0.1722
 6010SOL    HW229493   3.755   1.454   6.051 -0.5137  0.3049  0.2009
 6011SOL     OW29494   2.320   3.254   2.444 -0.0097  0.0515 -0.0549
 6011SOL    HW129495   2.228   3.228   2.441 -0.6913  2.7529 -2.3866
 6011SOL    HW229496   2.350   3.229   2.356 -1.0024 -0.5470 -0.2196
 6012SOL     OW29497   3.671   2.728   6.491 -0.0184 -0.1321 -0.1491
 6012SOL    HW129498   3.654   2.648   6.541  0.4039  1.4422  2.4982
 6012SOL    HW229499   3.663   2.692   6.402 -1.3568 -0.6733  0.1860
 6013SOL     OW29500   2.209   2.618   6.414 -0.4790 -0.3632  0.0148
 6013SOL    HW129501   2.226   2.623   6.508  0.2453  0.7119 -0.1707
 6013SOL    HW229502   2.220   2.530   6.379 -0.5124 -0.5890  0.5820
 6014SOL     OW29503   1.174   4.708   8.548  0.7426 -0.0595  0.5604
 6014SOL    HW129504   1.110   4.644   8.518  0.9462 -0.6983  1.4865
 6014SOL    HW229505   1.124   0.022   8.623 -0.2963  0.0858 -0.2031
 6015SOL     OW29506   3.017   2.699   3.691  0.1111 -0.1669  0.3096
 6015SOL    HW129507   3.049   2.750   3.765  3.5770  0.1108 -1.3674
 6015SOL    HW229508   2.946   2.756   3.663  1.1389  2.2098  2.5418
 6016SOL     OW29509   0.834   0.890  16.230 -0.2490  0.4411  0.5735
 6016SOL    HW129510   0.834   0.906  16.324  0.8819 -0.6055  0.7531
 6016SOL    HW229511   0.829   0.794  16.231 -2.1601  0.5364 -0.0955
 6017SOL     OW29512   2.527   0.152   1.385  0.4997  0.0370 -0.8304
 6017SOL    HW129513   2.508   0.063   1.355  3.2704 -0.3137 -1.4990
 6017SOL    HW229514   2.495   0.198   1.307  1.3220  4.0012  1.2147
 6018SOL     OW29515   3.137   3.789  15.213  0.0384 -0.2631 -0.1144
 6018SOL    HW129516   3.190   3.722  15.168  0.8246 -0.1844  0.6863
 6018SOL    HW229517   3.050   3.755  15.191 -0.2952  0.7795 -0.3985
 6019SOL     OW29518   3.168   0.030   3.554  0.0559  0.3934 -0.2889
 6019SOL    HW129519   3.093   0.085   3.530  0.7018  0.5143 -1.9981
 6019SOL    HW229520   3.171   4.693   3.477  2.6559  0.3716 -0.1751
 6020SOL     OW29521   2.139   0.512   7.568  0.2253  0.5323  0.6530
 6020SOL    HW129522   2.210   0.485   7.626  0.2885 -0.1540  0.2492
 6020SOL    HW229523   2.093   0.576   7.622  0.5510  0.8074  0.6020
 6021SOL     OW29524   1.237   1.882   7.687 -0.2703 -0.4068  0.0983
 6021SOL    HW129525   1.164   1.862   7.744  0.0305 -0.5912  0.4177
 6021SOL    HW229526   1.295   1.920   7.753 -0.1668  0.9427 -0.7605
 6022SOL     OW29527   3.481   1.488  12.352 -0.0740 -0.2833 -0.5820
 6022SOL    HW129528   3.397   1.460  12.387 -0.2574  1.3584  0.2584
 6022SOL    HW229529   3.508   1.553  12.416  2.6987  0.7567 -2.7811
 6023SOL     OW29530   0.933   1.597  15.944 -0.0476  0.1763  0.0896
 6023SOL    HW129531   1.005   1.546  15.906 -0.2439 -0.8782  1.1300
 6023SOL    HW229532   0.853   1.567  15.900 -1.2851  1.8741  1.2016
 6024SOL     OW29533   4.685   0.885   2.384  0.5258 -0.2624 -0.0649
 6024SOL    HW129534   4.631   0.934   2.321 -1.7872 -0.8605  1.4393
 6024SOL    HW229535   0.039   0.855   2.332  2.6021  1.0756  2.1330
 6025SOL     OW29536   1.569   1.654   5.028  0.6813  0.1095  0.3976
 6025SOL    HW129537   1.558   1.746   5.050  0.2401  0.2852 -0.5277
 6025SOL    HW229538   1.477   1.644   5.002  0.9405  0.4791 -0.6960
 6026SOL     OW29539   0.944   1.744   6.488 -1.1182 -0.1871  0.1699
 6026SOL    HW129540   0.881   1.776   6.553  0.4000  1.3853  0.8622
 6026SOL    HW229541   0.960   1.654   6.517  1.5533  0.1800 -0.1681
 6027SOL     OW29542   1.180   2.304  13.275 -1.0972 -0.5311  0.0756
 6027SOL    HW129543   1.197   2.276  13.185 -0.2924  2.0077 -0.5707
 6027SOL    HW229544   1.206   2.229  13.328 -0.9361 -0.8227 -0.4146
 6028SOL     OW29545   0.472   3.542   5.466 -0.1015  0.5036 -0.4411
 6028SOL    HW129546   0.453   3.456   5.502  0.8740  0.6725  0.4660
 6028SOL    HW229547   0.380   3.561   5.447 -0.6653 -2.8755 -0.9877
 6029SOL     OW29548   1.081   3.297   5.639  0.2850  0.5944 -0.1420
 6029SOL    HW129549   1.042   3.381   5.663 -0.7074  0.2925 -0.6888
 6029SOL    HW229550   1.151   3.331   5.583  0.3775  0.2010 -0.2640
 6030SOL     OW29551   3.563   4.669  11.142 -0.3629 -1.0796 -0.4060
 6030SOL    HW129552   3.590   4.584  11.109  1.1884  0.0537 -2.1178
 6030SOL    HW229553   3.482   4.676  11.092 -0.0240  0.4441 -0.7650
 6031SOL     OW29554   4.709   4.112   7.383  0.5985  0.0337  0.0808
 6031SOL    HW129555   0.012   4.020   7.398 -0.9986 -0.2531  0.6778
 6031SOL    HW229556   0.023   4.117   7.293  0.1616 -1.7601 -0.1849
 6032SOL     OW29557   1.287   3.398   8.508 -0.4049 -0.0131 -0.0663
 6032SOL    HW129558   1.235   3.418   8.586  1.0793  1.3845  0.5761
 6032SOL    HW229559   1.349   3.471   8.502  0.2744 -0.6900 -1.2985
 6033SOL     OW29560   1.135   4.162   6.182 -0.9990 -0.0346  0.2696
 6033SOL    HW129561   1.158   4.112   6.104 -0.9593  1.0286 -0.4084
 6033SOL    HW229562   1.087   4.230   6.135 -1.1324 -1.0334 -1.0377
 6034SOL     OW29563   2.279   3.520   2.221  0.5470 -0.2767 -0.0952
 6034SOL    HW129564   2.344   3.514   2.292  0.4111 -0.6278 -0.0019
 6034SOL    HW229565   2.323   3.581   2.161  0.3474  0.5304  0.5748
 6035SOL     OW29566   3.217   2.063   6.950 -0.5824  0.0385 -0.0935
 6035SOL    HW129567   3.287   2.003   6.924 -0.9806 -0.9770  1.2079
 6035SOL    HW229568   3.195   2.019   7.032 -2.3148 -1.9151 -1.6231
 6036SOL     OW29569   0.243   0.763   1.091  0.5746 -0.4139  0.1306
 6036SOL    HW129570   0.332   0.792   1.077  0.4810  1.3643  3.1432
 6036SOL    HW229571   0.208   0.834   1.145 -0.1494  0.0893 -1.0081
 6037SOL     OW29572   4.399   0.866   4.529  0.5904 -0.1233 -0.1378
 6037SOL    HW129573   4.338   0.820   4.587 -0.2388  0.2268 -0.7236
 6037SOL    HW229574   4.336   0.922   4.483  2.1805  1.4475 -0.3859
 6038SOL     OW29575   0.018   0.247   7.233  0.2410  0.1303  0.4341
 6038SOL    HW129576   4.657   0.269   7.280 -0.1822 -0.6637  0.0977
 6038SOL    HW229577   0.040   0.326   7.185 -0.1342  0.5366  0.9343
 6039SOL     OW29578   1.119   1.423  16.992  0.1201 -0.1900  0.0165
 6039SOL    HW129579   1.071   1.485  17.048 -0.7026 -0.8081 -0.0028
 6039SOL    HW229580   1.204   1.442  17.031  0.4974  2.7199 -2.2919
 6040SOL     OW29581   1.793   0.607   8.363  0.0970  0.3269  0.2527
 6040SOL    HW129582   1.762   0.551   8.434 -2.0248  2.0186  0.6650
 6040SOL    HW229583   1.874   0.645   8.397 -1.0461  2.2558  0.8249
 6041SOL     OW29584   0.795   4.607   2.105 -0.7037 -0.1389 -0.1761
 6041SOL    HW129585   0.723   4.642   2.158 -1.5300  1.4363 -2.2964
 6041SOL    HW229586   0.865   4.636   2.163 -0.2841 -1.6740  0.0931
 6042SOL     OW29587   2.391   4.194   2.133  0.4539  0.2492 -0.1764
 6042SOL    HW129588   2.330   4.121   2.148 -0.4539  0.9970 -0.2062
 6042SOL    HW229589   2.389   4.241   2.216 -0.3372 -1.1783  0.6248
 6043SOL     OW29590   1.234   1.275  10.049  0.4670 -0.2231  0.0753
 6043SOL    HW129591   1.196   1.361  10.068  1.0479  0.3633 -1.4356
 6043SOL    HW229592   1.191   1.217  10.111  0.5090 -1.0868 -0.7037
 6044SOL     OW29593   4.228   1.273   4.220  0.8255 -0.6987 -0.6613
 6044SOL    HW129594   4.244   1.304   4.130 -0.8512 -2.2194 -1.4756
 6044SOL    HW229595   4.292   1.323   4.271  0.0543 -1.6170  1.1926
 6045SOL     OW29596   4.382   0.529   9.096  0.3189  0.3528  0.1701
 6045SOL    HW129597   4.430   0.455   9.057 -0.3623  0.5551 -1.0423
 6045SOL    HW229598   4.308   0.534   9.037  1.3447  1.1644 -1.0370
 6046SOL     OW29599   0.209   0.440   5.076 -0.4762 -0.4867  0.6781
 6046SOL    HW129600   0.167   0.524   5.056  1.3564  0.2208 -0.1928
 6046SOL    HW229601   0.141   0.383   5.038 -0.3358 -0.1369 -0.1080
 6047SOL     OW29602   0.620   1.893   1.048 -0.0804 -0.2814  0.1121
 6047SOL    HW129603   0.596   1.810   1.090 -0.4064 -0.4552 -0.4261
 6047SOL    HW229604   0.609   1.950   1.125 -2.5263  2.5748 -2.3383
 6048SOL     OW29605   1.838   1.990  14.871 -0.5646  0.2147 -0.3562
 6048SOL    HW129606   1.924   1.990  14.829 -0.3847  0.3364  0.0142
 6048SOL    HW229607   1.851   1.969  14.963 -2.4977  1.4026  0.1844
 6049SOL     OW29608   3.778   1.231   6.369 -0.6233  0.4277 -0.1308
 6049SOL    HW129609   3.871   1.226   6.350 -1.2456 -3.4656 -2.0456
 6049SOL    HW229610   3.740   1.195   6.289 -1.8621  0.7372  0.3091
 6050SOL     OW29611   2.457   2.476   6.987 -0.2407  0.4252  0.3505
 6050SOL    HW129612   2.529   2.504   6.930 -0.6268  1.5890  0.4395
 6050SOL    HW229613   2.457   2.381   6.971 -0.0641  0.8112 -1.9741
 6051SOL     OW29614   2.996   1.031  12.713 -0.1457  0.0600 -0.4197
 6051SOL    HW129615   2.976   1.081  12.634 -2.3522  0.6281  0.5137
 6051SOL    HW229616   3.089   1.007  12.706 -0.1003  0.3680 -0.8471
 6052SOL     OW29617   3.544   1.680   1.660  0.6296 -0.0115  0.4452
 6052SOL    HW129618   3.536   1.693   1.755  1.6336 -0.1939  0.5500
 6052SOL    HW229619   3.586   1.755   1.617  1.9679 -0.1373  1.5210
 6053SOL     OW29620   4.185   3.484   9.536  0.2116 -0.1111  0.5190
 6053SOL    HW129621   4.100   3.495   9.577 -0.1515  0.7252 -0.4487
 6053SOL    HW229622   4.186   3.574   9.504 -0.0561 -0.8712 -1.6048
 6054SOL     OW29623   2.675   0.696   1.849 -0.5615 -0.7343 -1.1051
 6054SOL    HW129624   2.660   0.680   1.756 -0.9227  0.4983 -1.2613
 6054SOL    HW229625   2.760   0.652   1.856 -1.1202 -1.8069 -1.0475
 6055SOL     OW29626   2.738   2.180  10.573  0.8390  0.4528 -0.4758
 6055SOL    HW129627   2.827   2.190  10.606  0.8292 -0.8890 -0.0199
 6055SOL    HW229628   2.728   2.085  10.561  1.3482  0.1650  1.4707
 6056SOL     OW29629   4.282   0.529  11.837 -0.1183  0.4710 -0.2827
 6056SOL    HW129630   4.304   0.610  11.882 -2.2006 -0.2909  2.1159
 6056SOL    HW229631   4.278   0.560  11.747 -4.1853 -0.0852 -0.2998
 6057SOL     OW29632   2.634   0.954   5.893  0.2935 -0.2822  0.1141
 6057SOL    HW129633   2.627   0.867   5.933 -1.2106 -0.5770 -0.8038
 6057SOL    HW229634   2.554   0.953   5.841  0.1652 -0.5517  0.3155
 6058SOL     OW29635   4.169   4.192   1.537  0.5185  0.2049 -0.3097
 6058SOL    HW129636   4.228   4.241   1.480  0.1396 -1.9029 -2.5410
 6058SOL    HW229637   4.113   4.158   1.467 -0.1313 -0.5549  0.5559
 6059SOL     OW29638   4.115   3.971   8.702 -0.4660 -0.0356  0.3096
 6059SOL    HW129639   4.184   3.973   8.767 -0.5372 -0.1468  0.3892
 6059SOL    HW229640   4.073   3.888   8.727  1.0920 -0.5079  1.3428
 6060SOL     OW29641   2.209   3.711   3.664  0.1920 -0.1641  0.3420
 6060SOL    HW129642   2.286   3.762   3.689 -0.9016  1.4884  0.2873
 6060SOL    HW229643   2.199   3.667   3.749  2.2703 -0.5111  0.4150
 6061SOL     OW29644   0.474   2.795   7.360 -0.7749 -0.0463  0.2525
 6061SOL    HW129645   0.459   2.765   7.270 -0.3749 -1.5494  0.6855
 6061SOL    HW229646   0.483   2.712   7.407  1.1478 -0.2255 -0.4696
 6062SOL     OW29647   4.421   2.115  15.774 -0.1364 -0.2084  0.0736
 6062SOL    HW129648   4.379   2.092  15.691  2.5331  1.5148 -1.7552
 6062SOL    HW229649   4.460   2.199  15.747  0.6611 -0.6580 -0.1872
 6063SOL     OW29650   3.232   2.411   3.261  0.9865 -0.2539 -0.3683
 6063SOL    HW129651   3.167   2.443   3.199  0.4856  2.2965  1.4532
 6063SOL    HW229652   3.276   2.496   3.273 -1.4098  1.2264 -1.9976
 6064SOL     OW29653   1.695   2.258   5.355 -0.1444 -0.0772  0.3410
 6064SOL    HW129654   1.680   2.173   5.397 -1.5545  0.2602  0.5362
 6064SOL    HW229655   1.749   2.238   5.279  2.0075  2.0445  1.3075
 6065SOL     OW29656   1.708   0.396   5.332 -0.5782  0.0358  0.4855
 6065SOL    HW129657   1.796   0.434   5.324 -0.3137 -0.3967  1.3495
 6065SOL    HW229658   1.698   0.362   5.243  0.2239 -1.8208  1.0861
 6066SOL     OW29659   4.047   0.844   2.568  0.0178 -0.2382  0.1308
 6066SOL    HW129660   3.959   0.880   2.579  0.4654  0.0196  2.9667
 6066SOL    HW229661   4.048   0.823   2.475 -2.0810  4.1422 -0.8649
 6067SOL     OW29662   1.327   3.301   3.711  0.5244  0.1096 -0.2597
 6067SOL    HW129663   1.270   3.254   3.650 -0.5357 -1.3185  1.8713
 6067SOL    HW229664   1.278   3.383   3.717  0.3333 -0.0241 -0.0230
 6068SOL     OW29665   1.726   3.832  12.863 -0.0474  0.2171  0.0966
 6068SOL    HW129666   1.645   3.869  12.827  0.7140  1.0291 -0.8045
 6068SOL    HW229667   1.720   3.742  12.831 -3.3596  0.4082  0.2663
 6069SOL     OW29668   2.695   0.057   4.757 -0.0985  0.0338  0.1713
 6069SOL    HW129669   2.777   0.029   4.798 -2.3700 -1.2212  3.9150
 6069SOL    HW229670   2.643   0.088   4.831  0.8053 -0.3094  0.9463
 6070SOL     OW29671   3.864   2.551   2.893  0.3255 -0.3176 -0.3614
 6070SOL    HW129672   3.944   2.575   2.940 -0.5650 -0.4513  1.2209
 6070SOL    HW229673   3.816   2.521   2.971  0.0299  0.2685 -0.3249
 6071SOL     OW29674   0.739   1.770   5.037 -0.1077 -0.2417  0.3242
 6071SOL    HW129675   0.665   1.723   4.998  0.0570  0.4472 -0.8278
 6071SOL    HW229676   0.734   1.859   5.001 -0.1607 -0.9605 -1.4083
 6072SOL     OW29677   3.151   4.298   9.759  0.1288 -0.1050 -0.2934
 6072SOL    HW129678   3.109   4.374   9.798  0.2050  0.0413 -0.4932
 6072SOL    HW229679   3.072   4.275   9.711 -0.5330  1.5787 -0.0116
 6073SOL     OW29680   1.617   1.858  11.917 -0.1260 -0.3319  0.2859
 6073SOL    HW129681   1.536   1.870  11.867  0.2019  0.6778 -0.0048
 6073SOL    HW229682   1.581   1.874  12.004  0.5048  3.0011 -0.0789
 6074SOL     OW29683   3.930   4.103  17.468  0.1255  0.4149  0.2126
 6074SOL    HW129684   3.894   4.190  17.451  1.0960  0.7702 -0.0243
 6074SOL    HW229685   3.908   4.100  17.561  0.8285  3.2401  0.4944
 6075SOL     OW29686   3.277   0.639   5.641  0.2983 -0.2875  0.0063
 6075SOL    HW129687   3.221   0.652   5.717  1.3744  2.1335  0.3954
 6075SOL    HW229688   3.330   0.719   5.647  0.1933 -0.1705 -0.5668
 6076SOL     OW29689   0.533   3.426   8.202 -0.6512  0.2809 -0.0167
 6076SOL    HW129690   0.482   3.395   8.277 -1.6145 -0.8022 -1.1303
 6076SOL    HW229691   0.534   3.516   8.235  0.7216 -0.5729  2.2689
 6077SOL     OW29692   2.920   3.693   6.665 -0.0785 -0.4434  0.3222
 6077SOL    HW129693   2.961   3.643   6.595  0.3540 -0.6103  0.6937
 6077SOL    HW229694   2.906   3.633   6.738 -0.3271  0.4024  0.9685
 6078SOL     OW29695   2.101   2.116   0.560 -0.5506 -0.3833  0.5196
 6078SOL    HW129696   2.101   2.119   0.655 -0.0540  0.4116  0.4901
 6078SOL    HW229697   2.124   2.207   0.545  2.1694 -1.2553 -0.6730
 6079SOL     OW29698   3.472   1.756  15.715 -0.0727  0.5453 -0.0037
 6079SOL    HW129699   3.449   1.684  15.657  0.8727  0.1280  0.1533
 6079SOL    HW229700   3.560   1.780  15.688  0.1179 -0.2621 -0.0859
 6080SOL     OW29701   3.136   0.571  12.047  0.1321  0.1067 -0.3831
 6080SOL    HW129702   3.109   0.585  12.137  1.5027 -0.7489  0.1623
 6080SOL    HW229703   3.230   0.553  12.043 -0.4675 -2.7118 -1.7866
 6081SOL     OW29704   4.617   1.892   7.751 -0.4065  0.1889  0.0034
 6081SOL    HW129705   4.708   1.874   7.779 -0.6337 -0.5055  0.3072
 6081SOL    HW229706   4.567   1.867   7.829  1.6960  3.1422  2.2819
 6082SOL     OW29707   0.863   4.375   8.076  0.2685  0.1749 -0.9672
 6082SOL    HW129708   0.885   4.384   7.983  2.2505  1.0423 -0.4270
 6082SOL    HW229709   0.893   4.285   8.085  0.4036  0.2573 -0.5925
 6083SOL     OW29710   2.741   0.482   5.926 -0.1050  0.1436 -0.0506
 6083SOL    HW129711   2.765   0.431   6.003 -1.1436  0.1546  0.2882
 6083SOL    HW229712   2.827   0.489   5.886 -0.2019  0.0708 -0.2730
 6084SOL     OW29713   4.365   1.129  14.584 -0.2293 -0.4411 -0.0238
 6084SOL    HW129714   4.303   1.080  14.639  0.0697 -0.5503  0.2132
 6084SOL    HW229715   4.295   1.184  14.550 -0.4812  0.4680  1.9345
 6085SOL     OW29716   1.916   3.590   1.894 -0.5271 -0.3820 -0.3930
 6085SOL    HW129717   1.846   3.568   1.955  0.6864  2.0834  1.9060
 6085SOL    HW229718   1.981   3.524   1.918 -0.3524  0.2966  0.9813
 6086SOL     OW29719   0.977   2.866   5.063 -0.0675 -0.0868  0.0415
 6086SOL    HW129720   0.926   2.914   4.998 -1.3324 -0.2173  0.9406
 6086SOL    HW229721   1.061   2.912   5.070 -1.2679  1.8815  1.3360
 6087SOL     OW29722   3.648   0.656   5.743  0.8706 -0.3861  0.2677
 6087SOL    HW129723   3.635   0.562   5.728  1.8063 -0.5079  0.2367
 6087SOL    HW229724   3.699   0.640   5.822  1.4975 -2.0915 -0.4873
 6088SOL     OW29725   2.130   3.393  17.176  0.3464 -0.2399  1.2185
 6088SOL    HW129726   2.136   3.307  17.133  1.2307  0.5577 -0.2526
 6088SOL    HW229727   2.167   3.447  17.106  1.4481 -1.2964  0.9748
 6089SOL     OW29728   0.517   1.248  10.802 -0.4088  0.2551  0.1628
 6089SOL    HW129729   0.525   1.226  10.709 -1.2769 -0.1962  0.2006
 6089SOL    HW229730   0.550   1.166  10.839 -1.0305  0.1004  0.3708
 6090SOL     OW29731   4.005   1.032   7.005  0.3526  0.5461  0.0074
 6090SOL    HW129732   4.045   1.110   6.967  1.0538 -0.2272 -0.8480
 6090SOL    HW229733   3.981   0.995   6.919  1.5966  1.1025 -0.5678
 6091SOL     OW29734   4.179   2.950  10.485  0.0989 -0.4030 -0.3339
 6091SOL    HW129735   4.139   2.990  10.562  1.5968 -0.1054  0.2883
 6091SOL    HW229736   4.232   2.874  10.509  2.1626  0.7554 -1.1912
 6092SOL     OW29737   0.111   2.600  10.678 -0.3603 -0.0461 -0.4540
 6092SOL    HW129738   0.143   2.510  10.682 -0.2268  0.0097 -0.2742
 6092SOL    HW229739   0.077   2.604  10.767  2.9370 -0.5726  0.8261
 6093SOL     OW29740   2.544   4.642  17.636 -0.2107  0.2989  0.6785
 6093SOL    HW129741   2.493   4.686  17.568 -1.4281 -1.3211  0.5435
 6093SOL    HW229742   2.527   4.707   0.022  1.3803 -0.9192  2.2528
 6094SOL     OW29743   3.494   4.654  11.398  0.1984  0.5184  0.2769
 6094SOL    HW129744   3.515   4.664  11.305  0.1996 -1.9491  0.0163
 6094SOL    HW229745   3.403   4.679  11.410 -0.7031 -2.5496 -0.2642
 6095SOL     OW29746   1.334   1.196   3.845  0.0878 -0.1496  0.1295
 6095SOL    HW129747   1.243   1.180   3.820 -0.0994  0.6223  0.3255
 6095SOL    HW229748   1.336   1.161   3.934 -1.2440 -0.7411 -0.0773
 6096SOL     OW29749   2.525   4.428  15.009 -0.1408 -0.6608  0.1922
 6096SOL    HW129750   2.457   4.454  14.948 -1.6928 -0.9355  1.7906
 6096SOL    HW229751   2.541   4.513  15.051 -0.1410 -1.2297  1.3543
 6097SOL     OW29752   1.285   3.731  13.332 -0.5112  0.3125  0.3971
 6097SOL    HW129753   1.240   3.647  13.344  1.1475 -0.8138 -1.0690
 6097SOL    HW229754   1.317   3.725  13.241  1.0570  1.0018  0.8958
 6098SOL     OW29755   0.350   3.987  12.974  0.2030 -0.0665  0.4471
 6098SOL    HW129756   0.442   4.002  12.952 -0.6621  1.5561 -2.0235
 6098SOL    HW229757   0.351   3.899  13.011 -1.4744 -0.3244 -0.1395
 6099SOL     OW29758   0.203   2.040   7.948 -0.0086  0.6159 -0.3017
 6099SOL    HW129759   0.288   2.044   7.904 -0.8099 -1.1207 -1.9936
 6099SOL    HW229760   0.155   2.117   7.920 -2.8541 -2.1138 -2.9332
 6100SOL     OW29761   2.730   1.071   4.566  0.0839 -0.4324  0.0925
 6100SOL    HW129762   2.754   1.034   4.481 -1.0056  1.0586 -0.8558
 6100SOL    HW229763   2.698   0.993   4.611 -2.6736  0.5425 -0.1603
 6101SOL     OW29764   2.338   0.482  13.850  0.3745 -0.1683 -0.3547
 6101SOL    HW129765   2.391   0.548  13.804 -0.0981 -0.1992 -0.9498
 6101SOL    HW229766   2.407   0.426  13.885 -2.1924 -2.6371  0.7078
 6102SOL     OW29767   0.502   2.648   5.912  0.0866  0.8422 -0.0193
 6102SOL    HW129768   0.537   2.687   5.832  0.5991 -0.4764 -0.4430
 6102SOL    HW229769   0.584   2.636   5.959 -0.0224  0.3643  0.0429
 6103SOL     OW29770   1.539   0.371  10.007  0.1433  0.2777 -0.6464
 6103SOL    HW129771   1.462   0.422  10.032  2.0482  2.1827  1.3671
 6103SOL    HW229772   1.599   0.395  10.077 -1.6714 -0.6101  1.1830
 6104SOL     OW29773   3.046   3.902   8.735  0.7391 -0.4081 -0.4007
 6104SOL    HW129774   2.955   3.930   8.743  0.7431 -0.6163  0.3146
 6104SOL    HW229775   3.037   3.810   8.760  0.2594 -0.4980 -0.9117
 6105SOL     OW29776   2.506   1.617   5.590  0.1165  0.1408 -0.0281
 6105SOL    HW129777   2.430   1.637   5.535  0.4796  1.4830 -0.0546
 6105SOL    HW229778   2.551   1.700   5.575  1.4520 -0.7883 -1.0624
 6106SOL     OW29779   3.838   1.576   9.878 -0.5761  0.2046 -0.0549
 6106SOL    HW129780   3.812   1.633   9.950 -0.9329 -0.2627  0.1819
 6106SOL    HW229781   3.905   1.525   9.922 -0.8180 -0.5613 -0.5729
 6107SOL     OW29782   1.287   4.446   6.107 -0.2255 -0.1371  0.5200
 6107SOL    HW129783   1.347   4.520   6.109  0.4425 -0.7218  2.0417
 6107SOL    HW229784   1.315   4.409   6.023 -0.4046 -0.8044  0.7556
 6108SOL     OW29785   3.354   3.109   6.041 -0.2096  0.2550  0.0197
 6108SOL    HW129786   3.355   3.153   5.956 -1.3166 -0.5918 -0.4451
 6108SOL    HW229787   3.275   3.055   6.036  0.1391 -0.3154  0.7205
 6109SOL     OW29788   2.372   1.427   6.482 -0.0611  0.0189  0.3397
 6109SOL    HW129789   2.425   1.464   6.411  0.3484 -1.4329 -0.1324
 6109SOL    HW229790   2.446   1.405   6.538  1.2384 -2.0478 -2.1788
 6110SOL     OW29791   1.149   3.866   8.179 -0.1458  0.0698 -0.7352
 6110SOL    HW129792   1.122   3.943   8.228  0.2499  1.3655 -2.5684
 6110SOL    HW229793   1.234   3.851   8.219 -1.4141  1.4725  2.4858
 6111SOL     OW29794   3.769   0.521   8.645 -0.1466 -0.1395  0.1092
 6111SOL    HW129795   3.863   0.525   8.629  0.0378 -2.0982  0.8182
 6111SOL    HW229796   3.746   0.606   8.683  0.9790  0.5645 -0.7839
 6112SOL     OW29797   1.977   1.145   7.022 -0.5104  0.2098 -0.1527
 6112SOL    HW129798   2.004   1.122   7.111 -1.9020  0.3060  0.2858
 6112SOL    HW229799   2.046   1.210   7.005 -0.6738  0.3184 -0.4040
 6113SOL     OW29800   0.238   2.578   2.764 -0.0003 -0.0944 -0.0420
 6113SOL    HW129801   0.226   2.545   2.675  0.3072  1.8102 -0.7765
 6113SOL    HW229802   0.280   2.662   2.748 -1.9455  0.7885 -0.5924
 6114SOL     OW29803   0.950   0.407   7.997  1.0379  0.1142  0.5750
 6114SOL    HW129804   0.858   0.380   7.994  0.8858  0.8477 -0.9665
 6114SOL    HW229805   0.935   0.493   8.037 -0.5573  0.3571 -0.5605
 6115SOL     OW29806   3.075   2.306   5.966 -0.2438 -0.0984  0.1953
 6115SOL    HW129807   3.056   2.212   5.964  1.1718 -0.3935  0.1950
 6115SOL    HW229808   3.061   2.321   6.059  2.3562 -0.9951  0.7270
 6116SOL     OW29809   0.602   0.176  10.813  0.1757 -0.0384 -0.8116
 6116SOL    HW129810   0.543   0.104  10.840  1.6822 -1.7054 -1.9715
 6116SOL    HW229811   0.553   0.247  10.854  2.7798  0.0774  2.0890
 6117SOL     OW29812   1.016   2.040   7.835  0.0734  0.0627  1.0288
 6117SOL    HW129813   0.924   2.039   7.861 -0.4811 -3.3307 -1.0978
 6117SOL    HW229814   1.033   2.131   7.859 -0.3340 -0.0226  1.6447
 6118SOL     OW29815   3.637   1.941   5.328 -0.1775 -0.2783 -0.1406
 6118SOL    HW129816   3.576   1.957   5.256 -2.1182 -1.1198  1.3355
 6118SOL    HW229817   3.605   2.006   5.390 -0.1710 -1.3514  0.9740
 6119SOL     OW29818   3.494   4.133   3.646  0.5474 -0.9755  0.2222
 6119SOL    HW129819   3.463   4.143   3.555  0.6028 -1.7512  0.1234
 6119SOL    HW229820   3.484   4.219   3.686 -1.1149 -0.9229 -0.2763
 6120SOL     OW29821   2.426   4.048   7.460 -0.0526  0.4324 -0.7012
 6120SOL    HW129822   2.401   4.067   7.370  1.2528 -1.5127 -1.4752
 6120SOL    HW229823   2.473   3.968   7.438  0.0198  0.0964  0.6534
 6121SOL     OW29824   1.364   2.451   6.514  0.1225  0.3154 -0.0743
 6121SOL    HW129825   1.423   2.525   6.501 -0.7900  1.0862  0.1600
 6121SOL    HW229826   1.362   2.445   6.609 -2.5456  0.7624 -0.0932
 6122SOL     OW29827   0.745   4.380   7.122  0.4956  0.3687  0.2295
 6122SOL    HW129828   0.727   4.448   7.187 -1.0586  0.5893 -0.4308
 6122SOL    HW229829   0.840   4.391   7.114  0.4881 -0.0562 -0.4747
 6123SOL     OW29830   1.789   3.306   0.802 -0.2074  0.1886 -0.3286
 6123SOL    HW129831   1.750   3.225   0.834 -0.7250 -1.2364 -4.5256
 6123SOL    HW229832   1.763   3.315   0.710 -1.3061 -0.9363 -0.1251
 6124SOL     OW29833   3.198   3.069  17.240  0.1747 -0.5787  0.1758
 6124SOL    HW129834   3.163   2.984  17.268 -0.0824 -0.0267  1.5301
 6124SOL    HW229835   3.273   3.031  17.195 -1.3630 -1.3663 -1.7354
 6125SOL     OW29836   4.019   0.445   8.459  0.1644  0.1193  0.3813
 6125SOL    HW129837   4.033   0.475   8.369 -2.9572  0.5286  0.0487
 6125SOL    HW229838   3.944   0.389   8.442 -0.6098  0.9930  0.9216
 6126SOL     OW29839   2.454   2.479   1.547  0.5909  0.1212 -0.1450
 6126SOL    HW129840   2.517   2.539   1.586 -0.1676  0.2130  0.9274
 6126SOL    HW229841   2.468   2.491   1.453  2.0967  0.7200  0.1621
 6127SOL     OW29842   0.184   0.302   0.573  0.2800  0.0768 -1.0574
 6127SOL    HW129843   0.168   0.208   0.568  0.3945 -0.0012  0.1194
 6127SOL    HW229844   0.105   0.356   0.577 -0.5738 -1.3135  0.7597
 6128SOL     OW29845   1.768   4.083   1.266 -0.3326  0.4986  0.2577
 6128SOL    HW129846   1.809   4.169   1.276  1.8696 -0.5132 -0.0677
 6128SOL    HW229847   1.777   4.046   1.354  3.7278 -0.5302 -0.5752
 6129SOL     OW29848   1.070   3.377   3.067 -0.1671  0.0681 -0.6369
 6129SOL    HW129849   1.069   3.390   3.162  1.9891 -0.5696 -0.5386
 6129SOL    HW229850   1.133   3.445   3.043 -1.5369  1.3742 -0.5414
 6130SOL     OW29851   2.432   2.644   0.881 -0.5096 -0.2860  0.0801
 6130SOL    HW129852   2.440   2.571   0.942 -0.1238 -0.7608 -0.5509
 6130SOL    HW229853   2.390   2.701   0.946  1.4488  0.1632  0.9654
 6131SOL     OW29854   2.051   3.297   9.802  0.0631  0.0596  0.3488
 6131SOL    HW129855   2.134   3.249   9.806  0.3438  0.4663 -0.5954
 6131SOL    HW229856   2.031   3.293   9.708 -1.1674  1.6387  0.5392
 6132SOL     OW29857   3.156   0.796   4.217 -0.0264  0.1910 -0.5848
 6132SOL    HW129858   3.159   0.704   4.190  0.5155 -0.0120  0.1727
 6132SOL    HW229859   3.249   0.813   4.229  0.3369 -0.8650 -1.8964
 6133SOL     OW29860   4.516   0.026   2.893 -0.4649 -0.3735 -0.0592
 6133SOL    HW129861   4.457   4.708   2.828  0.8342 -3.0338  0.2908
 6133SOL    HW229862   4.597   4.696   2.893 -0.5537 -0.5035 -2.4294
 6134SOL     OW29863   1.112   0.702   5.155  0.3316 -0.0043 -0.4918
 6134SOL    HW129864   1.046   0.719   5.088  0.9889  0.3338 -1.0514
 6134SOL    HW229865   1.055   0.644   5.205  0.4992  1.5454  1.4701
 6135SOL     OW29866   1.878   1.987  17.214 -0.3342  0.2439 -0.1701
 6135SOL    HW129867   1.907   2.067  17.257 -0.8844  0.5179 -0.3081
 6135SOL    HW229868   1.846   1.934  17.287  2.7248 -1.2648  0.0730
 6136SOL     OW29869   3.799   2.619  11.259  0.3599 -0.4086 -0.3707
 6136SOL    HW129870   3.837   2.540  11.220 -2.3096 -0.9818 -1.7853
 6136SOL    HW229871   3.754   2.649  11.180 -0.4543 -0.6318  0.0102
 6137SOL     OW29872   0.006   1.787   2.494  0.3755  0.3424  0.2421
 6137SOL    HW129873   0.016   1.698   2.529 -3.2157  0.0274  0.4477
 6137SOL    HW229874   4.714   1.767   2.402  1.0080  0.1796  0.1936
 6138SOL     OW29875   0.251   4.240   2.735 -0.1223 -0.6639 -0.5358
 6138SOL    HW129876   0.201   4.221   2.656 -1.1144  0.2511 -0.1342
 6138SOL    HW229877   0.326   4.182   2.722  0.1903 -0.0105 -1.6571
 6139SOL     OW29878   1.700   3.576   6.853  0.4055 -0.5655 -0.0679
 6139SOL    HW129879   1.680   3.666   6.825 -1.0136 -1.1029 -0.7768
 6139SOL    HW229880   1.753   3.587   6.932  2.1249 -2.2308 -0.9950
 6140SOL     OW29881   3.990   4.378  17.609 -0.0219  0.6881  0.2533
 6140SOL    HW129882   4.042   4.388  17.529 -0.0291 -0.2756  0.1223
 6140SOL    HW229883   4.069   4.377  17.664 -0.6218  0.0403  1.0980
 6141SOL     OW29884   2.350   2.408   2.270  0.1007  0.0189  0.7038
 6141SOL    HW129885   2.404   2.484   2.291 -0.3724  0.2230  1.1587
 6141SOL    HW229886   2.345   2.373   2.359 -2.4959 -0.4202  0.3835
 6142SOL     OW29887   2.858   4.568   2.013  0.3371  0.2647 -0.0248
 6142SOL    HW129888   2.929   4.504   2.016  1.3814  1.4811  1.1959
 6142SOL    HW229889   2.799   4.537   1.944 -1.2438 -1.5322  2.1547
 6143SOL     OW29890   3.456   0.917  13.777  0.4522  1.0993  0.2086
 6143SOL    HW129891   3.377   0.863  13.772  0.1160  1.5324  0.8904
 6143SOL    HW229892   3.434   0.970  13.700  2.2700  1.1259 -0.2819
 6144SOL     OW29893   0.297   3.127   7.850 -0.4939  0.5922  0.4698
 6144SOL    HW129894   0.384   3.141   7.886 -1.0756  1.6231  1.4549
 6144SOL    HW229895   0.249   3.159   7.926 -1.1121  0.4238  0.1482
 6145SOL     OW29896   2.453   0.406   6.074 -0.1131 -0.2001  0.1305
 6145SOL    HW129897   2.410   0.333   6.030  3.1915 -1.6746 -0.6834
 6145SOL    HW229898   2.495   0.434   5.993 -0.6306  1.2565  0.3782
 6146SOL     OW29899   4.294   3.558   5.415 -0.2289 -0.6608 -0.1499
 6146SOL    HW129900   4.295   3.588   5.323  1.2763 -1.3187 -0.3430
 6146SOL    HW229901   4.345   3.628   5.457 -0.2390  0.3034 -1.6930
 6147SOL     OW29902   0.365   3.509   9.628  0.0370  0.2160 -0.1470
 6147SOL    HW129903   0.448   3.464   9.614  1.5119  2.8817  0.0096
 6147SOL    HW229904   0.363   3.570   9.554  1.9258  0.4910  0.0484
 6148SOL     OW29905   0.980   3.787  10.588 -0.3109 -0.1592  0.4929
 6148SOL    HW129906   0.990   3.883  10.591 -2.6265 -0.0018  2.7643
 6148SOL    HW229907   1.005   3.772  10.679  2.5959  0.9684 -0.1238
 6149SOL     OW29908   3.521   2.749  10.016 -0.3653 -0.5217  0.7100
 6149SOL    HW129909   3.464   2.809   9.969  0.7699 -0.1200 -0.1639
 6149SOL    HW229910   3.478   2.664  10.005  0.0048 -0.4579 -1.3397
 6150SOL     OW29911   0.848   2.095   7.561 -0.1914  0.1976 -0.3117
 6150SOL    HW129912   0.805   2.111   7.646 -0.5653  0.0866 -0.4792
 6150SOL    HW229913   0.848   2.000   7.549 -0.1502  0.1301  0.2083
 6151SOL     OW29914   3.324   0.869   9.312  0.3277  0.2347  0.0944
 6151SOL    HW129915   3.357   0.934   9.374 -0.5093  0.2202  0.5541
 6151SOL    HW229916   3.399   0.816   9.285 -0.1967 -1.0831  1.1897
 6152SOL     OW29917   4.652   0.434   8.835  0.0451 -0.0575  0.2006
 6152SOL    HW129918   4.570   0.471   8.804  0.1303 -0.4671 -0.5269
 6152SOL    HW229919   4.634   0.371   8.905 -0.3603 -0.3664 -0.1807
 6153SOL     OW29920   1.153   1.577   1.427  0.2866 -0.2989 -0.0323
 6153SOL    HW129921   1.215   1.505   1.413 -0.6351 -0.5697 -2.6321
 6153SOL    HW229922   1.104   1.586   1.346  2.4719  1.5756 -1.1341
 6154SOL     OW29923   2.329   3.872   4.100  0.3809 -0.4663  0.3224
 6154SOL    HW129924   2.279   3.953   4.089  1.0941 -0.1937 -0.9945
 6154SOL    HW229925   2.415   3.900   4.068 -0.1521  0.7333 -0.0602
 6155SOL     OW29926   3.095   3.128   6.655 -0.0123  0.4667  0.1183
 6155SOL    HW129927   3.149   3.066   6.605 -1.5597 -0.0249 -0.9589
 6155SOL    HW229928   3.131   3.209   6.619 -0.3105  1.1071  1.2920
 6156SOL     OW29929   2.813   4.196  11.132  0.2408 -0.0587  0.0795
 6156SOL    HW129930   2.817   4.256  11.057  1.1374  0.8942  0.8829
 6156SOL    HW229931   2.736   4.229  11.178 -1.5345 -0.2893 -2.6983
 6157SOL     OW29932   2.088   4.028   7.920 -0.2060  0.2300 -0.0479
 6157SOL    HW129933   2.056   3.957   7.864  0.9408 -0.0055 -0.3919
 6157SOL    HW229934   2.169   4.054   7.876 -1.3337  3.1524 -0.4144
 6158SOL     OW29935   0.634   0.723   8.986 -0.7151  0.1464 -0.4458
 6158SOL    HW129936   0.594   0.694   9.067  1.6877 -0.4409  0.5256
 6158SOL    HW229937   0.703   0.770   9.032  0.5755 -2.0925 -0.1005
 6159SOL     OW29938   0.685   1.069   6.873  0.0789 -0.1595 -0.2341
 6159SOL    HW129939   0.726   1.051   6.957 -0.5321  2.6445  0.6495
 6159SOL    HW229940   0.589   1.074   6.880  0.2867  0.1169  2.1485
 6160SOL     OW29941   1.762   4.046   6.856  0.0353 -0.1083  0.1770
 6160SOL    HW129942   1.763   4.105   6.932  0.4860  2.5533 -1.8887
 6160SOL    HW229943   1.718   4.094   6.785  0.2745  0.3787  0.3563
 6161SOL     OW29944   4.488   0.790  11.188 -0.1759 -0.0674 -0.1570
 6161SOL    HW129945   4.472   0.866  11.244 -1.5306 -0.7898  0.4277
 6161SOL    HW229946   4.527   0.829  11.110  1.0392  2.5286  1.7233
 6162SOL     OW29947   2.465   0.325   2.530 -0.0564 -0.1246 -0.0857
 6162SOL    HW129948   2.408   0.248   2.531  2.1556 -1.7684  2.2410
 6162SOL    HW229949   2.424   0.374   2.459  0.4407  2.0575  1.1295
 6163SOL     OW29950   4.211   1.684   0.360  0.0008 -0.0680 -0.0806
 6163SOL    HW129951   4.146   1.639   0.414 -0.3483 -0.8322 -1.1503
 6163SOL    HW229952   4.171   1.712   0.278  1.3918 -0.1833 -0.8019
 6164SOL     OW29953   4.455   0.912   0.224  0.5063  0.0375  0.2100
 6164SOL    HW129954   4.428   0.957   0.143 -3.7969 -2.2526  0.3640
 6164SOL    HW229955   4.488   0.984   0.277  1.8269 -0.0064 -0.5669
 6165SOL     OW29956   2.813   2.181   0.854 -0.0544  0.3142  0.3071
 6165SOL    HW129957   2.726   2.221   0.855 -0.5855 -0.7831 -2.4754
 6165SOL    HW229958   2.858   2.228   0.924 -0.3032 -1.4059  1.6424
 6166SOL     OW29959   0.935   1.575   7.614 -0.4451  0.3007 -0.3814
 6166SOL    HW129960   0.925   1.524   7.694 -0.0687 -0.6817 -0.9611
 6166SOL    HW229961   0.881   1.516   7.561 -0.7226 -0.7841  1.1382
 6167SOL     OW29962   3.308   2.054  13.316  0.7098 -0.1094  0.2735
 6167SOL    HW129963   3.326   1.986  13.381  1.1112 -0.3369 -0.0795
 6167SOL    HW229964   3.271   2.121  13.373  0.2784  0.1997 -0.3691
 6168SOL     OW29965   3.297   3.488  13.987 -0.2612  0.5489 -0.2609
 6168SOL    HW129966   3.318   3.525  13.901 -0.7649  2.6022  0.4969
 6168SOL    HW229967   3.213   3.446  13.967  0.0260 -1.4381  2.7863
 6169SOL     OW29968   2.418   3.683   9.851  0.0860 -0.1338 -0.1680
 6169SOL    HW129969   2.450   3.596   9.876  1.6063  0.1789 -1.0145
 6169SOL    HW229970   2.328   3.682   9.882  0.4503 -3.3966  0.7815
 6170SOL     OW29971   3.885   3.652   2.030  0.3433  0.6511  0.0419
 6170SOL    HW129972   3.871   3.574   1.977 -1.6090  0.9899  0.0672
 6170SOL    HW229973   3.965   3.629   2.078  0.1755 -0.9980 -0.4743
 6171SOL     OW29974   3.148   3.741   7.756 -0.2990  0.5008  0.4407
 6171SOL    HW129975   3.121   3.652   7.736 -1.8654  1.0742  0.0581
 6171SOL    HW229976   3.115   3.752   7.845 -1.4752 -2.4153  0.3696
 6172SOL     OW29977   0.653   2.655   5.026  0.1047  0.9696 -0.4809
 6172SOL    HW129978   0.613   2.639   5.112 -0.7232 -1.8745 -1.3693
 6172SOL    HW229979   0.617   2.737   4.993 -0.4966  0.9975  0.2448
 6173SOL     OW29980   1.468   3.770   4.273  0.2336 -0.0550  0.2977
 6173SOL    HW129981   1.551   3.806   4.306  0.6602  1.4069 -2.3334
 6173SOL    HW229982   1.476   3.781   4.178  1.5039  1.9994  0.6379
 6174SOL     OW29983   3.078   3.180  13.792 -0.3784 -0.7258  0.4574
 6174SOL    HW129984   3.097   3.218  13.706  0.4595 -2.5797 -0.1727
 6174SOL    HW229985   2.990   3.146  13.778 -0.5790  0.5402 -1.3167
 6175SOL     OW29986   3.814   4.152   7.981 -0.1895  0.0670 -0.4100
 6175SOL    HW129987   3.899   4.107   7.979  0.1724  0.6060  1.9848
 6175SOL    HW229988   3.822   4.210   8.057  1.9076  0.8955 -1.2537
 6176SOL     OW29989   4.530   2.289   9.891 -0.6261  0.1809  0.0653
 6176SOL    HW129990   4.505   2.300   9.982  0.4535  2.7256  0.0511
 6176SOL    HW229991   4.448   2.322   9.853 -1.3110 -1.7154 -0.1424
 6177SOL     OW29992   0.684   0.768   8.463 -0.1852 -0.0727  0.8101
 6177SOL    HW129993   0.777   0.791   8.466 -0.4067  1.0208 -0.9346
 6177SOL    HW229994   0.654   0.794   8.376 -0.4180  0.0994  0.9414
 6178SOL     OW29995   0.503   1.817  14.989 -0.2452 -0.0371 -0.4546
 6178SOL    HW129996   0.442   1.819  15.063  0.2750 -2.6094  0.0261
 6178SOL    HW229997   0.440   1.794  14.921  0.0372  0.4806 -0.8916
 6179SOL     OW29998   0.443   1.352   8.450 -0.6520  0.2001 -0.2805
 6179SOL    HW129999   0.351   1.374   8.460 -0.5122  0.7846 -0.2741
 6179SOL    HW230000   0.442   1.267   8.493 -1.2230 -0.1378 -0.9656
 6180SOL     OW30001   2.521   2.235  12.762 -0.4705 -0.0415 -0.2155
 6180SOL    HW130002   2.481   2.308  12.809 -1.0276 -1.0180  0.8548
 6180SOL    HW230003   2.603   2.271  12.729 -0.8634  0.5757 -0.5176
 6181SOL     OW30004   2.392   2.831   1.079  0.0198 -0.4390  0.1126
 6181SOL    HW130005   2.406   2.922   1.051  0.8756 -1.1141 -1.6174
 6181SOL    HW230006   2.320   2.844   1.141 -0.1373 -0.1731 -0.1290
 6182SOL     OW30007   3.953   3.499   7.741 -0.4557  0.6794 -0.3054
 6182SOL    HW130008   3.971   3.430   7.677 -0.1109 -0.6106  1.1734
 6182SOL    HW230009   3.893   3.558   7.696  1.5391  2.0835 -1.1730
 6183SOL     OW30010   1.912   2.348  15.075  0.2416 -0.2383 -0.4750
 6183SOL    HW130011   1.947   2.381  15.158  1.8391 -0.1763 -1.1793
 6183SOL    HW230012   1.860   2.277  15.114 -0.4768 -0.3006 -1.5609
 6184SOL     OW30013   4.514   3.673   1.769 -0.8103 -0.0077 -0.5798
 6184SOL    HW130014   4.596   3.635   1.799 -1.2260 -2.0617 -2.0648
 6184SOL    HW230015   4.503   3.743   1.833 -0.6073 -1.8300  1.4137
 6185SOL     OW30016   2.518   0.336   7.961  0.2145 -0.4864  0.1787
 6185SOL    HW130017   2.528   0.354   7.867 -2.3829 -0.7722 -0.1496
 6185SOL    HW230018   2.570   0.405   8.001  0.1253 -0.7504  0.7497
 6186SOL     OW30019   0.524   0.746  11.331  0.4540  0.1038 -0.2195
 6186SOL    HW130020   0.466   0.771  11.403  0.1651  0.3154 -0.5285
 6186SOL    HW230021   0.525   0.651  11.338  0.2546  0.2052  1.0908
 6187SOL     OW30022   1.563   1.686   9.050 -0.5842  0.7449  0.0188
 6187SOL    HW130023   1.520   1.710   9.133 -0.7912 -1.7986  0.6714
 6187SOL    HW230024   1.521   1.602   9.031 -0.5418  0.8581 -0.5505
 6188SOL     OW30025   2.610   1.522  11.433 -0.1586  0.7445 -0.0619
 6188SOL    HW130026   2.536   1.583  11.433 -2.7209 -2.3327 -1.5247
 6188SOL    HW230027   2.609   1.495  11.341 -2.2644  1.3442 -0.2317
 6189SOL     OW30028   1.250   1.510   1.101 -0.5007  0.4166  0.0696
 6189SOL    HW130029   1.241   1.538   1.010 -2.3056  0.0929  0.1471
 6189SOL    HW230030   1.294   1.586   1.140  1.6415 -1.3809  1.1719
 6190SOL     OW30031   2.232   4.237   6.598 -0.2882 -0.1127 -0.0193
 6190SOL    HW130032   2.245   4.277   6.684 -3.4251 -0.5776  0.6724
 6190SOL    HW230033   2.289   4.161   6.610 -1.1917 -1.1893 -2.6645
 6191SOL     OW30034   2.473   4.556   6.279 -0.0255  0.5104  0.5733
 6191SOL    HW130035   2.414   4.483   6.298 -2.4519  2.1872 -0.5221
 6191SOL    HW230036   2.458   4.607   6.359 -1.3021  0.1346  0.5670
 6192SOL     OW30037   3.567   1.354  13.546 -0.0758  0.2253 -0.1612
 6192SOL    HW130038   3.623   1.316  13.613 -0.1306 -0.0235 -0.2555
 6192SOL    HW230039   3.562   1.447  13.568  1.1438 -0.0596  1.3067
 6193SOL     OW30040   2.948   3.259   4.006 -0.1037  0.5294 -0.4817
 6193SOL    HW130041   2.941   3.241   3.912 -1.1346 -0.0279 -0.2916
 6193SOL    HW230042   2.855   3.279   4.018 -0.0500  2.3803 -3.1771
 6194SOL     OW30043   4.143   2.534   6.016  0.1471  0.3213 -0.6714
 6194SOL    HW130044   4.092   2.497   6.088  3.2554 -2.3911  0.1073
 6194SOL    HW230045   4.123   2.627   6.030  0.9004  0.3792  0.0082
 6195SOL     OW30046   0.931   0.074  13.397  0.3993 -0.3583  0.4412
 6195SOL    HW130047   0.963   0.163  13.416 -2.0219  0.3469  1.2328
 6195SOL    HW230048   0.884   0.045  13.475 -1.7477 -0.7921 -1.0506
 6196SOL     OW30049   2.734   3.461  10.283 -0.5827  0.3245  1.0524
 6196SOL    HW130050   2.670   3.428  10.346 -0.9593 -2.5676 -0.8828
 6196SOL    HW230051   2.727   3.556  10.297 -0.7981  0.4001  0.4010
 6197SOL     OW30052   0.275   0.490   1.027 -0.6988  0.1915 -0.1918
 6197SOL    HW130053   0.253   0.578   1.057  1.9244  0.0947  2.0239
 6197SOL    HW230054   0.190   0.470   0.988 -0.0971 -0.9023 -0.9450
 6198SOL     OW30055   0.618   3.903  12.641 -0.4113 -0.2946 -0.1384
 6198SOL    HW130056   0.538   3.950  12.617 -0.5986 -1.0919 -1.0909
 6198SOL    HW230057   0.646   3.855  12.563  2.1429  0.0068  0.5885
 6199SOL     OW30058   2.735   0.182   0.080  0.4842 -0.3532  0.1558
 6199SOL    HW130059   2.760   0.270   0.052  0.1726 -0.4011 -0.2728
 6199SOL    HW230060   2.640   0.175   0.081  0.6814 -3.0681 -1.0409
 6200SOL     OW30061   4.218   0.113  15.947 -0.0034  0.2384 -0.3301
 6200SOL    HW130062   4.138   0.138  15.994 -0.5353 -1.8195 -0.1460
 6200SOL    HW230063   4.287   0.146  16.005  0.8073 -3.2956  0.6611
 6201SOL     OW30064   2.207   0.104  15.997 -0.0651  0.0950 -0.4231
 6201SOL    HW130065   2.240   0.157  16.070  0.6435 -1.2015  0.2059
 6201SOL    HW230066   2.246   0.159  15.929  2.2872  0.7088  1.4123
 6202SOL     OW30067   4.244   3.799   9.549  0.2077  0.1553  0.3501
 6202SOL    HW130068   4.233   3.830   9.639  2.4056  0.8058  0.4044
 6202SOL    HW230069   4.324   3.849   9.533 -0.1324  0.6733  0.2610
 6203SOL     OW30070   2.763   0.230   3.871 -1.0798  0.8112 -0.1652
 6203SOL    HW130071   2.741   0.153   3.818  2.6956 -0.2736 -0.1345
 6203SOL    HW230072   2.858   0.225   3.876 -1.4552 -3.1028  3.2848
 6204SOL     OW30073   2.241   4.506  15.559 -0.2381  0.4040  0.3350
 6204SOL    HW130074   2.235   4.467  15.646  0.3645 -1.2751 -0.3840
 6204SOL    HW230075   2.188   4.444  15.509 -0.6523  0.1743  1.0526
 6205SOL     OW30076   3.117   4.066   7.412 -0.0759 -0.5702  0.2081
 6205SOL    HW130077   3.179   4.027   7.474 -0.8492  0.4825  1.6519
 6205SOL    HW230078   3.114   3.991   7.353  1.0178  1.1018 -1.9592
 6206SOL     OW30079   1.613   2.704   0.829 -0.4193  0.1630 -0.3519
 6206SOL    HW130080   1.643   2.614   0.817 -0.0538  0.3279 -0.6694
 6206SOL    HW230081   1.628   2.711   0.924 -1.2802 -0.2314 -0.1869
 6207SOL     OW30082   2.979   1.667  10.383  0.5710 -0.9446  0.2731
 6207SOL    HW130083   2.952   1.647  10.472  2.1388  0.7541  1.1347
 6207SOL    HW230084   2.953   1.595  10.326 -2.9012  1.3100 -0.9771
 6208SOL     OW30085   4.487   1.123   0.402  0.1758 -0.4366  0.3372
 6208SOL    HW130086   4.511   1.103   0.493 -0.9053 -0.8889  0.5227
 6208SOL    HW230087   4.417   1.186   0.415 -1.7134 -2.7516  1.4073
 6209SOL     OW30088   2.232   3.261  10.756 -0.1040  0.5158 -0.1182
 6209SOL    HW130089   2.308   3.246  10.700 -0.8683  0.2185 -1.0642
 6209SOL    HW230090   2.236   3.355  10.775  3.0397  0.6695 -1.5488
 6210SOL     OW30091   4.593   3.069   5.685 -0.0757 -0.5766 -0.3160
 6210SOL    HW130092   4.532   3.015   5.636 -2.2962  2.5042 -0.9876
 6210SOL    HW230093   4.579   3.018   5.765  1.3141  0.4322  0.5585
 6211SOL     OW30094   3.082   2.760   6.737  0.4017 -0.6478  0.3458
 6211SOL    HW130095   3.087   2.677   6.784  2.7672 -1.5148 -1.4506
 6211SOL    HW230096   3.148   2.796   6.796 -0.2850  2.9517 -1.1215
 6212SOL     OW30097   1.260   2.135  12.259 -0.1801  0.4765 -0.3703
 6212SOL    HW130098   1.219   2.221  12.267 -0.2494  0.4002  0.1215
 6212SOL    HW230099   1.328   2.130  12.326 -0.5680 -3.0040 -0.2370
 6213SOL     OW30100   4.103   4.220   7.269 -0.4423 -0.4294 -0.0965
 6213SOL    HW130101   4.103   4.315   7.278  1.1002 -0.4595  0.2695
 6213SOL    HW230102   4.131   4.187   7.355  2.7166  0.0304 -0.9578
 6214SOL     OW30103   0.241   2.316  15.101  0.0601 -0.3162  0.6223
 6214SOL    HW130104   0.279   2.229  15.084 -1.8191 -1.0411  0.1092
 6214SOL    HW230105   0.295   2.344  15.175 -1.7842 -0.3374  1.9859
 6215SOL     OW30106   2.036   3.889   4.998 -0.4503 -0.1213  0.4828
 6215SOL    HW130107   2.097   3.836   5.048  0.4146 -0.9861 -1.4629
 6215SOL    HW230108   1.955   3.896   5.049 -0.9211 -1.4525 -0.0735
 6216SOL     OW30109   3.195   1.249   4.037  0.3065 -0.3107 -0.3642
 6216SOL    HW130110   3.149   1.288   4.111  1.1391 -0.0470  0.0185
 6216SOL    HW230111   3.128   1.249   3.970 -1.9295  3.6312  1.8967
 6217SOL     OW30112   0.252   2.701   6.688 -0.5365 -0.3556  0.4023
 6217SOL    HW130113   0.172   2.684   6.738 -0.3834 -0.1384  0.7198
 6217SOL    HW230114   0.305   2.625   6.713  1.2618  1.2336  1.4155
 6218SOL     OW30115   1.245   3.010  10.035 -0.3018 -0.0685 -0.5768
 6218SOL    HW130116   1.326   2.959  10.036  0.9723  1.9891  1.6677
 6218SOL    HW230117   1.248   3.049  10.123  1.6222 -0.1960 -0.5797
 6219SOL     OW30118   2.690   2.323  11.172 -0.5791 -0.2356  0.1915
 6219SOL    HW130119   2.708   2.244  11.121 -1.8138 -1.5711  1.8498
 6219SOL    HW230120   2.606   2.348  11.135  0.7721 -0.1663 -2.8338
 6220SOL     OW30121   3.473   0.457  11.299 -0.2265  0.0466  0.2812
 6220SOL    HW130122   3.532   0.439  11.372 -1.5830 -2.4663  0.7734
 6220SOL    HW230123   3.446   0.367  11.280  1.9563 -1.0147  2.2126
 6221SOL     OW30124   1.603   0.387   8.018 -0.5250  0.6189  0.1652
 6221SOL    HW130125   1.574   0.302   7.983 -0.0534  0.0263  1.2219
 6221SOL    HW230126   1.580   0.377   8.110 -1.0673 -2.0287 -0.2388
 6222SOL     OW30127   1.335   2.652   7.821  0.1239  0.5649  0.2115
 6222SOL    HW130128   1.250   2.695   7.810  0.0013  0.0480 -0.9069
 6222SOL    HW230129   1.355   2.662   7.914 -0.0242 -0.7828  0.3871
 6223SOL     OW30130   2.722   2.249   6.154 -0.0603  0.3449  0.0178
 6223SOL    HW130131   2.808   2.224   6.121  1.0478  2.8390  1.0313
 6223SOL    HW230132   2.743   2.329   6.203 -3.5234  0.7652  0.8039
 6224SOL     OW30133   2.471   3.661   2.079 -0.1750  0.3295 -0.0085
 6224SOL    HW130134   2.437   3.718   2.010  4.9205  1.3053 -1.7166
 6224SOL    HW230135   2.479   3.727   2.148  1.1211  0.0114  0.1543
 6225SOL     OW30136   0.227   0.094  13.632 -0.0680  0.6803  0.0006
 6225SOL    HW130137   0.295   0.027  13.639  0.7330  1.6315  1.0729
 6225SOL    HW230138   0.248   0.148  13.708  2.7408 -0.1521 -0.1814
 6226SOL     OW30139   2.027   2.898   9.203  0.5043  0.2896  0.4336
 6226SOL    HW130140   1.955   2.881   9.143 -0.3167 -0.0718  1.5154
 6226SOL    HW230141   1.975   2.870   9.278 -1.2246  2.5707  0.0788
 6227SOL     OW30142   3.726   2.458  14.891  0.0135  0.6845 -0.2549
 6227SOL    HW130143   3.775   2.540  14.882  0.2990  0.6354  0.7963
 6227SOL    HW230144   3.637   2.489  14.910 -0.3339 -0.7989  0.5371
 6228SOL     OW30145   0.430   3.583   7.786  0.5280 -0.1266 -0.2084
 6228SOL    HW130146   0.380   3.557   7.708 -0.1671  0.7148 -0.0369
 6228SOL    HW230147   0.514   3.608   7.748  0.7447 -1.2602 -0.4806
 6229SOL     OW30148   3.780   2.047   3.091 -0.1101 -0.1023  0.1142
 6229SOL    HW130149   3.698   1.997   3.084  0.2546 -0.8401  1.1845
 6229SOL    HW230150   3.766   2.093   3.173  3.7624  0.5191  0.3997
 6230SOL     OW30151   4.415   3.608   8.066 -0.3764 -0.0709 -0.5795
 6230SOL    HW130152   4.500   3.627   8.106  0.3816 -3.1767 -0.7518
 6230SOL    HW230153   4.413   3.665   7.989 -1.5722 -0.3512 -0.7673
 6231SOL     OW30154   1.211   3.649  15.917 -0.1406 -0.4320  0.1505
 6231SOL    HW130155   1.152   3.580  15.888 -0.1419 -0.3728  0.0142
 6231SOL    HW230156   1.246   3.683  15.835  1.0939 -1.4168  0.2722
 6232SOL     OW30157   1.825   2.439   1.053 -0.3453  0.6677  0.2175
 6232SOL    HW130158   1.775   2.502   1.105  0.9685  2.7071 -0.9988
 6232SOL    HW230159   1.772   2.439   0.974 -1.8312 -0.7744  1.1945
 6233SOL     OW30160   1.611   3.522   0.562 -0.7010  0.4616 -0.3416
 6233SOL    HW130161   1.666   3.444   0.552  0.2336  0.8918  1.5856
 6233SOL    HW230162   1.659   3.581   0.503 -0.8983 -0.2293 -1.2043
 6234SOL     OW30163   3.990   2.716   4.683 -0.0939  0.0120 -0.1181
 6234SOL    HW130164   3.963   2.649   4.745 -0.5294 -1.3248 -1.7656
 6234SOL    HW230165   4.019   2.672   4.603  0.8012 -0.9796  0.7604
 6235SOL     OW30166   2.096   1.590   4.701 -0.2981 -0.1919  0.5284
 6235SOL    HW130167   2.093   1.509   4.751 -0.6999  0.9035  2.2533
 6235SOL    HW230168   2.171   1.573   4.643 -1.8034 -1.3392 -1.0876
 6236SOL     OW30169   1.783   0.206   6.616  0.1641  0.1677  0.2046
 6236SOL    HW130170   1.855   0.260   6.651 -0.2693  0.3957  0.7364
 6236SOL    HW230171   1.778   0.238   6.525  1.8067  0.9624  0.3770
 6237SOL     OW30172   0.748   4.124   7.401  0.2995 -0.0097 -0.4020
 6237SOL    HW130173   0.717   4.063   7.467  0.0828 -2.6574 -2.9774
 6237SOL    HW230174   0.689   4.197   7.423  2.7772  1.8281  0.1378
 6238SOL     OW30175   1.757   3.015  12.944  0.2959  0.0243 -0.1553
 6238SOL    HW130176   1.826   3.010  13.009  0.6704 -2.5902 -0.7471
 6238SOL    HW230177   1.772   2.930  12.902 -0.2852 -0.5294  0.7610
 6239SOL     OW30178   2.937   4.696   4.863 -0.2623  0.0876 -0.9374
 6239SOL    HW130179   2.953   4.609   4.826  0.7161  0.2723 -0.9437
 6239SOL    HW230180   2.967   4.663   4.948  2.0132 -1.4519 -2.3409
 6240SOL     OW30181   0.488   0.711   1.663  0.4129 -0.2341 -0.0237
 6240SOL    HW130182   0.453   0.799   1.648  0.9269 -0.2755 -1.4622
 6240SOL    HW230183   0.555   0.708   1.595  1.6058  0.3759  1.1268
 6241SOL     OW30184   0.931   0.013   7.641 -0.1945 -0.8161  0.1591
 6241SOL    HW130185   0.888   0.064   7.710  0.8029  0.7519 -0.3638
 6241SOL    HW230186   0.859   0.012   7.578  1.6784 -0.8630 -2.0010
 6242SOL     OW30187   4.624   0.187  15.569 -0.4381 -0.1344  0.0912
 6242SOL    HW130188   4.578   0.249  15.512 -0.3779 -0.3121 -0.1488
 6242SOL    HW230189   4.689   0.242  15.613  0.9720 -0.6853 -1.3125
 6243SOL     OW30190   1.216   2.609  10.063 -0.0880  0.4408  0.3429
 6243SOL    HW130191   1.177   2.542  10.120  1.5892 -0.7532  0.1046
 6243SOL    HW230192   1.189   2.687  10.111 -3.9077  0.0003 -1.0785
 6244SOL     OW30193   1.291   0.222  10.874 -0.5393 -0.2411  0.6012
 6244SOL    HW130194   1.257   0.239  10.962  0.1094  0.5596  0.6942
 6244SOL    HW230195   1.226   0.152  10.865  0.5700 -1.1088 -0.7084
 6245SOL     OW30196   3.918   4.340   7.780  0.5513  0.0899 -0.7301
 6245SOL    HW130197   4.005   4.333   7.821 -0.4600 -2.0830  1.0039
 6245SOL    HW230198   3.903   4.249   7.755 -3.8272  0.0802  1.9547
 6246SOL     OW30199   0.684   2.463   2.904 -0.7347 -0.3765  0.4199
 6246SOL    HW130200   0.684   2.502   2.816 -0.7852  0.9918  1.0219
 6246SOL    HW230201   0.591   2.443   2.917 -0.6388 -0.9970  0.1056
 6247SOL     OW30202   3.997   1.496   3.201 -0.2405 -0.8035 -0.4979
 6247SOL    HW130203   3.913   1.542   3.200  0.6513  0.7917 -1.2378
 6247SOL    HW230204   4.020   1.527   3.288  0.8255 -0.1258 -1.0250
 6248SOL     OW30205   3.298   0.164   6.346  0.1868 -0.3990 -0.6164
 6248SOL    HW130206   3.237   0.109   6.297  0.1602 -1.1837  0.3123
 6248SOL    HW230207   3.275   0.140   6.436  1.2378 -0.4017 -0.3379
 6249SOL     OW30208   1.530   0.375  11.044 -0.5557 -0.5325  0.7478
 6249SOL    HW130209   1.507   0.320  10.970  1.9463 -1.4706  0.6526
 6249SOL    HW230210   1.506   0.463  11.015 -0.0520 -0.6772 -0.1125
 6250SOL     OW30211   1.735   3.791   6.323 -0.0835 -0.1828 -0.0499
 6250SOL    HW130212   1.670   3.810   6.255  1.2974  1.8703 -0.8012
 6250SOL    HW230213   1.765   3.704   6.298  0.3876 -0.5756  1.9232
 6251SOL     OW30214   2.977   4.344  12.170  0.1747 -0.3446  0.0389
 6251SOL    HW130215   3.034   4.420  12.170  1.0220 -0.9846  2.5433
 6251SOL    HW230216   2.922   4.356  12.248  0.8207 -2.6112  0.8424
 6252SOL     OW30217   0.639   4.135  10.992  0.3443 -0.4491 -0.1379
 6252SOL    HW130218   0.658   4.194  11.064  2.9013 -2.9316  1.1804
 6252SOL    HW230219   0.725   4.096  10.977  0.5959 -0.8530  2.4798
 6253SOL     OW30220   3.364   3.361   0.372 -0.1877 -0.1857 -0.0533
 6253SOL    HW130221   3.305   3.400   0.307  0.9842 -0.4878 -1.2981
 6253SOL    HW230222   3.343   3.426   0.439 -2.4049  0.1385 -1.0651
 6254SOL     OW30223   3.249   3.019   8.560 -0.4547  0.0276 -0.1567
 6254SOL    HW130224   3.306   3.073   8.505 -0.4568 -0.5201 -0.6910
 6254SOL    HW230225   3.297   3.027   8.642 -1.8183  1.3617  0.5063
 6255SOL     OW30226   4.319   1.810  15.311  0.3159  0.3573  0.3221
 6255SOL    HW130227   4.232   1.795  15.275  0.6590  0.3870 -0.5153
 6255SOL    HW230228   4.364   1.725  15.313  0.5924  0.5080  0.7257
 6256SOL     OW30229   0.218   0.810  11.782 -0.9368 -0.4307 -0.0325
 6256SOL    HW130230   0.179   0.747  11.843 -0.9837 -2.1559 -1.8330
 6256SOL    HW230231   0.259   0.873  11.841 -1.3325 -1.7215  1.6309
 6257SOL     OW30232   1.056   2.800   8.412  0.7550  0.1219 -0.1339
 6257SOL    HW130233   1.074   2.756   8.329  0.3045 -0.3034 -0.0037
 6257SOL    HW230234   1.035   2.887   8.378  0.8128  0.3598  0.4456
 6258SOL     OW30235   2.951   3.048   3.480  0.3498 -0.3423 -0.0108
 6258SOL    HW130236   3.039   3.016   3.456 -0.0871 -0.8604 -0.9270
 6258SOL    HW230237   2.898   3.002   3.415 -0.5947  0.4858  0.1796
 6259SOL     OW30238   4.413   4.077   7.250  0.0854  0.0190 -0.3735
 6259SOL    HW130239   4.442   4.162   7.219 -1.2903 -0.3890 -2.7932
 6259SOL    HW230240   4.355   4.045   7.181  0.4088 -0.6128 -0.3510
 6260SOL     OW30241   0.653   0.120   8.338 -0.1651 -0.5789  0.7885
 6260SOL    HW130242   0.736   0.156   8.305 -1.7238 -1.1461 -3.7494
 6260SOL    HW230243   0.686   0.046   8.389 -1.4946 -1.2067  0.7268
 6261SOL     OW30244   1.210   3.013   5.067  0.9113  0.1327  0.0759
 6261SOL    HW130245   1.268   2.982   4.997  0.2574  0.1262 -0.4567
 6261SOL    HW230246   1.225   3.106   5.046 -0.8807  0.1665 -1.0408
 6262SOL     OW30247   1.890   3.546   1.569  0.1490  0.2845  0.4338
 6262SOL    HW130248   1.940   3.613   1.523  1.0661  0.5192  1.7821
 6262SOL    HW230249   1.855   3.595   1.643  0.8780  0.2670  0.7906
 6263SOL     OW30250   4.487   3.744   5.497  0.1984  0.4315 -0.2804
 6263SOL    HW130251   4.536   3.784   5.426 -2.3835  2.8726 -0.6625
 6263SOL    HW230252   4.544   3.674   5.530 -2.4354 -1.3394  0.4690
 6264SOL     OW30253   3.393   3.305  17.260  0.0830  0.4087  0.4277
 6264SOL    HW130254   3.382   3.310  17.165 -2.4450  1.9755  0.8104
 6264SOL    HW230255   3.345   3.225  17.282  1.1245 -0.0253  1.1608
 6265SOL     OW30256   0.540   1.045   0.372  0.0032  0.1070  0.5401
 6265SOL    HW130257   0.449   1.071   0.377  0.1778  0.5916  1.2140
 6265SOL    HW230258   0.534   0.969   0.315  1.1341  0.6998 -0.3708
 6266SOL     OW30259   0.193   1.824   5.717 -0.2140 -0.2723  0.1532
 6266SOL    HW130260   0.243   1.893   5.760  2.4245 -0.6780 -2.2109
 6266SOL    HW230261   0.109   1.829   5.763 -0.6394 -1.3220 -0.4961
 6267SOL     OW30262   3.765   3.667  14.117  0.7480 -0.6525  0.0082
 6267SOL    HW130263   3.670   3.657  14.107  0.3061  1.7350  1.9519
 6267SOL    HW230264   3.778   3.645  14.209  1.2962  1.9475  0.5258
 6268SOL     OW30265   1.173   3.196   2.289 -0.0670 -0.1047  0.2093
 6268SOL    HW130266   1.221   3.120   2.321 -1.9550 -1.2808  0.2151
 6268SOL    HW230267   1.136   3.159   2.209  2.3273  2.1177 -1.9084
 6269SOL     OW30268   2.968   3.384   8.178 -0.3002 -0.0214  0.1003
 6269SOL    HW130269   2.886   3.422   8.212 -0.4868  0.8264 -1.2675
 6269SOL    HW230270   3.004   3.364   8.264  1.8452 -2.1589 -1.3159
 6270SOL     OW30271   3.143   2.525   0.118 -0.0288 -0.1024  0.0358
 6270SOL    HW130272   3.117   2.443   0.159  1.5133 -1.1705 -1.1620
 6270SOL    HW230273   3.223   2.546   0.166 -0.0898 -0.0008  0.0936
 6271SOL     OW30274   4.418   3.910   3.503  0.6179 -0.0178 -0.2148
 6271SOL    HW130275   4.505   3.879   3.478 -0.4018 -1.2015 -2.3433
 6271SOL    HW230276   4.395   3.952   3.420  1.3251  2.0695  0.6474
 6272SOL     OW30277   2.429   4.278   2.409 -0.1264 -0.0251  0.1290
 6272SOL    HW130278   2.347   4.273   2.457  0.4208  1.9831  1.2921
 6272SOL    HW230279   2.493   4.241   2.470 -0.1019  1.4982  1.0244
 6273SOL     OW30280   3.252   1.271   7.188  0.4475  0.8615  0.4589
 6273SOL    HW130281   3.293   1.241   7.107 -1.8209  0.4474 -0.5120
 6273SOL    HW230282   3.167   1.228   7.182  0.3538  0.8173  2.1787
 6274SOL     OW30283   0.592   1.580  17.215  0.2228  0.8826 -0.3484
 6274SOL    HW130284   0.668   1.606  17.268 -0.0658 -2.3645  1.6589
 6274SOL    HW230285   0.524   1.556  17.278  1.1470 -1.7080 -0.3310
 6275SOL     OW30286   3.436   4.341  14.012  0.6788 -0.5688  0.4579
 6275SOL    HW130287   3.451   4.399  13.938  2.3649 -1.2441  0.2777
 6275SOL    HW230288   3.381   4.277  13.967 -1.1179  1.3640 -0.0746
 6276SOL     OW30289   4.558   3.848   7.283  0.0123  0.2122 -0.5053
 6276SOL    HW130290   4.609   3.844   7.202 -0.1535 -0.0071 -0.5980
 6276SOL    HW230291   4.506   3.929   7.277  1.3209  1.2678  2.2520
 6277SOL     OW30292   4.285   2.596  16.921 -1.1017 -0.3438  0.4179
 6277SOL    HW130293   4.314   2.668  16.977 -0.1103 -0.0781 -0.4333
 6277SOL    HW230294   4.271   2.650  16.843  0.9716  1.4075  1.2789
 6278SOL     OW30295   2.766   2.911  15.396  0.3701 -0.3101  0.1957
 6278SOL    HW130296   2.790   2.978  15.460 -1.8646 -1.1925  1.9759
 6278SOL    HW230297   2.685   2.957  15.371 -0.1632 -0.5087  1.5391
 6279SOL     OW30298   4.566   0.532  16.706 -0.2075  0.0793 -0.0091
 6279SOL    HW130299   4.634   0.574  16.758  1.0111 -0.8378 -0.8746
 6279SOL    HW230300   4.603   0.444  16.703 -0.6611 -0.1135  0.0382
 6280SOL     OW30301   1.277   3.758   1.110  0.0712  0.2014  0.0164
 6280SOL    HW130302   1.341   3.687   1.104  1.0867  1.1442 -0.4443
 6280SOL    HW230303   1.194   3.711   1.119 -0.5165  1.1382 -0.5080
 6281SOL     OW30304   4.228   4.354   0.070 -0.3597  0.1393  0.3608
 6281SOL    HW130305   4.207   4.262   0.053 -1.8883  0.5332  0.0981
 6281SOL    HW230306   4.213   4.349   0.164 -0.9202 -3.3013  0.0830
 6282SOL     OW30307   1.040   0.555   1.842 -0.1037 -0.1407  0.0192
 6282SOL    HW130308   1.084   0.640   1.843 -1.3874  0.5232  0.4224
 6282SOL    HW230309   0.963   0.579   1.894  1.5897  3.0719  1.0333
 6283SOL     OW30310   2.745   2.912   3.332 -0.2956  0.6171  1.1341
 6283SOL    HW130311   2.672   2.854   3.353 -0.9964  1.3536  0.7035
 6283SOL    HW230312   2.707   2.971   3.268  0.1869 -0.7087 -0.3618
 6284SOL     OW30313   0.876   2.445   3.707  0.3741 -0.2871  0.0570
 6284SOL    HW130314   0.782   2.457   3.715  0.3194 -0.5624 -0.1763
 6284SOL    HW230315   0.894   2.351   3.697  0.1482 -0.1864 -1.3507
 6285SOL     OW30316   1.476   1.212  10.205  0.7659  0.9604  0.0779
 6285SOL    HW130317   1.427   1.130  10.194  1.2546  0.8907 -1.6120
 6285SOL    HW230318   1.433   1.266  10.138  0.4081  1.2959  0.5748
 6286SOL     OW30319   3.453   4.385   2.281 -0.0157 -0.4243 -0.0446
 6286SOL    HW130320   3.379   4.325   2.295 -0.9969  0.8988  0.4670
 6286SOL    HW230321   3.506   4.335   2.219 -0.6590  0.4892 -1.3469
 6287SOL     OW30322   3.814   3.380   5.848 -0.5538  0.2022 -0.2107
 6287SOL    HW130323   3.774   3.455   5.804  0.2409 -0.7210 -2.4970
 6287SOL    HW230324   3.772   3.385   5.934 -0.7757 -1.6885 -0.2219
 6288SOL     OW30325   0.066   1.216   5.280  0.7653  0.1808 -0.6591
 6288SOL    HW130326   0.138   1.274   5.258  2.2708 -2.1365 -1.9358
 6288SOL    HW230327   4.717   1.277   5.304  0.9617 -0.3546  1.2967
 6289SOL     OW30328   0.402   3.520   3.441  0.0668 -0.7368 -0.7757
 6289SOL    HW130329   0.387   3.444   3.385  0.8165 -1.0283 -0.5875
 6289SOL    HW230330   0.344   3.507   3.516 -1.1589 -0.0350 -1.6079
 6290SOL     OW30331   3.459   2.233   5.811 -0.4875 -0.1859 -0.4775
 6290SOL    HW130332   3.397   2.205   5.744 -0.1241  0.6575 -1.1555
 6290SOL    HW230333   3.415   2.312   5.842 -0.8301 -0.6367  0.1866
 6291SOL     OW30334   0.799   2.976   7.017 -0.0002  0.1728  0.0113
 6291SOL    HW130335   0.852   2.897   7.007  0.6025  0.2946  2.2725
 6291SOL    HW230336   0.757   2.981   6.930  0.2388  2.1217  0.0142
 6292SOL     OW30337   3.236   3.158   6.393 -0.1048  0.5668 -0.2474
 6292SOL    HW130338   3.312   3.189   6.343 -1.0966 -1.0494 -2.7269
 6292SOL    HW230339   3.165   3.214   6.363 -0.5451  0.0894 -0.0901
 6293SOL     OW30340   0.842   3.260   4.238  0.4582 -0.5600  0.1088
 6293SOL    HW130341   0.764   3.241   4.186 -0.3458  0.7212  0.8545
 6293SOL    HW230342   0.846   3.354   4.224  0.0908 -0.5769 -0.1138
 6294SOL     OW30343   0.627   0.920  14.369  0.2386 -0.1673 -0.2945
 6294SOL    HW130344   0.551   0.868  14.396 -1.0812  2.0489  0.1964
 6294SOL    HW230345   0.638   0.893  14.278  1.0122  2.2608 -0.9017
 6295SOL     OW30346   3.725   3.907   9.150  0.2911 -0.2066  0.6028
 6295SOL    HW130347   3.746   3.821   9.185  1.7978  0.8284  2.2245
 6295SOL    HW230348   3.641   3.924   9.193  1.0592 -0.8423  2.3428
 6296SOL     OW30349   2.508   0.215   8.727 -0.1903  0.2121 -1.1584
 6296SOL    HW130350   2.421   0.177   8.711 -0.1444 -0.8497  1.2132
 6296SOL    HW230351   2.557   0.181   8.652  1.9047 -0.0458  0.3542
 6297SOL     OW30352   1.521   3.158   2.864  0.2795  0.0334 -0.2474
 6297SOL    HW130353   1.501   3.247   2.894  0.4696 -0.2657  0.7605
 6297SOL    HW230354   1.616   3.159   2.869  0.1533  3.1808  2.2897
 6298SOL     OW30355   2.992   1.816  11.138  0.0852  0.3623 -0.0150
 6298SOL    HW130356   3.006   1.783  11.050  0.4833 -1.1854  0.6284
 6298SOL    HW230357   2.897   1.822  11.138  0.1543  1.6368 -3.2136
 6299SOL     OW30358   1.026   3.824  13.431  0.0623 -0.8390 -0.1217
 6299SOL    HW130359   1.046   3.906  13.477  1.5695 -1.3069  0.0409
 6299SOL    HW230360   1.110   3.811  13.387  1.9824 -2.2202  3.9617
 6300SOL     OW30361   1.410   1.425   9.485  0.0776  0.0217  0.0737
 6300SOL    HW130362   1.497   1.392   9.463 -0.0282 -0.7484  0.8082
 6300SOL    HW230363   1.419   1.464   9.572  0.2351 -1.1635  0.5951
 6301SOL     OW30364   4.328   2.631   8.398 -0.0858 -0.4349 -0.1835
 6301SOL    HW130365   4.371   2.591   8.474  1.0388  0.5392 -0.3055
 6301SOL    HW230366   4.245   2.587   8.380  0.6789 -1.6399 -0.7411
 6302SOL     OW30367   1.009   3.190   0.845 -0.2106 -0.2100  0.2508
 6302SOL    HW130368   1.054   3.129   0.786  0.5327  1.0771 -0.5134
 6302SOL    HW230369   0.970   3.254   0.785 -0.2787  0.3393  0.8859
 6303SOL     OW30370   0.611   0.002   2.306  0.5105 -0.4810  0.4245
 6303SOL    HW130371   0.584   0.047   2.387 -0.6847 -2.1132  0.9211
 6303SOL    HW230372   0.571   0.054   2.237  1.4725  2.9366  2.4245
 6304SOL     OW30373   0.201   2.986   4.920 -0.1602  0.3623  0.2485
 6304SOL    HW130374   0.217   2.920   4.853  0.9966  0.3018  0.5959
 6304SOL    HW230375   0.175   2.929   4.993 -0.9204 -0.9038 -1.0180
 6305SOL     OW30376   4.685   1.882  16.582 -0.1477  0.4946 -0.3846
 6305SOL    HW130377   4.699   1.972  16.552 -2.5277  0.9912 -0.0234
 6305SOL    HW230378   0.029   1.877  16.653 -0.4428 -1.8811 -0.2687
 6306SOL     OW30379   1.294   2.959   3.581 -0.0854  0.5333  0.7005
 6306SOL    HW130380   1.369   3.009   3.614 -0.9303  0.9787  1.9659
 6306SOL    HW230381   1.324   2.869   3.566 -1.7063  0.3371 -1.2570
 6307SOL     OW30382   1.003   4.199   4.722  0.1738 -0.0994 -0.3706
 6307SOL    HW130383   1.049   4.191   4.638 -1.2301 -0.0703 -1.1281
 6307SOL    HW230384   0.933   4.259   4.698  0.6749  0.6274 -0.0116
 6308SOL     OW30385   2.455   3.111  10.943  0.4974 -0.8364  0.0114
 6308SOL    HW130386   2.487   3.159  10.866  1.5645 -0.1042  0.9102
 6308SOL    HW230387   2.534   3.094  10.994  0.8699 -0.7325 -0.5359
 6309SOL     OW30388   1.436   0.938   7.416  0.2894  0.0402  0.3516
 6309SOL    HW130389   1.352   0.970   7.449  0.6485  0.2336  1.0784
 6309SOL    HW230390   1.411   0.903   7.331  0.0998 -0.1064  0.4664
 6310SOL     OW30391   2.282   4.008   2.883 -0.4721  0.2150  0.1534
 6310SOL    HW130392   2.369   4.044   2.900 -0.6035 -0.2912  1.8852
 6310SOL    HW230393   2.313   3.930   2.837  0.4343 -0.6258  2.1703
 6311SOL     OW30394   3.861   3.363   7.280 -0.0259 -0.2807  0.1146
 6311SOL    HW130395   3.773   3.396   7.261  0.3363  0.8668  0.4491
 6311SOL    HW230396   3.855   3.363   7.376  0.2056 -0.0273  0.1265
 6312SOL     OW30397   2.139   2.938  10.209  0.1216 -0.0434  0.4021
 6312SOL    HW130398   2.061   2.941  10.263  0.4569  0.9684  0.8133
 6312SOL    HW230399   2.108   2.975  10.126  2.1014  0.6937 -0.0102
 6313SOL     OW30400   2.131   0.164   5.690 -0.6699  0.3439 -0.5410
 6313SOL    HW130401   2.194   0.234   5.706  0.8801 -1.2614  0.3419
 6313SOL    HW230402   2.049   0.213   5.685 -0.8075  0.4153  2.0841
 6314SOL     OW30403   1.633   2.639   1.090  0.4299  0.4757 -0.0280
 6314SOL    HW130404   1.617   2.665   1.180  1.0127 -0.9836  0.5052
 6314SOL    HW230405   1.556   2.583   1.088  0.3471  0.5963 -0.2993
 6315SOL     OW30406   0.721   1.773   9.520  0.0313 -0.2985 -0.0868
 6315SOL    HW130407   0.796   1.724   9.552 -0.7666 -1.5371 -0.1082
 6315SOL    HW230408   0.654   1.705   9.513  2.0852 -2.0607 -2.0610
 6316SOL     OW30409   2.085   2.852   5.724 -0.5074 -0.3424 -0.6430
 6316SOL    HW130410   2.007   2.889   5.766  0.7360 -1.5309  2.7532
 6316SOL    HW230411   2.053   2.791   5.658  0.2194 -2.4820  1.0179
 6317SOL     OW30412   0.040   3.288  13.679  0.4139  0.1947  0.5023
 6317SOL    HW130413   0.121   3.322  13.640 -0.0817 -0.8379 -1.4458
 6317SOL    HW230414   0.026   3.213  13.620 -0.6500  0.9504 -0.1999
 6318SOL     OW30415   2.355   2.769  10.188  0.3792  0.3758  0.2247
 6318SOL    HW130416   2.275   2.822  10.194  0.5894  0.7191  0.0075
 6318SOL    HW230417   2.340   2.717  10.267 -0.6857 -2.1466 -1.6121
 6319SOL     OW30418   3.531   1.363  15.044  0.3153 -0.4606 -0.2594
 6319SOL    HW130419   3.578   1.334  15.123 -0.2579 -0.3986  0.0991
 6319SOL    HW230420   3.488   1.442  15.075  0.1276 -0.2563 -1.0662
 6320SOL     OW30421   4.587   0.685   9.249  0.7589 -0.3325  0.2796
 6320SOL    HW130422   4.618   0.734   9.174 -2.2266  1.1218  0.0056
 6320SOL    HW230423   4.501   0.666   9.211  0.4323  1.5822  0.0556
 6321SOL     OW30424   1.554   3.166   6.597  0.5034 -0.1380 -0.5584
 6321SOL    HW130425   1.632   3.185   6.650 -0.0267  0.5775 -0.0444
 6321SOL    HW230426   1.500   3.116   6.658  0.1419 -0.4715 -1.1597
 6322SOL     OW30427   1.249   4.653   6.397 -0.4407  0.0933 -0.1818
 6322SOL    HW130428   1.263   4.667   6.491 -0.5958 -2.2930  0.1921
 6322SOL    HW230429   1.344   4.655   6.384 -0.8592 -1.9893 -3.5843
 6323SOL     OW30430   3.580   1.680  16.360  0.4778 -0.2175  0.1258
 6323SOL    HW130431   3.578   1.588  16.388  0.3371 -0.4833 -0.7642
 6323SOL    HW230432   3.541   1.721  16.438 -2.3272  0.0729 -1.4126
 6324SOL     OW30433   2.670   3.472  10.679  0.0847 -0.1259 -0.2589
 6324SOL    HW130434   2.759   3.481  10.645 -0.1603  0.2541 -0.7960
 6324SOL    HW230435   2.671   3.535  10.751 -2.6136  0.0018 -0.3359
 6325SOL     OW30436   4.521   2.517   1.896 -0.2100 -0.1494 -0.1169
 6325SOL    HW130437   4.564   2.528   1.980 -2.0493  0.2538  0.7737
 6325SOL    HW230438   4.563   2.435   1.869  1.1335  0.0768  1.3369
 6326SOL     OW30439   4.571   1.458   7.002  0.3115  0.2471 -0.4763
 6326SOL    HW130440   4.534   1.370   6.992 -2.9051  1.1772  2.8645
 6326SOL    HW230441   4.608   1.454   6.914  2.9064  2.3483  0.5205
 6327SOL     OW30442   3.244   4.253  13.844  0.6469 -0.5624 -0.0726
 6327SOL    HW130443   3.255   4.205  13.762 -2.0726  1.2504 -1.4891
 6327SOL    HW230444   3.275   4.340  13.819 -1.1567 -0.5598 -2.2360
 6328SOL     OW30445   0.603   0.058   3.490  0.2208  0.0370  0.1570
 6328SOL    HW130446   0.588   0.150   3.470 -2.9562 -0.6290 -0.4693
 6328SOL    HW230447   0.663   0.032   3.420  0.0261 -0.8367  0.3063
 6329SOL     OW30448   0.976   2.817   2.738 -0.0560  0.6166 -0.1434
 6329SOL    HW130449   0.977   2.912   2.725 -0.1351  0.8972  1.9666
 6329SOL    HW230450   1.051   2.817   2.797  1.1652 -0.6486 -1.7155
 6330SOL     OW30451   3.031   2.559   6.910  0.4578 -0.3032  0.9108
 6330SOL    HW130452   2.965   2.591   6.971 -0.9322  2.3685 -1.9875
 6330SOL    HW230453   3.076   2.483   6.947  0.5268 -0.4625  0.4957
 6331SOL     OW30454   2.650   1.435  11.153 -0.4837 -0.4127  0.2395
 6331SOL    HW130455   2.601   1.357  11.129  0.1082 -0.6079 -0.3416
 6331SOL    HW230456   2.739   1.404  11.174 -0.4466 -1.3805 -1.3659
 6332SOL     OW30457   0.607   3.896   5.665 -0.1273  0.3807  0.0908
 6332SOL    HW130458   0.645   3.853   5.589 -1.6870  0.5434 -0.7657
 6332SOL    HW230459   0.533   3.943   5.626  0.0841 -1.5607 -2.5852
 6333SOL     OW30460   4.678   2.534   4.268  0.1666 -0.2831 -0.0618
 6333SOL    HW130461   4.697   2.526   4.175  1.0595  0.3098  0.0699
 6333SOL    HW230462   4.592   2.494   4.271  0.8448 -1.6256  1.7126
 6334SOL     OW30463   1.347   2.135   4.557 -0.0111  0.4988  0.5044
 6334SOL    HW130464   1.331   2.228   4.541 -0.1624  0.5314  0.8368
 6334SOL    HW230465   1.434   2.131   4.519  0.2702  2.6587  0.9187
 6335SOL     OW30466   2.297   3.312  11.335 -0.0196 -0.4086  0.4878
 6335SOL    HW130467   2.310   3.360  11.416 -0.5197 -1.4096  1.1634
 6335SOL    HW230468   2.201   3.305  11.337  0.0652 -1.3365  0.8677
 6336SOL     OW30469   1.584   3.201  16.752  0.6304 -0.2398  0.2792
 6336SOL    HW130470   1.545   3.180  16.667  0.1993 -0.4732  0.5309
 6336SOL    HW230471   1.550   3.125  16.799 -2.6108  1.4330  0.6420
 6337SOL     OW30472   1.767   1.961   5.802  0.1511 -0.2492  0.0736
 6337SOL    HW130473   1.737   1.887   5.855  3.3871 -0.4066  1.7340
 6337SOL    HW230474   1.691   2.018   5.809  0.7532  0.4224  1.2365
 6338SOL     OW30475   1.602   0.121   7.912  0.1612 -0.4416 -0.1710
 6338SOL    HW130476   1.673   0.102   7.973  1.6205  2.0259 -1.0984
 6338SOL    HW230477   1.568   0.035   7.887  0.6426 -1.2550  1.9817
 6339SOL     OW30478   2.816   2.030   7.798 -0.0081 -0.6021  0.6844
 6339SOL    HW130479   2.900   2.046   7.840 -0.1882  2.0456  0.0348
 6339SOL    HW230480   2.840   1.967   7.730  0.6850  1.4180 -0.9124
 6340SOL     OW30481   2.546   0.383  15.131  0.3903 -0.3902  0.4648
 6340SOL    HW130482   2.635   0.410  15.106 -0.4244 -0.2335 -2.2657
 6340SOL    HW230483   2.518   0.460  15.180 -0.4227 -0.9305  0.8271
 6341SOL     OW30484   1.322   0.858   3.498  0.0813  0.1950  0.4612
 6341SOL    HW130485   1.258   0.788   3.485  2.0539 -1.6665  0.7394
 6341SOL    HW230486   1.282   0.939   3.468 -0.6559 -0.1156  0.6008
 6342SOL     OW30487   1.713   0.533  12.042 -0.5422  1.4163 -0.3278
 6342SOL    HW130488   1.747   0.446  12.020  0.2333  1.3604  1.0983
 6342SOL    HW230489   1.641   0.514  11.982 -0.3821  0.5866 -0.2604
 6343SOL     OW30490   3.169   4.679  16.569 -0.4159 -0.3711 -0.3712
 6343SOL    HW130491   3.123   4.693  16.651  0.2435 -0.8186  0.0836
 6343SOL    HW230492   3.135   4.593  16.543 -0.7198 -0.7660  1.3749
 6344SOL     OW30493   0.835   1.903   2.864 -0.4096 -0.2384  0.1950
 6344SOL    HW130494   0.755   1.854   2.844 -0.6694 -1.0027  3.0480
 6344SOL    HW230495   0.866   1.840   2.929 -0.8171  0.8626  1.4786
 6345SOL     OW30496   0.072   1.661   7.593  0.2683 -0.5385 -0.1202
 6345SOL    HW130497   4.717   1.602   7.605 -2.2480  2.4537 -1.1772
 6345SOL    HW230498   0.066   1.722   7.666 -0.0978 -2.3535  1.3739
 6346SOL     OW30499   1.457   3.692   5.536  0.8262 -0.2616 -0.5929
 6346SOL    HW130500   1.405   3.731   5.466  0.0691  1.1771  0.7779
 6346SOL    HW230501   1.544   3.709   5.500  1.9448 -1.4129  1.5263
 6347SOL     OW30502   2.390   2.877   1.488  0.1009 -0.1265 -0.7846
 6347SOL    HW130503   2.430   2.807   1.437  0.5440  0.0247 -0.6415
 6347SOL    HW230504   2.318   2.836   1.535 -0.7141  1.2039 -0.8724
 6348SOL     OW30505   4.455   2.149  12.977  0.0847  0.1054 -0.3367
 6348SOL    HW130506   4.535   2.127  13.026  1.4968  0.2502 -2.5952
 6348SOL    HW230507   4.494   2.160  12.891 -1.5314  1.7783 -0.8471
 6349SOL     OW30508   3.625   0.908   7.768 -0.2667 -0.0642 -0.1592
 6349SOL    HW130509   3.583   0.994   7.773 -0.0876  0.0243 -0.1874
 6349SOL    HW230510   3.580   0.880   7.689 -1.3669  2.0409 -0.2828
 6350SOL     OW30511   3.890   1.120  14.728  0.7238  0.6004  0.5134
 6350SOL    HW130512   3.887   1.194  14.667  2.7755  1.0095  0.9053
 6350SOL    HW230513   3.812   1.072  14.700 -0.3101  2.0661  0.8551
 6351SOL     OW30514   0.062   4.194   6.873  0.1715 -0.0893 -0.2072
 6351SOL    HW130515   0.156   4.195   6.854  0.1414  1.4163 -0.2646
 6351SOL    HW230516   0.055   4.283   6.907 -0.5346 -1.0036  2.0411
 6352SOL     OW30517   1.277   1.965   3.054 -0.7197 -0.2135 -0.3416
 6352SOL    HW130518   1.334   2.010   3.117  0.5201 -1.3793 -0.6201
 6352SOL    HW230519   1.268   1.884   3.104 -0.7655  0.6431  1.0302
 6353SOL     OW30520   1.933   1.025  15.174  0.5959 -0.3323 -0.0302
 6353SOL    HW130521   1.996   1.094  15.194 -1.3987  1.3105  0.5556
 6353SOL    HW230522   1.935   1.036  15.079  0.4419 -1.3669 -0.1457
 6354SOL     OW30523   4.561   2.851   9.424  0.0081  0.4780  0.2215
 6354SOL    HW130524   4.546   2.834   9.332 -0.0656 -1.4984  0.5958
 6354SOL    HW230525   4.520   2.937   9.422  1.5237  1.1440 -2.3469
 6355SOL     OW30526   0.951   3.386  11.442 -0.2265  0.0138  0.7874
 6355SOL    HW130527   1.018   3.368  11.376 -1.4486 -0.0550 -0.4274
 6355SOL    HW230528   0.916   3.468  11.408  0.5908 -0.4869 -1.2616
 6356SOL     OW30529   1.591   4.048   7.436 -0.2029 -0.2854  0.9001
 6356SOL    HW130530   1.625   4.021   7.521  0.1141  1.0331  1.1867
 6356SOL    HW230531   1.583   3.965   7.389  0.7894 -0.9772  1.9562
 6357SOL     OW30532   2.164   3.251   6.617  0.4379  0.0065 -0.3302
 6357SOL    HW130533   2.186   3.234   6.525  1.7656 -2.6852  0.4897
 6357SOL    HW230534   2.238   3.205   6.657  0.8603  1.8851  1.0675
 6358SOL     OW30535   1.916   4.015   5.521 -0.1315 -0.1053 -0.1105
 6358SOL    HW130536   1.987   4.050   5.574 -2.0241  2.1415  0.9218
 6358SOL    HW230537   1.965   3.946   5.476  1.3454  0.6285  0.4051
 6359SOL     OW30538   4.344   3.751   4.454 -1.1361  0.1436  0.3780
 6359SOL    HW130539   4.421   3.805   4.435  0.0868 -1.0883  1.8893
 6359SOL    HW230540   4.302   3.758   4.368  0.1986  0.1781 -0.2697
 6360SOL     OW30541   4.122   2.369   5.248  0.2627  0.1069 -0.2669
 6360SOL    HW130542   4.192   2.330   5.196  0.6504  1.4808 -0.7624
 6360SOL    HW230543   4.149   2.460   5.261  1.4263 -0.3966  0.9328
 6361SOL     OW30544   2.588   2.419   0.121 -0.0314  0.1962 -0.1902
 6361SOL    HW130545   2.644   2.495   0.107 -0.9471  0.4139 -2.7003
 6361SOL    HW230546   2.519   2.462   0.171 -0.6112 -0.5065 -0.3812
 6362SOL     OW30547   3.471   0.238   5.522  0.2332  0.4894 -0.5332
 6362SOL    HW130548   3.464   0.286   5.604 -1.9093 -1.1548  0.2562
 6362SOL    HW230549   3.404   0.281   5.468 -0.6986 -0.6119 -0.2783
 6363SOL     OW30550   4.201   0.719   4.679 -0.6420  0.1944  0.3467
 6363SOL    HW130551   4.144   0.697   4.605 -0.4590 -1.6723  0.7769
 6363SOL    HW230552   4.129   0.758   4.728  0.9088  3.1809  0.2220
 6364SOL     OW30553   2.774   3.395  15.616  0.3898 -0.3907 -0.2112
 6364SOL    HW130554   2.734   3.479  15.639 -1.6884 -0.9270 -1.8446
 6364SOL    HW230555   2.865   3.424  15.612 -0.0251  0.9434  0.1233
 6365SOL     OW30556   4.286   2.213  16.749 -0.2343 -0.0915  0.1512
 6365SOL    HW130557   4.259   2.246  16.835  2.1819  0.8093  0.5528
 6365SOL    HW230558   4.253   2.279  16.688 -1.2794 -2.7361 -2.1100
 6366SOL     OW30559   2.654   0.095   8.518  0.5578 -0.1583  0.1965
 6366SOL    HW130560   2.643   0.140   8.434  1.1707 -1.9282 -0.8344
 6366SOL    HW230561   2.590   0.025   8.510 -0.1016  0.5829 -1.1071
 6367SOL     OW30562   3.411   0.556   5.186 -0.2294 -0.0232 -0.2495
 6367SOL    HW130563   3.337   0.510   5.224  0.2216 -1.0268 -0.5921
 6367SOL    HW230564   3.479   0.530   5.248 -1.0057  1.5450  1.2636
 6368SOL     OW30565   3.062   3.543   6.450  1.0210  0.0799  0.0680
 6368SOL    HW130566   3.115   3.587   6.383 -0.8723  0.5176 -1.1522
 6368SOL    HW230567   2.995   3.507   6.392  0.5975  0.4410  0.3417
 6369SOL     OW30568   1.079   3.308   7.843  0.5082  0.0482  0.0994
 6369SOL    HW130569   1.024   3.261   7.906 -0.1932 -1.1093 -1.3747
 6369SOL    HW230570   1.013   3.323   7.776 -0.7331  0.4593  1.4136
 6370SOL     OW30571   0.878   4.696   6.086 -0.4352  0.6300  0.1228
 6370SOL    HW130572   0.810   4.643   6.127 -0.1917 -0.1454 -0.4669
 6370SOL    HW230573   0.946   4.666   6.146  0.3186 -2.2280 -2.1625
 6371SOL     OW30574   1.689   1.416   5.106  0.1005 -0.1705  0.4093
 6371SOL    HW130575   1.623   1.485   5.093 -0.4841 -0.9761 -0.9298
 6371SOL    HW230576   1.754   1.460   5.161 -0.0914  2.4450 -1.4867
 6372SOL     OW30577   0.559   3.326   8.996 -0.3626 -0.0757 -0.2357
 6372SOL    HW130578   0.608   3.340   9.078 -2.3218  0.0534  0.9018
 6372SOL    HW230579   0.473   3.299   9.027 -0.2356 -0.3035 -0.0787
 6373SOL     OW30580   4.586   3.820   4.675 -0.0460  0.4073  0.2346
 6373SOL    HW130581   4.669   3.777   4.696  0.2298 -0.1712 -2.0976
 6373SOL    HW230582   4.590   3.816   4.580 -1.7361  1.1936  0.1279
 6374SOL     OW30583   1.335   1.267   5.130 -0.7625  0.5326 -0.8124
 6374SOL    HW130584   1.412   1.253   5.075 -0.2852 -0.2727  0.0502
 6374SOL    HW230585   1.351   1.347   5.180 -0.9439  0.6426 -0.9323
 6375SOL     OW30586   2.500   0.592   5.787  0.1115  0.5126 -0.0439
 6375SOL    HW130587   2.580   0.548   5.818  1.3804  0.7361 -2.9290
 6375SOL    HW230588   2.509   0.665   5.847  0.6147  0.1329  0.3509
 6376SOL     OW30589   4.365   1.017   2.061  0.2326 -0.1989 -0.0671
 6376SOL    HW130590   4.313   1.095   2.041 -1.6161 -1.1718  0.8372
 6376SOL    HW230591   4.335   1.017   2.152  1.9557  0.9726  0.4939
 6377SOL     OW30592   3.790   1.323   1.056 -0.0955  0.0127 -0.0338
 6377SOL    HW130593   3.862   1.386   1.056  0.9307 -1.1464  1.8816
 6377SOL    HW230594   3.806   1.273   1.136  1.1444  0.9329  0.2883
 6378SOL     OW30595   3.717   2.777  16.281  0.2898  0.5372  0.4648
 6378SOL    HW130596   3.684   2.689  16.261 -0.9486  1.0218  0.3782
 6378SOL    HW230597   3.642   2.815  16.328 -0.7563 -1.8134  0.7230
 6379SOL     OW30598   2.027   0.427   6.974 -0.2963  0.1630  0.3930
 6379SOL    HW130599   1.954   0.378   7.013  1.6152 -0.5389  3.0487
 6379SOL    HW230600   1.989   0.514   6.988  0.2532  0.6650 -1.2696
 6380SOL     OW30601   0.169   0.568   9.011  0.0456 -0.0648 -0.2321
 6380SOL    HW130602   0.220   0.488   9.021 -1.6178 -0.7005  3.1059
 6380SOL    HW230603   0.086   0.526   8.990  0.5072 -2.0464  1.9151
 6381SOL     OW30604   3.827   4.234   2.825 -0.2879 -0.1044  0.3897
 6381SOL    HW130605   3.860   4.286   2.752 -1.0009  0.9220  0.7883
 6381SOL    HW230606   3.879   4.157   2.803  1.3967  1.3930 -0.7918
 6382SOL     OW30607   4.391   2.681   7.448 -0.3997  0.2274 -0.2454
 6382SOL    HW130608   4.470   2.663   7.396 -2.6953 -0.6280 -3.4617
 6382SOL    HW230609   4.367   2.592   7.475 -0.4696  0.2643 -0.1880
 6383SOL     OW30610   0.830   3.543  16.663 -0.4739 -0.4028  0.0156
 6383SOL    HW130611   0.868   3.616  16.616  0.3806  0.1079  1.5039
 6383SOL    HW230612   0.747   3.545  16.615 -0.0793 -0.0319 -0.6438
 6384SOL     OW30613   2.583   1.550   7.777  0.2733  0.1010 -0.3030
 6384SOL    HW130614   2.638   1.619   7.813  2.5879 -1.6242 -0.5168
 6384SOL    HW230615   2.507   1.598   7.744 -0.7461  0.3946  2.4792
 6385SOL     OW30616   4.144   0.280   9.207 -0.2692  0.0896  0.5095
 6385SOL    HW130617   4.216   0.247   9.153 -0.9040 -0.6874  0.1404
 6385SOL    HW230618   4.095   0.336   9.146 -2.7250 -1.5551  0.9812
 6386SOL     OW30619   1.975   2.306   7.204 -0.2684  0.1000  0.0543
 6386SOL    HW130620   1.889   2.348   7.198  0.9480  2.4910 -0.7132
 6386SOL    HW230621   2.025   2.377   7.245  0.8282 -0.5205 -0.2247
 6387SOL     OW30622   3.323   0.332  10.779  0.4157  0.0698  0.0127
 6387SOL    HW130623   3.304   0.423  10.800  2.7125  0.1792  1.5299
 6387SOL    HW230624   3.291   0.289  10.858  0.0447  1.7171  0.7552
 6388SOL     OW30625   1.031   2.262   4.593  0.5353 -0.3779 -0.1689
 6388SOL    HW130626   1.026   2.189   4.532  0.4190 -0.1884 -0.3854
 6388SOL    HW230627   1.117   2.297   4.569  1.1401 -1.6666  0.1250
 6389SOL     OW30628   0.672   0.128  13.245  0.2128 -0.2146 -0.3390
 6389SOL    HW130629   0.707   0.178  13.172  0.8824  2.5805  1.8900
 6389SOL    HW230630   0.752   0.099  13.288 -0.3647  0.7350  1.3820
 6390SOL     OW30631   1.526   1.989   7.620  0.3360  0.4176 -0.2183
 6390SOL    HW130632   1.579   2.014   7.696  3.3290 -2.0811 -1.4728
 6390SOL    HW230633   1.525   1.895   7.638  3.5945  0.2895 -0.8008
 6391SOL     OW30634   2.786   1.441   2.684 -0.3648 -0.3875 -0.0780
 6391SOL    HW130635   2.874   1.476   2.700 -0.0939 -2.0627  2.1302
 6391SOL    HW230636   2.807   1.383   2.611  0.4558 -0.3803  0.1484
 6392SOL     OW30637   1.137   3.931  16.924  0.4687  0.5675 -0.4502
 6392SOL    HW130638   1.075   3.919  16.853 -1.9154 -0.9301  1.8922
 6392SOL    HW230639   1.077   3.971  16.987  0.8732  1.2972 -0.5208
 6393SOL     OW30640   3.942   0.311   5.685 -0.0606 -0.1447  0.0357
 6393SOL    HW130641   4.004   0.242   5.659  0.7694  1.3654 -2.0224
 6393SOL    HW230642   3.856   0.271   5.671 -0.6198  0.8302  0.6712
 6394SOL     OW30643   0.355   2.658  14.920 -0.3136 -1.1052 -0.0055
 6394SOL    HW130644   0.378   2.689  15.008 -0.1950  1.4616 -0.9415
 6394SOL    HW230645   0.332   2.733  14.866  0.4289 -0.6335  0.3353
 6395SOL     OW30646   2.054   0.833   5.146 -0.0044 -0.4780  0.3708
 6395SOL    HW130647   2.143   0.864   5.136 -0.1846  0.8242  2.7604
 6395SOL    HW230648   2.003   0.913   5.163 -0.2062 -0.4265 -0.4605
 6396SOL     OW30649   4.589   3.378   4.426 -0.3173  0.3903 -0.1502
 6396SOL    HW130650   4.609   3.307   4.365 -0.4014 -0.1510  0.4415
 6396SOL    HW230651   4.671   3.405   4.467  0.2172  0.9748 -1.6143
 6397SOL     OW30652   3.655   0.946   7.408  0.3574 -0.0220  0.4865
 6397SOL    HW130653   3.620   0.867   7.449  0.1640  0.7810  1.8998
 6397SOL    HW230654   3.589   1.012   7.431 -1.2431 -1.7625  0.9154
 6398SOL     OW30655   2.733   0.635  12.005 -0.3949 -0.4467  0.1910
 6398SOL    HW130656   2.802   0.599  11.948 -1.8509 -2.1280 -0.4938
 6398SOL    HW230657   2.789   0.657  12.079  2.1426  0.3483 -1.9480
 6399SOL     OW30658   0.436   3.004   4.324 -0.2290  0.1984  0.2066
 6399SOL    HW130659   0.467   3.094   4.320 -1.2793  0.7072  3.3250
 6399SOL    HW230660   0.387   3.006   4.406 -0.1493  0.0820  0.2578
 6400SOL     OW30661   3.754   4.692   3.961  0.3741 -0.2235 -1.2828
 6400SOL    HW130662   3.812   4.637   3.908  1.8393 -0.4822  0.5938
 6400SOL    HW230663   3.681   4.682   3.900 -0.3452  1.6265 -0.7151
 6401SOL     OW30664   0.976   3.307   1.763 -0.6066  0.0767  0.1119
 6401SOL    HW130665   0.981   3.403   1.757  1.6732 -0.0008  1.0326
 6401SOL    HW230666   1.029   3.281   1.688  1.7908  0.6815  1.5988
 6402SOL     OW30667   2.480   2.785  11.482 -0.2811  0.0168 -0.2119
 6402SOL    HW130668   2.515   2.811  11.567 -2.5110 -0.9255  0.9862
 6402SOL    HW230669   2.520   2.860  11.438 -0.3817  1.2879  1.8587
 6403SOL     OW30670   2.951   0.769   4.427  0.9771 -0.4350  0.3108
 6403SOL    HW130671   3.008   0.781   4.351 -0.6901  0.3610 -0.8074
 6403SOL    HW230672   3.016   0.794   4.493  2.5169 -0.4245 -1.2076
 6404SOL     OW30673   3.141   1.143  14.429 -0.1870 -0.1905  0.0719
 6404SOL    HW130674   3.155   1.237  14.437 -0.2286 -0.2836  1.2058
 6404SOL    HW230675   3.218   1.123  14.377  0.9999  1.6075  1.1386
 6405SOL     OW30676   3.185   0.576   2.360  0.0428  0.0159 -0.1628
 6405SOL    HW130677   3.199   0.570   2.455 -2.0291 -0.3809  0.1335
 6405SOL    HW230678   3.254   0.635   2.331 -0.6054  0.3596 -0.9985
 6406SOL     OW30679   3.267   1.681  12.575 -0.1204 -0.3111  0.2344
 6406SOL    HW130680   3.303   1.766  12.600 -1.9456  0.1849  1.2359
 6406SOL    HW230681   3.241   1.694  12.484 -2.1801 -0.9052  0.7206
 6407SOL     OW30682   0.512   1.008   3.406  0.2202 -0.3432  0.0367
 6407SOL    HW130683   0.539   1.014   3.315  1.5633 -0.6678  0.4261
 6407SOL    HW230684   0.577   1.060   3.453 -0.7849  1.6579 -0.8004
 6408SOL     OW30685   1.275   0.015  17.280  0.1412  0.0702  0.2915
 6408SOL    HW130686   1.258   4.665  17.216  0.1148 -1.1700  1.6584
 6408SOL    HW230687   1.276   4.681  17.359  0.2273  0.3757  0.4987
 6409SOL     OW30688   0.186   0.891   3.085 -0.0927  0.0145  0.5991
 6409SOL    HW130689   0.262   0.852   3.043 -1.0944  0.2658 -1.4653
 6409SOL    HW230690   0.168   0.948   3.009  0.8937 -1.6146 -0.8411
 6410SOL     OW30691   2.026   1.667   2.348 -0.0845  0.6256 -0.8657
 6410SOL    HW130692   2.105   1.630   2.386  1.0967  1.1265 -2.8320
 6410SOL    HW230693   1.980   1.583   2.343  2.5976 -1.1018  4.0391
 6411SOL     OW30694   0.762   4.070   3.747  0.5142  0.5234  0.9414
 6411SOL    HW130695   0.728   4.043   3.662 -0.4247  1.4797  1.0089
 6411SOL    HW230696   0.724   4.158   3.751  0.1474  0.4265 -0.5842
 6412SOL     OW30697   0.142   3.880   7.407  0.3711  0.2952  0.2456
 6412SOL    HW130698   0.234   3.887   7.380  0.9859 -2.8190  1.4962
 6412SOL    HW230699   0.133   3.792   7.369  0.1648  0.7840 -0.8295
 6413SOL     OW30700   2.781   4.192   5.322 -0.2695 -0.1657 -0.7507
 6413SOL    HW130701   2.738   4.259   5.375  0.6362  0.1092 -0.3687
 6413SOL    HW230702   2.797   4.129   5.392  0.8548  0.7346 -0.2155
 6414SOL     OW30703   2.994   1.520   3.949 -0.5181 -0.5585  0.5028
 6414SOL    HW130704   3.060   1.553   4.010 -0.6476  0.4020  0.1265
 6414SOL    HW230705   2.963   1.437   3.983  0.9297 -1.8959 -1.4338
 6415SOL     OW30706   0.821   3.799  12.824 -0.3828  0.0036 -0.0215
 6415SOL    HW130707   0.738   3.775  12.783  0.7251 -0.9075 -1.7753
 6415SOL    HW230708   0.838   3.728  12.886  0.0292  0.0465 -0.0847
 6416SOL     OW30709   3.514   4.291   5.588  0.1735  0.1142 -0.7830
 6416SOL    HW130710   3.530   4.370   5.640  0.4716  1.0519 -2.2963
 6416SOL    HW230711   3.449   4.329   5.530 -0.8047 -0.0395  0.2133
 6417SOL     OW30712   1.485   0.183   7.517  0.3326  0.4767 -0.0018
 6417SOL    HW130713   1.439   0.233   7.585  0.7072 -0.4636  0.9452
 6417SOL    HW230714   1.445   0.238   7.450 -0.5616 -1.0996 -0.7518
 6418SOL     OW30715   3.069   1.162   3.227  0.0791  0.3158 -0.1139
 6418SOL    HW130716   3.076   1.244   3.275  0.2571  0.1454  0.1526
 6418SOL    HW230717   2.979   1.143   3.253 -0.1842  0.1960 -1.1035
 6419SOL     OW30718   2.039   0.181   8.558 -0.1018  0.1611  0.0603
 6419SOL    HW130719   1.949   0.182   8.524 -0.3511 -0.8368  0.6953
 6419SOL    HW230720   2.033   0.096   8.601 -0.4616  1.6803  2.9851
 6420SOL     OW30721   0.544   1.934   3.050  0.4767 -0.0900  0.0758
 6420SOL    HW130722   0.475   1.999   3.036  0.1810 -0.7944 -1.7256
 6420SOL    HW230723   0.623   1.982   3.026 -0.4900  0.2249 -2.4562
 6421SOL     OW30724   3.824   3.953   5.267 -0.1147 -0.1536  0.0705
 6421SOL    HW130725   3.755   4.007   5.305 -0.1843 -0.7509  0.7956
 6421SOL    HW230726   3.868   3.923   5.347  0.5710 -0.5831 -0.4654
 6422SOL     OW30727   1.821   0.612   9.522 -0.1401  0.2706 -0.1207
 6422SOL    HW130728   1.899   0.668   9.522  0.5887 -0.7425  1.1779
 6422SOL    HW230729   1.778   0.653   9.597  0.3455  0.3117  0.1364
 6423SOL     OW30730   2.237   1.267   4.070 -0.1173  0.3858 -0.5715
 6423SOL    HW130731   2.267   1.345   4.023 -1.7856  1.6835  0.5321
 6423SOL    HW230732   2.201   1.219   3.996 -0.9462 -1.0027  0.7301
 6424SOL     OW30733   4.065   2.830   6.013 -0.4353 -0.3560  0.7070
 6424SOL    HW130734   4.057   2.907   6.070  1.4071  0.6633 -0.4291
 6424SOL    HW230735   3.985   2.842   5.962  0.1689 -0.9723 -0.3795
 6425SOL     OW30736   0.104   1.603   5.927 -0.2471 -0.3445 -0.7680
 6425SOL    HW130737   0.068   1.666   5.866  0.2276  1.9811  1.3753
 6425SOL    HW230738   0.133   1.661   5.998 -0.0410 -0.2513 -0.9296
 6426SOL     OW30739   1.253   0.945   6.273 -0.3761 -0.4467 -0.0128
 6426SOL    HW130740   1.247   0.853   6.301  4.9605 -1.6127 -2.5956
 6426SOL    HW230741   1.338   0.976   6.304 -0.0569 -1.0441 -0.2886
 6427SOL     OW30742   4.222   0.837   3.075  0.1758  0.7609  0.0058
 6427SOL    HW130743   4.127   0.833   3.074  0.1631  1.0691  0.1462
 6427SOL    HW230744   4.224   0.877   3.162  0.1700  2.4913 -0.7964
 6428SOL     OW30745   1.339   1.463   3.783 -0.0126  0.3442  0.5817
 6428SOL    HW130746   1.366   1.434   3.695 -1.3004 -0.2425  0.3809
 6428SOL    HW230747   1.375   1.389   3.833 -2.0911 -1.1001 -0.0367
 6429SOL     OW30748   0.682   3.631   5.709  0.3646 -0.2287  0.4555
 6429SOL    HW130749   0.619   3.596   5.646  1.5747  0.5296 -1.1562
 6429SOL    HW230750   0.667   3.725   5.711 -1.7877 -0.5599  0.4458
 6430SOL     OW30751   0.040   1.884   5.405  0.3337 -0.3008  0.2330
 6430SOL    HW130752   0.123   1.870   5.360  0.1002  0.7780 -0.5304
 6430SOL    HW230753   0.048   1.977   5.425 -1.3815  0.0567 -0.7102
 6431SOL     OW30754   1.287   1.963   7.946  0.4365 -0.4075 -0.2366
 6431SOL    HW130755   1.272   2.058   7.945 -1.4553 -0.7256 -1.3887
 6431SOL    HW230756   1.197   1.942   7.971  0.1551  0.4268 -0.5374
 6432SOL     OW30757   0.603   3.265   3.475 -0.5945  0.3243  0.1978
 6432SOL    HW130758   0.605   3.258   3.379  1.2140 -0.1814  0.2701
 6432SOL    HW230759   0.636   3.178   3.496  0.3088  0.6302  0.0555
 6433SOL     OW30760   1.828   2.022  11.889  0.0751  0.1510 -0.0780
 6433SOL    HW130761   1.777   2.082  11.943  0.2675 -0.6298  0.9602
 6433SOL    HW230762   1.765   1.950  11.883  0.4284 -0.0649 -1.4144
 6434SOL     OW30763   4.315   2.527   1.653  0.0124 -0.2451 -0.0758
 6434SOL    HW130764   4.351   2.471   1.722  0.4386 -0.1933 -0.2619
 6434SOL    HW230765   4.347   2.611   1.684  1.5317 -2.0928  3.3922
 6435SOL     OW30766   2.097   2.504  10.063 -0.1779  0.0650  0.4539
 6435SOL    HW130767   2.041   2.581  10.068  1.6158  1.4102 -0.2292
 6435SOL    HW230768   2.042   2.430  10.089 -2.8505  1.2573 -1.8327
 6436SOL     OW30769   4.289   0.552   3.392  0.5572  0.1822 -0.1992
 6436SOL    HW130770   4.241   0.478   3.429  1.6648 -0.2165  0.4614
 6436SOL    HW230771   4.235   0.624   3.425  0.9805  0.4710 -0.1244
 6437SOL     OW30772   3.686   0.323  11.458  0.6797 -0.3035  0.0412
 6437SOL    HW130773   3.700   0.255  11.392  1.0163  1.4335 -1.7227
 6437SOL    HW230774   3.736   0.391  11.412 -1.6573  1.1237 -0.4017
 6438SOL     OW30775   4.088   4.363  11.560  0.1348  0.0026  0.9361
 6438SOL    HW130776   4.130   4.389  11.479 -0.5698  1.0882  0.9283
 6438SOL    HW230777   4.147   4.292  11.588 -2.0600 -1.2719  2.3416
 6439SOL     OW30778   1.279   2.400  11.249 -0.2329 -0.1692  0.2702
 6439SOL    HW130779   1.364   2.434  11.223 -0.5647  1.7022  1.6056
 6439SOL    HW230780   1.250   2.455  11.322  0.3523  0.9750 -0.3507
 6440SOL     OW30781   0.496   1.128   3.693  0.2911 -0.4390  0.4528
 6440SOL    HW130782   0.538   1.205   3.731 -0.5792  0.0389  0.4404
 6440SOL    HW230783   0.567   1.065   3.703 -1.1116 -2.1096 -0.0585
 6441SOL     OW30784   1.393   2.270   7.308  0.3877 -0.9980 -0.2595
 6441SOL    HW130785   1.436   2.234   7.386  1.7031  1.8196  0.3257
 6441SOL    HW230786   1.446   2.227   7.241  0.6604  0.5224 -1.0230
 6442SOL     OW30787   2.560   3.213   7.609 -0.4638  0.4433  0.9012
 6442SOL    HW130788   2.617   3.137   7.609 -3.3579 -1.7571  1.7201
 6442SOL    HW230789   2.628   3.272   7.639 -1.4519  0.7460  2.5476
 6443SOL     OW30790   1.165   2.274  17.023 -0.2708 -0.0766 -0.3816
 6443SOL    HW130791   1.232   2.270  17.092 -1.0390 -2.7225  0.2099
 6443SOL    HW230792   1.205   2.335  16.961  2.6731  0.2307  1.8095
 6444SOL     OW30793   0.822   1.036   3.402  0.3784  0.1325 -0.2338
 6444SOL    HW130794   0.874   1.008   3.326 -0.9868 -0.5887 -0.9142
 6444SOL    HW230795   0.870   0.997   3.475 -0.3767 -0.4210 -0.0287
 6445SOL     OW30796   3.279   2.653  15.447 -0.2276  0.1550 -0.1309
 6445SOL    HW130797   3.188   2.653  15.477 -0.2395 -0.6765 -0.1824
 6445SOL    HW230798   3.273   2.680  15.355 -1.3603  1.5616  0.3484
 6446SOL     OW30799   2.006   1.289   3.595 -0.2223  0.1394 -0.0763
 6446SOL    HW130800   2.059   1.362   3.565 -0.5771  0.3691 -0.1356
 6446SOL    HW230801   2.050   1.283   3.680  0.0946 -2.8266 -0.4269
 6447SOL     OW30802   3.644   0.605  16.073  0.1475  0.2019  0.2782
 6447SOL    HW130803   3.707   0.675  16.090  0.7990 -0.7975  1.9720
 6447SOL    HW230804   3.656   0.550  16.150 -0.5200 -0.7208 -0.2695
 6448SOL     OW30805   0.322   0.653   4.112 -0.8692 -0.7492  0.0040
 6448SOL    HW130806   0.300   0.737   4.071  0.6958  0.3109  1.3374
 6448SOL    HW230807   0.274   0.648   4.195  2.2898  0.6452  1.8880
 6449SOL     OW30808   2.702   1.725   6.823  0.1736 -0.1259  0.5773
 6449SOL    HW130809   2.729   1.769   6.903  0.0693  1.0489 -0.0393
 6449SOL    HW230810   2.770   1.743   6.758  1.2691 -1.7983  1.2614
 6450SOL     OW30811   4.237   1.744   3.957  0.6693 -0.2088 -0.1987
 6450SOL    HW130812   4.160   1.692   3.933 -0.2641  1.0344  0.1168
 6450SOL    HW230813   4.302   1.681   3.926  0.8180 -2.6306  5.0420
 6451SOL     OW30814   0.462   2.491   4.727 -0.0827 -0.1933 -0.1952
 6451SOL    HW130815   0.430   2.465   4.641 -0.3137 -2.0654  0.4546
 6451SOL    HW230816   0.530   2.558   4.719 -1.1164  0.8488 -0.1959
 6452SOL     OW30817   3.491   2.618   9.425 -0.7420 -0.1348  0.0021
 6452SOL    HW130818   3.571   2.647   9.470 -0.6511 -2.3653  1.2633
 6452SOL    HW230819   3.522   2.603   9.335 -0.8690 -1.8513  0.2500
 6453SOL     OW30820   2.748   0.966   2.536 -0.1595 -0.0078  0.3768
 6453SOL    HW130821   2.794   0.906   2.594  1.8842 -0.4399 -1.6823
 6453SOL    HW230822   2.743   0.916   2.454 -1.0529  0.7020 -0.0004
 6454SOL     OW30823   2.790   1.898   7.009 -0.2318 -0.2058 -0.3145
 6454SOL    HW130824   2.729   1.954   7.057  0.3428  0.6071 -0.5274
 6454SOL    HW230825   2.837   1.957   6.950  0.5670 -0.3424  0.1750
 6455SOL     OW30826   1.184   3.137   7.104 -0.5560 -0.2880  0.4706
 6455SOL    HW130827   1.262   3.186   7.081 -0.5036 -0.7881 -0.4196
 6455SOL    HW230828   1.186   3.137   7.200  0.5790 -0.7513  0.4420
 6456SOL     OW30829   2.311   0.371   5.779  0.2543  0.2614  0.6804
 6456SOL    HW130830   2.354   0.456   5.779  1.3133 -0.2755  1.6579
 6456SOL    HW230831   2.379   0.303   5.783  0.1856  0.2636  1.9101
 6457SOL     OW30832   2.317   1.686  13.285 -0.4126 -0.3142 -0.1287
 6457SOL    HW130833   2.310   1.781  13.286  0.3391 -0.2528 -1.4411
 6457SOL    HW230834   2.349   1.674  13.374  0.5451  0.1180 -0.4232
 6458SOL     OW30835   2.404   2.200   6.880  0.0429  0.2537 -0.1234
 6458SOL    HW130836   2.319   2.162   6.862  0.3394  0.4799 -1.9775
 6458SOL    HW230837   2.464   2.133   6.847 -0.7410 -0.2794 -0.4486
 6459SOL     OW30838   4.379   1.552   3.823  0.2286  0.4744 -0.3571
 6459SOL    HW130839   4.474   1.542   3.815  0.1006 -0.6074 -0.6106
 6459SOL    HW230840   4.350   1.547   3.731  1.6926  0.3810 -0.8059
 6460SOL     OW30841   4.632   2.070   2.926  0.5756 -0.4475 -0.1661
 6460SOL    HW130842   4.581   1.991   2.907 -1.5135  1.2842 -1.7422
 6460SOL    HW230843   4.566   2.136   2.906  0.1173 -0.1299  2.2981
 6461SOL     OW30844   0.775   1.992  11.982 -0.5263 -0.0766 -0.2282
 6461SOL    HW130845   0.834   1.918  11.967  2.0766  1.8767  0.4428
 6461SOL    HW230846   0.713   1.967  11.913 -3.0393  0.3005  1.9235
 6462SOL     OW30847   1.219   1.695  13.459 -0.0047 -0.2704  0.1580
 6462SOL    HW130848   1.151   1.636  13.425  1.1636 -0.8755 -1.1137
 6462SOL    HW230849   1.213   1.761  13.391  0.7618  0.0877  0.4415
 6463SOL     OW30850   2.551   0.356  15.967  0.4683 -0.1756 -0.0302
 6463SOL    HW130851   2.566   0.262  15.963  0.0985 -0.2177 -0.4898
 6463SOL    HW230852   2.459   0.359  15.996  0.8581  0.8097  1.0763
 6464SOL     OW30853   2.913   4.462   2.677 -0.0726 -0.2882  0.3730
 6464SOL    HW130854   2.836   4.493   2.725 -0.2190 -1.9981  1.2385
 6464SOL    HW230855   2.958   4.547   2.672 -2.9652  1.2543  0.3296
 6465SOL     OW30856   0.913   0.339   9.640  0.6274  0.3189  0.2688
 6465SOL    HW130857   0.832   0.347   9.591 -0.6634 -2.0373  1.9984
 6465SOL    HW230858   0.895   0.400   9.712 -1.7140  0.4590 -0.4530
 6466SOL     OW30859   3.616   0.666   5.369 -0.3844  0.4409 -0.1714
 6466SOL    HW130860   3.658   0.659   5.283  0.2012  0.8773  0.0774
 6466SOL    HW230861   3.668   0.719   5.429 -0.2310 -0.2272  0.2965
 6467SOL     OW30862   4.121   2.791   1.938 -0.2507 -0.1738  0.3712
 6467SOL    HW130863   4.094   2.744   1.860  0.2084  1.0088 -0.4972
 6467SOL    HW230864   4.150   2.725   2.001  1.4757 -2.2262 -2.5803
 6468SOL     OW30865   0.090   1.959   6.897 -0.1355  0.1381  0.0610
 6468SOL    HW130866   0.148   1.972   6.972 -1.4381  0.0028  1.0860
 6468SOL    HW230867   0.047   2.044   6.894 -1.5286 -0.4912  2.6699
 6469SOL     OW30868   2.696   3.436   8.243  0.0613  0.0328 -0.1349
 6469SOL    HW130869   2.661   3.524   8.238 -1.0334 -0.3997  0.0046
 6469SOL    HW230870   2.625   3.391   8.289 -0.7537 -0.8267 -2.2285
 6470SOL     OW30871   2.004   4.142   0.028  0.7073  0.4075  0.2485
 6470SOL    HW130872   1.976   4.178  17.626 -2.3905  2.0533  2.0129
 6470SOL    HW230873   2.096   4.167   0.019  1.0889 -1.2735 -0.6002
 6471SOL     OW30874   0.746   1.061   8.291  0.0628 -0.1652  0.0905
 6471SOL    HW130875   0.816   1.096   8.347  1.0184  2.2610 -2.6483
 6471SOL    HW230876   0.794   1.048   8.209 -2.4672  0.5593 -1.4943
 6472SOL     OW30877   4.618   1.693  13.626 -0.1154 -0.2970  0.1151
 6472SOL    HW130878   4.705   1.725  13.602  0.0430  0.0356  1.0986
 6472SOL    HW230879   4.634   1.665  13.716 -0.0936  0.6094  0.3915
 6473SOL     OW30880   1.720   0.142  15.454  0.1268  0.4698  0.3760
 6473SOL    HW130881   1.759   0.056  15.438  1.4505  1.1339  0.0425
 6473SOL    HW230882   1.644   0.134  15.397  0.0068  1.3522  0.4134
 6474SOL     OW30883   3.328   2.638   9.793  0.0760  0.3316 -0.3058
 6474SOL    HW130884   3.237   2.652   9.765  0.9389  2.4290 -2.0443
 6474SOL    HW230885   3.309   2.602   9.879  1.3945 -1.6761 -0.8647
 6475SOL     OW30886   2.468   3.899   6.155 -0.3503  0.3949  0.0648
 6475SOL    HW130887   2.427   3.817   6.181  1.2380 -0.3953  0.0655
 6475SOL    HW230888   2.480   3.881   6.062 -0.0616  1.0270 -0.0182
 6476SOL     OW30889   1.351   0.803   3.782  0.1151 -0.1284 -0.2384
 6476SOL    HW130890   1.369   0.805   3.689  0.9065 -3.0390 -0.1332
 6476SOL    HW230891   1.323   0.712   3.795  1.6727 -0.1571  3.0870
 6477SOL     OW30892   0.602   4.382  10.478 -0.0707 -0.7856  0.3691
 6477SOL    HW130893   0.583   4.448  10.545  1.4038 -1.2425  1.2403
 6477SOL    HW230894   0.516   4.342  10.472 -0.8385  0.9720 -0.4146
 6478SOL     OW30895   4.684   0.568   8.061 -0.1143  1.1889 -0.0681
 6478SOL    HW130896   4.596   0.584   8.097 -0.0705  1.7694 -0.2152
 6478SOL    HW230897   4.711   0.660   8.072  0.3404  0.8325  1.8494
 6479SOL     OW30898   0.848   1.252  16.988  0.7742 -0.0710 -0.5834
 6479SOL    HW130899   0.802   1.233  17.070  0.1132 -0.2510 -1.0001
 6479SOL    HW230900   0.862   1.344  17.009  1.2880 -0.5063  0.9820
 6480SOL     OW30901   3.695   1.132   5.316  0.3193 -0.1617  0.7143
 6480SOL    HW130902   3.638   1.101   5.245  0.0601 -1.1570  1.3667
 6480SOL    HW230903   3.635   1.120   5.389 -0.0517 -2.4770  0.0327
 6481SOL     OW30904   3.890   1.878   8.175  0.0664 -0.5400 -0.4076
 6481SOL    HW130905   3.846   1.810   8.123 -3.0293  0.2698  1.1892
 6481SOL    HW230906   3.841   1.870   8.257 -1.0286 -0.2799 -1.0261
 6482SOL     OW30907   1.403   3.029   6.812 -1.1113  0.0728 -1.2736
 6482SOL    HW130908   1.312   2.999   6.816 -0.7824 -0.6174  0.8900
 6482SOL    HW230909   1.417   3.065   6.899 -1.5658 -1.1638 -0.6882
 6483SOL     OW30910   1.189   3.575   3.639 -0.0089  0.5938  0.5009
 6483SOL    HW130911   1.199   3.653   3.586 -0.8953  0.8817  0.7606
 6483SOL    HW230912   1.201   3.615   3.725  0.9240  0.5177  0.4144
 6484SOL     OW30913   3.911   3.853  12.955 -0.1905  0.4632  0.1938
 6484SOL    HW130914   3.846   3.783  12.964 -0.9050  0.9327 -1.3756
 6484SOL    HW230915   3.986   3.796  12.938 -1.0457 -0.3400 -0.9161
 6485SOL     OW30916   1.738   3.285   7.476 -0.1402  0.1876 -0.1222
 6485SOL    HW130917   1.749   3.375   7.505 -0.9454 -0.6460  2.7674
 6485SOL    HW230918   1.653   3.289   7.431 -0.2730 -0.4327  0.0648
 6486SOL     OW30919   3.387   4.344  14.526 -0.0283 -0.6802 -0.6109
 6486SOL    HW130920   3.311   4.399  14.543  0.5198 -0.4495  1.0712
 6486SOL    HW230921   3.384   4.340  14.430 -0.5596 -1.0172 -0.5776
 6487SOL     OW30922   1.607   4.398   9.229 -0.1076  0.1641 -0.4955
 6487SOL    HW130923   1.516   4.371   9.220 -0.3727  1.6324 -2.3755
 6487SOL    HW230924   1.634   4.339   9.299 -0.8467  0.8742  0.3848
 6488SOL     OW30925   0.595   0.045   1.194  0.5918  0.5193  0.0057
 6488SOL    HW130926   0.503   0.060   1.214 -0.1093 -3.0714 -0.4907
 6488SOL    HW230927   0.600   0.027   1.100  1.9891  0.4529  0.0911
 6489SOL     OW30928   1.563   4.008   5.317 -0.3707 -0.0711  0.2546
 6489SOL    HW130929   1.495   4.068   5.286 -0.4299 -1.2228 -1.8672
 6489SOL    HW230930   1.566   4.019   5.412 -0.4560 -0.2592  0.2801
 6490SOL     OW30931   2.629   3.573  16.602  0.0580  0.0109  0.0916
 6490SOL    HW130932   2.615   3.478  16.598  2.2800 -0.3263  0.1970
 6490SOL    HW230933   2.608   3.601  16.512 -1.9035 -1.5967  0.0488
 6491SOL     OW30934   1.363   3.724   6.909  0.4718  0.2333 -0.0940
 6491SOL    HW130935   1.433   3.756   6.852  1.0514 -1.8997 -0.5845
 6491SOL    HW230936   1.390   3.765   6.991  0.8889 -1.3500  0.5483
 6492SOL     OW30937   0.615   4.597   3.202 -0.8956 -0.2632  0.4173
 6492SOL    HW130938   0.580   4.684   3.183 -2.9425 -0.7134  2.0451
 6492SOL    HW230939   0.540   4.542   3.225 -0.9707 -1.3752 -2.4871
 6493SOL     OW30940   4.375   1.906   0.418 -0.2624  0.3422  0.1566
 6493SOL    HW130941   4.282   1.885   0.420 -0.2903  0.3541 -0.7643
 6493SOL    HW230942   4.415   1.821   0.400  1.2522  1.2116 -0.6217
 6494SOL     OW30943   3.238   0.127   1.838  0.2720  0.4199  0.6324
 6494SOL    HW130944   3.232   0.070   1.915 -1.3255  0.2639  0.4099
 6494SOL    HW230945   3.165   0.088   1.789  0.9925 -2.6805  1.9766
 6495SOL     OW30946   1.161   1.227  12.876 -0.7064 -0.4415  0.0341
 6495SOL    HW130947   1.232   1.193  12.929 -0.2881 -2.0955 -1.5833
 6495SOL    HW230948   1.186   1.202  12.787  1.2727 -1.5772  0.9258
 6496SOL     OW30949   1.977   2.922  11.265 -0.4588 -0.2595  0.2782
 6496SOL    HW130950   1.928   2.889  11.189 -0.6830 -0.0122  0.3154
 6496SOL    HW230951   2.065   2.925  11.227  1.1797  1.3066  4.1337
 6497SOL     OW30952   2.688   1.479  11.759  0.1515  0.1028 -0.0912
 6497SOL    HW130953   2.667   1.557  11.709  0.2550 -1.8520 -3.1647
 6497SOL    HW230954   2.606   1.431  11.745 -1.3555  2.3332  1.1133
 6498SOL     OW30955   4.437   1.350   0.770 -0.1154  0.4724 -0.3604
 6498SOL    HW130956   4.445   1.343   0.674  0.3980  2.6160 -0.4849
 6498SOL    HW230957   4.363   1.410   0.780 -0.4208 -0.3212  2.0213
 6499SOL     OW30958   1.357   1.404   1.732  0.0783  0.3048  0.3453
 6499SOL    HW130959   1.327   1.485   1.774 -0.7733 -0.3851  1.0862
 6499SOL    HW230960   1.372   1.344   1.806 -0.4973 -1.0264 -0.6263
 6500SOL     OW30961   0.790   1.174   7.828 -0.3399 -0.2059  0.0141
 6500SOL    HW130962   0.717   1.113   7.815 -0.1474 -0.6408  0.9747
 6500SOL    HW230963   0.812   1.192   7.737 -0.3487 -2.4080 -0.4019
 6501SOL     OW30964   2.827   0.461   8.609 -0.1079 -0.1661  0.0642
 6501SOL    HW130965   2.845   0.555   8.619  2.5486 -0.7078  0.2654
 6501SOL    HW230966   2.901   0.436   8.553  1.1922  1.4000  1.0728
 6502SOL     OW30967   0.976   1.512   9.995 -0.1015 -0.2019  0.1399
 6502SOL    HW130968   0.971   1.417   9.980 -0.3561  0.1062 -1.7373
 6502SOL    HW230969   1.048   1.511  10.058  1.4806 -2.1946 -1.7148
 6503SOL     OW30970   0.332   3.779  11.417  0.3438  0.1760  0.3246
 6503SOL    HW130971   0.323   3.683  11.419  1.5910  0.0070 -2.0500
 6503SOL    HW230972   0.264   3.786  11.351  1.2228  0.4649 -0.5521
 6504SOL     OW30973   0.639   1.959   2.264 -0.5626 -0.0528  0.5764
 6504SOL    HW130974   0.545   1.940   2.265 -0.9919  1.9808 -1.0091
 6504SOL    HW230975   0.665   1.896   2.332 -2.2891 -0.8880  0.4449
 6505SOL     OW30976   2.144   3.590   5.327  0.4307 -0.0451 -0.0494
 6505SOL    HW130977   2.089   3.538   5.385 -0.2455  0.1649 -0.5029
 6505SOL    HW230978   2.144   3.536   5.248  1.6633  4.9627 -3.4817
 6506SOL     OW30979   2.275   1.570   7.170  0.1140  0.0139  0.1329
 6506SOL    HW130980   2.226   1.619   7.104  0.6018  2.4322  1.5731
 6506SOL    HW230981   2.248   1.613   7.251 -0.5692  0.7463 -0.4803
 6507SOL     OW30982   0.216   0.796   7.977  0.5472 -0.7352 -0.5161
 6507SOL    HW130983   0.137   0.837   8.013  0.4989 -0.5704 -0.8082
 6507SOL    HW230984   0.283   0.854   8.012  0.9994 -1.8828  0.5014
 6508SOL     OW30985   3.519   2.634   3.888  0.4619  0.4440  0.2372
 6508SOL    HW130986   3.474   2.607   3.808 -0.5059  1.0967  0.5509
 6508SOL    HW230987   3.441   2.640   3.944 -0.3562 -0.1786 -0.8363
 6509SOL     OW30988   0.564   4.488   7.733 -0.5398  0.2620 -0.1263
 6509SOL    HW130989   0.608   4.552   7.677 -0.2574  0.2027  0.0231
 6509SOL    HW230990   0.551   4.421   7.665 -0.8705 -1.1676  1.3450
 6510SOL     OW30991   3.033   1.722   0.342  0.3680 -0.0924  0.3470
 6510SOL    HW130992   3.027   1.818   0.340  0.1650 -0.0948  0.6514
 6510SOL    HW230993   2.984   1.704   0.262 -1.6310  1.3939  1.2347
 6511SOL     OW30994   2.027   1.551   8.031 -0.1301 -0.2868 -0.2822
 6511SOL    HW130995   2.077   1.627   8.000 -1.1071  0.4041 -0.1768
 6511SOL    HW230996   1.939   1.577   8.001 -0.4707  2.3954  3.0349
 6512SOL     OW30997   0.371   0.720   5.954 -0.1929 -0.0643 -0.0145
 6512SOL    HW130998   0.392   0.736   6.045 -1.3723 -1.0414  0.4425
 6512SOL    HW230999   0.453   0.693   5.913 -0.2430 -0.1862 -0.0364
 6513SOL     OW31000   1.186   4.030   9.259 -0.0637  0.3619  0.1424
 6513SOL    HW131001   1.160   4.020   9.350 -0.3778 -0.5906 -0.0475
 6513SOL    HW231002   1.252   3.961   9.248  0.9413  1.2190  0.7851
 6514SOL     OW31003   4.238   1.546   0.765  0.1438 -0.1106 -0.4578
 6514SOL    HW131004   4.249   1.604   0.840 -1.0028  1.6469 -1.6186
 6514SOL    HW231005   4.244   1.615   0.698  0.0224  1.7380  1.4565
 6515SOL     OW31006   0.197   3.566   5.399 -0.1581 -0.0837 -0.1148
 6515SOL    HW131007   0.140   3.508   5.350  0.0086  0.5267 -1.0218
 6515SOL    HW231008   0.144   3.589   5.475 -0.4256 -2.8045  0.5053
 6516SOL     OW31009   3.852   4.266   3.670 -0.1076  0.0941  0.2230
 6516SOL    HW131010   3.786   4.258   3.739  0.3623 -1.2029  0.5276
 6516SOL    HW231011   3.929   4.258   3.726 -1.1763 -0.5965  1.5802
 6517SOL     OW31012   1.513   0.262   6.698  0.7708  0.3769 -0.1359
 6517SOL    HW131013   1.603   0.248   6.666  0.4758 -0.1306 -0.7376
 6517SOL    HW231014   1.457   0.286   6.625 -0.5841  2.2680  1.5101
 6518SOL     OW31015   0.538   0.898   4.642  0.1556  0.8577  0.4750
 6518SOL    HW131016   0.594   0.931   4.712  1.0872 -1.0994  0.6653
 6518SOL    HW231017   0.453   0.890   4.685 -0.2087 -1.0939 -0.6198
 6519SOL     OW31018   3.895   2.393  11.148 -0.0091 -0.2745  0.0946
 6519SOL    HW131019   3.947   2.437  11.082  0.9779 -0.9072  0.4407
 6519SOL    HW231020   3.897   2.307  11.106 -0.8309 -1.6239  2.7607
 6520SOL     OW31021   1.199   3.916   9.517 -0.4348  0.1677  0.3561
 6520SOL    HW131022   1.116   3.928   9.564 -0.7139  0.1149 -0.1315
 6520SOL    HW231023   1.234   4.005   9.527 -1.4339  0.4732  1.1036
 6521SOL     OW31024   3.773   0.906  14.156 -0.1622 -0.0283  0.3596
 6521SOL    HW131025   3.768   0.824  14.207 -0.1687  0.8439  1.7560
 6521SOL    HW231026   3.681   0.917  14.131 -0.0640  1.1731  0.5436
 6522SOL     OW31027   1.090   2.326   6.287  0.2227  0.2244  0.7409
 6522SOL    HW131028   1.042   2.272   6.223  1.5897  0.2008 -0.2555
 6522SOL    HW231029   1.137   2.252   6.325 -0.5491 -0.6523  0.0152
 6523SOL     OW31030   2.834   3.807  15.848 -0.2022  0.6080  0.0075
 6523SOL    HW131031   2.818   3.878  15.911  1.1338 -0.3594  1.4430
 6523SOL    HW231032   2.745   3.773  15.836  0.0771  0.3680 -1.2933
 6524SOL     OW31033   0.570   1.237  14.783  0.7241  0.1291 -0.2666
 6524SOL    HW131034   0.583   1.198  14.869 -0.4741 -1.6485 -0.9016
 6524SOL    HW231035   0.656   1.258  14.748  0.3014  1.4143 -0.5294
 6525SOL     OW31036   1.505   0.536   4.913  0.0016 -0.3590  0.4867
 6525SOL    HW131037   1.584   0.490   4.941  0.3498  0.7724  1.3382
 6525SOL    HW231038   1.491   0.485   4.833  2.3537  2.3854 -1.6247
 6526SOL     OW31039   0.538   0.151  15.018 -0.2887 -0.3703  0.0842
 6526SOL    HW131040   0.593   0.073  15.016 -0.0551 -0.2410  2.1471
 6526SOL    HW231041   0.541   0.174  15.111  0.7210 -0.0464 -0.0233
 6527SOL     OW31042   1.394   1.318  12.644 -0.4305 -0.3773 -0.1224
 6527SOL    HW131043   1.437   1.300  12.727 -0.1224  2.1407  0.2769
 6527SOL    HW231044   1.463   1.354  12.588  0.3986  1.1684  1.8815
 6528SOL     OW31045   4.212   1.218   7.715  0.2904  0.2332 -0.3880
 6528SOL    HW131046   4.241   1.307   7.734 -2.0261  0.4814  1.9722
 6528SOL    HW231047   4.126   1.233   7.676 -0.5620  1.2547  1.8811
 6529SOL     OW31048   1.509   0.319  16.556  0.0463 -0.2952  0.3024
 6529SOL    HW131049   1.599   0.321  16.590  0.0766 -1.2623  0.2797
 6529SOL    HW231050   1.476   0.409  16.560  1.7779  0.4044 -1.6027
 6530SOL     OW31051   4.504   2.545   8.034 -0.0528 -0.1107  0.6914
 6530SOL    HW131052   4.460   2.625   8.064  0.6617  0.7703 -0.6459
 6530SOL    HW231053   4.445   2.495   8.091 -1.8480  2.9351  1.5280
 6531SOL     OW31054   3.628   2.598  15.340 -0.3103  0.0974 -0.0143
 6531SOL    HW131055   3.562   2.650  15.294 -0.9769  0.6340  1.5639
 6531SOL    HW231056   3.582   2.562  15.416  3.0650 -0.2236  1.8983
 6532SOL     OW31057   1.741   2.421   7.282  0.3344  1.1382  0.1541
 6532SOL    HW131058   1.709   2.460   7.200 -0.1541 -1.1605 -0.7256
 6532SOL    HW231059   1.723   2.490   7.347 -2.1561  1.0576 -0.4651
 6533SOL     OW31060   4.624   2.708  16.880  0.0417  0.4381 -0.1341
 6533SOL    HW131061   4.712   2.709  16.842 -0.2633 -1.3408 -0.8853
 6533SOL    HW231062   4.608   2.614  16.887 -0.7945  0.5876 -0.0474
 6534SOL     OW31063   1.917   1.908   2.263 -0.6821  0.2435 -0.7655
 6534SOL    HW131064   1.999   1.929   2.218  1.4860 -0.5797  2.8134
 6534SOL    HW231065   1.941   1.816   2.277 -0.7472  0.4926  0.9664
 6535SOL     OW31066   4.018   3.810   7.241 -0.0171  0.1572 -1.1921
 6535SOL    HW131067   4.002   3.793   7.334 -3.4028 -1.2132 -2.0302
 6535SOL    HW231068   3.984   3.899   7.233 -0.7776  0.0143  0.4884
 6536SOL     OW31069   0.793   0.608   3.397 -0.2507  0.2051 -0.8048
 6536SOL    HW131070   0.880   0.642   3.419 -1.3643  2.7142 -0.3401
 6536SOL    HW231071   0.726   0.669   3.427 -0.5548  0.0423 -1.1493
 6537SOL     OW31072   4.325   2.652   4.030 -0.0328  0.2208 -0.3010
 6537SOL    HW131073   4.329   2.731   3.976  0.2538  1.7354  1.9570
 6537SOL    HW231074   4.232   2.651   4.056  0.2954  0.4790  0.8702
 6538SOL     OW31075   0.484   0.415   1.170  0.5828  0.1876  0.6051
 6538SOL    HW131076   0.422   0.447   1.104 -0.8156 -0.9156  1.3903
 6538SOL    HW231077   0.456   0.457   1.252 -0.1544  2.2284 -0.6872
 6539SOL     OW31078   1.649   2.503   2.816 -0.1969 -0.5303  0.6262
 6539SOL    HW131079   1.592   2.466   2.884 -1.4462  1.1868  0.5086
 6539SOL    HW231080   1.600   2.584   2.803 -2.1163 -1.9936 -1.3585
 6540SOL     OW31081   2.976   3.873   5.321  0.3022  0.0603  0.2696
 6540SOL    HW131082   3.045   3.873   5.255  0.4605 -0.0832  0.4350
 6540SOL    HW231083   2.903   3.847   5.264  1.5839 -0.5619 -1.0684
 6541SOL     OW31084   0.628   3.221   4.003 -0.3142  0.4321 -0.3316
 6541SOL    HW131085   0.561   3.265   4.054  0.0563  0.7127 -0.0828
 6541SOL    HW231086   0.604   3.235   3.911 -0.6173  0.0551 -0.3091
 6542SOL     OW31087   0.196   3.214   8.105  0.1874 -0.0664  0.5135
 6542SOL    HW131088   0.160   3.251   8.186 -0.1446 -0.4961  0.5641
 6542SOL    HW231089   0.129   3.151   8.078  0.9397 -1.8652  2.7549
 6543SOL     OW31090   2.442   0.378   5.245 -0.3001 -0.2520  0.4557
 6543SOL    HW131091   2.418   0.469   5.258  0.5344  0.1815 -1.0512
 6543SOL    HW231092   2.362   0.329   5.262 -0.3665 -0.4125 -0.2958
 6544SOL     OW31093   1.880   3.056   3.570 -0.2277  0.5759 -0.2222
 6544SOL    HW131094   1.923   3.141   3.562 -0.4581  0.4874 -2.5033
 6544SOL    HW231095   1.947   3.005   3.523  0.6199 -0.5782  2.2257
 6545SOL     OW31096   1.314   0.289   3.530  0.7439  1.0166  0.3187
 6545SOL    HW131097   1.282   0.333   3.608  0.9365 -1.6129  1.8588
 6545SOL    HW231098   1.233   0.277   3.480  1.3685  0.1530 -0.4804
 6546SOL     OW31099   4.132   2.140   8.755  0.0154  0.4165 -0.7093
 6546SOL    HW131100   4.058   2.195   8.781 -1.3296 -1.0894 -1.3819
 6546SOL    HW231101   4.114   2.144   8.661  0.1444 -0.3131 -0.7671
 6547SOL     OW31102   1.684   3.620  12.706 -0.2160 -0.8235 -0.8278
 6547SOL    HW131103   1.737   3.608  12.627  0.9339  0.2875 -0.2123
 6547SOL    HW231104   1.593   3.631  12.677 -0.0681 -1.5790 -1.5826
 6548SOL     OW31105   4.442   1.857   6.358  0.3580 -0.1419  0.1714
 6548SOL    HW131106   4.465   1.776   6.313 -0.6946 -1.1648  1.4617
 6548SOL    HW231107   4.506   1.921   6.327  0.8640 -0.5693  0.3272
 6549SOL     OW31108   0.171   4.128   2.475 -0.5916  0.0017 -0.2088
 6549SOL    HW131109   0.159   4.084   2.391  0.1334 -2.6456  1.0967
 6549SOL    HW231110   0.117   4.203   2.451 -1.2252  0.1105  1.5825
 6550SOL     OW31111   3.146   1.933  12.788 -0.1137  0.1352 -0.2016
 6550SOL    HW131112   3.099   1.856  12.756  1.1248 -1.5647  2.0692
 6550SOL    HW231113   3.221   1.932  12.728  3.1622  0.9871  3.8827
 6551SOL     OW31114   2.725   3.601   1.862 -0.5025  0.3129 -0.2724
 6551SOL    HW131115   2.660   3.564   1.921  0.9206 -3.0099 -0.8259
 6551SOL    HW231116   2.740   3.689   1.898  1.5963  0.2086 -0.9065
 6552SOL     OW31117   3.502   4.227  13.061  0.6863  0.0399 -0.4419
 6552SOL    HW131118   3.521   4.312  13.021  0.8667  0.6813  1.0174
 6552SOL    HW231119   3.589   4.195  13.087  1.4095  1.8665 -0.6033
 6553SOL     OW31120   3.340   2.221   4.910 -0.1512  0.2942  0.1423
 6553SOL    HW131121   3.411   2.245   4.850  0.8402 -1.1780  0.7085
 6553SOL    HW231122   3.294   2.151   4.863  0.5987 -1.5174  2.1143
 6554SOL     OW31123   0.400   1.098   8.538 -0.3747 -0.2748 -0.1733
 6554SOL    HW131124   0.332   1.032   8.545 -1.7427  0.7422 -3.7529
 6554SOL    HW231125   0.467   1.056   8.592  0.2234  1.6325  0.5616
 6555SOL     OW31126   0.499   3.901   3.317 -0.2035  0.0960  0.8079
 6555SOL    HW131127   0.523   3.938   3.232  1.6746 -2.3035  0.3103
 6555SOL    HW231128   0.408   3.874   3.304 -0.4468  0.4779  1.7032
 6556SOL     OW31129   3.353   3.567   4.768  0.3241  0.2948 -0.0804
 6556SOL    HW131130   3.345   3.601   4.679 -1.2966  1.6162  0.5707
 6556SOL    HW231131   3.446   3.544   4.767 -0.4598 -2.9129  0.5524
 6557SOL     OW31132   0.363   4.015  12.654 -0.7119  0.5805  0.0138
 6557SOL    HW131133   0.335   3.992  12.743  0.7499  2.3318  0.9500
 6557SOL    HW231134   0.281   4.000  12.608  0.8039  0.3505 -2.5817
 6558SOL     OW31135   2.553   3.500   0.943  0.2285 -0.1960  0.2341
 6558SOL    HW131136   2.528   3.501   1.035 -1.1243 -1.4925 -0.1164
 6558SOL    HW231137   2.468   3.475   0.906 -1.0104  2.6126  1.2149
 6559SOL     OW31138   1.096   0.498   7.779 -0.0665 -0.0599  0.2513
 6559SOL    HW131139   1.176   0.540   7.812  1.5092 -3.4214  0.6609
 6559SOL    HW231140   1.042   0.515   7.856  0.0374  0.0896  0.2920
 6560SOL     OW31141   4.698   2.200   6.886 -0.3732 -0.5831 -0.0146
 6560SOL    HW131142   4.665   2.196   6.796 -0.3517 -1.3893  0.0106
 6560SOL    HW231143   4.634   2.260   6.923  1.1145  0.9554  0.0713
 6561SOL     OW31144   3.025   0.361   8.887  0.0089  0.0824  0.5771
 6561SOL    HW131145   3.022   0.332   8.978  2.7088 -2.8865 -0.2862
 6561SOL    HW231146   2.935   0.353   8.857  0.6315 -1.9202 -0.7879
 6562SOL     OW31147   1.201   0.064   7.728  0.0747  0.1564  0.1392
 6562SOL    HW131148   1.248   0.114   7.796 -2.3332  1.3655  0.8986
 6562SOL    HW231149   1.131   0.035   7.786  1.0248 -0.9582  0.7468
 6563SOL     OW31150   0.618   0.346   6.457 -0.7415  0.8685  0.1790
 6563SOL    HW131151   0.690   0.409   6.461 -0.2202  0.3493 -1.3006
 6563SOL    HW231152   0.640   0.290   6.532 -0.6920  0.6224 -0.0216
 6564SOL     OW31153   4.067   1.445   1.082  0.6012  0.0711 -0.1748
 6564SOL    HW131154   4.142   1.444   1.142  0.6990 -0.4002 -0.3057
 6564SOL    HW231155   4.069   1.535   1.052  0.6290 -0.0655 -0.5752
 6565SOL     OW31156   2.898   1.704   3.736  0.0680  0.3522  0.1187
 6565SOL    HW131157   2.943   1.653   3.804 -0.3737  0.4267  0.4647
 6565SOL    HW231158   2.816   1.725   3.780 -1.0822 -1.3202 -1.2424
 6566SOL     OW31159   3.238   0.399   8.687  0.2276  0.1559 -1.1263
 6566SOL    HW131160   3.155   0.395   8.734 -0.1808 -4.1815 -2.1818
 6566SOL    HW231161   3.288   0.345   8.749 -0.4213 -0.0127 -0.7557
 6567SOL     OW31162   3.587   3.928   3.103 -0.2573  0.0143  0.3054
 6567SOL    HW131163   3.559   3.992   3.037  2.4549 -1.1913 -1.9701
 6567SOL    HW231164   3.682   3.924   3.091 -0.3738 -0.5276 -0.3963
 6568SOL     OW31165   1.648   2.990   7.096 -0.0216 -0.1799 -0.4186
 6568SOL    HW131166   1.684   3.079   7.096 -1.6572  0.4884  1.2974
 6568SOL    HW231167   1.596   2.999   7.176  4.4906 -0.1017  2.4739
 6569SOL     OW31168   3.256   4.327  12.786 -0.3623  0.2386 -0.3253
 6569SOL    HW131169   3.308   4.249  12.768  0.3474  0.0467  2.6089
 6569SOL    HW231170   3.327   4.375  12.828 -0.0388 -0.7423  0.2440
 6570SOL     OW31171   4.059   3.960   6.771  0.3325 -0.4236  0.2031
 6570SOL    HW131172   4.126   4.028   6.776  1.5544 -1.5046 -1.7024
 6570SOL    HW231173   4.068   3.908   6.851 -1.1069  0.0318  0.6662
 6571SOL     OW31174   2.319   0.629   5.285 -0.3509 -0.1054  0.1334
 6571SOL    HW131175   2.339   0.683   5.362 -3.6379  1.1378  0.1223
 6571SOL    HW231176   2.325   0.705   5.228  2.0633  0.5082  1.2135
 6572SOL     OW31177   0.230   0.752   6.526  0.0773 -0.0083  0.0316
 6572SOL    HW131178   0.243   0.658   6.525 -1.2043 -0.2128  2.0764
 6572SOL    HW231179   0.187   0.759   6.441  0.4670 -0.3496 -0.1911
 6573SOL     OW31180   2.003   0.949   2.942 -0.1942 -0.3889 -0.0065
 6573SOL    HW131181   2.052   0.920   2.865 -0.9928 -1.7263 -0.0189
 6573SOL    HW231182   1.998   0.864   2.985  2.7025 -0.1550  0.7784
 6574SOL     OW31183   4.368   3.520   1.965  0.2856  0.5286  0.2352
 6574SOL    HW131184   4.289   3.467   1.962 -0.6968  2.1577 -2.8687
 6574SOL    HW231185   4.366   3.580   1.890 -0.1097 -1.9412 -1.7486
 6575SOL     OW31186   2.246   3.391   8.721  0.3231 -0.0616 -0.4776
 6575SOL    HW131187   2.315   3.373   8.785  1.1876 -1.8121 -1.9106
 6575SOL    HW231188   2.276   3.473   8.681  0.3989  1.4821  2.7257
 6576SOL     OW31189   3.302   0.196   7.155  0.1705  0.4695 -0.2426
 6576SOL    HW131190   3.286   0.280   7.199 -0.3387  0.5002 -0.4834
 6576SOL    HW231191   3.351   0.154   7.226 -1.1292  2.9686  2.1297
 6577SOL     OW31192   4.134   0.186   6.101  0.2368 -0.1058  0.2902
 6577SOL    HW131193   4.222   0.224   6.107  0.5304 -0.9004  1.0806
 6577SOL    HW231194   4.084   0.246   6.156 -0.1920  1.3907 -1.7667
 6578SOL     OW31195   0.965   4.324   5.769 -0.3218  0.6321 -0.3581
 6578SOL    HW131196   0.886   4.376   5.753  0.7685  2.9428  1.6642
 6578SOL    HW231197   1.028   4.395   5.756 -0.2042  0.2703 -1.7055
 6579SOL     OW31198   0.116   1.115   8.186  0.3676 -0.2538 -0.2593
 6579SOL    HW131199   0.027   1.130   8.217 -0.2552 -2.7142 -0.9373
 6579SOL    HW231200   0.133   1.035   8.235  0.0005  0.5021  1.1123
 6580SOL     OW31201   4.052   0.663   2.912 -0.5173  0.2964 -0.8649
 6580SOL    HW131202   3.989   0.700   2.974 -0.0929 -1.3581  0.5443
 6580SOL    HW231203   3.997   0.594   2.876  0.6282 -0.6015 -0.8906
 6581SOL     OW31204   0.063   3.475   3.005 -0.2268  0.0051  0.5078
 6581SOL    HW131205   0.116   3.554   3.013 -1.2624  0.6549  0.8587
 6581SOL    HW231206   0.129   3.419   2.964 -0.9937  0.8749 -1.9481
 6582SOL     OW31207   0.519   4.506   8.285 -0.0899 -0.2715  0.0325
 6582SOL    HW131208   0.539   4.576   8.222 -0.1814  1.2682  1.7121
 6582SOL    HW231209   0.440   4.539   8.329  2.2888 -1.9898  5.5522
 6583SOL     OW31210   1.883   4.274   3.834 -0.1734  0.2788  0.3825
 6583SOL    HW131211   1.880   4.230   3.750  0.3403  1.6546 -0.3614
 6583SOL    HW231212   1.900   4.194   3.884 -2.1387  0.2262  0.9803
 6584SOL     OW31213   3.555   2.663   4.779 -0.6420  0.1938  0.0152
 6584SOL    HW131214   3.465   2.647   4.810 -0.8972 -0.1981 -0.9528
 6584SOL    HW231215   3.563   2.758   4.788 -2.6253  0.2571  1.3096
 6585SOL     OW31216   3.306   0.104  16.893 -0.4820  0.0762  0.2889
 6585SOL    HW131217   3.388   0.151  16.912  0.2648 -1.7181  1.5209
 6585SOL    HW231218   3.318   0.026  16.947 -1.8204 -0.7014 -0.5335
 6586SOL     OW31219   3.324   1.837   3.495  0.7036  0.1002  0.4240
 6586SOL    HW131220   3.279   1.915   3.462  1.6046  0.3332 -0.2572
 6586SOL    HW231221   3.343   1.793   3.412 -1.2430  0.0570  0.0034
 6587SOL     OW31222   1.132   4.327   9.429  0.5431 -0.1749  0.2623
 6587SOL    HW131223   1.106   4.399   9.487  1.4820  1.1735 -0.9999
 6587SOL    HW231224   1.108   4.365   9.345 -0.0199 -0.8928  0.0982
 6588SOL     OW31225   2.571   3.963  17.292 -0.0699 -0.5317  0.4356
 6588SOL    HW131226   2.665   3.948  17.295 -0.0572 -1.1611 -2.5543
 6588SOL    HW231227   2.557   3.963  17.197  1.2982 -2.2365  0.2344
 6589SOL     OW31228   0.826   0.263   5.174 -0.0816 -0.2114 -0.2374
 6589SOL    HW131229   0.901   0.306   5.133  0.9041 -0.4424  1.3138
 6589SOL    HW231230   0.862   0.265   5.263  1.5425 -0.3819 -0.8881
 6590SOL     OW31231   0.371   1.563   7.166  0.1371  0.0501 -0.5927
 6590SOL    HW131232   0.331   1.616   7.097  0.6149  1.6820  0.3934
 6590SOL    HW231233   0.322   1.591   7.244  0.7205  1.4237 -0.7137
 6591SOL     OW31234   1.626   4.196   0.050 -0.1160 -0.0326  0.1132
 6591SOL    HW131235   1.694   4.197   0.118  0.0982  1.9338 -0.1239
 6591SOL    HW231236   1.653   4.119  17.682  0.0301 -0.6624  1.1539
 6592SOL     OW31237   0.965   4.581  17.294 -0.5357  0.4331 -0.2987
 6592SOL    HW131238   0.987   4.673  17.277  0.6064 -0.0699 -1.6252
 6592SOL    HW231239   0.881   4.587  17.338 -0.8757  2.1334 -1.1781
 6593SOL     OW31240   2.512   4.040   8.607  0.1444  0.1772  0.9041
 6593SOL    HW131241   2.559   4.003   8.533 -0.8796  0.8021 -0.0591
 6593SOL    HW231242   2.458   4.109   8.569 -0.2018 -2.0064 -2.5442
 6594SOL     OW31243   0.601   4.067   8.386 -0.0211  0.4759  0.3349
 6594SOL    HW131244   0.626   4.149   8.343  1.8454  0.0175  0.5458
 6594SOL    HW231245   0.516   4.057   8.344  0.5848  1.2006 -1.0829
 6595SOL     OW31246   1.288   2.825   7.040 -0.6000  0.6564 -0.0927
 6595SOL    HW131247   1.318   2.821   7.131 -0.5755  1.8798 -0.0395
 6595SOL    HW231248   1.294   2.918   7.018  2.8772  0.2641 -0.8781
 6596SOL     OW31249   3.734   3.713   4.263  0.0739 -0.1688 -0.3481
 6596SOL    HW131250   3.654   3.692   4.215  0.2946  0.4234 -0.9834
 6596SOL    HW231251   3.789   3.759   4.199 -0.0176  1.0449  0.4515
 6597SOL     OW31252   0.685   1.845   8.159 -0.6454 -0.0096 -0.1213
 6597SOL    HW131253   0.672   1.753   8.180 -4.4226  0.1231 -1.9321
 6597SOL    HW231254   0.748   1.876   8.225 -0.9381 -0.1436  0.2207
 6598SOL     OW31255   2.449   3.537   5.281  0.0115  0.5825  1.2809
 6598SOL    HW131256   2.466   3.591   5.204  0.8322  2.2798  2.6676
 6598SOL    HW231257   2.369   3.577   5.316 -0.7106 -1.0725  1.5367
 6599SOL     OW31258   3.493   1.815   9.482  0.2090  0.9616 -0.4221
 6599SOL    HW131259   3.542   1.761   9.545 -0.3780  0.3125 -0.5177
 6599SOL    HW231260   3.564   1.853   9.431  0.9112 -0.7417 -0.7078
 6600SOL     OW31261   3.514   3.838   6.341 -0.0898 -0.5737  0.2549
 6600SOL    HW131262   3.507   3.922   6.296  2.1395  0.0463  1.0547
 6600SOL    HW231263   3.425   3.827   6.377 -0.1835 -0.8474 -0.0657
 6601SOL     OW31264   3.858   2.776  10.010  0.5187 -0.5212  0.0749
 6601SOL    HW131265   3.764   2.788  10.024  1.0050 -0.3096  3.0513
 6601SOL    HW231266   3.861   2.684   9.983  0.2037 -0.5420  0.1148
 6602SOL     OW31267   4.645   2.629   5.610  0.3216 -0.4312 -0.2855
 6602SOL    HW131268   4.677   2.554   5.662 -2.4761 -1.4236 -0.0044
 6602SOL    HW231269   4.551   2.630   5.627  0.4461 -1.4107  0.4556
 6603SOL     OW31270   1.465   1.738   3.816  0.3382 -0.6032 -0.0731
 6603SOL    HW131271   1.426   1.732   3.729  0.8090  0.3351 -0.3463
 6603SOL    HW231272   1.433   1.651   3.843  1.8551 -1.3973 -0.8723
 6604SOL     OW31273   2.150   0.816  14.787  0.3497  0.2956 -0.0263
 6604SOL    HW131274   2.154   0.741  14.846 -1.3921  0.6349  0.5152
 6604SOL    HW231275   2.179   0.892  14.838  0.0798  0.1257  0.3811
 6605SOL     OW31276   1.111   3.665  12.691  0.0306  0.1668  0.1614
 6605SOL    HW131277   1.091   3.572  12.698  0.6004  0.0483  0.2065
 6605SOL    HW231278   1.027   3.704  12.668  0.6568  1.3344 -0.2028
 6606SOL     OW31279   3.669   0.202   2.667  0.3411 -0.0989  0.0736
 6606SOL    HW131280   3.723   0.233   2.594 -0.2273  0.9651  0.1004
 6606SOL    HW231281   3.744   0.159   2.708 -0.9722 -0.1932  2.3476
 6607SOL     OW31282   2.491   3.219  17.530  0.6850 -0.4015 -0.0664
 6607SOL    HW131283   2.409   3.177  17.505  0.4233 -0.1476  0.3611
 6607SOL    HW231284   2.548   3.147  17.502 -0.9238 -1.8985  0.4655
 6608SOL     OW31285   0.755   3.649   0.157  0.4632  0.3928  0.1247
 6608SOL    HW131286   0.747   3.679   0.067 -0.5418 -0.7595 -0.1751
 6608SOL    HW231287   0.704   3.711   0.209  1.0045 -0.6629  1.9556
 6609SOL     OW31288   3.323   1.127   3.336 -0.1181 -0.2959  0.5538
 6609SOL    HW131289   3.230   1.126   3.316 -0.2884 -3.2592  1.5785
 6609SOL    HW231290   3.365   1.064   3.279 -3.5402 -4.0428  2.1963
 6610SOL     OW31291   0.179   4.376   8.164 -0.0646  0.0731 -0.0918
 6610SOL    HW131292   0.111   4.382   8.097  0.1860 -0.5934 -0.4093
 6610SOL    HW231293   0.139   4.433   8.230  0.9215  1.1388 -0.4087
 6611SOL     OW31294   3.255   2.043   4.529 -0.3723  0.0907  0.4098
 6611SOL    HW131295   3.253   2.138   4.541 -0.5065 -0.2353  2.9495
 6611SOL    HW231296   3.245   1.997   4.612 -1.8296  2.6428  1.6751
 6612SOL     OW31297   1.027   4.622   4.191  0.5550  0.4672  0.3456
 6612SOL    HW131298   1.052   4.532   4.170  0.0389  0.3814  0.0949
 6612SOL    HW231299   0.938   4.627   4.157  0.4402 -0.8362  0.4668
 6613SOL     OW31300   1.202   4.418  11.948 -0.4682 -0.1384  0.3535
 6613SOL    HW131301   1.286   4.456  11.973 -0.0953 -0.4441 -0.4319
 6613SOL    HW231302   1.154   4.498  11.927  1.9319  1.4909  0.9916
 6614SOL     OW31303   2.473   4.692  10.515  0.1068 -0.5535  0.5891
 6614SOL    HW131304   2.458   4.706  10.609  2.7323 -2.6295  1.3209
 6614SOL    HW231305   2.561   4.657  10.529  0.3828 -0.6919 -1.5941
 6615SOL     OW31306   4.697   3.076   5.257  0.3656 -0.0192  0.1365
 6615SOL    HW131307   4.606   3.069   5.284  0.0646 -0.0518 -0.8966
 6615SOL    HW231308   0.009   3.004   5.311  0.6072 -0.4337 -0.5504
 6616SOL     OW31309   0.427   2.139  10.114  0.1235  0.5652 -0.1036
 6616SOL    HW131310   0.403   2.065  10.059 -0.1423  1.0756 -0.6812
 6616SOL    HW231311   0.468   2.094  10.187 -1.5500 -0.0965  0.4282
 6617SOL     OW31312   4.235   2.051   8.063  0.1273  0.2620 -0.1604
 6617SOL    HW131313   4.200   1.995   7.994  0.3660  0.4185 -0.4108
 6617SOL    HW231314   4.329   2.036   8.061  0.4476  2.1756  0.1811
 6618SOL     OW31315   3.827   3.769   5.772  0.0707  0.6606 -0.2684
 6618SOL    HW131316   3.922   3.762   5.759 -0.1806  0.5603 -2.0706
 6618SOL    HW231317   3.797   3.707   5.706  2.1623 -0.7045  0.0667
 6619SOL     OW31318   0.648   2.543   3.421  0.0138  0.0175 -0.4288
 6619SOL    HW131319   0.583   2.613   3.428 -0.9160 -0.7194 -1.6010
 6619SOL    HW231320   0.684   2.535   3.509  2.5528  2.4710 -1.2550
 6620SOL     OW31321   4.321   3.899   9.134  0.1259 -0.1472 -0.1298
 6620SOL    HW131322   4.252   3.841   9.167  0.1484 -0.1315 -0.0534
 6620SOL    HW231323   4.297   3.907   9.042 -0.6998  1.3416  0.1989
 6621SOL     OW31324   2.978   1.408  10.284 -0.0839  0.3596 -0.5128
 6621SOL    HW131325   3.063   1.406  10.328 -0.0290  0.1913 -0.6250
 6621SOL    HW231326   2.930   1.345  10.338 -1.5824  2.1434  0.2405
 6622SOL     OW31327   3.429   1.064   7.407  0.3938  0.3602  0.2578
 6622SOL    HW131328   3.377   1.118   7.467 -0.7179  0.7443 -1.0505
 6622SOL    HW231329   3.421   1.104   7.321  0.9156 -0.2216 -0.0639
 6623SOL     OW31330   1.825   1.972  10.762  0.2107  0.5844  0.0204
 6623SOL    HW131331   1.774   1.952  10.840  0.4817  0.4194  0.1539
 6623SOL    HW231332   1.915   1.983  10.793  0.0291  0.8329  0.4484
 6624SOL     OW31333   0.416   1.991   8.855 -0.2277 -0.1100 -0.4766
 6624SOL    HW131334   0.479   1.940   8.906  0.4309 -1.1356 -2.3555
 6624SOL    HW231335   0.430   1.951   8.770  0.3267  2.3936 -1.5593
 6625SOL     OW31336   2.912   0.365   5.116  0.8118  0.5681 -0.0322
 6625SOL    HW131337   2.874   0.327   5.195  0.8755 -0.4175 -0.4727
 6625SOL    HW231338   2.878   0.319   5.039  0.1332 -1.9524  1.7758
 6626SOL     OW31339   3.988   0.038   1.068  0.4613  0.3122 -0.0384
 6626SOL    HW131340   3.918   0.065   1.128  0.5541  0.2468  0.0997
 6626SOL    HW231341   4.052   0.014   1.135  0.2440 -2.8329 -0.9682
 6627SOL     OW31342   1.894   4.376   0.538 -0.2862  0.0661 -0.0998
 6627SOL    HW131343   1.966   4.313   0.542 -0.7961 -0.4603  0.7609
 6627SOL    HW231344   1.944   4.457   0.531  0.4604 -0.6879 -3.2993
 6628SOL     OW31345   2.423   3.378  11.090 -0.5021 -0.1309 -0.3164
 6628SOL    HW131346   2.363   3.381  11.164 -1.4284 -0.8542 -1.0367
 6628SOL    HW231347   2.383   3.443  11.033 -1.8389 -0.4128  0.3162
 6629SOL     OW31348   1.562   2.055   2.051  0.3083 -0.0405  0.3815
 6629SOL    HW131349   1.618   2.045   2.128 -0.5398 -1.6248  0.7927
 6629SOL    HW231350   1.596   2.142   2.030  0.4802 -0.2451 -0.1921
 6630SOL     OW31351   1.483   0.534   6.336  0.5668  0.6283 -0.2405
 6630SOL    HW131352   1.491   0.543   6.431 -0.2721 -0.1719 -0.0931
 6630SOL    HW231353   1.546   0.600   6.307 -1.7300  3.3845  1.0294
 6631SOL     OW31354   3.823   1.667  17.142 -0.0579 -0.3422 -0.2616
 6631SOL    HW131355   3.732   1.673  17.171  0.2885  0.9997  0.5723
 6631SOL    HW231356   3.848   1.759  17.151 -0.5609 -0.5386  3.0704
 6632SOL     OW31357   4.468   0.391   0.704  0.6949  0.4894 -0.2866
 6632SOL    HW131358   4.546   0.399   0.650  1.9454 -0.1217  1.4289
 6632SOL    HW231359   4.430   0.479   0.703 -0.2198  0.1264  2.1553
 6633SOL     OW31360   1.080   2.257   3.119 -0.2080  0.0594  0.4807
 6633SOL    HW131361   1.139   2.258   3.194  0.4034  0.6120 -0.0097
 6633SOL    HW231362   1.022   2.325   3.153 -0.3199  0.9896 -1.5706
 6634SOL     OW31363   2.253   3.710   8.414  0.2502  0.0374 -0.4541
 6634SOL    HW131364   2.317   3.700   8.485 -0.1471 -0.5765 -0.1851
 6634SOL    HW231365   2.218   3.623   8.400  3.2744 -1.1060 -0.8565
 6635SOL     OW31366   4.358   2.235   6.908 -0.3744 -0.0577 -0.2881
 6635SOL    HW131367   4.270   2.228   6.945 -0.2069 -1.8827 -0.2344
 6635SOL    HW231368   4.374   2.328   6.924 -1.4793 -0.0403  0.7232
 6636SOL     OW31369   2.529   3.366  10.389 -0.1560  0.3852  0.0921
 6636SOL    HW131370   2.508   3.415  10.468  0.5051 -0.3429  0.7162
 6636SOL    HW231371   2.445   3.320  10.388  1.8245 -3.2309 -2.0226
 6637SOL     OW31372   1.221   4.320  12.934 -0.3230  0.4565  0.3901
 6637SOL    HW131373   1.186   4.327  12.845 -1.5895 -1.9343  0.7075
 6637SOL    HW231374   1.142   4.343  12.984 -0.4231 -0.0589  0.4679
 6638SOL     OW31375   2.544   2.237  17.178 -0.0322 -0.2898  0.4534
 6638SOL    HW131376   2.564   2.238  17.085 -0.6263  1.0910  0.3374
 6638SOL    HW231377   2.507   2.150  17.192 -0.5683 -0.1925 -0.3725
 6639SOL     OW31378   0.474   2.086  10.646  0.2203 -0.0212  0.6346
 6639SOL    HW131379   0.517   2.113  10.565  1.3558  1.4626  1.7365
 6639SOL    HW231380   0.536   2.013  10.656 -1.1517 -1.6672 -2.9426
 6640SOL     OW31381   1.307   1.544   0.469 -0.0332  0.4167  0.4691
 6640SOL    HW131382   1.364   1.548   0.545  3.9227 -1.2513 -2.3922
 6640SOL    HW231383   1.281   1.454   0.488 -1.8130  0.4717 -1.7263
 6641SOL     OW31384   4.561   3.160   1.293 -0.2197  0.1864 -0.1374
 6641SOL    HW131385   4.503   3.233   1.271  0.5914  0.7864 -0.2559
 6641SOL    HW231386   4.641   3.170   1.242 -0.2812  2.5156  0.2393
 6642SOL     OW31387   4.577   0.103   3.286  0.0598  0.2961 -0.3455
 6642SOL    HW131388   4.486   0.130   3.302 -0.4885 -2.3972  1.0306
 6642SOL    HW231389   4.609   0.188   3.257  0.3814  0.4195  0.3698
 6643SOL     OW31390   2.625   2.494  12.214  0.7735 -0.1644  0.3713
 6643SOL    HW131391   2.549   2.467  12.163 -1.0953  2.3073  1.8727
 6643SOL    HW231392   2.635   2.586  12.191  0.7015 -0.5543 -1.2073
 6644SOL     OW31393   0.006   0.751   5.706  0.0853 -0.7718  0.0880
 6644SOL    HW131394   4.660   0.773   5.772 -0.5643  0.8387 -1.0912
 6644SOL    HW231395   0.078   0.805   5.739  0.0104 -1.2967  1.1160
 6645SOL     OW31396   3.948   2.050   1.483  0.1848 -0.2306 -0.0322
 6645SOL    HW131397   3.957   2.038   1.388  2.4027  1.1395  0.0059
 6645SOL    HW231398   4.039   2.054   1.513 -0.1590  0.9010  0.8517
 6646SOL     OW31399   0.372   0.011   2.931  0.3162 -0.1413  0.0026
 6646SOL    HW131400   0.444   0.074   2.930 -0.1450  0.3827  0.2407
 6646SOL    HW231401   0.430   4.658   2.907  0.1845  0.0362 -0.8449
 6647SOL     OW31402   4.586   2.749   3.604 -0.3000 -0.0626  0.2861
 6647SOL    HW131403   4.539   2.797   3.672 -0.1906  0.7781 -0.2228
 6647SOL    HW231404   4.674   2.786   3.614  0.4591 -1.9923  0.6915
 6648SOL     OW31405   4.131   1.784   4.235  0.4923 -0.3991 -0.0336
 6648SOL    HW131406   4.155   1.797   4.143  0.5278  2.6352  0.3883
 6648SOL    HW231407   4.036   1.782   4.234  0.5143 -1.8492  1.3156
 6649SOL     OW31408   3.166   1.035   2.990 -0.2643 -0.0494 -0.3762
 6649SOL    HW131409   3.125   1.055   3.074 -0.2482 -1.2901 -0.0819
 6649SOL    HW231410   3.246   1.084   3.011 -0.4703  0.3313 -0.4706
 6650SOL     OW31411   1.735   1.737   4.742  0.2185 -0.4740 -0.0207
 6650SOL    HW131412   1.812   1.782   4.707 -1.7479  1.9451 -1.1994
 6650SOL    HW231413   1.749   1.649   4.708 -0.9379 -0.6192 -0.0958
 6651SOL     OW31414   3.122   0.671   5.901  0.6468  0.3909 -0.2529
 6651SOL    HW131415   3.037   0.697   5.866  1.0964  1.1190 -0.8034
 6651SOL    HW231416   3.109   0.676   5.996 -0.9596  1.4687 -0.5198
 6652SOL     OW31417   0.173   1.598  11.779 -0.2366  0.1731  0.0313
 6652SOL    HW131418   0.219   1.682  11.789  1.2311 -0.6077 -0.2419
 6652SOL    HW231419   0.249   1.541  11.765  0.6767  1.2764  0.4181
 6653SOL     OW31420   2.686   2.290   4.329 -0.3067 -0.1194 -0.0529
 6653SOL    HW131421   2.729   2.239   4.261  0.8405 -1.2122  1.4886
 6653SOL    HW231422   2.750   2.275   4.398 -1.2893 -2.3948  0.3399
 6654SOL     OW31423   2.935   3.383  12.142  0.7314 -0.2544 -0.4084
 6654SOL    HW131424   2.852   3.343  12.116  2.1508 -1.2968 -3.3570
 6654SOL    HW231425   2.929   3.463  12.090 -0.8350  0.3630  0.7467
 6655SOL     OW31426   1.779   2.389   4.376  0.3561  0.2613 -1.0194
 6655SOL    HW131427   1.790   2.484   4.373 -0.7610  0.3507 -2.1923
 6655SOL    HW231428   1.794   2.366   4.284  1.0323 -0.1348 -0.8065
 6656SOL     OW31429   2.341   4.256   3.423 -0.1629 -0.1199 -0.2481
 6656SOL    HW131430   2.354   4.351   3.423  2.0369 -0.4089  2.0846
 6656SOL    HW231431   2.274   4.247   3.490  1.0353 -1.3252  0.8051
 6657SOL     OW31432   4.285   1.719   4.599  0.1666  0.3198 -0.5224
 6657SOL    HW131433   4.348   1.791   4.602  0.8543 -0.3344  0.6824
 6657SOL    HW231434   4.286   1.689   4.690 -1.1480 -0.5131 -0.7848
 6658SOL     OW31435   0.960   1.602   3.477 -0.2287 -0.3545 -0.1683
 6658SOL    HW131436   0.929   1.593   3.567  1.0972 -0.4883  0.2743
 6658SOL    HW231437   0.881   1.608   3.423 -0.4350  0.4147  0.2050
 6659SOL     OW31438   0.085   1.164   8.926  0.1795  0.3519 -0.1007
 6659SOL    HW131439   0.052   1.143   8.838 -0.6089 -0.4427  0.3973
 6659SOL    HW231440   0.019   1.126   8.983  0.9413 -1.5255 -0.4920
 6660SOL     OW31441   4.528   3.748   8.419 -0.3293  0.3469  0.9189
 6660SOL    HW131442   4.557   3.656   8.410  1.5525  1.1106 -1.0701
 6660SOL    HW231443   4.488   3.760   8.333  0.5478  0.6965  0.5516
 6661SOL     OW31444   3.108   0.223  12.360  0.0547 -0.3574 -0.5500
 6661SOL    HW131445   3.137   0.134  12.377 -0.5864 -0.1151  1.8248
 6661SOL    HW231446   3.053   0.214  12.282  0.4071  1.0807 -0.9682
 6662SOL     OW31447   1.408   1.769   5.783  0.0148 -0.2832  0.4255
 6662SOL    HW131448   1.487   1.797   5.829  0.3855 -1.0737  0.2767
 6662SOL    HW231449   1.437   1.702   5.720  0.0412  1.0805 -1.0240
 6663SOL     OW31450   3.061   4.383   7.631  0.2525 -0.4637 -0.0040
 6663SOL    HW131451   2.999   4.321   7.669 -0.2423  1.1119  1.8028
 6663SOL    HW231452   3.033   4.463   7.675  2.3922 -0.2317  0.9580
 6664SOL     OW31453   4.662   0.303   3.812  0.5944  0.4905 -0.3886
 6664SOL    HW131454   0.032   0.292   3.845  0.7361  3.2419  0.1260
 6664SOL    HW231455   4.658   0.246   3.734 -0.8167 -2.0693  1.5662
 6665SOL     OW31456   3.780   3.297  13.143 -0.3106  0.0817 -0.1518
 6665SOL    HW131457   3.848   3.271  13.082  0.1569  0.8714  0.0391
 6665SOL    HW231458   3.751   3.379  13.103 -0.7061 -0.0751 -0.1846
 6666SOL     OW31459   0.350   1.876   7.365 -0.0602 -0.3799 -0.0690
 6666SOL    HW131460   0.443   1.861   7.385 -0.3103 -1.2291  0.4543
 6666SOL    HW231461   0.315   1.804   7.416 -1.3029  0.8399  0.8033
 6667SOL     OW31462   0.470   1.039   6.476  0.3817  0.3939 -0.4236
 6667SOL    HW131463   0.498   1.010   6.389 -0.4678 -2.1475  0.1274
 6667SOL    HW231464   0.380   1.059   6.450  0.5038  1.0716 -0.3182
 6668SOL     OW31465   4.485   0.485   2.716  0.1794 -0.1058 -0.3305
 6668SOL    HW131466   4.479   0.419   2.785  1.6319 -0.4156 -0.4851
 6668SOL    HW231467   4.453   0.563   2.761 -0.0689 -0.1400 -0.4506
 6669SOL     OW31468   3.712   3.173   7.712 -0.1078  0.4567 -0.3351
 6669SOL    HW131469   3.738   3.203   7.800 -1.4950  0.3537  0.1133
 6669SOL    HW231470   3.628   3.138   7.744  0.3976 -0.0768  0.4076
 6670SOL     OW31471   1.055   1.795   2.031  0.2047 -0.8208 -0.8104
 6670SOL    HW131472   1.142   1.832   2.016  0.5256 -1.1010  0.4155
 6670SOL    HW231473   1.065   1.710   1.988  0.5713 -1.3526  0.3430
 6671SOL     OW31474   0.730   2.372  13.968  0.0693  0.4871 -0.4778
 6671SOL    HW131475   0.786   2.388  14.044 -0.0739 -2.3530  0.1945
 6671SOL    HW231476   0.715   2.281  13.991 -0.2189  0.7064  0.2269
 6672SOL     OW31477   1.004   2.029   5.843 -0.4260 -0.2277  0.2852
 6672SOL    HW131478   1.064   1.987   5.782 -0.7545 -0.5890  0.2129
 6672SOL    HW231479   0.929   1.970   5.851 -1.3700  0.9578  0.3307
 6673SOL     OW31480   0.517   1.647   5.576 -0.0632  0.0428 -0.4509
 6673SOL    HW131481   0.522   1.659   5.671  0.2406  2.3234 -0.7689
 6673SOL    HW231482   0.521   1.551   5.578 -0.5433  0.0354  0.4030
 6674SOL     OW31483   2.455   1.425  11.636 -0.0537  0.4307 -0.0322
 6674SOL    HW131484   2.413   1.500  11.594  1.2271  1.0691 -0.1503
 6674SOL    HW231485   2.506   1.400  11.559  0.0176  1.6849 -0.3863
 6675SOL     OW31486   3.059   3.872   7.206 -0.2248  0.0361 -0.5332
 6675SOL    HW131487   3.106   3.879   7.123 -0.1705 -0.6833 -0.5634
 6675SOL    HW231488   3.039   3.778   7.201  1.0405 -0.1533 -1.9023
 6676SOL     OW31489   0.364   2.333   8.206  0.1633 -0.3391 -0.0735
 6676SOL    HW131490   0.303   2.401   8.180 -2.7463 -3.4378 -1.2758
 6676SOL    HW231491   0.304   2.259   8.212 -1.8918  1.3731  0.4415
 6677SOL     OW31492   2.613   0.179   9.634  0.4750  0.2453 -0.0414
 6677SOL    HW131493   2.571   0.147   9.715 -1.0465  1.4760 -0.3385
 6677SOL    HW231494   2.633   0.099   9.585  0.6877 -1.4530  2.7937
 6678SOL     OW31495   1.309   1.742   7.242 -0.1070  0.2490  0.2080
 6678SOL    HW131496   1.257   1.731   7.321 -0.0166 -1.7396 -0.0104
 6678SOL    HW231497   1.257   1.688   7.183 -0.2135 -1.3799  1.8114
 6679SOL     OW31498   3.335   1.254   3.052  0.1962  0.2833  0.0366
 6679SOL    HW131499   3.415   1.248   3.104  2.3047 -1.7630 -3.4092
 6679SOL    HW231500   3.281   1.314   3.102 -0.4464  0.4238 -0.8304
 6680SOL     OW31501   2.833   2.597  11.436  0.3553  0.7159  0.3488
 6680SOL    HW131502   2.870   2.530  11.379 -0.2332  0.1110  0.6886
 6680SOL    HW231503   2.848   2.560  11.523  0.8079  0.3460  0.1123
 6681SOL     OW31504   4.160   1.462   6.819  0.4538 -0.3229 -0.1301
 6681SOL    HW131505   4.169   1.550   6.856 -0.0246 -0.3315  0.0071
 6681SOL    HW231506   4.157   1.477   6.724 -0.7965  2.0603  0.2793
 6682SOL     OW31507   3.111   4.124  12.130 -0.5203  0.3245  0.2010
 6682SOL    HW131508   3.198   4.162  12.116 -0.3555  0.1212  0.6556
 6682SOL    HW231509   3.069   4.209  12.142 -1.1375  0.2383 -1.3624
 6683SOL     OW31510   1.213   2.194  13.045 -0.8544 -0.0201 -0.2592
 6683SOL    HW131511   1.188   2.258  12.977 -2.0540 -0.4358 -0.2245
 6683SOL    HW231512   1.224   2.125  12.980 -0.0352  1.0408 -1.2508
 6684SOL     OW31513   2.285   2.070   9.255 -0.0932 -0.0723  0.4271
 6684SOL    HW131514   2.299   2.012   9.180  1.7836  1.2034 -0.1986
 6684SOL    HW231515   2.263   2.008   9.325  2.8845 -0.9101  0.6137
 6685SOL     OW31516   1.317   2.038   1.365 -0.1163  0.1021 -0.0774
 6685SOL    HW131517   1.311   2.132   1.385 -1.7255  0.3362 -1.6299
 6685SOL    HW231518   1.308   1.994   1.450  2.1363  0.9136  0.5614
 6686SOL     OW31519   1.190   3.977   9.961  0.0830 -0.5318 -0.0286
 6686SOL    HW131520   1.204   3.905  10.022 -0.0780  1.2703  2.1521
 6686SOL    HW231521   1.258   4.043   9.976  0.8140 -1.1969 -0.3966
 6687SOL     OW31522   1.505   3.691   5.811  0.0036  0.3905  0.2449
 6687SOL    HW131523   1.474   3.690   5.720 -0.5408 -0.5387  0.4459
 6687SOL    HW231524   1.560   3.613   5.809 -0.9350 -0.2693  0.2497
 6688SOL     OW31525   3.644   2.960   5.045 -0.0249 -0.3104 -0.5401
 6688SOL    HW131526   3.642   2.998   5.133 -2.5332  0.3844 -0.9012
 6688SOL    HW231527   3.712   2.892   5.047  0.7093  0.4063 -1.0939
 6689SOL     OW31528   4.416   1.710  16.787  0.0450  0.0294 -0.6390
 6689SOL    HW131529   4.452   1.639  16.841 -0.9955 -0.1146 -0.1361
 6689SOL    HW231530   4.488   1.773  16.791 -1.3788  1.5935  0.4909
 6690SOL     OW31531   1.186   3.214  13.913 -0.0939 -0.4005  0.3899
 6690SOL    HW131532   1.179   3.233  14.007  2.3672  0.4419  0.3982
 6690SOL    HW231533   1.257   3.150  13.918 -0.6898 -1.0113  1.2972
 6691SOL     OW31534   1.359   1.324   6.427 -0.0033  0.5475 -0.4195
 6691SOL    HW131535   1.270   1.291   6.437 -0.0800  1.0182  0.4433
 6691SOL    HW231536   1.403   1.250   6.470 -0.5224 -0.2803 -1.3092
 6692SOL     OW31537   0.430   3.327   4.142  0.1264 -0.4824 -0.1687
 6692SOL    HW131538   0.347   3.371   4.128  0.5898  0.4774  0.1306
 6692SOL    HW231539   0.395   3.238   4.143 -0.1136 -0.3807  0.4045
 6693SOL     OW31540   3.306   1.630   4.417 -0.4462  0.6258 -0.1251
 6693SOL    HW131541   3.371   1.570   4.455 -4.3756 -1.9427  2.5513
 6693SOL    HW231542   3.244   1.572   4.373 -0.3400 -0.7970  1.6292
 6694SOL     OW31543   0.900   1.790   8.859 -0.1135  0.2498  0.4344
 6694SOL    HW131544   0.917   1.763   8.949  2.8403 -3.9569 -1.3804
 6694SOL    HW231545   0.945   1.712   8.827 -1.6933 -0.4679 -0.0553
 6695SOL     OW31546   1.973   2.400   3.181 -0.0400 -0.1614 -0.2819
 6695SOL    HW131547   1.918   2.473   3.211  1.9482  0.3540  2.0950
 6695SOL    HW231548   2.056   2.442   3.159  0.2612  0.3880  1.9544
 6696SOL     OW31549   0.776   3.227   7.845 -0.7116  0.1990  0.3717
 6696SOL    HW131550   0.740   3.157   7.899 -1.7031  0.9417  0.6689
 6696SOL    HW231551   0.782   3.302   7.903  1.0622 -0.1143  0.5965
 6697SOL     OW31552   0.747   3.807   2.060  0.4257 -0.1006  0.3603
 6697SOL    HW131553   0.815   3.875   2.052 -1.1187  1.2599 -1.0960
 6697SOL    HW231554   0.744   3.799   2.155  0.0634 -2.4053  0.1408
 6698SOL     OW31555   1.308   2.543   2.827 -0.4782  0.7090  0.7339
 6698SOL    HW131556   1.371   2.522   2.897  1.2352 -0.1456 -1.0827
 6698SOL    HW231557   1.290   2.459   2.785  3.0131 -0.2215  1.0793
 6699SOL     OW31558   2.285   2.888  10.890 -0.2711 -0.0330 -0.3883
 6699SOL    HW131559   2.309   2.816  10.832 -0.3886  0.4434 -1.0288
 6699SOL    HW231560   2.371   2.918  10.921 -1.1351  0.8406  1.2083
 6700SOL     OW31561   1.859   3.039   5.819 -0.2490  0.3390  0.2978
 6700SOL    HW131562   1.797   2.967   5.813 -1.1315  1.2573 -1.6491
 6700SOL    HW231563   1.797   3.111   5.828 -3.2899 -1.9231 -2.7168
 6701SOL     OW31564   0.745   3.000   7.288  0.2406  0.1167  0.3717
 6701SOL    HW131565   0.769   2.971   7.200 -0.5501 -0.2670  0.2777
 6701SOL    HW231566   0.655   2.968   7.290  0.3796 -0.2732  0.3910
 6702SOL     OW31567   1.242   2.756   0.287  0.1254 -0.0723 -0.0691
 6702SOL    HW131568   1.250   2.662   0.276 -0.1407 -0.1575  0.4415
 6702SOL    HW231569   1.147   2.758   0.293  0.1067 -1.4605 -0.0271
 6703SOL     OW31570   3.212   2.457  15.691  0.5824 -0.3242 -0.1523
 6703SOL    HW131571   3.263   2.507  15.628  1.5203 -2.4986 -1.1321
 6703SOL    HW231572   3.168   2.397  15.630 -0.8063 -1.6590  2.1727
 6704SOL     OW31573   2.209   0.589  14.229 -0.2367  0.3159 -0.2382
 6704SOL    HW131574   2.186   0.682  14.229  0.2591  0.4379 -1.0390
 6704SOL    HW231575   2.182   0.565  14.318 -1.4326 -0.3424 -0.7794
 6705SOL     OW31576   3.315   0.021   0.519 -0.4719  0.1409  0.3326
 6705SOL    HW131577   3.388   4.679   0.510  1.0336  2.0039 -0.2160
 6705SOL    HW231578   3.238   4.685   0.515 -0.5285  0.2397  0.0049
 6706SOL     OW31579   1.281   0.008  15.057 -0.2407  0.1793  0.2530
 6706SOL    HW131580   1.351   0.058  15.015 -0.3568  0.6065  0.5739
 6706SOL    HW231581   1.322   4.707  15.141 -0.1684  0.3120  0.2498
 6707SOL     OW31582   1.022   1.196   2.291 -0.1893  0.4627  0.3274
 6707SOL    HW131583   1.010   1.199   2.386 -2.4354 -1.2371  0.0898
 6707SOL    HW231584   1.092   1.259   2.275 -1.1847  1.5215  0.0936
 6708SOL     OW31585   0.025   2.860  10.654 -0.2544  0.5650  0.5550
 6708SOL    HW131586   4.713   2.838  10.567 -2.3570  0.2509  1.4121
 6708SOL    HW231587   0.060   2.775  10.679  1.1632  0.7295 -0.8657
 6709SOL     OW31588   4.486   3.334  15.928 -0.0249 -0.4876 -0.1215
 6709SOL    HW131589   4.529   3.419  15.935 -2.2529  0.5350  1.1226
 6709SOL    HW231590   4.463   3.326  15.835  2.3871  0.3741 -0.7871
 6710SOL     OW31591   4.575   3.488   2.850  0.1133 -0.5839 -0.3192
 6710SOL    HW131592   4.650   3.488   2.909  2.1822  0.1480 -2.9276
 6710SOL    HW231593   4.616   3.493   2.764  0.5311  0.6598 -0.0563
 6711SOL     OW31594   1.981   2.288  10.179 -0.4002  0.3613 -0.1881
 6711SOL    HW131595   2.064   2.256  10.214 -1.2165  0.0138  1.4325
 6711SOL    HW231596   1.931   2.209  10.159 -0.3336  0.7689 -1.9005
 6712SOL     OW31597   2.956   3.860  12.975  0.3774  0.3039 -0.1582
 6712SOL    HW131598   2.861   3.861  12.985  0.6879  1.1178  2.7842
 6712SOL    HW231599   2.970   3.942  12.927  0.5743  0.2479 -0.1960
 6713SOL     OW31600   1.303   1.400  11.395  0.2045 -0.3148 -0.5376
 6713SOL    HW131601   1.272   1.490  11.407  1.4928 -0.4010  3.2896
 6713SOL    HW231602   1.301   1.370  11.486  2.1580 -0.7225 -0.6422
 6714SOL     OW31603   0.660   0.622   7.958  0.6322 -0.3428 -0.8024
 6714SOL    HW131604   0.624   0.694   7.905 -0.7019 -0.4302 -0.0083
 6714SOL    HW231605   0.601   0.552   7.932 -0.2076  0.3183 -0.6789
 6715SOL     OW31606   4.206   3.750   3.903  0.1238  0.6986  0.1772
 6715SOL    HW131607   4.122   3.707   3.887  0.6453  0.5539 -2.1646
 6715SOL    HW231608   4.241   3.687   3.966 -1.0396 -0.1998 -0.0806
 6716SOL     OW31609   1.111   1.352   8.039  0.2599 -0.2439  0.2688
 6716SOL    HW131610   1.107   1.415   8.111 -0.3548  0.2817 -0.2242
 6716SOL    HW231611   1.204   1.332   8.053  0.4570  0.6019  0.1612
 6717SOL     OW31612   0.976   3.966   3.426 -0.1250 -0.2467 -0.3380
 6717SOL    HW131613   0.918   3.932   3.358  0.2490  0.1002 -0.8266
 6717SOL    HW231614   1.025   4.033   3.381 -2.1664  0.5109 -1.4298
 6718SOL     OW31615   3.760   0.907   2.598 -0.4644 -0.0678  0.2037
 6718SOL    HW131616   3.742   0.930   2.507  2.4303  0.5706 -0.2018
 6718SOL    HW231617   3.678   0.860   2.615 -0.2183 -0.5316  0.0928
 6719SOL     OW31618   4.190   1.383  11.135  0.2756  0.0783  0.2259
 6719SOL    HW131619   4.166   1.453  11.196  3.2010  0.7111  0.6539
 6719SOL    HW231620   4.259   1.428  11.085 -0.7838 -0.5132 -1.7564
 6720SOL     OW31621   1.966   3.569   4.890  0.0022  0.2738 -0.1749
 6720SOL    HW131622   1.913   3.649   4.899 -0.9683 -0.3254 -0.5640
 6720SOL    HW231623   1.933   3.538   4.806 -2.9639 -0.9169  1.4334
 6721SOL     OW31624   3.334   3.883  12.977 -0.1253  0.1805 -0.1537
 6721SOL    HW131625   3.286   3.941  13.036 -0.9644  0.1124 -0.7634
 6721SOL    HW231626   3.422   3.882  13.014 -0.5296 -0.3922  0.8143
 6722SOL     OW31627   1.246   0.722   9.298 -0.0951 -0.3810 -0.7305
 6722SOL    HW131628   1.291   0.755   9.221 -0.1337  0.8402 -0.2370
 6722SOL    HW231629   1.274   0.798   9.350  1.9452 -0.3329 -1.9190
 6723SOL     OW31630   0.570   0.159   3.067  0.2850  0.0407 -0.1392
 6723SOL    HW131631   0.650   0.141   3.117  0.6718  0.8018 -0.4868
 6723SOL    HW231632   0.589   0.251   3.051 -0.7527  0.0158 -1.5223
 6724SOL     OW31633   3.213   0.386   3.309  0.3128  0.0119  0.7043
 6724SOL    HW131634   3.295   0.395   3.357  1.2462 -1.8372 -0.5640
 6724SOL    HW231635   3.249   0.329   3.242 -0.7389  1.7265 -1.3297
 6725SOL     OW31636   3.322   1.766   5.801  0.6126 -0.0223  0.2096
 6725SOL    HW131637   3.379   1.691   5.783 -0.4336 -0.9253  0.6597
 6725SOL    HW231638   3.247   1.760   5.741 -0.4050 -0.4313  1.5310
 6726SOL     OW31639   3.266   3.571   8.542  0.5989 -0.1980 -0.1082
 6726SOL    HW131640   3.268   3.592   8.635 -2.1310 -0.8165  0.0688
 6726SOL    HW231641   3.327   3.497   8.538  2.6931  1.4934  0.5105
 6727SOL     OW31642   1.938   4.567   7.744 -0.3701  0.7029 -0.0115
 6727SOL    HW131643   1.951   4.659   7.718  1.3562  1.1196  2.3472
 6727SOL    HW231644   2.027   4.544   7.771 -0.3171  0.7726 -0.1216
 6728SOL     OW31645   1.442   4.139   6.224 -0.2716  0.0239  1.3046
 6728SOL    HW131646   1.469   4.223   6.260  0.5533 -0.7829  2.5847
 6728SOL    HW231647   1.353   4.158   6.193  0.4377 -0.0906 -0.7711
 6729SOL     OW31648   2.045   3.077   5.991  0.0208  0.0809 -0.3354
 6729SOL    HW131649   2.000   3.095   5.909  0.6041 -0.8086 -0.8468
 6729SOL    HW231650   1.985   3.029   6.047 -0.2151  0.2104 -0.4771
 6730SOL     OW31651   2.307   3.496   2.605  0.0699 -0.1928 -0.2577
 6730SOL    HW131652   2.318   3.462   2.694  1.0542 -0.8998 -0.6506
 6730SOL    HW231653   2.305   3.414   2.556 -2.1448 -0.5451  0.3908
 6731SOL     OW31654   3.362   1.145  14.838 -0.1542 -0.4815  0.3639
 6731SOL    HW131655   3.412   1.219  14.803 -1.8305  0.5942  0.2732
 6731SOL    HW231656   3.329   1.099  14.761  1.1519  0.4514 -0.7719
 6732SOL     OW31657   0.381   2.951  15.463  0.0877  0.5506 -0.3686
 6732SOL    HW131658   0.301   2.920  15.505 -0.9893  1.3993 -1.7775
 6732SOL    HW231659   0.441   2.985  15.529  0.1380  0.8298 -0.5572
 6733SOL     OW31660   4.264   3.484   7.631 -0.1765 -0.5325  1.1620
 6733SOL    HW131661   4.204   3.505   7.559 -0.8155  0.0091  1.8442
 6733SOL    HW231662   4.259   3.390   7.615 -0.5378 -0.1267 -1.0792
 6734SOL     OW31663   4.388   0.089  15.237 -0.1784 -0.2925 -0.2072
 6734SOL    HW131664   4.467   0.138  15.262 -1.0067  1.8625 -1.7832
 6734SOL    HW231665   4.382   0.025  15.308 -0.3293  2.3487  2.1828
 6735SOL     OW31666   1.957   2.414   3.892 -0.0662 -0.1249  0.8458
 6735SOL    HW131667   1.868   2.439   3.869 -0.3312 -2.1222 -0.3032
 6735SOL    HW231668   2.008   2.471   3.834  1.4284 -1.2642  1.0263
 6736SOL     OW31669   4.658   3.483   2.592  0.1476 -0.1323  0.1788
 6736SOL    HW131670   4.640   3.570   2.556  0.9562 -0.5257 -1.1794
 6736SOL    HW231671   0.010   3.452   2.537 -2.0847 -1.8176 -1.7938
 6737SOL     OW31672   1.846   1.344  16.414 -0.1527 -0.2858 -0.4506
 6737SOL    HW131673   1.773   1.288  16.440 -3.1466  3.5800 -0.4465
 6737SOL    HW231674   1.917   1.323  16.474 -2.2362 -1.6599  1.5458
 6738SOL     OW31675   1.511   2.725   9.030  0.2450  0.0682  0.0138
 6738SOL    HW131676   1.510   2.632   9.052 -0.2673  0.0742  0.0003
 6738SOL    HW231677   1.569   2.729   8.953  0.5220  0.0328  0.2180
 6739SOL     OW31678   4.195   3.490  17.339  0.1124  0.1155 -0.4588
 6739SOL    HW131679   4.125   3.445  17.386 -0.2001  0.5207 -0.5258
 6739SOL    HW231680   4.148   3.569  17.312 -0.3335  0.4040  1.1734
 6740SOL     OW31681   3.022   3.948   1.377  0.0762 -0.3189 -0.6188
 6740SOL    HW131682   3.084   3.950   1.305  0.8611  1.4229  0.1320
 6740SOL    HW231683   2.956   3.885   1.347 -1.1382  0.7483 -0.2081
 6741SOL     OW31684   3.855   4.629   0.689 -0.0419 -0.0697  0.1915
 6741SOL    HW131685   3.772   4.674   0.676 -0.8303 -1.0718  1.8002
 6741SOL    HW231686   3.831   4.566   0.756 -0.2859  0.8448  0.9632
 6742SOL     OW31687   3.365   3.331   4.988  0.0751 -0.3456 -0.8497
 6742SOL    HW131688   3.350   3.404   4.928 -0.0167  1.2665  1.1155
 6742SOL    HW231689   3.350   3.253   4.935 -2.3352 -1.4226  1.4255
 6743SOL     OW31690   4.289   0.001   3.628  0.0847  0.0790 -0.0211
 6743SOL    HW131691   4.371   4.675   3.614  0.5974  1.1433 -0.4625
 6743SOL    HW231692   4.314   0.055   3.703  0.6763 -1.1985  0.6954
 6744SOL     OW31693   1.967   0.526   1.560 -0.0612 -0.1380 -0.9311
 6744SOL    HW131694   2.041   0.543   1.618 -0.4854  1.0995 -0.7531
 6744SOL    HW231695   1.990   0.588   1.491  3.0196 -0.7128 -0.4076
 6745SOL     OW31696   0.678   3.457   9.675 -0.2243 -0.4446 -0.7245
 6745SOL    HW131697   0.691   3.382   9.617 -0.2709 -0.4365 -0.7456
 6745SOL    HW231698   0.714   3.527   9.620  0.1071 -0.9204 -1.1118
 6746SOL     OW31699   1.735   0.364   9.549 -0.1699 -0.5211  0.0446
 6746SOL    HW131700   1.817   0.324   9.520 -0.6457 -0.5384 -1.2657
 6746SOL    HW231701   1.749   0.459   9.547  1.5886 -0.7288  2.0077
 6747SOL     OW31702   3.453   0.806  16.895  0.1989  0.0993 -0.0190
 6747SOL    HW131703   3.384   0.805  16.962  0.5261 -0.6112  0.2963
 6747SOL    HW231704   3.454   0.902  16.885 -0.0758  0.2413  1.3160
 6748SOL     OW31705   0.174   2.958   3.324  0.3969 -0.1017  0.6978
 6748SOL    HW131706   0.109   2.892   3.300  1.9124 -0.8384 -1.4008
 6748SOL    HW231707   0.249   2.926   3.275  1.3728  3.2383 -0.0251
 6749SOL     OW31708   3.469   2.253  10.013  0.1986 -0.5568 -0.1733
 6749SOL    HW131709   3.420   2.171  10.012 -0.3462 -0.2312 -0.1756
 6749SOL    HW231710   3.558   2.230  10.039  0.4857 -0.0821 -0.7204
 6750SOL     OW31711   1.153   0.416   4.040 -0.4182 -0.0783  0.3773
 6750SOL    HW131712   1.199   0.471   4.103  0.6552 -0.4281 -0.1044
 6750SOL    HW231713   1.130   0.337   4.089  2.1828 -0.7890  0.4546
 6751SOL     OW31714   3.712   4.377  13.236  0.4946 -0.0269 -0.1635
 6751SOL    HW131715   3.775   4.433  13.280 -0.6509  1.2680 -0.1730
 6751SOL    HW231716   3.692   4.407  13.148  0.2535 -0.8173 -0.3822
 6752SOL     OW31717   1.551   0.628   2.235 -0.3583  0.4582  0.6506
 6752SOL    HW131718   1.557   0.692   2.306 -0.3332  2.0292 -0.7806
 6752SOL    HW231719   1.459   0.645   2.214 -0.0398  0.6524 -0.5800
 6753SOL     OW31720   3.022   1.273   2.500  0.3790  0.0550 -0.2046
 6753SOL    HW131721   3.046   1.268   2.407 -0.0736  1.6027 -0.3927
 6753SOL    HW231722   2.932   1.242   2.503 -0.1440  1.6362  0.3340
 6754SOL     OW31723   2.208   4.522  13.335  0.2054 -0.5727 -0.3819
 6754SOL    HW131724   2.229   4.573  13.413 -1.5332 -1.8509  0.9458
 6754SOL    HW231725   2.203   4.433  13.371 -1.9941  0.3032  1.5349
 6755SOL     OW31726   0.579   4.057   4.090 -0.1918 -0.0817 -0.0288
 6755SOL    HW131727   0.596   4.033   4.181 -0.6464 -0.7285 -0.1150
 6755SOL    HW231728   0.558   3.971   4.052 -3.1710  0.6346 -0.0690
 6756SOL     OW31729   2.934   2.677   6.318  0.1764 -1.1885 -0.2422
 6756SOL    HW131730   2.994   2.625   6.372  1.5513 -0.9472 -1.5101
 6756SOL    HW231731   2.889   2.739   6.376  0.7540  0.6619 -1.7529
 6757SOL     OW31732   3.051   2.918  16.194  0.1726 -0.0241  0.1897
 6757SOL    HW131733   3.132   2.890  16.238  1.1902  1.2096 -0.8843
 6757SOL    HW231734   3.085   2.932  16.106 -0.6862 -1.7467 -0.4121
 6758SOL     OW31735   1.438   3.480   6.788  0.4086  0.1474  0.0929
 6758SOL    HW131736   1.529   3.495   6.812  0.3261 -1.6918  1.5172
 6758SOL    HW231737   1.388   3.553   6.825  0.3867 -0.8005  1.9172
 6759SOL     OW31738   4.049   2.963   7.146 -0.2699 -0.0568 -0.0232
 6759SOL    HW131739   4.101   2.938   7.222 -1.7217 -0.8894  0.6834
 6759SOL    HW231740   3.971   2.996   7.191 -0.9746  0.4966 -1.6106
 6760SOL     OW31741   1.072   1.897   5.421 -0.2011  0.5095  0.3031
 6760SOL    HW131742   1.051   1.945   5.341  2.6315  1.1499 -0.0659
 6760SOL    HW231743   0.983   1.878   5.450  0.4705 -0.9387  1.4314
 6761SOL     OW31744   0.568   3.914   9.855 -0.0574 -0.0602 -0.5762
 6761SOL    HW131745   0.482   3.895   9.894  0.7075  0.4174  1.3709
 6761SOL    HW231746   0.613   3.869   9.926 -1.2881 -0.3487  0.0173
 6762SOL     OW31747   3.128   2.108   9.153 -0.0136  0.1775 -0.1778
 6762SOL    HW131748   3.070   2.164   9.101 -2.3918 -3.4124 -1.4200
 6762SOL    HW231749   3.204   2.097   9.096 -0.1135 -1.2450 -0.0530
 6763SOL     OW31750   2.569   0.704   4.229  0.1942  0.1439  0.1972
 6763SOL    HW131751   2.477   0.718   4.253 -0.2835 -1.0035 -0.9462
 6763SOL    HW231752   2.593   0.785   4.185 -0.0576 -0.2232 -0.6250
 6764SOL     OW31753   3.144   0.027  11.454  0.7609 -0.0541 -0.4536
 6764SOL    HW131754   3.176   0.016  11.543  0.9783 -1.4157 -0.7032
 6764SOL    HW231755   3.078   4.678  11.455  0.1189  0.5448 -1.7428
 6765SOL     OW31756   2.689   3.815   6.588  0.8103  0.6405 -0.1349
 6765SOL    HW131757   2.707   3.873   6.514  0.4036  0.4146 -0.4097
 6765SOL    HW231758   2.777   3.782   6.609  0.0441 -1.2930  0.0463
 6766SOL     OW31759   1.703   3.713   4.930 -0.3158  0.6918 -0.0788
 6766SOL    HW131760   1.693   3.625   4.966  3.0948  0.1314 -0.4269
 6766SOL    HW231761   1.651   3.765   4.992 -0.3728  0.9484 -0.3431
 6767SOL     OW31762   1.889   4.164   4.598  0.5597  0.0790 -0.1055
 6767SOL    HW131763   1.878   4.090   4.659 -0.3215  1.1121  0.9823
 6767SOL    HW231764   1.974   4.195   4.631 -0.0923 -0.8608  2.4747
 6768SOL     OW31765   2.461   3.527  10.146 -0.3392  0.0518 -0.3488
 6768SOL    HW131766   2.520   3.458  10.178  0.8256  0.1706 -2.2569
 6768SOL    HW231767   2.433   3.568  10.228 -0.1503 -0.1779 -0.1665
 6769SOL     OW31768   2.583   3.545  14.564  0.2187  0.1751  0.1664
 6769SOL    HW131769   2.675   3.533  14.540  0.2936  0.0531  0.5249
 6769SOL    HW231770   2.544   3.602  14.498 -1.6841  1.1753  2.1714
 6770SOL     OW31771   0.266   4.591  16.832  0.0135  0.3878 -0.1415
 6770SOL    HW131772   0.284   4.568  16.923 -0.6600 -0.7130 -0.2794
 6770SOL    HW231773   0.172   4.574  16.830  0.3011 -1.4581  2.0374
 6771SOL     OW31774   2.492   4.199   9.512 -0.2625 -0.3308  0.1187
 6771SOL    HW131775   2.517   4.108   9.528 -0.6389 -0.5377 -0.4575
 6771SOL    HW231776   2.574   4.247   9.517 -1.0813  1.1890 -0.7522
 6772SOL     OW31777   3.601   2.153   0.677 -0.0214  0.0097 -0.8599
 6772SOL    HW131778   3.582   2.111   0.761 -1.5872  1.4943 -0.4831
 6772SOL    HW231779   3.598   2.075   0.621 -0.5449  0.2333 -1.1386
 6773SOL     OW31780   3.914   0.371   4.840 -0.2617 -0.5868 -0.0052
 6773SOL    HW131781   3.829   0.414   4.846  0.9834  1.5050  2.4958
 6773SOL    HW231782   3.915   0.303   4.907  3.1391  2.6420  3.1951
 6774SOL     OW31783   0.136   1.844  10.054  0.2391  0.1272  0.1808
 6774SOL    HW131784   0.096   1.929  10.074 -0.6996 -0.0554 -0.9004
 6774SOL    HW231785   0.223   1.867  10.021  0.1745  1.6256  1.0412
 6775SOL     OW31786   1.119   2.405   8.205  0.2951  0.0932  0.4727
 6775SOL    HW131787   1.124   2.498   8.181  0.5077  0.3723  1.5633
 6775SOL    HW231788   1.024   2.400   8.191 -0.0862  2.3851  2.2357
 6776SOL     OW31789   3.092   1.200  13.055 -0.1806 -0.2212  0.0609
 6776SOL    HW131790   3.123   1.282  13.016 -1.0715 -0.2203 -0.6514
 6776SOL    HW231791   3.005   1.238  13.045  0.1939  0.7268  0.4110
 6777SOL     OW31792   1.390   0.171   4.102  0.3535 -0.2734 -0.2379
 6777SOL    HW131793   1.298   0.150   4.119  0.3565  1.6689  2.1382
 6777SOL    HW231794   1.418   0.110   4.034  1.1945 -0.0091 -0.1287
 6778SOL     OW31795   1.816   1.768   3.749  0.0100  0.6130 -0.1855
 6778SOL    HW131796   1.907   1.782   3.776  0.0243 -1.0888  0.7083
 6778SOL    HW231797   1.778   1.739   3.832 -1.6333 -1.4722 -1.6796
 6779SOL     OW31798   3.467   0.191   6.958  0.1112 -0.1205 -0.1329
 6779SOL    HW131799   3.394   0.194   7.019  1.3438 -0.2795  1.3407
 6779SOL    HW231800   3.461   0.279   6.919 -2.0204  0.0059  0.4933
 6780SOL     OW31801   4.363   3.360   3.369 -0.5684  0.1377  0.4833
 6780SOL    HW131802   4.393   3.405   3.290  0.8369 -1.1184  0.3028
 6780SOL    HW231803   4.327   3.434   3.418  0.5995 -0.0999  1.7213
 6781SOL     OW31804   1.897   0.933   4.017  0.3072  0.3659 -0.7598
 6781SOL    HW131805   1.839   0.960   3.947  0.7931  1.5730 -0.6963
 6781SOL    HW231806   1.874   0.841   4.030  1.6870  0.3256  1.5768
 6782SOL     OW31807   2.964   1.719   6.459  0.1170 -0.5414  0.3378
 6782SOL    HW131808   3.052   1.736   6.427  0.1204  2.0317  1.7159
 6782SOL    HW231809   2.944   1.636   6.417 -1.2765 -0.0844  0.1058
 6783SOL     OW31810   3.513   2.026   1.343  0.1932  0.2766 -0.0771
 6783SOL    HW131811   3.592   2.066   1.307  1.1309 -1.7368 -0.2793
 6783SOL    HW231812   3.513   1.939   1.303  0.8784 -0.6497  1.9652
 6784SOL     OW31813   3.387   1.740   7.765 -0.4279 -0.4889 -0.1661
 6784SOL    HW131814   3.346   1.801   7.824 -1.4983 -2.1359  0.7846
 6784SOL    HW231815   3.344   1.774   7.686  0.8000  3.4216  0.8641
 6785SOL     OW31816   1.309   2.959  17.159 -0.5097 -0.0639  0.1676
 6785SOL    HW131817   1.385   2.951  17.217  0.9499  1.0691 -1.5468
 6785SOL    HW231818   1.306   2.873  17.117 -0.6078  1.6568 -3.3314
 6786SOL     OW31819   0.215   1.438   8.601 -0.1327  0.1551 -0.1481
 6786SOL    HW131820   0.264   1.390   8.667  0.8510  0.4211 -0.6893
 6786SOL    HW231821   0.141   1.459   8.658 -0.0940  1.3894 -0.5672
 6787SOL     OW31822   3.755   4.563   8.393 -0.2491 -0.1276 -0.1299
 6787SOL    HW131823   3.764   4.572   8.487 -1.1759  1.2161 -0.1835
 6787SOL    HW231824   3.679   4.504   8.391 -0.6081  0.3639 -1.1268
 6788SOL     OW31825   1.800   0.557   3.095 -0.0194 -0.3908 -0.1810
 6788SOL    HW131826   1.796   0.584   3.003 -1.4074  0.0515  0.0062
 6788SOL    HW231827   1.873   0.495   3.091 -0.5667 -0.9542 -1.3319
 6789SOL     OW31828   2.847   1.059   5.786 -0.0233  0.3165  0.2127
 6789SOL    HW131829   2.902   1.035   5.861 -0.0385 -1.2986 -0.2890
 6789SOL    HW231830   2.761   1.040   5.822 -1.2271  1.8327 -1.8570
 6790SOL     OW31831   4.540   2.024   3.220 -0.0097  0.1539 -0.0976
 6790SOL    HW131832   4.565   2.116   3.208  0.5350  0.0176 -0.0140
 6790SOL    HW231833   4.517   2.021   3.313 -1.1144 -2.3819 -0.4758
 6791SOL     OW31834   0.409   3.422   4.585  0.1887 -0.0584 -0.2611
 6791SOL    HW131835   0.320   3.425   4.551 -0.0146  1.5744  0.4259
 6791SOL    HW231836   0.416   3.509   4.624  1.1367 -0.6974  1.0287
 6792SOL     OW31837   2.112   3.214   5.626 -0.0050  0.1153 -0.0916
 6792SOL    HW131838   2.129   3.221   5.719 -0.2226  2.3935 -0.2099
 6792SOL    HW231839   2.154   3.130   5.608  0.1088  0.5211 -1.7989
 6793SOL     OW31840   4.077   2.009   6.294  0.1913 -0.4262 -0.4954
 6793SOL    HW131841   4.086   1.979   6.384 -1.1196 -0.9464 -0.5398
 6793SOL    HW231842   4.139   2.081   6.288 -0.0092 -0.2168 -0.0192
 6794SOL     OW31843   3.972   0.810   8.072  0.1472  0.6218 -0.1499
 6794SOL    HW131844   3.989   0.904   8.075  0.6028  0.5897 -1.6691
 6794SOL    HW231845   3.877   0.797   8.066  0.1130  1.8060 -2.2431
 6795SOL     OW31846   2.441   3.745  13.996 -0.8377  0.5520 -0.3407
 6795SOL    HW131847   2.532   3.742  14.026 -0.7664  1.7676 -0.4253
 6795SOL    HW231848   2.466   3.743  13.903 -1.3022 -0.9660 -0.4237
 6796SOL     OW31849   2.122   4.503   4.975  0.0588 -0.0416  0.0739
 6796SOL    HW131850   2.096   4.512   4.883  2.5460  0.9010 -0.5388
 6796SOL    HW231851   2.096   4.412   4.985 -0.5830  0.0708 -0.6062
 6797SOL     OW31852   4.338   4.605   3.075 -0.2756 -0.0098  0.1796
 6797SOL    HW131853   4.268   4.646   3.125  0.5600  1.9693 -0.2851
 6797SOL    HW231854   4.394   4.678   3.047  1.0442 -2.3156 -3.2314
 6798SOL     OW31855   4.597   3.368  13.865 -0.3575  0.0765  0.0618
 6798SOL    HW131856   4.669   3.421  13.899  0.2187 -1.1471  0.7481
 6798SOL    HW231857   4.650   3.325  13.798  0.1989  1.3126 -0.2945
 6799SOL     OW31858   2.735   1.411   6.952  0.0806  0.4643 -0.2554
 6799SOL    HW131859   2.642   1.398   6.973 -0.3067  0.3561 -2.0709
 6799SOL    HW231860   2.737   1.504   6.973  0.0009  0.3856  0.0996
 6800SOL     OW31861   0.370   3.582  16.212  0.4561  0.0456 -0.7441
 6800SOL    HW131862   0.404   3.542  16.133  0.0238 -0.3700 -0.7208
 6800SOL    HW231863   0.427   3.659  16.216 -0.8778  0.8487  3.6891
 6801SOL     OW31864   0.113   3.477   4.513  0.6358 -0.2313 -0.3844
 6801SOL    HW131865   0.077   3.554   4.556  4.3146  1.1120  0.2752
 6801SOL    HW231866   0.153   3.514   4.435  2.3954 -0.3707  0.4437
 6802SOL     OW31867   0.136   3.710   2.704 -0.4658 -1.1352 -0.0742
 6802SOL    HW131868   0.225   3.697   2.737  0.3974 -1.9768 -2.7269
 6802SOL    HW231869   0.121   3.625   2.663 -0.3736 -1.4713  0.5832
 6803SOL     OW31870   1.261   0.568   3.352 -0.3928  0.4530  0.2577
 6803SOL    HW131871   1.275   0.554   3.258  0.5408 -2.1462  0.7830
 6803SOL    HW231872   1.348   0.535   3.374 -0.2955  1.6848  1.6315
 6804SOL     OW31873   0.913   2.321   7.456  0.1015 -0.2831  0.0542
 6804SOL    HW131874   0.865   2.243   7.486 -1.0662  0.5634  0.4137
 6804SOL    HW231875   0.982   2.284   7.401 -1.3988 -1.0986 -1.3069
 6805SOL     OW31876   2.320   3.017   5.964 -0.1646 -0.5186 -0.0922
 6805SOL    HW131877   2.233   3.009   6.003 -0.8252  1.5551 -1.1444
 6805SOL    HW231878   2.323   2.943   5.903 -0.0076  0.0897 -0.8279
 6806SOL     OW31879   1.916   3.672   4.149  0.1553  0.0621 -0.3294
 6806SOL    HW131880   1.919   3.755   4.196  0.7933  0.3919 -0.9389
 6806SOL    HW231881   1.867   3.686   4.067  0.8978  1.1913 -0.5910
 6807SOL     OW31882   0.061   0.665   4.285 -0.0738  0.2732 -0.3640
 6807SOL    HW131883   0.108   0.703   4.358  0.6484 -1.4606  0.0815
 6807SOL    HW231884   0.046   0.738   4.225 -0.6663  0.7934  0.4109
 6808SOL     OW31885   4.370   0.867   9.426 -0.0101  0.1253  0.4209
 6808SOL    HW131886   4.448   0.847   9.477  2.5124 -0.5870 -3.7103
 6808SOL    HW231887   4.345   0.778   9.398  1.5420  0.5450 -2.2852
 6809SOL     OW31888   1.285   0.811   5.577  0.1562 -0.1721 -0.2047
 6809SOL    HW131889   1.236   0.812   5.659  2.6528 -1.8073  1.2932
 6809SOL    HW231890   1.372   0.808   5.616  0.0194 -0.7422  0.0472
 6810SOL     OW31891   0.365   2.207   6.848 -0.2392 -0.3102 -0.3253
 6810SOL    HW131892   0.326   2.147   6.785 -1.8184  0.4394 -0.0496
 6810SOL    HW231893   0.417   2.156   6.911 -2.1791 -1.8448  0.0105
 6811SOL     OW31894   4.461   1.043   7.797 -0.3132 -0.0830 -0.0762
 6811SOL    HW131895   4.506   1.120   7.833  0.8598 -0.2461 -1.1911
 6811SOL    HW231896   4.413   1.094   7.732 -0.3084  0.8029  0.6128
 6812SOL     OW31897   1.236   0.514   5.705  0.1001  0.3442 -0.1689
 6812SOL    HW131898   1.241   0.578   5.634  2.0327  1.0147  0.5655
 6812SOL    HW231899   1.218   0.436   5.653  0.8743  1.0572 -1.5082
 6813SOL     OW31900   1.951   0.863   1.875 -0.1625  0.4490  0.2088
 6813SOL    HW131901   1.864   0.841   1.840  0.4532  0.6467 -1.4480
 6813SOL    HW231902   2.008   0.853   1.799 -0.1369 -0.4740  0.3403
 6814SOL     OW31903   0.767   0.499   8.659  0.6151  0.1279  0.1368
 6814SOL    HW131904   0.733   0.438   8.595  1.1973 -0.7709  0.6751
 6814SOL    HW231905   0.758   0.449   8.741  0.7419 -0.8613 -0.4602
 6815SOL     OW31906   2.962   2.982   2.168 -0.1563 -0.2511  0.2883
 6815SOL    HW131907   2.983   3.039   2.095 -0.7610 -1.2263 -0.6489
 6815SOL    HW231908   3.008   2.902   2.143  2.7312  1.6357 -0.3566
 6816SOL     OW31909   4.121   4.437   4.126  0.1332  0.0321  0.0125
 6816SOL    HW131910   4.030   4.434   4.095 -0.3243  1.5699  1.2192
 6816SOL    HW231911   4.114   4.492   4.204  0.3612 -0.2536  0.2353
 6817SOL     OW31912   3.075   0.239  10.001 -0.7477 -0.1833  0.2068
 6817SOL    HW131913   2.980   0.245  10.009 -0.9023  0.9300 -2.4198
 6817SOL    HW231914   3.075   0.228   9.905  1.5007 -0.1607  0.1975
 6818SOL     OW31915   2.518   1.596   2.499  0.3621 -0.5063  0.0964
 6818SOL    HW131916   2.552   1.589   2.588  0.0298  1.6351  0.3950
 6818SOL    HW231917   2.593   1.603   2.441  0.2499  1.3709  0.1691
 6819SOL     OW31918   2.650   0.463  10.218  0.0299  0.3808  0.5271
 6819SOL    HW131919   2.691   0.384  10.255 -1.1924 -0.0360  0.9710
 6819SOL    HW231920   2.612   0.504  10.295  1.4090  0.7133  1.0370
 6820SOL     OW31921   3.634   4.032   5.993  0.2883 -0.2204  0.2182
 6820SOL    HW131922   3.606   4.023   6.084 -0.8013  1.8630  0.0925
 6820SOL    HW231923   3.548   4.055   5.958  0.1497  0.0206  0.7123
 6821SOL     OW31924   4.703   0.014   4.399 -0.4210  0.6393 -0.2129
 6821SOL    HW131925   0.035   0.022   4.319  1.2081  0.5872  0.8412
 6821SOL    HW231926   0.028   0.069   4.463  1.3263 -1.0641  0.0236
 6822SOL     OW31927   4.679   3.474   7.124 -0.1461  0.3228 -0.0223
 6822SOL    HW131928   0.052   3.459   7.107  0.0363 -0.1529  1.3890
 6822SOL    HW231929   4.635   3.462   7.040 -1.0520 -1.2868  0.6845
 6823SOL     OW31930   2.724   0.120   6.370 -0.6177 -0.0361  0.7663
 6823SOL    HW131931   2.725   0.216   6.362 -0.9659 -0.1098 -0.1359
 6823SOL    HW231932   2.713   0.119   6.465  0.6781 -0.5594  0.9206
 6824SOL     OW31933   2.512   1.308   2.436 -0.0143  0.1842  0.3857
 6824SOL    HW131934   2.423   1.279   2.413  0.1686 -1.2784  1.5351
 6824SOL    HW231935   2.491   1.396   2.467  1.0097  0.9771 -1.1753
 6825SOL     OW31936   2.158   3.955   3.133  0.3344  0.2257  0.5160
 6825SOL    HW131937   2.196   3.985   3.050 -1.8333 -1.1685 -1.0143
 6825SOL    HW231938   2.224   3.971   3.200 -1.6698 -0.4654  2.6595
 6826SOL     OW31939   0.331   0.366   6.767 -0.5673 -0.0281  0.1033
 6826SOL    HW131940   0.332   0.271   6.753 -0.8313 -0.5138  3.3415
 6826SOL    HW231941   0.295   0.367   6.856  1.9629 -0.3403  1.1281
 6827SOL     OW31942   2.503   4.590   7.619 -0.0773  0.2151  0.1041
 6827SOL    HW131943   2.499   4.509   7.670  0.6677 -0.0822 -0.3002
 6827SOL    HW231944   2.413   4.621   7.630 -0.2031 -0.4653  1.0028
 6828SOL     OW31945   3.920   3.203   2.527 -0.1028 -0.2192 -0.2499
 6828SOL    HW131946   3.909   3.153   2.608  3.0318 -0.7973 -0.1607
 6828SOL    HW231947   3.832   3.236   2.509  0.1696 -0.4284 -1.9616
 6829SOL     OW31948   0.425   1.654   8.591  0.2519  0.0041  0.0855
 6829SOL    HW131949   0.353   1.639   8.529  0.3256  2.7549 -0.6789
 6829SOL    HW231950   0.500   1.638   8.533  0.4685 -0.2759  0.4442
 6830SOL     OW31951   0.720   0.869   2.742 -0.0491 -0.4950  0.3831
 6830SOL    HW131952   0.661   0.894   2.671  1.5225 -0.9371 -1.0745
 6830SOL    HW231953   0.749   0.791   2.694 -1.0583 -0.4624 -0.2822
 6831SOL     OW31954   1.195   1.347   2.122  0.0320  0.1012 -0.3303
 6831SOL    HW131955   1.129   1.415   2.133 -0.0147 -0.5501  3.4431
 6831SOL    HW231956   1.224   1.374   2.035 -0.0778  1.9583  0.2119
 6832SOL     OW31957   3.457   1.556   5.744 -0.1127 -0.3324 -0.2060
 6832SOL    HW131958   3.544   1.525   5.719 -1.3098 -3.7815 -0.0567
 6832SOL    HW231959   3.439   1.498   5.818 -1.2302 -1.3328 -1.2707
 6833SOL     OW31960   0.509   0.598   8.770 -0.1625 -0.0964  1.1219
 6833SOL    HW131961   0.595   0.575   8.735 -0.1704 -0.2601  1.2111
 6833SOL    HW231962   0.534   0.627   8.857  0.1619 -0.4069  1.1317
 6834SOL     OW31963   3.388   3.671   7.486  0.1993 -0.3004  0.3695
 6834SOL    HW131964   3.454   3.724   7.530  0.5081 -1.1395  0.9162
 6834SOL    HW231965   3.340   3.741   7.442 -0.1101  0.2592  1.6179
 6835SOL     OW31966   2.608   2.008   2.164  0.2721 -0.5358  0.1854
 6835SOL    HW131967   2.683   2.046   2.208 -0.9844 -1.2901  2.9412
 6835SOL    HW231968   2.612   2.066   2.088  1.9651  1.1200  1.5447
 6836SOL     OW31969   3.314   2.807   7.469  0.1469 -0.0468 -0.1722
 6836SOL    HW131970   3.385   2.751   7.500  0.5588  1.7533  2.1455
 6836SOL    HW231971   3.267   2.817   7.552  0.7108  1.6815 -0.0601
 6837SOL     OW31972   1.193   4.155   7.548  0.9099  0.0148  0.1336
 6837SOL    HW131973   1.117   4.173   7.492 -0.7270 -0.8392  2.0656
 6837SOL    HW231974   1.217   4.077   7.497  0.4771  1.1245 -1.7958
 6838SOL     OW31975   0.233   3.595   6.790  0.5951 -0.4383  0.3724
 6838SOL    HW131976   0.213   3.638   6.707  1.4693  0.0178  0.4088
 6838SOL    HW231977   0.212   3.663   6.854 -2.3374 -0.6816 -0.2893
 6839SOL     OW31978   2.723   4.537   5.270 -0.3999  0.3191 -0.1589
 6839SOL    HW131979   2.676   4.616   5.243 -1.1858 -0.4912 -1.1117
 6839SOL    HW231980   2.665   4.467   5.242 -1.5249  0.7885  0.9808
 6840SOL     OW31981   4.719   4.218   3.459 -0.2214  0.6390 -0.0575
 6840SOL    HW131982   0.048   4.295   3.488 -0.3422  1.4531 -2.0103
 6840SOL    HW231983   0.070   4.158   3.435  0.1614  0.8374  0.5578
 6841SOL     OW31984   4.323   2.107   4.667 -0.1003 -0.0979 -0.1744
 6841SOL    HW131985   4.338   2.059   4.748 -0.1153 -0.6659 -0.5059
 6841SOL    HW231986   4.234   2.130   4.693  0.4012  0.9115  0.6341
 6842SOL     OW31987   2.421   0.087  13.193 -0.1031  0.2657 -0.2800
 6842SOL    HW131988   2.348   0.136  13.157  0.3711  0.0333 -1.5623
 6842SOL    HW231989   2.421   0.129  13.279  0.0256 -0.5685  0.1277
 6843SOL     OW31990   4.380   1.090   8.412  0.3047 -0.1200 -0.4452
 6843SOL    HW131991   4.284   1.089   8.402  0.5650  0.8595 -2.9367
 6843SOL    HW231992   4.397   1.057   8.500  1.9538 -0.3348 -0.8504
 6844SOL     OW31993   3.329   3.802  12.374 -0.2343  0.4197 -0.0911
 6844SOL    HW131994   3.306   3.854  12.450  2.0050 -0.2886  1.0912
 6844SOL    HW231995   3.425   3.811  12.370 -0.0137 -0.9683  2.5925
 6845SOL     OW31996   1.182   3.865   4.146  1.2759  0.2940 -0.5306
 6845SOL    HW131997   1.243   3.842   4.216  0.2610 -0.4281  0.1158
 6845SOL    HW231998   1.100   3.868   4.195  0.0150 -0.3982 -2.6365
 6846SOL     OW31999   4.014   2.873   3.538  0.0660 -0.2038 -0.1925
 6846SOL    HW132000   4.034   2.799   3.481  2.7450 -1.2058  2.0033
 6846SOL    HW232001   4.018   2.836   3.626  1.1508  1.5182  0.4935
 6847SOL     OW32002   3.159   0.052   9.006 -0.2998 -0.2324  0.1071
 6847SOL    HW132003   3.251   0.066   8.986 -0.0833  0.8105  1.7923
 6847SOL    HW232004   3.156   0.098   9.090  2.0386  0.2732 -0.0867
 6848SOL     OW32005   3.138   0.269   6.081 -0.1661 -0.2021  0.2889
 6848SOL    HW132006   3.161   0.184   6.043  1.2150 -0.0496  0.7849
 6848SOL    HW232007   3.048   0.257   6.110  0.6593 -0.0923  2.9092
 6849SOL     OW32008   3.099   2.398   5.051 -0.1647  0.1899  0.2097
 6849SOL    HW132009   3.174   2.341   5.065 -0.5332 -0.0441  1.2238
 6849SOL    HW232010   3.118   2.475   5.105  2.9902 -0.2774 -0.2357
 6850SOL     OW32011   3.867   3.725   8.250  0.0828  0.3780  0.2134
 6850SOL    HW132012   3.825   3.756   8.169  0.8328 -0.1851 -0.3981
 6850SOL    HW232013   3.907   3.801   8.292  0.2469  0.1769  0.4195
 6851SOL     OW32014   2.405   1.723  10.141  0.2214  0.1194  0.4073
 6851SOL    HW132015   2.467   1.774  10.089  0.9566 -0.2579  0.9192
 6851SOL    HW232016   2.466   1.659  10.177 -0.6724 -0.4295  0.9449
 6852SOL     OW32017   0.859   3.045   3.307  0.0833 -0.1180  0.2054
 6852SOL    HW132018   0.871   3.089   3.391 -1.4922 -0.2395  0.4812
 6852SOL    HW232019   0.951   3.036   3.282  0.0826  1.3364 -0.2790
 6853SOL     OW32020   3.927   1.305   3.425  0.3669  0.7958 -0.1471
 6853SOL    HW132021   3.940   1.387   3.473  0.5982 -0.8048  2.5591
 6853SOL    HW232022   3.976   1.252   3.488 -1.4922 -1.0826 -0.2630
 6854SOL     OW32023   1.353   3.772   7.944 -0.0586  0.4344 -0.5836
 6854SOL    HW132024   1.321   3.685   7.920  1.1010  0.4080 -2.0185
 6854SOL    HW232025   1.298   3.836   7.898  0.8380  0.7495 -1.2272
 6855SOL     OW32026   4.040   3.867   4.457  0.5124  0.1153  0.5092
 6855SOL    HW132027   3.947   3.881   4.479  0.6130  1.7716 -0.1323
 6855SOL    HW232028   4.077   3.813   4.527 -0.1969 -1.9013 -0.6598
 6856SOL     OW32029   4.084   2.709   3.756 -0.1911  0.4256  0.3098
 6856SOL    HW132030   4.039   2.628   3.730  2.2245 -0.1050 -2.2418
 6856SOL    HW232031   4.109   2.687   3.846  1.1934  2.1528  0.3570
 6857SOL     OW32032   0.156   3.881  11.202 -0.2722 -0.4429  0.2264
 6857SOL    HW132033   0.127   3.913  11.117 -0.3843 -1.2809 -0.0536
 6857SOL    HW232034   0.095   3.807  11.213  1.6196 -1.7819  1.8192
 6858SOL     OW32035   2.118   4.309   4.564 -0.1026 -0.4596 -0.1899
 6858SOL    HW132036   2.092   4.333   4.475 -2.5877  0.2373  0.7370
 6858SOL    HW232037   2.207   4.276   4.549 -0.5468 -2.1572  0.9903
 6859SOL     OW32038   3.603   1.514   1.182  0.1600  0.4481  0.0915
 6859SOL    HW132039   3.529   1.479   1.133  0.8578 -3.3370  1.7184
 6859SOL    HW232040   3.673   1.452   1.159 -0.4815 -0.2559  0.0426
 6860SOL     OW32041   1.976   3.519   9.932 -0.0293 -0.0103  0.1204
 6860SOL    HW132042   1.988   3.442   9.876  4.1313  0.5112  0.2968
 6860SOL    HW232043   1.897   3.553   9.891  0.8395  1.9114  0.0531
 6861SOL     OW32044   2.254   4.482   7.135 -0.3559  0.5317 -0.0711
 6861SOL    HW132045   2.190   4.522   7.077  1.0096 -0.4369 -2.2106
 6861SOL    HW232046   2.320   4.552   7.136  0.8695 -0.6481  1.5986
 6862SOL     OW32047   3.321   2.130   0.420 -0.5100 -0.0185 -0.6613
 6862SOL    HW132048   3.379   2.204   0.402 -0.5407  0.3417  0.7668
 6862SOL    HW232049   3.260   2.154   0.490 -0.2635  0.1508 -0.5045
 6863SOL     OW32050   2.925   1.369   0.777  0.0048 -0.0984  0.1450
 6863SOL    HW132051   2.846   1.327   0.744  0.5035 -0.5721 -0.4423
 6863SOL    HW232052   2.986   1.295   0.772 -1.4849 -1.2176 -1.3445
 6864SOL     OW32053   3.308   4.552   9.692  0.2065 -0.4760  0.2785
 6864SOL    HW132054   3.303   4.619   9.760 -2.4439  1.2000 -1.5705
 6864SOL    HW232055   3.272   4.472   9.731  0.2116 -1.4627 -1.7520
 6865SOL     OW32056   1.606   1.072   6.833  0.0834  0.1104  0.0522
 6865SOL    HW132057   1.630   1.154   6.876 -3.1113  0.4056  1.3278
 6865SOL    HW232058   1.610   1.017   6.911 -0.4856 -0.1094 -0.0674
 6866SOL     OW32059   2.730   0.956  11.824 -0.2407  0.3521  0.2441
 6866SOL    HW132060   2.809   0.964  11.769  1.9823  2.5192  3.7357
 6866SOL    HW232061   2.754   0.874  11.867  1.9646  1.0783  0.4241
 6867SOL     OW32062   1.779   2.080   2.728  0.5250  0.1294 -0.5667
 6867SOL    HW132063   1.716   2.091   2.799  2.7345 -0.8191  1.5011
 6867SOL    HW232064   1.734   2.011   2.679 -0.8959  0.0298  0.8788
 6868SOL     OW32065   0.313   2.730   9.671  0.5472  0.7147 -0.3368
 6868SOL    HW132066   0.251   2.793   9.707 -0.7053 -0.3494 -0.6501
 6868SOL    HW232067   0.292   2.647   9.714  0.7424  0.1890 -1.2594
 6869SOL     OW32068   4.680   3.779   0.446  0.2566  0.4673  0.1492
 6869SOL    HW132069   4.714   3.768   0.357 -0.9912  1.6938 -0.4740
 6869SOL    HW232070   4.592   3.811   0.426 -0.1688 -1.2352 -0.6770
 6870SOL     OW32071   2.005   1.825  13.230 -0.5098 -0.2815 -0.1096
 6870SOL    HW132072   1.981   1.737  13.260  1.0874  0.1634  2.4355
 6870SOL    HW232073   2.031   1.806  13.140 -0.5958  0.9956 -0.3964
 6871SOL     OW32074   1.597   4.345  15.978 -0.3217 -0.4117 -0.2017
 6871SOL    HW132075   1.543   4.266  15.975  0.6343 -1.1120  0.8697
 6871SOL    HW232076   1.629   4.345  15.888  0.3195 -0.2742  0.0229
 6872SOL     OW32077   1.471   2.128   8.081  0.6144  0.0261 -0.3679
 6872SOL    HW132078   1.394   2.168   8.040  0.5180 -0.5171 -0.7156
 6872SOL    HW232079   1.505   2.093   7.999 -1.0182 -0.6047 -0.7828
 6873SOL     OW32080   2.539   3.410   4.539 -0.1251 -0.5746 -0.1445
 6873SOL    HW132081   2.563   3.489   4.588 -0.2493 -0.3340 -0.4768
 6873SOL    HW232082   2.455   3.437   4.504  0.1137  1.8568  1.2033
 6874SOL     OW32083   2.772   0.345   2.557 -0.2671 -0.0151 -0.5614
 6874SOL    HW132084   2.677   0.335   2.565 -0.2891  0.5165 -0.1585
 6874SOL    HW232085   2.782   0.297   2.476  0.9595  0.8876 -0.9480
 6875SOL     OW32086   2.857   4.587  11.928 -0.2453 -0.4292 -0.8553
 6875SOL    HW132087   2.767   4.583  11.962 -1.0537 -2.2521 -3.2140
 6875SOL    HW232088   2.861   4.510  11.872  1.6707 -1.4965  0.7222
 6876SOL     OW32089   3.706   0.694   6.976 -0.4334 -0.0475  0.1483
 6876SOL    HW132090   3.799   0.671   6.974 -0.6726 -1.2897  3.3747
 6876SOL    HW232091   3.691   0.721   6.886 -0.3041  4.0011  1.3296
 6877SOL     OW32092   0.355   2.471  11.648 -0.6236 -0.2788 -0.5221
 6877SOL    HW132093   0.387   2.450  11.560  2.0940 -2.9480  1.1663
 6877SOL    HW232094   0.351   2.567  11.645 -1.6209 -0.2843  0.7053
 6878SOL     OW32095   3.785   0.022  10.937  0.5803  0.6969  0.2483
 6878SOL    HW132096   3.792   0.114  10.961 -0.4556  0.9932 -0.6229
 6878SOL    HW232097   3.708   4.714  10.987 -0.0709  1.0262 -0.5736
 6879SOL     OW32098   0.055   4.140  15.081 -0.1979 -0.4715 -0.5816
 6879SOL    HW132099   0.149   4.151  15.097 -0.2204  1.1836 -1.5437
 6879SOL    HW232100   0.039   4.235  15.086 -0.6900 -0.6771  1.9906
 6880SOL     OW32101   2.406   0.713   5.526  0.0450 -0.1545  0.0054
 6880SOL    HW132102   2.434   0.655   5.597  0.3987 -0.1811 -0.1560
 6880SOL    HW232103   2.477   0.776   5.527 -1.2854  1.3368 -0.4482
 6881SOL     OW32104   0.959   0.385  15.813 -0.5739 -0.1873  0.3073
 6881SOL    HW132105   1.044   0.376  15.769 -0.3873 -1.7529  0.9934
 6881SOL    HW232106   0.936   0.474  15.786 -3.4181 -0.7885  0.7122
 6882SOL     OW32107   1.073   1.762   0.098  0.1790 -0.2513  0.2077
 6882SOL    HW132108   0.984   1.783   0.128 -1.3283 -4.6173 -1.2301
 6882SOL    HW232109   1.121   1.826   0.149 -1.1323  0.1582  0.9347
 6883SOL     OW32110   4.229   0.531  12.224 -0.2982 -0.0269 -0.2684
 6883SOL    HW132111   4.272   0.510  12.307 -1.5789  2.4213  0.9906
 6883SOL    HW232112   4.154   0.471  12.219 -0.0445 -0.2295 -1.7911
 6884SOL     OW32113   4.489   1.061   6.352  0.2558  0.4849  0.4144
 6884SOL    HW132114   4.424   1.041   6.284  1.0455  0.6319 -0.3930
 6884SOL    HW232115   4.486   1.156   6.341 -1.7173  0.4249  0.4959
 6885SOL     OW32116   0.272   3.126   9.372  0.1228 -0.3113  0.1145
 6885SOL    HW132117   0.220   3.064   9.424 -0.6356  0.8965  0.7903
 6885SOL    HW232118   0.350   3.114   9.427 -1.0640 -0.2367  1.8096
 6886SOL     OW32119   1.482   3.584   0.816  0.4502  0.5253 -0.2883
 6886SOL    HW132120   1.569   3.604   0.850  0.3690 -0.1583  0.3390
 6886SOL    HW232121   1.510   3.568   0.726  0.8052  0.9217 -0.2477
 6887SOL     OW32122   4.665   4.624  15.598  0.3810 -0.0363  0.4430
 6887SOL    HW132123   0.036   4.613  15.571  0.9467 -0.8257  2.6936
 6887SOL    HW232124   4.662   4.719  15.590  1.2371 -0.0472  0.0696
 6888SOL     OW32125   0.254   1.108   3.454  0.2696 -1.2141  0.2462
 6888SOL    HW132126   0.335   1.059   3.467  0.3025 -1.2667 -0.1528
 6888SOL    HW232127   0.204   1.043   3.405 -1.4727  1.1907 -1.1765
 6889SOL     OW32128   3.890   3.278   7.546 -0.4235 -0.6341  0.5548
 6889SOL    HW132129   3.953   3.207   7.552 -1.1502 -1.0154  3.4556
 6889SOL    HW232130   3.814   3.245   7.594  0.5292 -1.7612  1.2853
 6890SOL     OW32131   4.547   2.719  15.926  0.0455 -0.0635  1.0512
 6890SOL    HW132132   4.574   2.689  15.839 -0.8952  0.8988  0.4358
 6890SOL    HW232133   4.548   2.631  15.964 -1.4718 -1.2518 -1.6025
 6891SOL     OW32134   3.902   2.226  12.469  0.4085  0.2378 -0.4139
 6891SOL    HW132135   3.942   2.149  12.511 -3.7346 -0.3559  2.4046
 6891SOL    HW232136   3.872   2.284  12.538 -3.5249 -0.7439 -1.2870
 6892SOL     OW32137   4.619   1.097   9.111 -0.4529  0.4154  0.1871
 6892SOL    HW132138   4.536   1.084   9.156 -0.0320  0.0406  0.8419
 6892SOL    HW232139   4.651   1.007   9.112  0.3997  0.7416  1.2103
 6893SOL     OW32140   4.706   3.021   6.857  0.2217 -0.2779 -0.0372
 6893SOL    HW132141   4.705   2.957   6.786 -1.5713 -0.5514  0.2286
 6893SOL    HW232142   4.652   2.983   6.926  0.0397 -2.3141 -1.2878
 6894SOL     OW32143   2.878   4.406   3.351  0.2826  0.3338 -0.1867
 6894SOL    HW132144   2.834   4.335   3.304 -3.0792  2.2574  0.0605
 6894SOL    HW232145   2.840   4.484   3.309 -0.4463 -0.8617 -1.7778
 6895SOL     OW32146   3.977   2.714  16.195  0.4204  0.4218 -0.5156
 6895SOL    HW132147   3.900   2.747  16.242 -0.5326 -0.5541 -1.3949
 6895SOL    HW232148   3.964   2.754  16.108 -0.5834  2.2191  0.4516
 6896SOL     OW32149   0.363   2.131  12.514  0.0031 -0.1918  0.0838
 6896SOL    HW132150   0.299   2.198  12.493 -0.0876 -0.3805 -0.2433
 6896SOL    HW232151   0.387   2.097  12.428 -0.0928  1.4991 -0.6000
 6897SOL     OW32152   4.175   2.001   7.135  0.4270 -0.2962 -0.6978
 6897SOL    HW132153   4.141   2.082   7.098  0.8694  1.1398  2.0206
 6897SOL    HW232154   4.251   2.034   7.183  0.4517 -0.8136 -0.3780
 6898SOL     OW32155   3.368   1.200   6.895  0.0431  0.6139 -0.2080
 6898SOL    HW132156   3.381   1.284   6.940 -2.3145 -0.6012  2.7386
 6898SOL    HW232157   3.441   1.146   6.924 -0.0453  0.2383 -0.7018
 6899SOL     OW32158   3.566   0.107   7.376  0.4493  0.4249 -0.2054
 6899SOL    HW132159   3.620   0.056   7.315  0.3798 -1.9118  1.6797
 6899SOL    HW232160   3.479   0.066   7.377  0.0213  1.2325 -3.4928
 6900SOL     OW32161   3.348   3.662  13.207  0.3156 -0.2120  0.0767
 6900SOL    HW132162   3.311   3.690  13.124  2.0615  0.6817 -0.4016
 6900SOL    HW232163   3.410   3.732  13.230 -0.0499  0.7452 -1.8995
 6901SOL     OW32164   4.296   0.013   6.641 -1.0555  0.2144  0.2268
 6901SOL    HW132165   4.359   0.047   6.704 -0.1648 -1.9077  0.4581
 6901SOL    HW232166   4.340   0.045   6.563  0.2229 -1.0712  0.4372
 6902SOL     OW32167   1.280   2.713   9.606 -0.3516  0.3908 -0.2473
 6902SOL    HW132168   1.295   2.667   9.524 -0.9355 -0.0116 -0.1284
 6902SOL    HW232169   1.347   2.781   9.608  0.3013 -0.2244 -1.5186
 6903SOL     OW32170   2.096   0.183  14.026 -0.9787  1.0544 -0.8237
 6903SOL    HW132171   2.083   0.275  14.002  0.5779  1.3598 -0.4767
 6903SOL    HW232172   2.096   0.188  14.122 -1.9520 -1.1551 -0.7100
 6904SOL     OW32173   0.720   1.723  15.131  0.6714  0.0460  0.0676
 6904SOL    HW132174   0.717   1.640  15.083  0.3844  0.1535 -0.1006
 6904SOL    HW232175   0.642   1.766  15.095 -0.0520 -0.8870  0.5175
 6905SOL     OW32176   4.103   0.566   2.635  0.2757 -0.3893 -0.0779
 6905SOL    HW132177   4.062   0.480   2.637 -0.3242 -0.0772  1.1339
 6905SOL    HW232178   4.064   0.592   2.552 -1.2817  0.4300  0.8975
 6906SOL     OW32179   2.215   1.027   3.543 -0.0706 -0.0761 -0.1963
 6906SOL    HW132180   2.306   1.009   3.565 -0.5659 -2.3490  0.0023
 6906SOL    HW232181   2.227   1.118   3.517  2.1882 -0.7766 -1.5847
 6907SOL     OW32182   1.528   3.963   3.374 -0.2180  0.2394 -0.3348
 6907SOL    HW132183   1.570   4.046   3.396 -2.9085  1.8421 -1.2171
 6907SOL    HW232184   1.584   3.900   3.420 -0.4597 -0.5923 -1.1770
 6908SOL     OW32185   0.017   1.121  11.289  0.3860 -1.1227 -0.2135
 6908SOL    HW132186   4.687   1.148  11.211  1.3500 -0.4993 -0.6092
 6908SOL    HW232187   0.013   1.203  11.339 -2.7836 -1.0594 -0.5801
 6909SOL     OW32188   0.689   1.527  12.892  0.1333  0.1374 -0.6940
 6909SOL    HW132189   0.611   1.548  12.841 -0.4681 -2.2882 -0.7883
 6909SOL    HW232190   0.732   1.471  12.827  1.3780 -0.3570  0.5369
 6910SOL     OW32191   1.526   3.076   6.332 -0.1876 -0.3771 -0.3397
 6910SOL    HW132192   1.551   2.984   6.327 -1.0315 -0.6557  0.5816
 6910SOL    HW232193   1.548   3.097   6.423  1.2096  1.4869 -1.0938
 6911SOL     OW32194   1.221   2.867   4.216 -0.2666  0.2155  0.4308
 6911SOL    HW132195   1.141   2.918   4.224  0.1564  1.1116 -1.1036
 6911SOL    HW232196   1.271   2.917   4.152 -0.3739  1.5058  1.3668
 6912SOL     OW32197   4.704   3.256   5.059  0.1365  0.1352  0.6916
 6912SOL    HW132198   0.077   3.237   5.047  0.5679  0.3258  3.9784
 6912SOL    HW232199   4.684   3.191   5.126  0.5271 -0.3438  0.3424
 6913SOL     OW32200   2.052   4.198   8.380 -0.0548  0.0350 -0.1581
 6913SOL    HW132201   1.961   4.176   8.359 -0.0722 -1.6822  1.7229
 6913SOL    HW232202   2.054   4.290   8.352 -0.6532  0.3454  0.8135
 6914SOL     OW32203   4.311   4.177   1.861  0.2469  0.2343  0.2443
 6914SOL    HW132204   4.272   4.262   1.884 -0.3324  0.8794 -3.1241
 6914SOL    HW232205   4.390   4.176   1.915  0.2678  0.8034  0.2265
 6915SOL     OW32206   2.351   0.234   9.183  0.7908 -0.1545 -0.3628
 6915SOL    HW132207   2.363   0.229   9.278 -2.5713  1.0042  0.1397
 6915SOL    HW232208   2.331   0.143   9.159 -0.1201 -0.2938  0.9235
 6916SOL     OW32209   2.847   0.437   9.670 -0.4784 -0.2509 -0.8123
 6916SOL    HW132210   2.869   0.349   9.698 -0.5181 -0.8065 -2.5581
 6916SOL    HW232211   2.823   0.482   9.751 -1.2781 -2.9159  0.4326
 6917SOL     OW32212   3.311   4.646  12.163 -0.0034  0.5863 -0.3213
 6917SOL    HW132213   3.397   4.624  12.199 -0.8410 -2.7889 -0.4284
 6917SOL    HW232214   3.261   4.647  12.245  1.2513  0.4008  0.4346
 6918SOL     OW32215   3.809   2.455   3.920  0.4220 -0.0364 -0.6301
 6918SOL    HW132216   3.811   2.517   3.992  1.6616 -3.1681  2.0053
 6918SOL    HW232217   3.736   2.488   3.867 -0.9164 -0.8656  0.7053
 6919SOL     OW32218   4.183   2.770   5.492 -0.2691 -0.3725  0.2115
 6919SOL    HW132219   4.154   2.751   5.402  0.4371  3.6561 -0.8767
 6919SOL    HW232220   4.129   2.702   5.532 -0.7005 -0.3400 -0.3121
 6920SOL     OW32221   0.121   0.101   2.996 -0.5362 -0.6342  0.0223
 6920SOL    HW132222   0.202   0.058   2.970  0.1362  1.5371 -1.4904
 6920SOL    HW232223   0.066   0.039   2.949  0.0773  1.4092 -3.3455
 6921SOL     OW32224   1.328   1.379   5.926  0.1225  0.2954  0.9342
 6921SOL    HW132225   1.393   1.367   5.857 -0.4369  0.1461  0.4269
 6921SOL    HW232226   1.277   1.457   5.906 -1.7452 -0.9006  0.9956
 6922SOL     OW32227   4.586   3.162   2.484  0.2456  0.1486 -0.4929
 6922SOL    HW132228   4.655   3.139   2.546 -0.7175  0.4286  0.6919
 6922SOL    HW232229   4.518   3.185   2.547  1.2676  0.2348  0.5804
 6923SOL     OW32230   1.295   4.551   1.661  0.0154 -0.0614 -0.1399
 6923SOL    HW132231   1.300   4.595   1.576 -2.8344  0.1282 -0.2000
 6923SOL    HW232232   1.232   4.484   1.633  2.6070 -1.9702 -1.4646
 6924SOL     OW32233   3.803   3.751  13.839 -0.0198  0.2733 -0.9675
 6924SOL    HW132234   3.712   3.775  13.820 -0.5276  0.1056  1.1850
 6924SOL    HW232235   3.801   3.722  13.930  0.7975  0.3060 -0.9455
 6925SOL     OW32236   2.783   3.847   1.950  0.1690  0.1200 -0.8197
 6925SOL    HW132237   2.721   3.909   1.987  0.7216 -0.5904  1.3243
 6925SOL    HW232238   2.801   3.879   1.862  1.0149  0.5768 -0.4830
 6926SOL     OW32239   2.493   2.885   2.228 -0.2376  0.4687 -0.1556
 6926SOL    HW132240   2.478   2.800   2.188 -1.2002  0.7545 -0.4075
 6926SOL    HW232241   2.568   2.870   2.286 -0.1826  0.2277 -0.2895
 6927SOL     OW32242   2.639   4.679   0.315  0.5111  0.5336 -0.0030
 6927SOL    HW132243   2.635   4.717   0.227  1.1162  0.2121 -0.1743
 6927SOL    HW232244   2.733   4.660   0.313 -0.0223 -2.2088  1.8469
 6928SOL     OW32245   2.290   2.506  16.360 -0.1189 -0.0430  0.6335
 6928SOL    HW132246   2.214   2.449  16.347 -1.8564  2.7173 -1.2930
 6928SOL    HW232247   2.361   2.444  16.345 -2.2973 -2.0623 -1.3660
 6929SOL     OW32248   1.542   4.442   7.346 -0.1627 -0.3509  0.3797
 6929SOL    HW132249   1.578   4.433   7.258 -2.0200  2.1937 -0.6436
 6929SOL    HW232250   1.471   4.379   7.338 -0.3321 -0.5717  3.5499
 6930SOL     OW32251   2.335   2.928   4.978  0.7349 -0.0652  0.2955
 6930SOL    HW132252   2.302   2.847   5.015 -0.9605 -0.8035 -2.8911
 6930SOL    HW232253   2.401   2.899   4.915  0.9531 -2.5928  1.6883
 6931SOL     OW32254   4.305   1.086   3.466 -0.0339  0.0541  0.0703
 6931SOL    HW132255   4.253   1.078   3.546  0.1501  1.5050  0.3368
 6931SOL    HW232256   4.392   1.076   3.504  0.0108 -0.2442 -0.1091
 6932SOL     OW32257   4.516   2.601   0.934  0.1415  0.6956 -0.1551
 6932SOL    HW132258   4.455   2.530   0.954  3.2818 -2.1679 -0.8054
 6932SOL    HW232259   4.584   2.554   0.887  0.3472  0.9391 -0.1045
 6933SOL     OW32260   2.290   2.205   7.278 -1.0341 -0.5081 -0.3663
 6933SOL    HW132261   2.378   2.221   7.242 -1.4587  0.7700 -0.8433
 6933SOL    HW232262   2.276   2.111   7.265  1.9513 -1.0572  0.2818
 6934SOL     OW32263   4.032   0.068  16.786 -0.1575 -0.4531  0.1778
 6934SOL    HW132264   3.962   0.005  16.803  0.0922 -1.0913 -1.1069
 6934SOL    HW232265   4.097   0.040  16.851  0.7409 -1.6508 -1.2171
 6935SOL     OW32266   3.850   4.416  10.368  0.0381  0.0098  0.0713
 6935SOL    HW132267   3.903   4.451  10.297 -1.8497  1.3811 -0.6440
 6935SOL    HW232268   3.858   4.482  10.436 -2.0400  0.7221 -0.4017
 6936SOL     OW32269   2.267   0.252   2.218  0.2319 -0.1901 -0.2562
 6936SOL    HW132270   2.259   0.202   2.299  2.4524  2.0790  1.3304
 6936SOL    HW232271   2.293   0.341   2.241 -0.0930 -0.3974  0.9183
 6937SOL     OW32272   2.951   0.590  11.857  0.2086 -0.6795 -0.6348
 6937SOL    HW132273   3.014   0.600  11.928  1.7171  0.1136 -2.0873
 6937SOL    HW232274   2.974   0.503  11.823  1.3209 -0.9154  0.7292
 6938SOL     OW32275   0.990   0.826   7.292  0.1404  0.3674  0.1398
 6938SOL    HW132276   1.036   0.909   7.281  1.6113 -0.3326  0.9235
 6938SOL    HW232277   1.061   0.788   7.344 -0.4108 -0.2469  0.4425
 6939SOL     OW32278   1.737   2.547  10.992 -0.1440 -0.0420  0.5422
 6939SOL    HW132279   1.825   2.516  11.013 -0.2675  1.0503  2.7267
 6939SOL    HW232280   1.706   2.495  10.919 -0.6861  0.2799  0.5476
 6940SOL     OW32281   4.281   4.443   0.900 -0.1192  0.3722  0.4405
 6940SOL    HW132282   4.248   4.533   0.906 -0.8422  0.0367  1.3407
 6940SOL    HW232283   4.356   4.462   0.842 -0.3535 -0.4701 -0.1486
 6941SOL     OW32284   1.537   3.870   5.083 -0.2648 -0.4000  0.0775
 6941SOL    HW132285   1.443   3.868   5.100 -0.2569 -0.0592  0.1515
 6941SOL    HW232286   1.563   3.919   5.161 -0.1646 -0.0977 -0.1448
 6942SOL     OW32287   2.085   1.638   5.959  0.7784 -0.4020  0.5214
 6942SOL    HW132288   2.007   1.609   5.912  1.6105  2.0568 -2.4047
 6942SOL    HW232289   2.046   1.685   6.033 -0.2991  3.3927 -2.5116
 6943SOL     OW32290   1.889   2.664  17.229  0.1547 -0.3365  0.3781
 6943SOL    HW132291   1.846   2.580  17.244  0.3489 -0.7718 -1.5749
 6943SOL    HW232292   1.968   2.657  17.282 -0.3618  0.1513  1.2235
 6944SOL     OW32293   0.358   3.614   6.317 -0.0562 -0.4338  0.2181
 6944SOL    HW132294   0.332   3.706   6.316 -0.2467 -0.4739  0.9924
 6944SOL    HW232295   0.436   3.611   6.373 -0.6080  1.0001  1.0698
 6945SOL     OW32296   0.072   0.694  11.991  0.1931  0.2017 -0.1716
 6945SOL    HW132297   0.026   0.611  12.003  2.4292 -0.9581  0.3862
 6945SOL    HW232298   0.003   0.759  11.993 -0.7454 -0.8200  0.2858
 6946SOL     OW32299   3.427   2.423   5.138 -1.0913 -0.2259 -0.2075
 6946SOL    HW132300   3.388   2.336   5.133 -2.3740  0.4052 -1.2446
 6946SOL    HW232301   3.479   2.409   5.059 -1.0070  1.5649 -0.4675
 6947SOL     OW32302   3.841   3.823   2.982 -0.5606  0.2403 -0.0140
 6947SOL    HW132303   3.933   3.835   3.005 -0.2021  0.5685 -1.6646
 6947SOL    HW232304   3.837   3.731   2.958 -0.6862 -0.1858  1.6281
 6948SOL     OW32305   1.100   3.517   9.266 -0.2637  0.0916 -0.6831
 6948SOL    HW132306   1.165   3.465   9.218  1.2472  0.7648  0.6565
 6948SOL    HW232307   1.144   3.602   9.273 -0.7375  0.2961 -0.1965
 6949SOL     OW32308   0.901   3.484  10.909  0.0897 -0.1316 -0.4837
 6949SOL    HW132309   0.875   3.432  10.832  0.9173  0.2816 -1.0450
 6949SOL    HW232310   0.861   3.434  10.980 -1.3408 -0.1876 -1.3315
 6950SOL     OW32311   3.644   2.473   2.729  0.4105 -0.5158  0.6443
 6950SOL    HW132312   3.693   2.422   2.666  1.7850  2.3701 -0.6121
 6950SOL    HW232313   3.717   2.484   2.790 -1.6324 -1.0729  3.2411
 6951SOL     OW32314   2.637   0.426  15.718  0.0569  0.0218 -0.4901
 6951SOL    HW132315   2.635   0.332  15.699 -0.1041 -0.9025  4.2052
 6951SOL    HW232316   2.600   0.421  15.806 -2.0514  1.4373 -1.3054
 6952SOL     OW32317   2.047   2.775  17.029  0.3678  0.4234 -0.2442
 6952SOL    HW132318   1.980   2.729  17.079 -0.3542 -0.5141 -2.0469
 6952SOL    HW232319   2.089   2.697  16.994 -0.3730 -0.7564  1.5262
 6953SOL     OW32320   2.275   3.406  15.222 -0.3533 -0.3399  0.7035
 6953SOL    HW132321   2.198   3.369  15.263  0.7760 -0.7678  2.4478
 6953SOL    HW232322   2.352   3.370  15.267  1.2164 -2.6326 -3.8389
 6954SOL     OW32323   1.287   4.672  16.845  0.1949 -0.0717  0.1460
 6954SOL    HW132324   1.294   4.637  16.756 -1.7633  2.0753 -0.8599
 6954SOL    HW232325   1.325   0.039  16.838  1.0028 -0.2623  2.2155
 6955SOL     OW32326   2.743   1.530   3.303 -0.0654 -0.0112  0.6369
 6955SOL    HW132327   2.815   1.555   3.362 -1.3495  1.4206  1.5894
 6955SOL    HW232328   2.768   1.582   3.227  0.1641  1.8954  2.0054
 6956SOL     OW32329   4.012   2.382   8.865 -0.2853  0.0250 -0.1132
 6956SOL    HW132330   4.011   2.447   8.794  0.8527 -0.9892 -1.0457
 6956SOL    HW232331   4.063   2.432   8.929  1.3311 -0.7068 -0.8274
 6957SOL     OW32332   2.271   4.024   6.979 -0.3828  0.5004 -0.8370
 6957SOL    HW132333   2.212   4.005   6.906 -1.0595 -1.1095  0.1535
 6957SOL    HW232334   2.326   3.947   6.987 -3.5413 -1.6639 -0.2574
 6958SOL     OW32335   3.696   2.491  16.300 -0.0682 -0.3302 -0.1913
 6958SOL    HW132336   3.638   2.431  16.253 -0.0714 -0.4539 -0.0314
 6958SOL    HW232337   3.777   2.477  16.251  0.5426  1.3733  0.3450
 6959SOL     OW32338   0.386   1.440  11.710  0.2248  0.5403 -0.3152
 6959SOL    HW132339   0.436   1.496  11.651  1.1997 -1.3458 -1.2823
 6959SOL    HW232340   0.454   1.379  11.740 -0.0920  1.6377  2.6514
 6960SOL     OW32341   3.980   3.002   7.834 -0.6163 -0.0573  0.3363
 6960SOL    HW132342   3.970   2.942   7.908 -1.2368  0.4416  0.6636
 6960SOL    HW232343   4.003   3.078   7.888  3.6512 -1.3303  0.2472
 6961SOL     OW32344   0.653   2.425   6.086  0.0929 -0.1779  0.1591
 6961SOL    HW132345   0.692   2.403   6.001  0.6910 -3.6701  1.3111
 6961SOL    HW232346   0.732   2.459   6.128  1.5628 -1.3573 -1.6092
 6962SOL     OW32347   4.128   4.089   3.503 -0.1166  0.0708 -0.0712
 6962SOL    HW132348   4.190   4.055   3.568 -0.6330 -2.3496 -0.8385
 6962SOL    HW232349   4.109   4.178   3.531  1.1754  0.8855 -1.8248
 6963SOL     OW32350   1.914   2.499   2.852 -0.0312 -0.3365  0.0174
 6963SOL    HW132351   1.828   2.537   2.836  0.1813  0.9319  1.8620
 6963SOL    HW232352   1.897   2.410   2.884 -2.5364 -0.2327 -1.0871
 6964SOL     OW32353   3.227   1.665   6.376 -0.0320  0.1835  0.1742
 6964SOL    HW132354   3.223   1.653   6.471  3.5650  0.5738  0.3749
 6964SOL    HW232355   3.322   1.655   6.364  0.0893  2.3319 -0.6249
 6965SOL     OW32356   3.960   3.456  12.871 -0.0356  0.6582 -0.6048
 6965SOL    HW132357   3.885   3.480  12.925  1.4314 -1.4985  2.3826
 6965SOL    HW232358   4.016   3.528  12.900 -2.7312  1.4560  2.6186
 6966SOL     OW32359   2.119   0.331   3.316 -0.2432  0.0632  0.4197
 6966SOL    HW132360   2.189   0.320   3.252 -0.7574 -2.1068  0.2255
 6966SOL    HW232361   2.049   0.299   3.260 -0.3859  0.8353  0.1581
 6967SOL     OW32362   2.049   4.597   1.671  0.2299  0.4707 -0.1107
 6967SOL    HW132363   2.027   4.690   1.666  1.0266  0.7972  2.4131
 6967SOL    HW232364   1.999   4.550   1.605  0.8144  1.5675 -1.3368
 6968SOL     OW32365   2.003   3.452   3.331 -0.0355  0.3320 -0.3549
 6968SOL    HW132366   1.965   3.439   3.245  1.5464 -1.1180 -0.8437
 6968SOL    HW232367   2.051   3.535   3.324 -0.6987  0.4776 -3.2516
 6969SOL     OW32368   1.098   1.064   8.246 -0.3611  0.5019 -0.2219
 6969SOL    HW132369   1.037   1.104   8.309 -1.3864 -1.2958 -0.0783
 6969SOL    HW232370   1.070   1.106   8.165 -4.6158  0.5158  1.2413
 6970SOL     OW32371   2.126   1.665  10.066  0.3406  0.2265  0.3948
 6970SOL    HW132372   2.075   1.644  10.144 -1.6785  1.1443 -0.6757
 6970SOL    HW232373   2.211   1.668  10.110 -0.3122  1.2119  1.6011
 6971SOL     OW32374   4.617   0.754   9.577 -0.0217 -0.3698  0.3376
 6971SOL    HW132375   4.650   0.752   9.667 -1.5187 -0.7930  0.8666
 6971SOL    HW232376   4.692   0.804   9.542  0.8448 -1.2504  0.9285
 6972SOL     OW32377   1.017   2.475   2.754 -0.0880 -0.2574 -0.8626
 6972SOL    HW132378   0.955   2.545   2.733  1.8169  2.0623  1.2702
 6972SOL    HW232379   1.040   2.446   2.666  1.2297 -0.1198 -0.5683
 6973SOL     OW32380   3.417   3.377   9.325  0.2854 -0.0849 -1.1721
 6973SOL    HW132381   3.480   3.449   9.332  0.4241 -0.1840 -1.3960
 6973SOL    HW232382   3.344   3.409   9.378  0.1981 -0.1546 -1.2498
 6974SOL     OW32383   3.417   1.154  13.996 -0.4794  0.0502  0.2158
 6974SOL    HW132384   3.373   1.148  14.080 -1.9649  0.8982 -0.5091
 6974SOL    HW232385   3.334   1.148  13.949 -1.0169  2.0313  0.9388
 6975SOL     OW32386   0.088   1.880  15.245 -0.1077 -0.2396 -0.1699
 6975SOL    HW132387   0.039   1.903  15.167  2.1336 -0.4601 -1.6370
 6975SOL    HW232388   0.025   1.901  15.314  1.3662  1.2922  0.7558
 6976SOL     OW32389   0.925   1.735   3.053 -0.3751 -0.4333 -0.4934
 6976SOL    HW132390   1.001   1.682   3.027  0.6158  0.6596  0.2006
 6976SOL    HW232391   0.884   1.664   3.102 -3.5190  1.7598  0.0095
 6977SOL     OW32392   3.848   3.601   5.131  0.3605 -0.4417  0.0003
 6977SOL    HW132393   3.902   3.522   5.132 -1.3743 -1.6612 -1.8099
 6977SOL    HW232394   3.766   3.565   5.097  0.3096  1.5000 -1.8927
 6978SOL     OW32395   3.372   4.454   7.512 -0.1450 -0.0087  0.0365
 6978SOL    HW132396   3.411   4.381   7.560  1.4922  0.0090 -1.2722
 6978SOL    HW232397   3.283   4.443   7.545 -0.4880  0.9439 -0.5524
 6979SOL     OW32398   2.828   4.607   5.931  0.1293 -0.7700  0.2636
 6979SOL    HW132399   2.799   4.656   6.007  2.1923  0.4057  0.2920
 6979SOL    HW232400   2.906   4.558   5.957  0.4273 -1.3957 -1.7622
 6980SOL     OW32401   1.731   1.891  13.065 -0.2012  0.5184 -0.4917
 6980SOL    HW132402   1.790   1.886  13.140 -0.8559 -0.7000 -0.0524
 6980SOL    HW232403   1.794   1.864  12.998 -1.0785 -3.1666  0.1238
 6981SOL     OW32404   3.808   2.672   4.097  0.0398 -0.5669 -0.3317
 6981SOL    HW132405   3.806   2.723   4.016  0.5348 -0.2728 -0.1573
 6981SOL    HW232406   3.725   2.691   4.141 -0.3330  0.2762 -1.3853
 6982SOL     OW32407   2.598   3.900  14.766  0.1463  0.3691 -0.1731
 6982SOL    HW132408   2.584   3.807  14.749 -1.6114  1.0213 -2.2885
 6982SOL    HW232409   2.582   3.899  14.860  2.5640  0.9376  0.2484
 6983SOL     OW32410   0.456   0.033   6.634  0.6051 -0.4545 -0.0656
 6983SOL    HW132411   0.452   4.665   6.671 -0.3101  0.0097  0.9581
 6983SOL    HW232412   0.486   0.085   6.709 -0.9888  1.1627 -0.5225
 6984SOL     OW32413   3.057   3.334   8.442  0.6260 -0.3352  0.2430
 6984SOL    HW132414   3.020   3.259   8.489 -1.0072 -0.6066 -1.5135
 6984SOL    HW232415   3.080   3.391   8.516  1.5071 -1.0193  0.4949
 6985SOL     OW32416   2.882   4.470   3.767 -0.0312 -0.5059 -0.1606
 6985SOL    HW132417   2.959   4.523   3.786  0.3833 -1.3357  0.4629
 6985SOL    HW232418   2.911   4.379   3.763 -1.1297 -0.8588 -0.0468
 6986SOL     OW32419   0.207   0.226   9.472  0.5185 -0.1891 -0.7443
 6986SOL    HW132420   0.156   0.294   9.515  0.4050 -1.7550  1.5760
 6986SOL    HW232421   0.294   0.264   9.469  0.6749 -0.6241 -1.7590
 6987SOL     OW32422   0.501   2.254   4.403 -0.4130 -0.0214 -0.1573
 6987SOL    HW132423   0.474   2.331   4.453  0.0898  0.1432 -0.1372
 6987SOL    HW232424   0.596   2.260   4.396 -0.4679 -0.7553 -1.4237
 6988SOL     OW32425   1.696   0.894   4.507  0.5031  0.2257  0.2344
 6988SOL    HW132426   1.694   0.861   4.597 -0.5434 -3.1856 -1.0554
 6988SOL    HW232427   1.601   0.901   4.500  0.3540  1.4010  3.4788
 6989SOL     OW32428   1.172   0.470   6.785  0.0839  0.3069  0.3946
 6989SOL    HW132429   1.159   0.387   6.738 -1.0736  0.5319  0.3239
 6989SOL    HW232430   1.101   0.524   6.752  0.6215  0.2465 -0.8891
 6990SOL     OW32431   4.433   3.606  15.238 -0.8381 -0.7937  0.5563
 6990SOL    HW132432   4.410   3.581  15.148  0.4276 -0.8227  0.2367
 6990SOL    HW232433   4.413   3.699  15.231 -0.8343 -0.8672 -0.4852
 6991SOL     OW32434   0.380   4.613   6.292 -0.3127 -0.1311  0.7340
 6991SOL    HW132435   0.397   4.707   6.286  1.7737 -0.7736 -3.4797
 6991SOL    HW232436   0.430   4.582   6.217 -0.8276 -3.8139  1.9081
 6992SOL     OW32437   2.065   2.440   9.080 -0.0335  0.0079  0.6982
 6992SOL    HW132438   2.062   2.361   9.025 -0.9221 -0.2492  1.1279
 6992SOL    HW232439   2.014   2.408   9.154  0.7994 -0.5095  1.0531
 6993SOL     OW32440   1.475   0.782  13.823  0.1598  0.5069  0.8043
 6993SOL    HW132441   1.534   0.846  13.862  2.5938 -2.0693  1.3444
 6993SOL    HW232442   1.411   0.767  13.892  0.6846 -0.0765  1.1626
 6994SOL     OW32443   4.453   0.136  14.426  0.2829  0.1303 -0.5249
 6994SOL    HW132444   4.440   0.102  14.514 -0.8689 -0.5296 -0.9436
 6994SOL    HW232445   4.425   0.061  14.375 -0.7146 -0.5049  0.9681
 6995SOL     OW32446   4.052   1.418   8.953  0.0255 -0.4190 -0.2109
 6995SOL    HW132447   4.096   1.460   9.027 -0.4129  0.8497 -0.6690
 6995SOL    HW232448   4.121   1.402   8.887 -0.9529 -0.7165 -1.1589
 6996SOL     OW32449   4.143   2.896  15.128  0.6547  0.2763 -0.0303
 6996SOL    HW132450   4.176   2.914  15.040  1.1545  1.2677  0.3651
 6996SOL    HW232451   4.062   2.945  15.141 -0.3330 -0.8662 -1.9426
 6997SOL     OW32452   0.612   0.778   8.184 -0.1434 -0.4690 -0.1403
 6997SOL    HW132453   0.649   0.741   8.104  0.3768  0.1193 -0.1727
 6997SOL    HW232454   0.573   0.695   8.213 -0.8709 -0.4112 -0.9539
 6998SOL     OW32455   2.817   0.186   8.036  0.0013  0.7679  0.2821
 6998SOL    HW132456   2.743   0.243   8.057 -0.8450 -0.4185  0.5042
 6998SOL    HW232457   2.772   0.122   7.981  2.0553  0.5564 -1.1526
 6999SOL     OW32458   4.171   1.336   6.265  0.3626  0.6847  0.1644
 6999SOL    HW132459   4.089   1.302   6.228  0.5662  1.5854 -1.1222
 6999SOL    HW232460   4.170   1.318   6.358 -0.9498  0.4902  0.1130
 7000SOL     OW32461   3.725   3.861   1.154  0.3224 -0.4624 -0.3098
 7000SOL    HW132462   3.740   3.885   1.062  0.9030  2.4964  0.5576
 7000SOL    HW232463   3.772   3.931   1.199  1.2823 -0.2425 -1.6600
 7001SOL     OW32464   1.200   2.508   8.482 -0.2232 -0.2048  0.3083
 7001SOL    HW132465   1.288   2.547   8.485 -0.1328 -0.4305  0.5781
 7001SOL    HW232466   1.201   2.472   8.393 -3.6437  1.3662 -0.3465
 7002SOL     OW32467   1.110   4.671  17.546  0.0495 -0.1569  0.4793
 7002SOL    HW132468   1.173   4.600  17.544 -1.4070 -1.3733 -1.4065
 7002SOL    HW232469   1.085   4.685  17.455  0.3939 -0.4436  0.3407
 7003SOL     OW32470   2.840   4.571   6.635 -0.2878 -0.1472 -0.4623
 7003SOL    HW132471   2.892   4.540   6.709  1.3882 -1.6712 -2.2626
 7003SOL    HW232472   2.765   4.606   6.681 -0.4369  0.2424 -0.9934
 7004SOL     OW32473   1.977   0.966   0.924 -0.2522 -0.4952  0.1126
 7004SOL    HW132474   1.943   1.055   0.923 -3.0529 -1.5450  0.2098
 7004SOL    HW232475   1.960   0.944   1.016 -2.5646  0.1942 -0.1516
 7005SOL     OW32476   4.227   1.912   8.814 -0.6171 -0.0962  0.0917
 7005SOL    HW132477   4.218   1.923   8.909 -1.0680 -0.3314  0.0709
 7005SOL    HW232478   4.186   1.994   8.785 -2.4890 -1.7134 -1.7878
 7006SOL     OW32479   2.288   2.317   4.036  0.2201  0.7759  0.7669
 7006SOL    HW132480   2.269   2.238   3.986 -0.0823  2.4378 -1.8013
 7006SOL    HW232481   2.273   2.279   4.122 -1.5043 -0.0923  0.0656
 7007SOL     OW32482   1.423   1.481   2.258 -0.0527 -0.6770 -0.2987
 7007SOL    HW132483   1.491   1.548   2.262  0.0465 -0.8132  0.2795
 7007SOL    HW232484   1.437   1.439   2.173  0.3312 -0.3964 -0.3753
 7008SOL     OW32485   3.519   1.797  13.869 -0.0147  0.1457 -0.1024
 7008SOL    HW132486   3.611   1.771  13.873 -0.4094 -1.1150  0.7688
 7008SOL    HW232487   3.534   1.873  13.813 -0.1200  0.6555  0.5613
 7009SOL     OW32488   0.947   3.510  13.379  0.1501 -0.2151 -0.3392
 7009SOL    HW132489   0.968   3.577  13.443 -1.0913 -1.3106  1.2059
 7009SOL    HW232490   1.029   3.505  13.330  0.0078 -0.2414 -0.5747
 7010SOL     OW32491   0.092   2.420   7.049  0.1347 -0.2256 -0.8681
 7010SOL    HW132492   0.138   2.416   7.133  0.0982 -1.3737 -0.8922
 7010SOL    HW232493   0.111   2.329   7.025  0.8399 -0.2591 -0.2039
 7011SOL     OW32494   0.557   3.774   6.719  0.3596 -0.2025  0.7586
 7011SOL    HW132495   0.653   3.784   6.716  0.3535 -1.0247 -1.7341
 7011SOL    HW232496   0.540   3.838   6.788  1.0328 -1.1268  1.7868
 7012SOL     OW32497   1.943   2.205  17.375  0.6033 -0.4859 -0.0809
 7012SOL    HW132498   1.891   2.169  17.446 -1.2760  2.6544  0.1315
 7012SOL    HW232499   1.910   2.295  17.369  0.8053 -0.3593  0.6374
 7013SOL     OW32500   2.358   2.361   6.317 -0.1357 -0.2755 -0.4436
 7013SOL    HW132501   2.384   2.269   6.306 -0.4089 -0.8337  3.6440
 7013SOL    HW232502   2.402   2.377   6.400  0.6327 -0.9390 -0.7112
 7014SOL     OW32503   2.599   0.841   5.224 -0.2117 -0.3211 -0.3228
 7014SOL    HW132504   2.598   0.749   5.198 -0.1142 -0.0372 -1.3156
 7014SOL    HW232505   2.684   0.870   5.191  0.2106 -1.9213 -0.6752
 7015SOL     OW32506   3.679   4.101   7.693  0.5047  0.8115  0.0163
 7015SOL    HW132507   3.740   4.116   7.621 -0.0011 -2.0517 -1.0105
 7015SOL    HW232508   3.734   4.110   7.771  0.5236 -2.8995  0.4091
 7016SOL     OW32509   0.314   0.242  11.679  0.2966  0.5614  0.2444
 7016SOL    HW132510   0.367   0.310  11.637  1.1188  0.9489  1.8753
 7016SOL    HW232511   0.371   0.219  11.753 -0.2187  1.2338  0.8559
 7017SOL     OW32512   0.510   4.443  14.803  0.1457  0.6526  0.5310
 7017SOL    HW132513   0.446   4.471  14.737 -0.4629 -0.4680  0.6391
 7017SOL    HW232514   0.588   4.430  14.749 -0.0307 -2.2393  0.9598
 7018SOL     OW32515   2.550   0.145   4.979  0.1431 -0.6952 -0.0081
 7018SOL    HW132516   2.531   0.109   5.066 -0.1184  2.6174  1.3190
 7018SOL    HW232517   2.459   0.166   4.961  0.4369  0.2391 -0.3962
 7019SOL     OW32518   0.957   4.021  12.688  0.4097 -0.3829 -0.1204
 7019SOL    HW132519   0.994   3.968  12.618  2.3748  1.1690 -0.2850
 7019SOL    HW232520   0.895   3.962  12.730 -1.2367  1.9532  0.7505
 7020SOL     OW32521   3.617   0.757   2.849 -0.7233  0.1990 -0.0986
 7020SOL    HW132522   3.626   0.738   2.942  3.5670 -1.7158 -0.9124
 7020SOL    HW232523   3.576   0.843   2.836 -0.9332  0.0912 -0.1483
 7021SOL     OW32524   0.379   2.320  16.289 -1.1029 -0.0327 -0.3538
 7021SOL    HW132525   0.328   2.300  16.211 -0.4412  0.0656 -0.8088
 7021SOL    HW232526   0.339   2.401  16.321 -3.0533 -0.8620 -0.6921
 7022SOL     OW32527   0.773   2.544  10.035  0.3028 -0.0350 -0.3289
 7022SOL    HW132528   0.752   2.485   9.962  0.3725  0.2881 -0.6090
 7022SOL    HW232529   0.785   2.479  10.104  0.0555  0.5516  0.2621
 7023SOL     OW32530   4.232   2.212   9.063  0.1207 -0.3241  0.5333
 7023SOL    HW132531   4.186   2.251   9.137 -0.6420  0.4462 -0.3353
 7023SOL    HW232532   4.207   2.120   9.065 -0.7052 -0.2601 -4.9472
 7024SOL     OW32533   2.306   2.553  13.813  0.0641 -0.1165 -0.9064
 7024SOL    HW132534   2.235   2.595  13.764  1.3619 -0.2319 -2.8603
 7024SOL    HW232535   2.368   2.532  13.743  1.0205  1.3705 -0.4925
 7025SOL     OW32536   0.244   1.452   2.954  0.0282  0.6011 -0.2315
 7025SOL    HW132537   0.295   1.520   2.910  0.0269  0.9312  0.2822
 7025SOL    HW232538   0.154   1.480   2.940 -0.4210  0.3920  2.2732
 7026SOL     OW32539   3.752   0.942   3.529 -0.0596  0.3672  0.2158
 7026SOL    HW132540   3.738   1.032   3.501  0.5260  1.5992  3.9493
 7026SOL    HW232541   3.680   0.907   3.477  0.6578  0.1093 -0.6198
 7027SOL     OW32542   0.412   0.638   7.502 -0.1124 -1.0586 -0.3228
 7027SOL    HW132543   0.486   0.579   7.520  1.7140  1.1897 -0.5130
 7027SOL    HW232544   0.431   0.647   7.408  3.1804 -0.4680  0.4203
 7028SOL     OW32545   3.644   1.808   7.803 -0.0454 -0.1658  0.1399
 7028SOL    HW132546   3.704   1.751   7.757 -0.4403 -0.8638  0.4980
 7028SOL    HW232547   3.562   1.796   7.754 -0.8107  2.7055  0.6862
 7029SOL     OW32548   1.054   4.565  10.202  0.6374  0.0688  0.2843
 7029SOL    HW132549   1.010   4.566  10.117 -1.0642 -1.5277  1.1533
 7029SOL    HW232550   1.072   4.472  10.219  2.2634  0.6562  1.7464
 7030SOL     OW32551   0.731   2.274   6.786  0.7939  0.1458  0.2549
 7030SOL    HW132552   0.732   2.351   6.729 -0.9462  0.4277  0.6334
 7030SOL    HW232553   0.779   2.306   6.862 -0.0185  0.2399  0.7175
 7031SOL     OW32554   3.509   3.740  13.871 -0.2772  0.0637 -0.5952
 7031SOL    HW132555   3.433   3.713  13.820 -0.4411 -0.2436 -0.1877
 7031SOL    HW232556   3.482   3.828  13.897 -0.2683  0.0354 -0.4861
 7032SOL     OW32557   1.959   4.520  13.629  0.0298 -0.2375  0.3121
 7032SOL    HW132558   2.043   4.549  13.594  0.9346 -3.3895 -0.1131
 7032SOL    HW232559   1.988   4.457  13.695 -3.1093 -0.1675  1.7680
 7033SOL     OW32560   2.781   3.179   5.916 -0.2033  0.1277 -0.2885
 7033SOL    HW132561   2.829   3.101   5.945  1.8645  0.8730 -1.6726
 7033SOL    HW232562   2.716   3.182   5.986 -1.1594  3.4468 -1.3363
 7034SOL     OW32563   2.637   3.910   3.061 -0.0152  0.0870  0.3074
 7034SOL    HW132564   2.721   3.956   3.064  0.4591 -0.6944 -0.7532
 7034SOL    HW232565   2.591   3.956   2.991  0.8000 -0.4822 -0.6111
 7035SOL     OW32566   1.708   0.686   7.248  0.1327 -0.4001 -0.2781
 7035SOL    HW132567   1.647   0.615   7.230  0.3568  0.0675 -2.9151
 7035SOL    HW232568   1.677   0.721   7.331 -0.6469 -1.2821 -0.2031
 7036SOL     OW32569   2.363   0.728   3.392  0.1133  0.4237 -0.5382
 7036SOL    HW132570   2.336   0.714   3.483 -1.0276  0.5160 -0.8626
 7036SOL    HW232571   2.287   0.778   3.362  1.2590  1.9063 -0.9828
 7037SOL     OW32572   1.492   2.039  10.297  0.0149  0.2771 -0.3163
 7037SOL    HW132573   1.564   2.055  10.358  1.4568  0.6536 -2.1121
 7037SOL    HW232574   1.444   1.973  10.346  3.4093 -0.6691  1.7307
 7038SOL     OW32575   1.488   4.297  10.516 -0.0041 -0.3524 -0.5181
 7038SOL    HW132576   1.583   4.298  10.512 -0.0642  0.9868 -1.5242
 7038SOL    HW232577   1.468   4.326  10.427 -1.3203  2.8453  0.8203
 7039SOL     OW32578   2.290   2.161   9.929  0.4907 -0.2894  0.5807
 7039SOL    HW132579   2.287   2.244   9.976 -0.7318  0.3619 -0.6179
 7039SOL    HW232580   2.266   2.108  10.005 -0.7480 -0.8767 -0.2145
 7040SOL     OW32581   0.014   1.002   9.527 -0.0370  0.0884 -0.6298
 7040SOL    HW132582   4.650   1.006   9.573 -0.6589 -0.1073 -1.7591
 7040SOL    HW232583   0.002   1.051   9.446 -0.8791 -1.3015 -1.3460
 7041SOL     OW32584   1.452   3.920   0.665  0.2254 -0.0162 -0.3924
 7041SOL    HW132585   1.542   3.897   0.688 -1.0375 -4.0107  0.5104
 7041SOL    HW232586   1.400   3.933   0.745 -1.7353 -2.7511 -1.1958
 7042SOL     OW32587   1.917   0.517   1.212  0.5788  0.3680  0.3130
 7042SOL    HW132588   1.830   0.554   1.196 -0.2966 -0.6557  2.7080
 7042SOL    HW232589   1.962   0.510   1.128  2.2006 -1.8575  1.3681
 7043SOL     OW32590   0.708   2.906   5.969  0.3267  0.1273  0.1469
 7043SOL    HW132591   0.694   2.982   5.912 -0.5028 -2.0779 -2.5412
 7043SOL    HW232592   0.686   2.951   6.051 -2.0097  0.4987 -0.6894
 7044SOL     OW32593   0.746   1.907   5.860 -0.0381 -0.4524  0.7571
 7044SOL    HW132594   0.727   1.941   5.947  0.0624 -1.1180  1.0382
 7044SOL    HW232595   0.669   1.852   5.851  0.5920 -1.3320  0.7086
 7045SOL     OW32596   1.066   1.155   3.187  0.1012  0.1512  0.2592
 7045SOL    HW132597   1.132   1.192   3.129 -0.7188 -0.3877 -1.0062
 7045SOL    HW232598   1.073   1.216   3.261  2.6377  0.7440 -0.4746
 7046SOL     OW32599   3.658   0.285   8.684  0.5550  0.0980  0.3389
 7046SOL    HW132600   3.698   0.274   8.770  1.0961 -0.1859  0.0562
 7046SOL    HW232601   3.688   0.374   8.669 -1.0473  0.9732  2.4577
 7047SOL     OW32602   1.436   1.889   5.409  0.5307 -0.4202  0.3950
 7047SOL    HW132603   1.435   1.922   5.319 -1.3856  0.3998  0.7141
 7047SOL    HW232604   1.490   1.947   5.463  0.3831  1.9829 -2.0678
 7048SOL     OW32605   2.030   1.097   5.255  0.2047 -0.2592 -0.5253
 7048SOL    HW132606   1.965   1.122   5.190  1.5971  0.1555 -1.7633
 7048SOL    HW232607   2.076   1.180   5.268  1.6356 -0.7640 -2.3660
 7049SOL     OW32608   1.957   1.812   4.618 -0.9564 -0.1133 -0.3358
 7049SOL    HW132609   1.977   1.730   4.663 -0.6576  0.1634  0.0330
 7049SOL    HW232610   2.038   1.820   4.568  0.2121 -1.4656  1.3393
 7050SOL     OW32611   4.491   1.311   5.335  0.1668 -0.4796  0.0270
 7050SOL    HW132612   4.456   1.222   5.333  0.7184 -0.6953  0.1237
 7050SOL    HW232613   4.431   1.357   5.276 -1.0122 -2.5212 -0.3631
 7051SOL     OW32614   3.208   2.413  15.957  0.4692 -0.6940 -0.2216
 7051SOL    HW132615   3.204   2.319  15.943  0.3699 -0.5744 -1.0120
 7051SOL    HW232616   3.211   2.445  15.866 -0.6117  1.3345  0.4560
 7052SOL     OW32617   1.346   3.004  13.918 -0.2803  0.1530 -0.7356
 7052SOL    HW132618   1.397   2.967  13.846  0.1024  2.8210 -1.8478
 7052SOL    HW232619   1.388   2.956  13.989 -0.2684  1.3454  0.0765
 7053SOL     OW32620   0.015   2.422   5.769  0.0699  0.3836 -0.4543
 7053SOL    HW132621   0.084   2.372   5.813  2.2028  2.9734 -0.9013
 7053SOL    HW232622   4.660   2.370   5.798 -2.1280  2.2827 -2.7553
 7054SOL     OW32623   0.077   0.200   4.985  0.2391  0.0514  0.6299
 7054SOL    HW132624   0.052   0.108   4.987  0.2033  0.0469  0.0283
 7054SOL    HW232625   4.714   0.242   5.010  1.4781  3.1518 -0.4786
 7055SOL     OW32626   4.370   4.411   5.996 -0.4990 -0.0003  0.4973
 7055SOL    HW132627   4.362   4.468   6.072  0.6482 -1.6295  1.8650
 7055SOL    HW232628   4.400   4.326   6.030 -1.8161 -0.8453 -0.4713
 7056SOL     OW32629   1.694   0.264   7.305  0.4879 -0.1993  0.1144
 7056SOL    HW132630   1.695   0.345   7.355 -0.8984 -0.6096  0.8001
 7056SOL    HW232631   1.668   0.203   7.374  2.9820 -0.3474  0.9461
 7057SOL     OW32632   4.589   2.831  10.874 -0.3570 -0.2501 -0.0325
 7057SOL    HW132633   4.579   2.918  10.913 -0.9153  0.8150 -2.5615
 7057SOL    HW232634   4.634   2.843  10.791 -2.2725  1.3875 -0.8211
 7058SOL     OW32635   0.277   2.340  10.793 -0.3049  0.2089  0.7233
 7058SOL    HW132636   0.365   2.307  10.813  0.7438  2.1055 -0.7663
 7058SOL    HW232637   0.286   2.423  10.840 -0.8331  1.1850 -0.9335
 7059SOL     OW32638   1.975   0.319   5.222 -0.4269  0.4594  0.5709
 7059SOL    HW132639   1.991   0.409   5.249  0.6416  0.5619 -0.3912
 7059SOL    HW232640   1.984   0.320   5.126 -3.7680 -2.3307  0.2071
 7060SOL     OW32641   0.112   4.132   8.191 -0.2051  0.0219  0.0519
 7060SOL    HW132642   0.021   4.149   8.167  1.0776  1.0652 -4.0979
 7060SOL    HW232643   0.151   4.219   8.188  0.5900 -0.3384 -0.2972
 7061SOL     OW32644   2.273   0.874  11.238 -0.4217 -0.6502 -0.8209
 7061SOL    HW132645   2.268   0.951  11.295 -0.9368 -2.0027  0.9752
 7061SOL    HW232646   2.290   0.801  11.298  0.3200  2.3540  2.6027
 7062SOL     OW32647   0.191   1.075   7.044  0.6816  0.0435 -0.1484
 7062SOL    HW132648   0.099   1.052   7.030  1.0387 -1.6236  0.1750
 7062SOL    HW232649   0.186   1.132   7.121 -1.2740 -0.7945  0.3498
 7063SOL     OW32650   3.790   4.515   4.775  0.3794 -0.2416 -0.5058
 7063SOL    HW132651   3.831   4.488   4.857 -1.5617  1.7197  1.1266
 7063SOL    HW232652   3.711   4.462   4.786 -1.7567  3.4586  2.1849
 7064SOL     OW32653   0.989   1.698  16.199 -0.3529 -0.2790 -0.0937
 7064SOL    HW132654   0.909   1.739  16.230 -0.1593 -0.6495  0.9035
 7064SOL    HW232655   0.976   1.671  16.109 -0.6298  1.1672 -0.4833
 7065SOL     OW32656   2.857   2.724  15.215 -0.1220 -0.4102  0.7419
 7065SOL    HW132657   2.869   2.780  15.291 -0.9843  0.1595  0.4545
 7065SOL    HW232658   2.761   2.724  15.209 -0.0726  1.5262 -0.2356
 7066SOL     OW32659   3.594   1.286   0.881  0.7391 -0.2188  0.2606
 7066SOL    HW132660   3.537   1.356   0.914 -1.2681 -1.8459  0.2945
 7066SOL    HW232661   3.672   1.308   0.932  1.8838 -1.1694 -1.0755
 7067SOL     OW32662   4.006   3.898   9.042  0.0073 -0.7422 -0.7123
 7067SOL    HW132663   4.000   3.892   8.947  1.5492 -2.9611 -0.6640
 7067SOL    HW232664   3.914   3.913   9.062  0.5409 -0.3891  1.5203
 7068SOL     OW32665   4.033   0.325   3.939  0.4238 -0.3786 -0.4296
 7068SOL    HW132666   4.029   0.253   3.876 -2.4289  2.2258 -3.2273
 7068SOL    HW232667   4.105   0.379   3.907  0.2798 -0.3160 -0.6427
 7069SOL     OW32668   4.113   3.839   3.246  1.0508 -0.0772  0.6438
 7069SOL    HW132669   4.199   3.880   3.234  0.3466  1.2826  0.2384
 7069SOL    HW232670   4.116   3.773   3.177 -1.2052  0.8524 -0.3191
 7070SOL     OW32671   0.121   2.964  15.133  0.0923 -0.3253 -0.3263
 7070SOL    HW132672   0.042   3.010  15.159  1.3089  1.5448  0.0875
 7070SOL    HW232673   0.109   2.971  15.038  0.6988 -1.0096 -0.4554
 7071SOL     OW32674   0.471   0.882  13.603 -0.1878  0.7688  0.3795
 7071SOL    HW132675   0.415   0.959  13.604 -0.2977  0.7013 -0.2325
 7071SOL    HW232676   0.449   0.847  13.516  1.1575  0.7015  0.0530
 7072SOL     OW32677   4.498   1.607   1.356 -0.6025  0.2906 -0.0983
 7072SOL    HW132678   4.557   1.662   1.407 -0.2194 -2.2790  2.1820
 7072SOL    HW232679   4.441   1.569   1.422 -1.2239 -0.2008 -0.9176
 7073SOL     OW32680   2.432   3.858  14.409 -0.0029  0.2847  0.0714
 7073SOL    HW132681   2.453   3.789  14.346 -0.5319 -0.7049  0.9817
 7073SOL    HW232682   2.379   3.911  14.350 -0.8170 -0.4188  0.1720
 7074SOL     OW32683   3.217   2.600   5.189 -0.1028  0.1408  0.1540
 7074SOL    HW132684   3.295   2.546   5.178 -1.4957 -2.1344  1.6266
 7074SOL    HW232685   3.255   2.686   5.208 -0.5060  0.0526  1.3703
 7075SOL     OW32686   4.254   3.380  15.378 -0.2024 -0.0023  0.4666
 7075SOL    HW132687   4.163   3.409  15.386  0.2860  1.4222  0.7622
 7075SOL    HW232688   4.308   3.459  15.375 -0.0449 -0.0838  1.1035
 7076SOL     OW32689   2.843   1.357   6.157  0.5453  0.4438 -0.3499
 7076SOL    HW132690   2.786   1.301   6.104  0.9496  0.2583 -0.5872
 7076SOL    HW232691   2.853   1.434   6.102 -0.9762  1.3154  0.5842
 7077SOL     OW32692   1.272   3.354   1.862  0.5317 -0.7990 -0.3680
 7077SOL    HW132693   1.272   3.259   1.878 -0.2628 -0.7730 -0.2202
 7077SOL    HW232694   1.245   3.396   1.943 -1.5806 -1.6348 -0.6478
 7078SOL     OW32695   1.784   3.825   9.619  0.5299 -0.0098 -0.2400
 7078SOL    HW132696   1.703   3.874   9.603  0.7016 -0.6991 -3.3055
 7078SOL    HW232697   1.840   3.890   9.577  1.8836 -0.0636  1.5030
 7079SOL     OW32698   4.668   1.283   0.106 -0.4252  0.4862  0.1082
 7079SOL    HW132699   0.025   1.333   0.078 -1.1800  1.1241 -0.8281
 7079SOL    HW232700   4.636   1.334   0.180 -0.6670  0.0891  0.2763
 7080SOL     OW32701   0.603   0.435   7.550  0.0585  0.1486  0.1088
 7080SOL    HW132702   0.611   0.342   7.531 -0.5535 -0.0685  0.8968
 7080SOL    HW232703   0.675   0.472   7.499 -2.1220  3.2097 -0.7621
 7081SOL     OW32704   2.449   0.991  14.533 -0.3067  0.1201  0.6186
 7081SOL    HW132705   2.441   0.896  14.536 -2.5312  0.2976  0.3126
 7081SOL    HW232706   2.365   1.012  14.491  0.9974  1.6881 -1.2166
 7082SOL     OW32707   2.941   1.631   4.699  0.2221 -0.2466 -0.2793
 7082SOL    HW132708   2.854   1.661   4.723  1.1521  1.3829  1.0949
 7082SOL    HW232709   2.977   1.636   4.788  1.2938  1.4994 -0.8170
 7083SOL     OW32710   2.487   4.254  11.903 -0.1321 -0.1185 -0.3732
 7083SOL    HW132711   2.392   4.263  11.890 -0.2838  1.0117  1.5366
 7083SOL    HW232712   2.499   4.288  11.992  1.1915 -1.4938 -0.0220
 7084SOL     OW32713   2.811   0.224   7.312  0.0943  0.2876 -0.1685
 7084SOL    HW132714   2.880   0.246   7.375  0.5325  0.8601 -0.8532
 7084SOL    HW232715   2.860   0.232   7.230  0.9566  2.0698  0.5081
 7085SOL     OW32716   4.516   0.334  16.370 -0.3891 -0.2743 -0.4536
 7085SOL    HW132717   4.436   0.370  16.407 -0.3759 -0.3532 -0.3472
 7085SOL    HW232718   4.570   0.410  16.351 -0.2240 -1.0364 -3.0026
 7086SOL     OW32719   2.853   3.156   5.402  0.4438 -0.4739 -0.0278
 7086SOL    HW132720   2.851   3.070   5.444  1.4132  0.3991  1.7952
 7086SOL    HW232721   2.815   3.211   5.471  0.7944  0.2032 -0.3711
 7087SOL     OW32722   3.934   3.518   6.410  0.0531 -0.0863  0.0200
 7087SOL    HW132723   3.868   3.449   6.424  0.4182 -0.2138  1.1172
 7087SOL    HW232724   3.874   3.590   6.393  1.5121  1.0653 -0.2259
 7088SOL     OW32725   1.199   3.443  12.940  0.4177  0.1094  0.9090
 7088SOL    HW132726   1.234   3.374  12.884 -0.0791  2.7227 -2.6667
 7088SOL    HW232727   1.127   3.474  12.885  0.8648  0.2830  0.4246
 7089SOL     OW32728   2.714   0.462  15.431  0.2789 -0.2149  0.1773
 7089SOL    HW132729   2.646   0.512  15.386 -0.9132 -0.7310  1.3991
 7089SOL    HW232730   2.707   0.494  15.521 -3.1765  1.0398 -0.5498
 7090SOL     OW32731   4.600   0.510   5.917 -0.1966 -0.2346  0.4376
 7090SOL    HW132732   4.694   0.495   5.908  0.2411  2.9170 -0.1519
 7090SOL    HW232733   4.581   0.517   6.011 -1.0975 -1.1795  0.3257
 7091SOL     OW32734   0.973   3.570   2.671 -0.3752 -0.1610  0.4463
 7091SOL    HW132735   0.938   3.486   2.639 -0.6986 -1.0862  3.2476
 7091SOL    HW232736   1.058   3.566   2.627 -0.5921  0.6481 -0.0406
 7092SOL     OW32737   0.350   3.440   2.901 -0.6257  0.7009 -0.2173
 7092SOL    HW132738   0.369   3.533   2.902 -1.6505  0.9297 -1.5046
 7092SOL    HW232739   0.434   3.396   2.885 -0.3386  0.6862  1.2875
 7093SOL     OW32740   2.159   2.487  11.380 -0.2913 -0.2069 -0.5172
 7093SOL    HW132741   2.103   2.436  11.322  0.3663 -2.8095  1.1292
 7093SOL    HW232742   2.102   2.498  11.456  1.0312  0.3046  0.3977
 7094SOL     OW32743   2.003   1.076   4.298  0.6837  0.1536 -0.0806
 7094SOL    HW132744   1.927   1.103   4.350  0.9629 -2.5193  1.7405
 7094SOL    HW232745   1.987   0.984   4.274  1.5230  0.3758 -1.4307
 7095SOL     OW32746   2.112   4.540  17.123  0.1037 -0.4615 -0.3892
 7095SOL    HW132747   2.063   4.463  17.150 -1.8026 -0.6289 -4.3306
 7095SOL    HW232748   2.204   4.514  17.114 -0.4413 -2.7189  0.5719
 7096SOL     OW32749   3.730   2.972   3.219 -0.0358 -0.1985  0.2357
 7096SOL    HW132750   3.759   3.011   3.301  1.1182 -0.8812  0.1496
 7096SOL    HW232751   3.806   2.982   3.161 -0.2391  1.6518  0.2683
 7097SOL     OW32752   1.775   3.671   0.420  0.4977  0.5550 -0.1726
 7097SOL    HW132753   1.851   3.632   0.377 -0.6489  2.0499 -3.6367
 7097SOL    HW232754   1.709   3.681   0.351  0.4412 -1.1738 -0.3660
 7098SOL     OW32755   1.884   1.157   7.675 -0.3092  0.4492 -0.0158
 7098SOL    HW132756   1.849   1.112   7.752  0.6264  1.8699  1.2211
 7098SOL    HW232757   1.815   1.224   7.670 -0.6083  0.4031  3.4722
 7099SOL     OW32758   2.427   1.824   9.184  0.8310 -0.3332 -0.2784
 7099SOL    HW132759   2.507   1.873   9.204  0.9300 -0.7315  0.2953
 7099SOL    HW232760   2.397   1.796   9.270 -0.0503 -0.1432 -0.5339
 7100SOL     OW32761   4.644   0.895   6.489  0.3304 -0.8147 -0.5678
 7100SOL    HW132762   4.713   0.901   6.423  1.0621 -1.4557  0.1481
 7100SOL    HW232763   4.587   0.960   6.447  0.3051 -1.2662 -1.2388
 7101SOL     OW32764   1.674   2.340   3.390 -0.0464 -0.1059 -0.3684
 7101SOL    HW132765   1.689   2.274   3.323 -0.1540 -0.0388 -0.4583
 7101SOL    HW232766   1.640   2.411   3.335 -2.2739 -0.0848  1.0295
 7102SOL     OW32767   4.411   2.497   8.628  0.6594  0.3064  0.1511
 7102SOL    HW132768   4.387   2.459   8.713  0.2832 -0.1597 -0.1668
 7102SOL    HW232769   4.471   2.569   8.649  1.4512 -0.3025 -0.0534
 7103SOL     OW32770   2.141   1.335   4.852  0.0200  0.1214  0.1862
 7103SOL    HW132771   2.060   1.362   4.895  0.3182  0.4083  0.5618
 7103SOL    HW232772   2.185   1.277   4.914  0.5815  0.4512  0.0922
 7104SOL     OW32773   2.707   2.452  14.508 -0.1695 -0.0447  0.5764
 7104SOL    HW132774   2.661   2.477  14.428  0.9127 -0.7065 -0.2586
 7104SOL    HW232775   2.790   2.491  14.480  0.2414  0.2552  2.2129
 7105SOL     OW32776   0.264   1.832   4.695 -0.3062 -0.3080 -0.4101
 7105SOL    HW132777   0.219   1.834   4.779  0.4725 -0.5948  0.0130
 7105SOL    HW232778   0.253   1.918   4.654  0.4911  0.5661  1.2321
 7106SOL     OW32779   4.080   3.274   8.400 -0.6066  0.6410  0.4637
 7106SOL    HW132780   4.137   3.324   8.457  1.8520 -0.4628 -1.0550
 7106SOL    HW232781   4.055   3.341   8.336 -0.7703 -0.1412 -0.2879
 7107SOL     OW32782   0.953   0.011   7.940 -0.1209  0.2582 -0.0792
 7107SOL    HW132783   0.972   0.027   8.032  0.7845 -2.3745  0.1833
 7107SOL    HW232784   0.877   0.068   7.922 -0.8147 -1.3595 -2.3344
 7108SOL     OW32785   2.257   3.575  10.950  0.3783 -0.0555 -0.7201
 7108SOL    HW132786   2.223   3.655  10.910  0.2016 -0.8664 -2.1945
 7108SOL    HW232787   2.169   3.539  10.965 -0.3527  2.7473  1.5611
 7109SOL     OW32788   4.300   0.469  16.468  0.4161 -0.0892 -0.1107
 7109SOL    HW132789   4.316   0.522  16.545  2.7967 -0.8326 -0.0897
 7109SOL    HW232790   4.217   0.503  16.434 -0.2255 -1.9203 -0.4248
 7110SOL     OW32791   2.185   4.450   7.763 -0.1049  0.3873  0.6154
 7110SOL    HW132792   2.147   4.386   7.824 -1.0887  0.0483 -0.3572
 7110SOL    HW232793   2.237   4.497   7.828  0.5100 -0.8269  0.9952
 7111SOL     OW32794   0.091   1.807   8.829 -0.3343 -0.0715  0.0018
 7111SOL    HW132795   0.079   1.818   8.923  0.0845  0.7890 -0.0422
 7111SOL    HW232796   4.717   1.804   8.815 -0.3400  0.0457  0.0142
 7112SOL     OW32797   0.189   0.197   5.898 -0.3173 -0.1305 -0.3670
 7112SOL    HW132798   0.237   0.116   5.913 -0.9692 -0.1623  1.5699
 7112SOL    HW232799   0.198   0.212   5.804  0.0339  0.9519 -0.1534
 7113SOL     OW32800   3.374   3.935   4.624 -0.1750  0.0278 -0.2035
 7113SOL    HW132801   3.354   3.934   4.717 -1.7887  0.6741 -0.5354
 7113SOL    HW232802   3.299   3.988   4.595  2.3744  3.0047 -1.4314
 7114SOL     OW32803   1.823   3.238  11.561  0.0653  0.7461 -0.9085
 7114SOL    HW132804   1.839   3.246  11.655 -1.5609 -1.1387 -0.4874
 7114SOL    HW232805   1.734   3.274  11.568 -0.2476 -0.6375  2.1933
 7115SOL     OW32806   2.694   2.531   6.849 -0.2351 -0.1586 -0.5636
 7115SOL    HW132807   2.740   2.447   6.851 -0.2938 -0.1779 -0.0800
 7115SOL    HW232808   2.749   2.585   6.905  0.1814 -1.1282 -0.0349
 7116SOL     OW32809   0.629   0.702   6.391  0.0250 -0.1387 -0.0076
 7116SOL    HW132810   0.664   0.639   6.453  0.5148  1.9214  1.8208
 7116SOL    HW232811   0.691   0.774   6.403 -2.7619  1.7257  3.3606
 7117SOL     OW32812   1.385   3.594   4.687 -0.2522  0.0601  0.2203
 7117SOL    HW132813   1.442   3.533   4.733 -0.8816  0.9827  2.2277
 7117SOL    HW232814   1.445   3.642   4.631  1.3084 -1.5696  0.5094
 7118SOL     OW32815   3.626   3.492   5.030  0.7420 -0.2612  0.1622
 7118SOL    HW132816   3.559   3.425   5.018  0.5360  0.1282 -0.8840
 7118SOL    HW232817   3.639   3.518   4.939 -1.2741  1.8103  0.4820
 7119SOL     OW32818   2.188   1.057  14.459  0.1942 -0.3151 -0.1127
 7119SOL    HW132819   2.123   1.027  14.523 -0.0883  0.9585  0.2058
 7119SOL    HW232820   2.136   1.114  14.402 -0.9352 -2.0192 -0.7864
 7120SOL     OW32821   3.505   2.857   3.208 -0.5454  0.1678  0.1733
 7120SOL    HW132822   3.552   2.796   3.150 -1.2956 -1.5149  1.3331
 7120SOL    HW232823   3.579   2.916   3.223  0.6458 -1.8171  2.1304
 7121SOL     OW32824   2.856   4.109   7.087 -0.6157 -0.0792 -0.2103
 7121SOL    HW132825   2.828   4.045   7.021  1.5972  0.5092 -1.7056
 7121SOL    HW232826   2.871   4.047   7.158  1.0280  2.0731  1.3095
 7122SOL     OW32827   1.594   1.746  10.657 -0.2692  0.3936 -0.0505
 7122SOL    HW132828   1.557   1.830  10.629  0.0825  0.9936  1.2817
 7122SOL    HW232829   1.526   1.684  10.683  1.2109 -1.0974  0.1838
 7123SOL     OW32830   3.809   1.563   8.405 -0.3561  0.0191  0.5184
 7123SOL    HW132831   3.898   1.553   8.437 -0.1733 -1.5155 -0.4576
 7123SOL    HW232832   3.774   1.474   8.409  0.3870 -0.3471 -1.2579
 7124SOL     OW32833   1.932   3.052   6.457 -0.6362 -0.2013  0.2826
 7124SOL    HW132834   1.837   3.045   6.445 -0.7324 -0.3028  1.0917
 7124SOL    HW232835   1.950   2.969   6.501  0.4189  0.2030  0.6041
 7125SOL     OW32836   2.406   1.218   8.100 -0.4348 -0.3070  0.2072
 7125SOL    HW132837   2.447   1.252   8.020 -0.6616 -2.2314 -0.7380
 7125SOL    HW232838   2.463   1.143   8.119 -2.6496 -1.5881  1.7502
 7126SOL     OW32839   1.896   1.672   3.369  0.2880  0.3196  0.0916
 7126SOL    HW132840   1.814   1.723   3.371  0.9956  1.4705 -0.4745
 7126SOL    HW232841   1.864   1.589   3.334 -2.3602 -0.1128  3.5277
 7127SOL     OW32842   2.749   0.600   6.755 -0.0740 -0.3450 -0.2357
 7127SOL    HW132843   2.694   0.629   6.682 -0.8227  0.2449  0.5567
 7127SOL    HW232844   2.712   0.655   6.824 -1.0610 -1.0069 -0.2337
 7128SOL     OW32845   3.218   3.147   3.489 -0.5363 -0.2399 -0.1350
 7128SOL    HW132846   3.303   3.146   3.445  0.3758  0.7662  1.5988
 7128SOL    HW232847   3.156   3.188   3.429  1.5038  0.6767 -1.6199
 7129SOL     OW32848   1.785   2.218   9.497  0.2729  0.3703  0.3897
 7129SOL    HW132849   1.699   2.185   9.522  0.1005  1.3310  1.0605
 7129SOL    HW232850   1.842   2.142   9.507 -0.4307 -0.3810 -1.3626
 7130SOL     OW32851   3.401   0.388   4.941  0.0349 -0.0106 -0.0981
 7130SOL    HW132852   3.432   0.459   4.996  2.0710 -1.1934  0.2498
 7130SOL    HW232853   3.402   0.422   4.851  0.4752  1.3660  0.4271
 7131SOL     OW32854   1.595   0.705   8.184 -0.4187 -0.4789  0.0523
 7131SOL    HW132855   1.650   0.654   8.245  0.8232  2.4051  1.3543
 7131SOL    HW232856   1.578   0.790   8.224  2.6818  0.9764 -1.6894
 7132SOL     OW32857   1.988   1.674   2.858 -0.2701 -0.0564 -0.6613
 7132SOL    HW132858   2.010   1.684   2.765  3.5419  0.8106  0.3169
 7132SOL    HW232859   2.043   1.741   2.899  0.1547  0.3158 -1.8116
 7133SOL     OW32860   3.192   1.810   7.573 -0.2011  0.0313 -0.1213
 7133SOL    HW132861   3.180   1.721   7.541  0.0114 -0.0679  0.0742
 7133SOL    HW232862   3.196   1.856   7.489  0.0913 -0.6969 -0.5096
 7134SOL     OW32863   1.952   1.289  13.603 -0.3253 -0.0394  0.5903
 7134SOL    HW132864   2.000   1.297  13.521 -0.2331  2.0914  0.8400
 7134SOL    HW232865   1.871   1.332  13.576  0.5651  1.8086  0.8328
 7135SOL     OW32866   1.519   0.108   1.694 -0.1767  0.4521 -0.0505
 7135SOL    HW132867   1.558   0.061   1.620 -1.7387 -1.2108  0.1722
 7135SOL    HW232868   1.462   0.174   1.655 -0.6073 -0.1089 -0.3874
 7136SOL     OW32869   1.459   1.217   4.566  0.1361  0.4851  0.3180
 7136SOL    HW132870   1.541   1.171   4.547 -0.5447 -0.3615 -0.5748
 7136SOL    HW232871   1.489   1.306   4.547 -0.6124  0.7880  0.5363
 7137SOL     OW32872   4.217   0.823  11.422  0.3493 -0.0619  0.0987
 7137SOL    HW132873   4.303   0.861  11.405  0.1433  0.1658 -0.4536
 7137SOL    HW232874   4.184   0.883  11.490  0.9716 -0.5573  0.8300
 7138SOL     OW32875   4.399   1.980   4.912  0.3592  0.5294 -0.1697
 7138SOL    HW132876   4.425   2.024   4.993  0.0539 -0.7759  0.6379
 7138SOL    HW232877   4.419   1.888   4.929 -1.2446  0.7333  2.7675
 7139SOL     OW32878   4.099   4.296  12.855  0.4978  0.2315  1.1875
 7139SOL    HW132879   4.013   4.255  12.859  1.2663 -1.3803  1.1101
 7139SOL    HW232880   4.082   4.388  12.876 -3.7352 -0.0642 -0.9973
 7140SOL     OW32881   2.182   1.950   6.904  0.5413 -0.2472 -0.0984
 7140SOL    HW132882   2.189   2.007   6.981  2.8332 -0.8474  0.1288
 7140SOL    HW232883   2.144   2.016   6.846  2.9533  0.2126 -1.1747
 7141SOL     OW32884   4.199   1.376   3.971 -0.4907  0.0562  0.1377
 7141SOL    HW132885   4.170   1.338   3.887 -0.1891 -1.3730  0.6738
 7141SOL    HW232886   4.282   1.419   3.951 -0.9555  1.2108  0.7066
 7142SOL     OW32887   2.507   3.790   4.365  0.3951  0.0747  0.1534
 7142SOL    HW132888   2.527   3.754   4.279  3.3816 -1.1552  1.3687
 7142SOL    HW232889   2.421   3.751   4.380 -0.4444  1.4001 -1.2597
 7143SOL     OW32890   2.713   4.366  13.797 -0.5737  0.4346 -0.2970
 7143SOL    HW132891   2.754   4.381  13.882 -0.3280  3.5427 -0.9590
 7143SOL    HW232892   2.789   4.370  13.738  0.8643  0.7893  1.5822
 7144SOL     OW32893   2.329   0.472  15.821 -0.2119 -0.1028 -0.0335
 7144SOL    HW132894   2.262   0.459  15.754 -0.3742 -1.4057  0.3805
 7144SOL    HW232895   2.288   0.418  15.890  0.1697  0.1258  0.3734
 7145SOL     OW32896   1.641   4.687   0.403 -0.0934  0.3246 -0.2851
 7145SOL    HW132897   1.604   4.679   0.491  0.5253  0.5103 -0.0155
 7145SOL    HW232898   1.713   0.029   0.408  1.8421 -2.0947  1.9818
 7146SOL     OW32899   4.252   0.298   7.831  0.4222  0.4885  0.3021
 7146SOL    HW132900   4.327   0.357   7.836  0.9721 -0.2467  0.6457
 7146SOL    HW232901   4.178   0.355   7.809  0.4089  1.3685  2.5416
 7147SOL     OW32902   4.197   3.183   1.552  0.0831  0.0415 -0.1536
 7147SOL    HW132903   4.209   3.193   1.646 -2.4100  0.9275  0.0490
 7147SOL    HW232904   4.174   3.273   1.531  1.0787  0.6511  1.3465
 7148SOL     OW32905   2.137   2.534   9.646 -0.0962 -0.4411 -0.1340
 7148SOL    HW132906   2.081   2.464   9.680 -0.4059 -0.2646 -0.2713
 7148SOL    HW232907   2.109   2.533   9.554 -0.5641  0.8726 -0.0063
 7149SOL     OW32908   4.385   1.141  12.556  0.3152 -0.3196  0.4304
 7149SOL    HW132909   4.453   1.170  12.497 -0.7100  0.3625 -0.4198
 7149SOL    HW232910   4.329   1.219  12.557  0.3921 -0.2547 -1.0654
 7150SOL     OW32911   2.305   0.282   3.611  0.7788 -0.2675  0.0120
 7150SOL    HW132912   2.319   0.312   3.701 -0.4005 -2.6785  0.9828
 7150SOL    HW232913   2.389   0.291   3.567 -0.7210  1.1126 -2.5449
 7151SOL     OW32914   0.426   2.191   2.430 -0.6081  0.0126 -0.1137
 7151SOL    HW132915   0.497   2.135   2.400  0.2116  1.1175 -0.2437
 7151SOL    HW232916   0.351   2.149   2.388  0.4981 -2.4452  0.4100
 7152SOL     OW32917   1.954   2.264  11.777 -0.1101  0.3635  1.0452
 7152SOL    HW132918   1.888   2.320  11.734  0.3847 -1.9677 -2.8035
 7152SOL    HW232919   1.929   2.250  11.868 -2.2540 -0.6610  0.3106
 7153SOL     OW32920   4.060   0.393  11.042  0.0118 -0.3688 -0.8707
 7153SOL    HW132921   4.142   0.428  11.077 -1.9346  1.0957  2.3288
 7153SOL    HW232922   4.048   0.318  11.100 -2.1846  0.3892 -0.3419
 7154SOL     OW32923   0.063   0.502  13.694  0.3907  0.1453  0.2261
 7154SOL    HW132924   0.041   0.594  13.712  2.4822  1.1990 -2.5958
 7154SOL    HW232925   0.086   0.507  13.601 -0.4687 -0.2510 -0.0083
 7155SOL     OW32926   1.277   0.959   1.626 -0.2139  0.0146 -0.1004
 7155SOL    HW132927   1.185   0.974   1.603  0.0256  1.7428  0.0691
 7155SOL    HW232928   1.325   0.983   1.547  0.3547 -0.0406  0.2311
 7156SOL     OW32929   0.687   3.262  14.845  0.9948 -0.6626 -0.2192
 7156SOL    HW132930   0.747   3.188  14.840  0.7425 -0.9718  1.5165
 7156SOL    HW232931   0.706   3.305  14.762  0.0101 -1.8919 -1.0694
 7157SOL     OW32932   0.357   4.020   8.269  0.1063 -0.0385  0.8842
 7157SOL    HW132933   0.273   4.065   8.259  0.4917  0.2060 -1.4057
 7157SOL    HW232934   0.353   3.945   8.209 -0.0153  0.7155 -0.0567
 7158SOL     OW32935   1.352   3.923  11.321 -0.0077  0.0704  0.3256
 7158SOL    HW132936   1.268   3.907  11.363 -0.1016  3.3665  1.3749
 7158SOL    HW232937   1.407   3.899  11.395 -0.5695  0.0035  0.7171
 7159SOL     OW32938   0.964   3.124  11.960 -0.8133  0.0899 -0.3024
 7159SOL    HW132939   1.020   3.202  11.965  0.7340 -0.9719 -1.1577
 7159SOL    HW232940   1.022   3.055  11.929 -1.1614 -0.1126 -0.5024
 7160SOL     OW32941   4.446   1.729  13.326 -0.5708 -0.5326 -0.2195
 7160SOL    HW132942   4.460   1.805  13.382 -0.9518  0.6609 -1.7459
 7160SOL    HW232943   4.381   1.682  13.378 -1.9839  0.9941 -0.6187
 7161SOL     OW32944   1.400   1.030   1.397  0.1041  0.2969 -0.5533
 7161SOL    HW132945   1.398   0.950   1.345  0.8826 -0.3253  0.3954
 7161SOL    HW232946   1.404   1.096   1.328  2.3871  1.2442  0.5075
 7162SOL     OW32947   4.394   1.661   6.580 -0.2068  0.1276  0.9663
 7162SOL    HW132948   4.420   1.697   6.665 -1.6054  0.3333  1.2940
 7162SOL    HW232949   4.417   1.731   6.519 -0.8772 -0.4152  0.0971
 7163SOL     OW32950   1.324   3.542  11.902 -0.4425 -0.5340 -0.0106
 7163SOL    HW132951   1.323   3.625  11.950  0.8043 -0.1612 -0.6394
 7163SOL    HW232952   1.344   3.571  11.813  0.3261  0.8481  0.6032
 7164SOL     OW32953   4.200   3.002  17.281 -0.1226  0.2328 -0.6150
 7164SOL    HW132954   4.213   2.971  17.191 -1.5650  0.6185 -0.9430
 7164SOL    HW232955   4.106   3.018  17.284  0.0619  0.6154  2.3052
 7165SOL     OW32956   3.039   3.199   3.754 -0.2605  0.3635 -0.1467
 7165SOL    HW132957   3.064   3.262   3.687  0.1353 -0.7594 -1.0414
 7165SOL    HW232958   3.029   3.121   3.700  1.3945  1.8537 -2.5969
 7166SOL     OW32959   1.506   4.522  17.012  0.4176 -0.1649  0.2933
 7166SOL    HW132960   1.517   4.494  16.921  0.4083 -0.2174  0.3081
 7166SOL    HW232961   1.501   4.614  16.988  2.8467 -0.8665 -2.9335
 7167SOL     OW32962   1.146   1.649   2.433 -0.2529 -0.2172 -0.2035
 7167SOL    HW132963   1.127   1.585   2.365  0.5381 -1.0652  0.3746
 7167SOL    HW232964   1.131   1.604   2.516  1.4393  2.0703  1.3791
 7168SOL     OW32965   4.577   1.167   8.226 -0.6878 -0.4327  0.4860
 7168SOL    HW132966   4.531   1.130   8.301  1.3544 -2.1832  0.8658
 7168SOL    HW232967   4.533   1.252   8.228  1.1714  0.5522  0.0781
 7169SOL     OW32968   1.974   1.297  12.073  0.4062 -0.5902  0.1378
 7169SOL    HW132969   1.924   1.334  12.146  0.4005 -0.2061 -0.0587
 7169SOL    HW232970   2.065   1.308  12.100  0.7437  0.0377 -1.2342
 7170SOL     OW32971   2.897   2.660   2.088 -0.0121 -0.2208 -0.3983
 7170SOL    HW132972   2.983   2.666   2.128 -0.6191 -0.1882  0.9067
 7170SOL    HW232973   2.890   2.574   2.046  0.7520 -1.1269  1.3402
 7171SOL     OW32974   0.915   2.736   7.463  0.3375  0.2065 -0.2745
 7171SOL    HW132975   0.920   2.655   7.412 -0.0166 -1.3930  2.2446
 7171SOL    HW232976   0.983   2.787   7.419  0.2621 -0.4851 -1.1903
 7172SOL     OW32977   3.354   3.182  11.431  0.0517 -0.2230 -0.3190
 7172SOL    HW132978   3.384   3.114  11.492 -2.6641 -1.4451 -0.3364
 7172SOL    HW232979   3.362   3.131  11.350  1.8516 -0.0077 -0.2839
 7173SOL     OW32980   0.183   2.022   7.149  0.3191  0.0191  0.3126
 7173SOL    HW132981   0.210   1.961   7.219  0.9745  0.6905  0.6407
 7173SOL    HW232982   0.233   2.100   7.170 -1.1349  0.9516  0.2956
 7174SOL     OW32983   4.620   0.688   7.500  0.1287  0.2125 -0.5229
 7174SOL    HW132984   4.626   0.737   7.581  1.5442  0.7337 -0.9418
 7174SOL    HW232985   4.525   0.699   7.494  0.1485  0.3577 -0.5613
 7175SOL     OW32986   3.671   1.016   9.465  0.2283  0.6919 -0.1608
 7175SOL    HW132987   3.754   0.976   9.487 -0.3192  0.7273  1.9778
 7175SOL    HW232988   3.613   1.000   9.540  0.4921 -1.6787 -0.4623
 7176SOL     OW32989   1.492   3.846  11.529 -0.0291  0.1076  0.7383
 7176SOL    HW132990   1.433   3.877  11.598 -1.1974 -0.6143  0.0593
 7176SOL    HW232991   1.574   3.878  11.566 -0.7689  0.6294  1.9500
 7177SOL     OW32992   0.194   2.507  16.392 -0.6902  0.2202 -0.1799
 7177SOL    HW132993   0.102   2.536  16.388 -1.2209 -1.4722 -0.3857
 7177SOL    HW232994   0.241   2.580  16.432 -0.2484 -1.0917  1.7017
 7178SOL     OW32995   0.820   2.672   8.431 -0.1712  0.1999 -0.0939
 7178SOL    HW132996   0.904   2.716   8.420  0.6197 -0.6806  2.4003
 7178SOL    HW232997   0.809   2.657   8.525 -1.0070 -3.9793 -0.8746
 7179SOL     OW32998   3.227   3.707  14.825  0.1293  1.1672  0.0031
 7179SOL    HW132999   3.267   3.675  14.905  0.9911 -0.5266 -1.0957
 7179SOL    HW233000   3.170   3.774  14.861  0.0241  1.1831 -0.1916
 7180SOL     OW33001   2.931   2.666  11.090 -0.0971 -0.1585  0.1788
 7180SOL    HW133002   2.850   2.627  11.124 -0.3745 -0.2119 -0.5245
 7180SOL    HW233003   2.935   2.621  11.005 -0.4475 -0.4112  0.2960
 7181SOL     OW33004   4.235   2.853   7.305 -0.2500 -0.3520 -0.0523
 7181SOL    HW133005   4.278   2.805   7.377 -2.7093  0.2456  1.8169
 7181SOL    HW233006   4.299   2.920   7.282  1.0423 -1.7778 -0.6501
 7182SOL     OW33007   0.353   0.178   7.350 -0.4160 -0.2575  0.1327
 7182SOL    HW133008   0.304   0.243   7.401  0.3651  0.2855  0.1873
 7182SOL    HW233009   0.326   0.091   7.379 -2.0130  0.1861 -0.0353
 7183SOL     OW33010   1.532   2.741   4.830 -0.3599  0.1679  0.7578
 7183SOL    HW133011   1.562   2.685   4.758  1.3048  0.6180  1.0929
 7183SOL    HW233012   1.512   2.680   4.901  0.0827  0.4964  1.1655
 7184SOL     OW33013   3.177   3.691   3.345  0.2822  0.7899  0.0659
 7184SOL    HW133014   3.256   3.714   3.395  1.4346  1.0144 -1.8758
 7184SOL    HW233015   3.186   3.767   3.288  1.5209  1.3976  1.0609
 7185SOL     OW33016   1.663   2.153   4.751 -0.3948 -0.0702  0.2730
 7185SOL    HW133017   1.736   2.152   4.812  0.3471 -0.3703 -0.6121
 7185SOL    HW233018   1.666   2.246   4.729 -0.6926 -0.0063  0.5111
 7186SOL     OW33019   3.038   3.108   7.665 -0.5671  0.3894 -0.1850
 7186SOL    HW133020   3.053   3.140   7.576  0.3799 -1.5703 -0.7450
 7186SOL    HW233021   3.128   3.125   7.691 -0.4116 -0.9013  0.1156
 7187SOL     OW33022   2.292   1.812   2.575 -0.3684 -0.7189 -0.2055
 7187SOL    HW133023   2.292   1.907   2.563 -0.9919 -1.0943 -2.9909
 7187SOL    HW233024   2.334   1.807   2.661  4.5836 -1.5807 -2.6656
 7188SOL     OW33025   0.697   4.482  16.775  0.0143  1.0138  0.2995
 7188SOL    HW133026   0.608   4.502  16.747 -0.6115 -0.9563  0.8341
 7188SOL    HW233027   0.688   4.404  16.831 -1.5752  1.3072  0.4577
 7189SOL     OW33028   4.033   3.757   3.484 -0.2724 -0.0316 -0.8121
 7189SOL    HW133029   4.075   3.776   3.401  0.4222 -0.0538 -0.4643
 7189SOL    HW233030   3.980   3.836   3.489  0.7459  0.6571 -1.0672
 7190SOL     OW33031   2.661   0.660   1.588 -0.1095  0.5411 -0.0502
 7190SOL    HW133032   2.726   0.601   1.549  2.2453  1.4647  2.4836
 7190SOL    HW233033   2.584   0.636   1.536 -0.1892  1.2746 -0.2715
 7191SOL     OW33034   0.404   4.396   4.591  0.3449 -0.8079 -0.1818
 7191SOL    HW133035   0.432   4.427   4.505 -0.9409  0.9770  0.0349
 7191SOL    HW233036   0.448   4.311   4.594  0.8688 -0.5552 -0.7713
 7192SOL     OW33037   2.454   0.148  10.291 -0.1422 -0.4067  0.6409
 7192SOL    HW133038   2.439   0.102  10.373 -0.3503  1.8855  1.8715
 7192SOL    HW233039   2.394   0.222  10.292 -2.4533 -2.2462 -1.2051
 7193SOL     OW33040   0.884   3.222   5.057  0.1085 -0.3734 -0.2968
 7193SOL    HW133041   0.845   3.307   5.038 -0.7799 -0.1561  2.4646
 7193SOL    HW233042   0.848   3.167   4.988 -1.3434  3.5895 -2.6747
 7194SOL     OW33043   1.174   2.849   7.514  0.1744 -0.1506 -0.3789
 7194SOL    HW133044   1.157   2.873   7.606  0.1322  1.6244 -0.8411
 7194SOL    HW233045   1.255   2.798   7.520 -0.3966 -1.2256 -2.0516
 7195SOL     OW33046   1.223   0.165   1.670 -0.3380  0.1940 -0.3005
 7195SOL    HW133047   1.221   0.261   1.666 -2.7248  0.1583  0.0903
 7195SOL    HW233048   1.128   0.158   1.680  0.1501 -2.7075  2.2506
 7196SOL     OW33049   1.505   0.360   8.280 -0.0612 -0.5916 -0.3193
 7196SOL    HW133050   1.527   0.430   8.342  2.2708  0.1624 -2.0015
 7196SOL    HW233051   1.462   0.302   8.343 -0.1861 -1.9974 -1.7092
 7197SOL     OW33052   4.477   3.193   2.748 -0.1976 -0.6170  0.2683
 7197SOL    HW133053   4.552   3.201   2.808  0.0960 -0.1874 -0.1565
 7197SOL    HW233054   4.443   3.114   2.790 -1.4902 -1.0643 -1.6161
 7198SOL     OW33055   3.772   2.129   4.527  0.5748 -0.2159  0.5155
 7198SOL    HW133056   3.692   2.090   4.560  0.6719  0.1022  1.1117
 7198SOL    HW233057   3.829   2.053   4.541 -1.1336 -1.0880  2.6714
 7199SOL     OW33058   2.614   2.071   2.650 -0.0688  0.1090  0.5044
 7199SOL    HW133059   2.699   2.088   2.691  1.1516 -0.8775 -1.5773
 7199SOL    HW233060   2.635   2.031   2.565 -0.1351 -0.6766  0.8546
 7200SOL     OW33061   2.982   2.109   5.719  0.4534  0.1760 -0.5749
 7200SOL    HW133062   2.889   2.122   5.738  0.7334  1.1468  0.1284
 7200SOL    HW233063   3.011   2.073   5.803 -1.7044 -2.4596 -0.9617
 7201SOL     OW33064   0.845   0.655  12.642 -0.1321 -0.0061 -0.0432
 7201SOL    HW133065   0.806   0.568  12.654 -0.0544 -0.3925 -2.6623
 7201SOL    HW233066   0.934   0.637  12.673  0.8365  0.5272 -2.5720
 7202SOL     OW33067   2.355   4.334   6.348 -0.1631  0.2570 -0.0553
 7202SOL    HW133068   2.284   4.284   6.308  0.7175  0.3809 -1.7840
 7202SOL    HW233069   2.336   4.319   6.440  0.2535 -0.1654 -0.0368
 7203SOL     OW33070   1.722   2.817   2.542 -0.5609 -0.5417 -0.0505
 7203SOL    HW133071   1.779   2.788   2.471 -0.0886  0.2637  0.0015
 7203SOL    HW233072   1.651   2.753   2.543  0.2744 -1.4697 -0.4764
 7204SOL     OW33073   2.700   0.027  16.851  0.3517  0.1023 -0.1708
 7204SOL    HW133074   2.636   0.098  16.849  1.7681  1.4489  2.8916
 7204SOL    HW233075   2.656   4.690  16.787 -1.7931  1.9652 -0.3576
 7205SOL     OW33076   1.363   3.471  11.314  0.1684 -0.5042 -0.0203
 7205SOL    HW133077   1.285   3.457  11.261 -0.2741  0.7502  0.3012
 7205SOL    HW233078   1.421   3.421  11.258  1.4986 -0.7944  1.6204
 7206SOL     OW33079   0.001   2.389  16.703  0.2853 -0.0926  0.1299
 7206SOL    HW133080   4.678   2.304  16.694 -0.9793  0.1736  3.6902
 7206SOL    HW233081   4.679   2.443  16.636  2.0595  1.8027  0.5625
 7207SOL     OW33082   2.959   0.437   6.792  0.1669 -0.2818 -0.2453
 7207SOL    HW133083   2.880   0.485   6.766  1.0182  1.5091  0.4764
 7207SOL    HW233084   2.949   0.453   6.886  0.1633  0.8423 -0.4374
 7208SOL     OW33085   3.801   2.932  11.829  0.0521  0.2505 -0.0276
 7208SOL    HW133086   3.896   2.942  11.837  0.4495 -1.6330 -2.2633
 7208SOL    HW233087   3.799   2.904  11.737  1.5768 -0.6441  0.2139
 7209SOL     OW33088   1.363   4.216  11.772  0.4388  0.0762  0.5052
 7209SOL    HW133089   1.384   4.133  11.814  1.2977 -1.3385 -2.7278
 7209SOL    HW233090   1.432   4.268  11.813 -2.1004  2.0466  2.2712
 7210SOL     OW33091   1.275   2.032   1.086 -0.1020 -0.3038  0.4150
 7210SOL    HW133092   1.300   2.056   1.176 -1.8807  2.1954  0.2763
 7210SOL    HW233093   1.268   1.938   1.098  1.8974 -0.4876  0.0958
 7211SOL     OW33094   1.032   0.620   6.112 -0.3323 -0.0287 -0.4262
 7211SOL    HW133095   1.110   0.638   6.164  0.5612  1.6996 -2.3680
 7211SOL    HW233096   1.067   0.589   6.029  0.7223  0.7098 -0.2531
 7212SOL     OW33097   0.616   3.344   7.334  0.2029  0.4962 -0.2769
 7212SOL    HW133098   0.607   3.307   7.422 -0.7710  0.1860 -0.5043
 7212SOL    HW233099   0.540   3.304   7.292  0.2920 -0.0812  0.1145
 7213SOL     OW33100   3.685   3.866  11.209 -0.4740  0.7500  0.2115
 7213SOL    HW133101   3.632   3.816  11.271  0.2156  0.1009  0.2779
 7213SOL    HW233102   3.628   3.901  11.140  0.8398  3.2030  0.3384
 7214SOL     OW33103   4.319   3.466   6.595 -0.3931  0.5772 -0.7445
 7214SOL    HW133104   4.371   3.517   6.656  1.1636  0.3605 -1.8890
 7214SOL    HW233105   4.234   3.507   6.609 -0.5932  0.7283 -2.4404
 7215SOL     OW33106   1.588   0.448   2.687 -0.1250 -0.1111 -0.2982
 7215SOL    HW133107   1.600   0.542   2.701  1.8740 -0.2908 -0.7142
 7215SOL    HW233108   1.678   0.416   2.675  0.4272  0.8461  1.2662
 7216SOL     OW33109   4.067   3.625   3.049 -0.2944  0.3267  0.0192
 7216SOL    HW133110   4.052   3.546   3.101  1.1946 -0.0508 -0.1513
 7216SOL    HW233111   4.143   3.600   2.998 -0.7588  3.3450 -2.1405
 7217SOL     OW33112   4.251   2.100   5.578  0.2464 -0.1628 -0.4487
 7217SOL    HW133113   4.315   2.145   5.523  0.0928  1.3148  0.5655
 7217SOL    HW233114   4.175   2.109   5.520 -0.5102 -1.2136  0.3577
 7218SOL     OW33115   1.488   4.540   1.958 -0.2879  0.6783  0.0747
 7218SOL    HW133116   1.578   4.509   1.944 -0.5396 -0.6784  1.5015
 7218SOL    HW233117   1.474   4.505   2.046 -1.8968 -0.8949 -0.7891
 7219SOL     OW33118   0.698   4.076   4.651 -0.5615 -0.0526 -0.1054
 7219SOL    HW133119   0.609   4.074   4.616 -0.1629 -0.1609 -1.1009
 7219SOL    HW233120   0.705   4.165   4.686  2.0719 -0.7287  1.0552
 7220SOL     OW33121   2.095   4.312   7.982  0.6912 -0.5635  0.0038
 7220SOL    HW133122   2.095   4.359   8.065 -0.7432  1.5491 -1.2024
 7220SOL    HW233123   2.041   4.234   7.997  0.1259 -0.0369  0.7054
 7221SOL     OW33124   3.104   1.858   5.601  0.4183  0.0293 -0.6227
 7221SOL    HW133125   3.102   1.866   5.506  0.6099  0.8019 -0.5611
 7221SOL    HW233126   3.073   1.944   5.629  1.5389 -0.9264  3.5655
 7222SOL     OW33127   3.052   0.410  12.546  0.0106 -0.0407  0.1144
 7222SOL    HW133128   2.985   0.374  12.605 -2.0243 -0.1051 -2.2488
 7222SOL    HW233129   3.087   0.336  12.498 -1.4172 -0.0096 -0.9705
 7223SOL     OW33130   2.450   1.981  13.604  1.1600  0.2515  0.1006
 7223SOL    HW133131   2.425   2.069  13.631  0.7286 -0.2968  1.4864
 7223SOL    HW233132   2.408   1.982  13.518 -1.3465 -2.1504  1.2651
 7224SOL     OW33133   0.379   2.418   6.089 -0.0546  0.6627 -0.0457
 7224SOL    HW133134   0.471   2.393   6.097 -0.4979 -0.3081  2.1796
 7224SOL    HW233135   0.375   2.495   6.146  0.6991  0.7573 -0.1145
 7225SOL     OW33136   4.168   4.078  10.399  0.3724 -0.5448 -0.1831
 7225SOL    HW133137   4.212   4.162  10.409  0.9706 -0.5389 -2.8533
 7225SOL    HW233138   4.083   4.103  10.361 -0.3941 -1.7181  0.7538
 7226SOL     OW33139   3.282   1.351   0.099 -0.2767  0.4902  0.2026
 7226SOL    HW133140   3.373   1.339   0.071 -0.3605  0.1712  0.0628
 7226SOL    HW233141   3.290   1.428   0.155 -0.2788  1.7416 -1.5144
 7227SOL     OW33142   4.120   3.372   2.633  0.0505 -0.1284  0.2004
 7227SOL    HW133143   4.092   3.306   2.570 -1.0388 -0.0646  0.6211
 7227SOL    HW233144   4.211   3.369   2.603 -0.1165 -1.7525 -0.1626
 7228SOL     OW33145   4.476   3.230   7.104  0.1612  0.4479 -0.3210
 7228SOL    HW133146   4.536   3.293   7.144 -0.8655  1.3153 -0.1786
 7228SOL    HW233147   4.413   3.226   7.175  0.3669  0.0480 -0.1593
 7229SOL     OW33148   4.651   0.199  12.636 -0.3457  0.7125 -0.2578
 7229SOL    HW133149   4.651   0.121  12.580  0.4493  0.0585  0.6463
 7229SOL    HW233150   0.019   0.231  12.614 -0.5203  2.5599  1.7122
 7230SOL     OW33151   2.365   2.187   5.653  0.0089 -0.2173  0.2286
 7230SOL    HW133152   2.317   2.269   5.662  1.1744  0.7553 -2.5476
 7230SOL    HW233153   2.350   2.148   5.739  2.6587  0.8574  1.1561
 7231SOL     OW33154   0.439   3.027   5.468 -0.0560  0.7454 -0.3571
 7231SOL    HW133155   0.399   3.114   5.477 -2.2078 -0.2465 -0.3329
 7231SOL    HW233156   0.398   2.984   5.542  0.3214 -0.6237 -0.9475
 7232SOL     OW33157   3.459   1.430  16.324  0.4500  0.2131  0.1604
 7232SOL    HW133158   3.381   1.481  16.342  1.0604  1.5197 -0.9217
 7232SOL    HW233159   3.475   1.444  16.231 -0.3166 -0.2944 -0.0444
 7233SOL     OW33160   1.605   1.714   2.243  0.5069 -0.1329  0.8598
 7233SOL    HW133161   1.536   1.779   2.255 -0.4199 -0.4030 -2.9068
 7233SOL    HW233162   1.626   1.684   2.331  0.7348 -2.8180 -0.1046
 7234SOL     OW33163   4.285   2.317   7.931  0.2060  0.1835 -0.3695
 7234SOL    HW133164   4.278   2.285   8.021 -1.3419 -0.3022 -0.6667
 7234SOL    HW233165   4.366   2.271   7.905 -0.8808 -0.9420 -1.7640
 7235SOL     OW33166   3.037   2.191  10.644  0.7363 -0.3504  0.2872
 7235SOL    HW133167   2.989   2.234  10.715 -0.8790 -1.0427 -0.3807
 7235SOL    HW233168   3.110   2.160  10.697 -0.4881  0.0065  2.1903
 7236SOL     OW33169   3.736   3.295  17.413 -0.9345 -0.4761 -0.1670
 7236SOL    HW133170   3.678   3.219  17.416 -0.5736 -0.5983  3.4814
 7236SOL    HW233171   3.680   3.365  17.379 -0.4750 -0.5151 -1.0077
 7237SOL     OW33172   4.190   2.144   5.919 -0.3674 -0.1871  0.0823
 7237SOL    HW133173   4.101   2.172   5.941 -0.4421 -0.2210 -0.1843
 7237SOL    HW233174   4.215   2.090   5.995  2.6986  0.2322 -0.6407
 7238SOL     OW33175   3.030   3.050   3.032  0.0456  0.0740 -0.0409
 7238SOL    HW133176   3.002   2.966   3.066  0.9391  0.3085  1.2827
 7238SOL    HW233177   2.996   3.117   3.091 -1.1359  0.7663 -1.5077
 7239SOL     OW33178   1.334   4.532  17.473 -1.0826  0.1956  0.0762
 7239SOL    HW133179   1.368   4.491  17.393 -0.0190  0.2635  0.4956
 7239SOL    HW233180   1.406   4.508  17.531  0.3033  0.0955 -1.6598
 7240SOL     OW33181   1.215   3.591   1.576  0.5215  0.3811 -0.8916
 7240SOL    HW133182   1.191   3.612   1.667 -1.4624  1.2136 -1.6085
 7240SOL    HW233183   1.304   3.559   1.588  1.8757  3.0471 -3.8456
 7241SOL     OW33184   3.464   3.283   2.239  0.1007 -0.4267 -0.1466
 7241SOL    HW133185   3.469   3.189   2.223 -0.6415 -0.2856 -1.2250
 7241SOL    HW233186   3.556   3.308   2.234 -0.9923  3.0389 -2.8379
 7242SOL     OW33187   4.689   1.087   8.697 -0.0799  0.0278 -0.2656
 7242SOL    HW133188   4.693   1.102   8.602  0.0660 -2.3486 -0.6304
 7242SOL    HW233189   4.600   1.054   8.693  0.6200 -2.0789  1.8207
 7243SOL     OW33190   2.791   4.269   8.228 -0.3021 -0.0960 -0.4763
 7243SOL    HW133191   2.833   4.267   8.314  0.2900  0.7099 -0.7504
 7243SOL    HW233192   2.750   4.355   8.225  0.0572 -0.0051 -2.5914
 7244SOL     OW33193   0.749   1.666   0.800  0.0483  0.0506 -0.4662
 7244SOL    HW133194   0.654   1.663   0.787 -0.2581 -0.8045  2.0755
 7244SOL    HW233195   0.758   1.750   0.845 -1.1213 -0.1288  0.0963
 7245SOL     OW33196   0.805   3.307   2.992  0.2444  0.5668 -0.1978
 7245SOL    HW133197   0.899   3.321   3.006  0.4787  0.1877 -1.3871
 7245SOL    HW233198   0.779   3.274   3.078 -2.6524 -0.0579 -1.3067
 7246SOL     OW33199   2.707   1.975   4.273 -0.5972  0.0670  0.1404
 7246SOL    HW133200   2.625   1.971   4.225 -1.1718  0.6681  1.0848
 7246SOL    HW233201   2.722   1.889   4.311  1.7402  0.5275  0.3159
 7247SOL     OW33202   2.824   0.524   1.404 -0.5212  0.2690  0.2028
 7247SOL    HW133203   2.875   0.447   1.430  0.8921  1.2843  0.4762
 7247SOL    HW233204   2.889   0.594   1.417 -1.7263  1.6776 -1.4054
 7248SOL     OW33205   1.760   1.695   2.026  0.1658  0.0312  0.0226
 7248SOL    HW133206   1.756   1.602   2.009 -0.0195  0.5124 -2.4825
 7248SOL    HW233207   1.709   1.698   2.108 -0.8702 -0.2422 -0.6154
 7249SOL     OW33208   1.603   2.728   1.332  0.3346 -0.1087  0.0624
 7249SOL    HW133209   1.657   2.805   1.319 -1.5711  1.2978  0.5070
 7249SOL    HW233210   1.660   2.695   1.403  2.7587  0.9342 -1.4222
 7250SOL     OW33211   2.188   0.046   6.318  0.2010 -0.9277 -0.0045
 7250SOL    HW133212   2.239   0.023   6.395  2.1737  0.6518 -0.8317
 7250SOL    HW233213   2.158   0.130   6.355 -0.2217 -0.4235 -1.4773
 7251SOL     OW33214   1.330   2.952   9.084 -0.1131 -0.6883  0.3128
 7251SOL    HW133215   1.398   3.016   9.063  0.2009 -1.8777 -2.2752
 7251SOL    HW233216   1.364   2.866   9.060  0.2193 -0.2002 -0.9865
 7252SOL     OW33217   1.887   4.326  11.632 -0.0675 -0.4033  0.4797
 7252SOL    HW133218   1.913   4.268  11.561 -0.0701  0.2190 -0.0363
 7252SOL    HW233219   1.875   4.405  11.578  0.3397 -1.7467 -1.5618
 7253SOL     OW33220   1.316   2.732  15.255 -0.0026 -0.4284 -0.3445
 7253SOL    HW133221   1.235   2.751  15.207  1.2549  1.9723 -1.5297
 7253SOL    HW233222   1.380   2.785  15.207 -1.5615  1.4467 -0.3509
 7254SOL     OW33223   4.617   0.239   9.094 -0.1547  0.5648  0.5715
 7254SOL    HW133224   4.613   0.309   9.158  1.6541  0.8245  0.3981
 7254SOL    HW233225   4.550   0.181   9.130  0.4338  0.9164  2.2027
 7255SOL     OW33226   3.467   1.473  13.885 -0.0395 -0.2244  0.0711
 7255SOL    HW133227   3.494   1.546  13.828  1.1464  1.4237  2.7449
 7255SOL    HW233228   3.377   1.497  13.911 -1.6403 -0.9482 -4.8025
 7256SOL     OW33229   1.341   0.978   8.238 -0.0276 -0.9182 -0.4966
 7256SOL    HW133230   1.359   0.941   8.324 -0.2301 -2.1372 -0.9735
 7256SOL    HW233231   1.254   1.013   8.257  0.6954  0.9584 -0.6941
 7257SOL     OW33232   1.963   0.172  16.173 -0.4026  0.3571 -0.0397
 7257SOL    HW133233   1.920   0.197  16.091 -0.6484 -4.5233 -1.4342
 7257SOL    HW233234   2.011   0.101  16.130  0.6683  1.2987 -0.3921
 7258SOL     OW33235   3.445   4.024   3.941  0.0940 -0.4149  0.4070
 7258SOL    HW133236   3.381   4.040   3.872  0.7298 -1.6461 -0.4625
 7258SOL    HW233237   3.406   3.964   4.005  0.6824  1.3672  2.4439
 7259SOL     OW33238   0.191   3.182  17.325  0.3443  0.0016 -0.4550
 7259SOL    HW133239   0.104   3.164  17.290  1.4201 -0.5138 -2.8984
 7259SOL    HW233240   0.179   3.271  17.358  0.5739  0.0294 -0.4478
 7260SOL     OW33241   3.758   0.425   4.324  0.0118  0.0827 -0.7012
 7260SOL    HW133242   3.851   0.408   4.343 -0.0695 -1.7551 -1.9029
 7260SOL    HW233243   3.737   0.344   4.277  1.2439  0.1889 -1.4537
 7261SOL     OW33244   2.854   3.458   6.290  0.2445  0.0537 -0.3178
 7261SOL    HW133245   2.778   3.516   6.298 -0.0159 -0.2269 -0.7533
 7261SOL    HW233246   2.799   3.380   6.278  2.0486 -0.7899 -2.9840
 7262SOL     OW33247   1.300   1.173   9.478  0.7405 -0.2742  0.8197
 7262SOL    HW133248   1.346   1.256   9.483  1.4050 -0.6158  0.2982
 7262SOL    HW233249   1.275   1.163   9.570  1.1823 -3.7929  0.5426
 7263SOL     OW33250   3.264   3.208   8.810 -0.6570  0.5548  0.5442
 7263SOL    HW133251   3.353   3.237   8.787 -0.7280 -0.0664 -0.5159
 7263SOL    HW233252   3.279   3.131   8.865  0.1742 -0.0596 -0.5334
 7264SOL     OW33253   1.742   1.231   7.906 -0.0956 -0.3905  0.2309
 7264SOL    HW133254   1.808   1.237   7.975 -1.1767 -2.8239  1.4583
 7264SOL    HW233255   1.707   1.320   7.901  0.5205 -0.0796  1.3945
 7265SOL     OW33256   3.993   3.038   4.943 -0.4458 -0.4266 -0.4826
 7265SOL    HW133257   4.068   2.988   4.912 -1.2485 -1.9609  0.0391
 7265SOL    HW233258   3.921   2.998   4.895 -0.7185 -1.0924  0.4795
 7266SOL     OW33259   1.453   2.562   7.058  0.0605 -0.2584 -0.0658
 7266SOL    HW133260   1.408   2.638   7.021  1.5209  0.1987 -0.8696
 7266SOL    HW233261   1.542   2.597   7.064  0.6935 -2.2379  1.8622
 7267SOL     OW33262   0.325   2.007  15.852 -0.3527 -0.2983 -0.1081
 7267SOL    HW133263   0.360   1.938  15.908  1.5894  0.8215  0.0981
 7267SOL    HW233264   0.358   1.988  15.764 -3.0263  4.3500 -2.1014
 7268SOL     OW33265   4.494   0.383   7.009 -0.0831 -0.1330 -0.0292
 7268SOL    HW133266   4.555   0.315   6.979  1.2592  1.8430 -1.7581
 7268SOL    HW233267   4.562   0.431   7.057 -0.0956  1.1692 -1.3397
 7269SOL     OW33268   2.304   1.426   5.934 -0.9523 -0.5603  0.2101
 7269SOL    HW133269   2.226   1.476   5.955 -0.6352  1.3496 -3.1656
 7269SOL    HW233270   2.367   1.487   5.897 -0.8460 -0.0360  1.2630
 7270SOL     OW33271   4.097   0.685   3.606 -0.0634  0.6971 -0.0197
 7270SOL    HW133272   4.062   0.755   3.662  0.5197  0.1460  1.0327
 7270SOL    HW233273   4.185   0.673   3.641 -1.1521 -0.3406  2.3481
 7271SOL     OW33274   1.947   1.891   1.968 -0.5771 -0.1571 -0.1218
 7271SOL    HW133275   2.028   1.871   2.015 -2.3579 -1.3724  2.4538
 7271SOL    HW233276   1.897   1.823   2.013  1.0983 -3.0477 -2.6185
 7272SOL     OW33277   2.099   0.846  12.438  0.3839 -0.1370 -0.4031
 7272SOL    HW133278   2.119   0.761  12.398 -2.8633 -0.2183 -1.8397
 7272SOL    HW233279   2.003   0.850  12.440  0.5703  3.7158  0.3152
 7273SOL     OW33280   0.703   1.587   3.342 -0.1862 -0.0400  0.0032
 7273SOL    HW133281   0.638   1.641   3.297  0.6518  0.1540 -0.9621
 7273SOL    HW233282   0.660   1.502   3.355 -1.1416  0.5996  1.0488
 7274SOL     OW33283   0.914   0.023   1.893 -0.0826 -0.1279 -0.0720
 7274SOL    HW133284   0.964   0.090   1.940  1.8813 -1.1323 -0.7243
 7274SOL    HW233285   0.862   4.696   1.957  0.5929  0.6818  1.0726
 7275SOL     OW33286   1.652   3.691   5.338 -0.3732 -0.4593 -0.4941
 7275SOL    HW133287   1.675   3.599   5.321 -2.1377 -0.5440 -2.4956
 7275SOL    HW233288   1.658   3.723   5.248 -1.0285 -1.0321 -0.7410
 7276SOL     OW33289   2.313   4.028   1.567 -0.7638  0.8167 -0.2752
 7276SOL    HW133290   2.266   4.028   1.651  1.3832  1.9279  0.9393
 7276SOL    HW233291   2.381   4.094   1.585  0.0522 -0.1035  0.0025
 7277SOL     OW33292   1.958   2.181   5.574  0.0608 -0.0834 -0.3767
 7277SOL    HW133293   1.999   2.174   5.660  1.5684 -1.7203 -1.2372
 7277SOL    HW233294   1.962   2.276   5.564  0.3453  0.2782  3.5539
 7278SOL     OW33295   2.379   1.707   4.026 -0.4374 -0.1697 -0.0373
 7278SOL    HW133296   2.363   1.666   3.941  0.6808  0.8422 -0.7444
 7278SOL    HW233297   2.288   1.726   4.046 -0.4112  0.0590 -0.1311
 7279SOL     OW33298   3.840   1.815  16.324  0.3320  0.5777  0.0567
 7279SOL    HW133299   3.806   1.820  16.235  0.8870 -0.4371 -0.2107
 7279SOL    HW233300   3.779   1.867  16.377  1.0364  0.9746  0.4710
 7280SOL     OW33301   0.306   3.873  14.634  0.5694  0.5644 -0.1316
 7280SOL    HW133302   0.343   3.956  14.664  0.7766  0.2643  0.4282
 7280SOL    HW233303   0.381   3.816  14.649  1.1605  1.8670  1.8715
 7281SOL     OW33304   0.162   0.655   5.499  0.2502 -0.0221  0.2476
 7281SOL    HW133305   0.244   0.661   5.549 -0.7541  0.1931  1.8567
 7281SOL    HW233306   0.104   0.707   5.555  1.4150  1.2190  0.3034
 7282SOL     OW33307   1.690   1.582   7.400  0.9400 -0.2646 -0.1098
 7282SOL    HW133308   1.741   1.624   7.331 -0.7301  0.6457 -0.8061
 7282SOL    HW233309   1.668   1.502   7.354 -0.1470 -0.6378  1.0426
 7283SOL     OW33310   1.824   3.415  11.228 -0.3507 -0.1658  0.2854
 7283SOL    HW133311   1.764   3.437  11.300  0.5106  1.1547  0.6207
 7283SOL    HW233312   1.765   3.424  11.154 -3.9875  0.1982  3.1936
 7284SOL     OW33313   3.980   4.342   3.059  0.2799 -0.2155  0.3085
 7284SOL    HW133314   3.974   4.288   3.138  1.0769  0.5609  0.9081
 7284SOL    HW233315   3.914   4.296   3.008 -0.0851  0.7567 -0.0984
 7285SOL     OW33316   2.878   3.284   5.161 -0.2490 -0.1869  0.0894
 7285SOL    HW133317   2.870   3.225   5.237 -2.9868 -0.6851 -0.6142
 7285SOL    HW233318   2.887   3.366   5.209  0.8384  1.2242 -2.5337
 7286SOL     OW33319   1.179   1.895   5.669  0.0924  0.4431 -0.2552
 7286SOL    HW133320   1.153   1.912   5.579 -1.5080  1.6388  0.4164
 7286SOL    HW233321   1.249   1.831   5.659  1.1703  1.3449  1.4541
 7287SOL     OW33322   2.862   0.474   7.068  0.3855 -0.7200 -0.1848
 7287SOL    HW133323   2.928   0.407   7.085 -0.1815 -0.8700  1.3768
 7287SOL    HW233324   2.783   0.422   7.054 -2.0034  3.0597 -0.7485
 7288SOL     OW33325   3.296   4.283   3.858 -0.2450  0.4492  0.3601
 7288SOL    HW133326   3.321   4.349   3.923 -0.8703  3.2646 -2.2275
 7288SOL    HW233327   3.306   4.340   3.781  3.0136 -1.0118 -0.3019
 7289SOL     OW33328   4.441   1.809   9.054 -0.1637 -0.1740 -0.1047
 7289SOL    HW133329   4.440   1.737   9.117  0.1448 -0.4927 -0.4653
 7289SOL    HW233330   4.461   1.885   9.109  0.4749 -0.5022  0.1188
 7290SOL     OW33331   2.513   0.660  15.764 -0.0600  0.1918 -0.4625
 7290SOL    HW133332   2.587   0.622  15.718 -0.0306  1.3121 -1.3277
 7290SOL    HW233333   2.453   0.586  15.780  1.0889 -0.1915  2.1420
 7291SOL     OW33334   1.598   3.275   2.041  0.0607 -0.1470 -0.0708
 7291SOL    HW133335   1.678   3.307   2.083  0.9039 -0.4990 -1.4102
 7291SOL    HW233336   1.533   3.318   2.097  0.3721  0.1545  0.0573
 7292SOL     OW33337   3.402   1.333  16.972 -0.1751 -0.3157  0.3239
 7292SOL    HW133338   3.493   1.358  16.989 -0.2105 -1.5849  2.4166
 7292SOL    HW233339   3.413   1.291  16.887  0.2871 -0.5771  0.5160
 7293SOL     OW33340   0.937   0.239  16.037  0.2767  0.4209 -0.9248
 7293SOL    HW133341   0.942   0.316  15.980 -0.9350  0.6825 -0.6762
 7293SOL    HW233342   1.028   0.239  16.069  0.1874 -1.0194 -0.7004
 7294SOL     OW33343   2.064   0.538   0.664  0.2271 -0.5692  0.0939
 7294SOL    HW133344   2.158   0.527   0.651 -0.1138 -0.6129 -2.3312
 7294SOL    HW233345   2.044   0.629   0.686  0.4086 -0.2234 -1.1485
 7295SOL     OW33346   0.351   1.024   5.633  0.1789  0.4992 -0.3551
 7295SOL    HW133347   0.350   1.066   5.547 -1.5269 -1.5563 -1.3238
 7295SOL    HW233348   0.444   1.002   5.639 -0.4413 -2.2957 -1.1222
 7296SOL     OW33349   3.805   4.591   3.171 -0.2094  0.1486  0.1138
 7296SOL    HW133350   3.900   4.590   3.175 -0.2812 -1.5878  1.4904
 7296SOL    HW233351   3.797   4.519   3.234 -0.3908  0.8375  0.8867
 7297SOL     OW33352   1.294   3.660  13.937 -0.6603 -0.1072  0.1366
 7297SOL    HW133353   1.210   3.658  13.983 -0.0305  2.9884  1.3929
 7297SOL    HW233354   1.274   3.704  13.854 -4.0978 -1.0716  0.4548
 7298SOL     OW33355   1.382   0.230  16.782 -0.5648  0.1395 -0.0518
 7298SOL    HW133356   1.303   0.282  16.797  0.1706  0.9407  1.0393
 7298SOL    HW233357   1.424   0.269  16.705 -0.4289 -1.6116 -0.8555
 7299SOL     OW33358   2.559   4.190  13.108 -0.6663  0.4549 -0.6913
 7299SOL    HW133359   2.566   4.242  13.028  1.9521 -0.0056 -0.7582
 7299SOL    HW233360   2.639   4.137  13.114 -1.3499 -0.7120 -2.0233
 7300SOL     OW33361   1.435   1.533   5.625  0.1752  0.0806  0.1810
 7300SOL    HW133362   1.478   1.458   5.667  2.5303  1.8954  1.0275
 7300SOL    HW233363   1.358   1.485   5.594 -0.8217  1.6087  0.2899
 7301SOL     OW33364   1.228   0.953   6.661 -0.6825  0.1317  0.6158
 7301SOL    HW133365   1.319   0.957   6.630 -0.1302  2.4012  2.4497
 7301SOL    HW233366   1.187   1.031   6.624 -0.7151 -0.3278 -0.2957
 7302SOL     OW33367   0.965   2.739   6.934  0.3746 -0.7974  0.1473
 7302SOL    HW133368   0.967   2.694   6.850 -1.1925  1.6110 -1.1769
 7302SOL    HW233369   0.920   2.669   6.981 -2.7860  0.3035 -1.2702
 7303SOL     OW33370   1.276   4.106  10.480 -0.3850 -0.4289 -0.4539
 7303SOL    HW133371   1.350   4.067  10.434  0.4571  1.5266 -0.7543
 7303SOL    HW233372   1.317   4.172  10.536  2.3294 -1.7041 -0.9699
 7304SOL     OW33373   0.597   2.789   4.614 -0.0493  0.4786 -0.4031
 7304SOL    HW133374   0.628   2.749   4.532  0.8454 -4.1293  2.2021
 7304SOL    HW233375   0.662   2.854   4.639 -0.2115 -0.1590  1.6450
 7305SOL     OW33376   0.559   3.626  10.455 -0.0407 -0.1344 -0.5188
 7305SOL    HW133377   0.557   3.661  10.544 -3.9748 -0.4774 -0.4553
 7305SOL    HW233378   0.637   3.670  10.423  1.2419 -0.6447  1.9365
 7306SOL     OW33379   3.405   1.489   7.350  0.0535 -0.2355  0.3651
 7306SOL    HW133380   3.442   1.414   7.304 -0.2781  0.2510 -0.6925
 7306SOL    HW233381   3.310   1.483   7.353  0.1968 -2.1627  0.9129
 7307SOL     OW33382   0.124   4.320  10.560 -0.3848 -0.6750  0.5995
 7307SOL    HW133383   0.056   4.253  10.553  0.9515 -2.0452  0.5008
 7307SOL    HW233384   0.120   4.365  10.476  2.4220  0.6403  1.1529
 7308SOL     OW33385   1.980   0.858   2.166  0.5528  0.1039 -0.2104
 7308SOL    HW133386   1.888   0.831   2.163  0.5109  0.2704 -0.5194
 7308SOL    HW233387   1.988   0.853   2.071  0.1170  0.5663 -0.2698
 7309SOL     OW33388   1.698   1.142  15.682  0.4861 -0.1273 -0.4248
 7309SOL    HW133389   1.648   1.121  15.761 -3.2163  1.0785 -2.5021
 7309SOL    HW233390   1.685   1.237  15.681  0.2117 -0.1782 -1.1440
 7310SOL     OW33391   2.423   1.418   7.509 -0.7788  0.2577  0.2063
 7310SOL    HW133392   2.388   1.376   7.430 -2.1297  0.1613  0.8528
 7310SOL    HW233393   2.485   1.357   7.548  0.6334  2.1505  0.8993
 7311SOL     OW33394   3.246   1.598   5.259 -0.0158 -0.2535 -0.1272
 7311SOL    HW133395   3.316   1.533   5.247 -0.1798 -0.4227 -0.1595
 7311SOL    HW233396   3.266   1.619   5.350  0.5591  3.2508 -1.0558
 7312SOL     OW33397   4.061   4.303  10.086 -0.0435  0.7614  0.2178
 7312SOL    HW133398   4.011   4.272  10.011 -0.0310 -0.2355  0.6292
 7312SOL    HW233399   4.136   4.246  10.071  0.9413  1.8617  0.9214
 7313SOL     OW33400   1.622   0.013   7.048  0.8636 -0.3860  0.2099
 7313SOL    HW133401   1.618   4.637   7.040  0.3420 -0.3159 -0.4056
 7313SOL    HW233402   1.570   0.018   7.128  2.6079  0.2545  1.2799
 7314SOL     OW33403   1.754   4.212  10.520  0.4168 -0.4366 -0.0491
 7314SOL    HW133404   1.791   4.145  10.578 -0.3138 -0.2560  0.6304
 7314SOL    HW233405   1.831   4.230  10.466  0.0961 -0.5032 -0.5262
 7315SOL     OW33406   1.238   3.631   0.694 -0.4341 -0.3704  0.4109
 7315SOL    HW133407   1.209   3.562   0.753  0.7798  0.2559  1.7311
 7315SOL    HW233408   1.333   3.619   0.700 -0.0674  2.5048  0.3739
 7316SOL     OW33409   1.838   1.189  13.159  0.5399 -0.1813 -0.6953
 7316SOL    HW133410   1.783   1.112  13.177 -3.2614  2.6208 -0.2665
 7316SOL    HW233411   1.907   1.181  13.225  0.4771 -0.7111 -0.6913
 7317SOL     OW33412   2.615   0.097   2.979 -0.6962  0.5551 -1.0205
 7317SOL    HW133413   2.539   0.075   2.926 -1.4923  1.0875 -0.1119
 7317SOL    HW233414   2.581   0.069   3.064 -0.7426 -1.1025 -1.5819
 7318SOL     OW33415   4.244   4.316  10.479 -0.1483 -0.3814 -0.2397
 7318SOL    HW133416   4.183   4.331  10.552  1.0358  1.4298  0.3706
 7318SOL    HW233417   4.201   4.381  10.424 -0.4243  1.0492  1.6544
 7319SOL     OW33418   1.490   2.438   3.014 -0.0192 -0.3176  0.2059
 7319SOL    HW133419   1.524   2.463   3.100 -0.4165  0.2306  0.2017
 7319SOL    HW233420   1.504   2.343   3.019 -0.4936 -0.3877  0.1915
 7320SOL     OW33421   3.635   3.689  17.423 -0.1497  0.2663 -0.3574
 7320SOL    HW133422   3.686   3.676  17.503  1.0170 -1.1540 -1.3244
 7320SOL    HW233423   3.687   3.759  17.383  0.7557 -1.6704 -2.5828
 7321SOL     OW33424   4.010   2.254  10.934 -0.2360 -0.0721  0.0699
 7321SOL    HW133425   4.065   2.191  10.888  0.8591  1.6515 -0.9868
 7321SOL    HW233426   4.033   2.332  10.883  0.9390 -1.0813 -0.9287
 7322SOL     OW33427   1.377   2.276   0.521  0.0225 -0.0526 -0.0195
 7322SOL    HW133428   1.407   2.262   0.430  0.0538  1.4717 -0.2365
 7322SOL    HW233429   1.291   2.310   0.498 -0.9218 -1.6704  1.1621
 7323SOL     OW33430   1.799   2.066   4.092  0.0289 -0.7464 -0.2498
 7323SOL    HW133431   1.776   2.004   4.162 -0.2746  0.1402  0.4405
 7323SOL    HW233432   1.729   2.043   4.031  2.0020 -1.1264 -2.3252
 7324SOL     OW33433   3.503   3.053   1.097  0.5555  0.0811  0.1252
 7324SOL    HW133434   3.430   3.099   1.055  0.6645  0.4155  0.2976
 7324SOL    HW233435   3.467   3.052   1.186  0.5992  1.6420  0.1747
 7325SOL     OW33436   1.131   2.493   4.772 -0.0256  0.5110 -0.5120
 7325SOL    HW133437   1.165   2.579   4.794 -1.4843  0.3912  2.2389
 7325SOL    HW233438   1.220   2.462   4.753 -0.9091 -0.7203 -2.6537
 7326SOL     OW33439   1.369   4.224   0.902  0.2921 -0.1343  0.2098
 7326SOL    HW133440   1.323   4.289   0.955 -2.8568 -1.6315 -0.6444
 7326SOL    HW233441   1.411   4.164   0.963  1.5527 -0.1992 -0.7244
 7327SOL     OW33442   0.625   1.799   7.320  0.2741  0.4180  0.0934
 7327SOL    HW133443   0.605   1.747   7.242 -0.4858 -0.1890  0.6947
 7327SOL    HW233444   0.720   1.803   7.311  0.3344 -0.2877  0.4710
 7328SOL     OW33445   4.634   1.159   6.733 -0.5512  0.0998 -0.4276
 7328SOL    HW133446   4.658   1.213   6.657 -0.8090  0.9637  0.1050
 7328SOL    HW233447   4.717   1.114   6.751 -0.7477  0.8583  2.4058
 7329SOL     OW33448   4.159   1.713   8.471  0.1926  0.0402 -0.4196
 7329SOL    HW133449   4.223   1.772   8.511 -2.0983  1.1216  1.6549
 7329SOL    HW233450   4.127   1.667   8.548  1.3469 -1.2790 -0.7268
 7330SOL     OW33451   4.109   1.116  13.657  0.2091  0.3395 -0.0823
 7330SOL    HW133452   4.056   1.052  13.703  1.7405 -2.2402 -1.9030
 7330SOL    HW233453   4.146   1.059  13.590 -0.9278 -1.3450  0.7491
 7331SOL     OW33454   3.055   2.293   3.471  0.1522  0.1372 -0.5474
 7331SOL    HW133455   3.079   2.320   3.383  0.2752 -1.4111 -0.9837
 7331SOL    HW233456   3.135   2.264   3.514  1.6630  3.8076 -0.8390
 7332SOL     OW33457   0.890   1.013   0.408 -0.1250  0.3592 -0.1318
 7332SOL    HW133458   0.953   1.080   0.437  1.4810 -1.7007  1.0887
 7332SOL    HW233459   0.949   0.945   0.376 -0.3145  0.1239  0.0215
 7333SOL     OW33460   2.838   4.384  12.424  0.2780 -0.0750 -0.1690
 7333SOL    HW133461   2.747   4.412  12.431 -0.6969 -3.4378  0.7558
 7333SOL    HW233462   2.861   4.366  12.515  0.5111 -0.3718 -0.2862
 7334SOL     OW33463   4.180   3.657   6.385  0.1839  0.0767 -0.8022
 7334SOL    HW133464   4.092   3.620   6.394  0.8066 -1.2690 -0.1880
 7334SOL    HW233465   4.167   3.735   6.438  2.8562 -1.9924  2.8941
 7335SOL     OW33466   2.883   4.515   2.282 -0.2918 -0.4598  0.3990
 7335SOL    HW133467   2.940   4.441   2.261  0.5906 -0.5004  2.8549
 7335SOL    HW233468   2.845   4.536   2.197 -1.5107 -0.9674  0.8172
 7336SOL     OW33469   0.109   2.269  10.571  0.2735  0.0282 -0.0969
 7336SOL    HW133470   0.161   2.243  10.496 -1.7052  1.2093 -1.8771
 7336SOL    HW233471   0.178   2.290  10.635 -1.2074  0.4437  1.3809
 7337SOL     OW33472   2.481   2.682   1.308  0.0087  0.3028 -0.1676
 7337SOL    HW133473   2.525   2.726   1.235 -0.8731 -1.3433 -1.7155
 7337SOL    HW233474   2.420   2.623   1.263 -0.5888  1.4829 -0.9283
 7338SOL     OW33475   2.763   1.136  17.293  0.0851 -0.0950 -0.0743
 7338SOL    HW133476   2.758   1.160  17.201 -0.9586  0.0042  0.0057
 7338SOL    HW233477   2.673   1.158  17.318  0.0678 -0.8465  0.5098
 7339SOL     OW33478   4.578   0.851  16.127 -0.6929  0.7043 -0.5115
 7339SOL    HW133479   4.606   0.811  16.209 -1.1783  0.4160 -0.4799
 7339SOL    HW233480   4.651   0.902  16.094 -0.8380  1.2053 -0.0445
 7340SOL     OW33481   3.366   2.583  16.133  0.4854  0.2871 -0.0833
 7340SOL    HW133482   3.322   2.530  16.066  2.1750 -1.1585 -0.0565
 7340SOL    HW233483   3.427   2.521  16.173  1.8014  0.8093 -1.2496
 7341SOL     OW33484   0.899   3.670   5.992  0.0486  0.0617 -0.2913
 7341SOL    HW133485   0.934   3.705   6.075  2.1468 -1.5534 -0.4924
 7341SOL    HW233486   0.925   3.733   5.925 -1.3909  0.1365 -0.7694
 7342SOL     OW33487   0.638   3.684   3.484 -0.1387 -0.3465 -0.1040
 7342SOL    HW133488   0.605   3.735   3.410 -1.0135 -0.0398  0.5052
 7342SOL    HW233489   0.578   3.609   3.480  1.1818 -1.3166 -1.7393
 7343SOL     OW33490   4.135   0.290   3.509  0.1527  0.7850  0.4281
 7343SOL    HW133491   4.185   0.271   3.588  1.0571 -1.0298 -0.5774
 7343SOL    HW233492   4.053   0.305   3.555  0.1087 -0.0401  0.6179
 7344SOL     OW33493   0.946   2.897  10.744 -0.2051 -0.2021 -0.1245
 7344SOL    HW133494   0.869   2.918  10.691  0.7783  1.6236 -0.8130
 7344SOL    HW233495   0.959   2.984  10.780  1.4650 -0.6365  0.3032
 7345SOL     OW33496   0.747   0.131   2.566 -0.1794 -0.6698 -0.6323
 7345SOL    HW133497   0.798   0.175   2.498 -0.0655 -0.0597 -0.1513
 7345SOL    HW233498   0.661   0.157   2.532 -0.0195  2.2647  1.2098
 7346SOL     OW33499   4.024   0.760   7.085  0.2950 -0.3234 -0.4491
 7346SOL    HW133500   4.076   0.722   7.014  0.5554 -3.6478  1.5383
 7346SOL    HW233501   3.998   0.845   7.050 -0.3063  0.2242  1.3631
 7347SOL     OW33502   1.025   3.882  13.940  0.0735 -0.0135  0.4302
 7347SOL    HW133503   1.047   3.917  14.027  1.5638 -1.8743  0.8285
 7347SOL    HW233504   1.104   3.839  13.908 -0.0363  2.1276 -2.7188
 7348SOL     OW33505   1.022   1.797  11.988  0.0316  0.1805 -0.0768
 7348SOL    HW133506   1.113   1.821  12.009 -0.0751  0.4130  0.1149
 7348SOL    HW233507   1.026   1.780  11.893 -0.8785  0.5830 -0.1840
 7349SOL     OW33508   4.563   0.074   5.849 -0.2186 -0.4588  0.5745
 7349SOL    HW133509   4.600   0.110   5.930 -1.5491 -0.0639  1.0040
 7349SOL    HW233510   4.633   0.092   5.786  0.3092 -1.4344  0.8867
 7350SOL     OW33511   2.865   3.172   9.808 -0.3360 -0.1967 -0.0732
 7350SOL    HW133512   2.823   3.237   9.866 -0.2162 -0.9205  0.8222
 7350SOL    HW233513   2.791   3.141   9.757 -0.1512 -0.4234 -0.1998
 7351SOL     OW33514   0.073   0.180   7.593 -0.4209 -0.2322  0.5652
 7351SOL    HW133515   0.060   0.269   7.625  0.1097 -0.3035  0.9790
 7351SOL    HW233516   0.120   0.195   7.511 -0.6683  0.7818  0.6094
 7352SOL     OW33517   3.427   4.475   2.574 -0.1441  0.2312 -0.3856
 7352SOL    HW133518   3.478   4.556   2.567 -0.5768  0.6255  0.9895
 7352SOL    HW233519   3.437   4.457   2.667 -0.0229  0.2656 -0.3916
 7353SOL     OW33520   0.647   4.703   6.439  0.4590 -0.0541 -0.3161
 7353SOL    HW133521   0.633   4.615   6.404  1.3747  0.5261 -2.1258
 7353SOL    HW233522   0.561   0.007   6.473  0.4323  1.5807 -1.5485
 7354SOL     OW33523   2.007   1.367   6.298 -0.5734  0.4881 -0.5588
 7354SOL    HW133524   2.075   1.312   6.337  0.1316  0.7123 -1.4770
 7354SOL    HW233525   2.014   1.449   6.348  0.0278  1.2090 -1.8288
 7355SOL     OW33526   0.708   4.203   3.315 -0.2641 -0.5033 -0.1297
 7355SOL    HW133527   0.786   4.254   3.337 -1.8200  0.9615  2.0568
 7355SOL    HW233528   0.695   4.231   3.225  0.1341  0.5290  0.1295
 7356SOL     OW33529   3.265   2.239   2.107 -0.3299  0.4197 -0.1362
 7356SOL    HW133530   3.335   2.260   2.169  0.5437 -1.3269 -0.5177
 7356SOL    HW233531   3.252   2.146   2.125  0.3937  0.3951  0.2690
 7357SOL     OW33532   2.395   0.377   7.673 -0.3184 -0.6958  0.4359
 7357SOL    HW133533   2.327   0.320   7.709 -0.8650 -0.2040  0.1918
 7357SOL    HW233534   2.418   0.321   7.599 -1.4535  0.5687 -0.8653
 7358SOL     OW33535   0.176   4.636   6.925 -0.0053 -0.0573  0.2735
 7358SOL    HW133536   0.176   4.720   6.972 -1.8879 -0.1577  0.4755
 7358SOL    HW233537   0.270   4.622   6.923  0.0074 -0.0632  1.3535
 7359SOL     OW33538   0.810   0.908   7.622 -0.3708 -0.3908 -0.1788
 7359SOL    HW133539   0.860   0.863   7.554  0.0967 -1.3689  0.8049
 7359SOL    HW233540   0.722   0.873   7.604 -1.0062  1.7767 -1.3884
 7360SOL     OW33541   0.292   1.760   7.004 -0.5111  0.1866  0.3012
 7360SOL    HW133542   0.228   1.803   6.947 -1.9416 -1.1143  0.9218
 7360SOL    HW233543   0.347   1.831   7.037  0.0814  0.6817 -1.7354
 7361SOL     OW33544   0.095   0.268   1.138 -0.1032 -0.2416  0.1171
 7361SOL    HW133545   0.078   0.320   1.216 -1.5993  0.4232 -0.6431
 7361SOL    HW233546   0.061   0.328   1.071  0.4783  0.2716  0.2947
 7362SOL     OW33547   2.078   2.202   4.795 -0.3920 -0.2613  0.0393
 7362SOL    HW133548   2.128   2.147   4.736  0.6420  0.4073  0.2917
 7362SOL    HW233549   2.036   2.251   4.725 -2.8387  1.0368  2.4164
 7363SOL     OW33550   1.130   3.125   7.392 -0.1921  0.5732 -0.5083
 7363SOL    HW133551   1.157   3.046   7.439  1.4250  0.2834 -1.9413
 7363SOL    HW233552   1.035   3.118   7.407 -0.0562 -1.2723 -0.4267
 7364SOL     OW33553   4.444   4.635   7.290 -0.1101 -0.3724 -0.0674
 7364SOL    HW133554   4.497   4.566   7.331  0.0855 -0.4155 -0.3878
 7364SOL    HW233555   4.454   4.701   7.360  1.2643 -2.2667  1.5269
 7365SOL     OW33556   4.018   0.350  13.073 -0.0903  0.2658  0.7284
 7365SOL    HW133557   4.076   0.398  13.013 -1.1266  0.0319 -0.4597
 7365SOL    HW233558   3.931   0.377  13.045  1.3071  2.8636 -1.1340
 7366SOL     OW33559   3.440   3.286   8.074 -0.2296 -0.0314 -0.0248
 7366SOL    HW133560   3.408   3.358   8.127 -1.9765 -0.8190 -0.0285
 7366SOL    HW233561   3.454   3.213   8.134  1.2612  1.3252  1.2657
 7367SOL     OW33562   0.637   0.741   6.828 -0.3397  0.4863 -0.0524
 7367SOL    HW133563   0.558   0.779   6.789 -0.7080 -1.1074 -0.8763
 7367SOL    HW233564   0.706   0.790   6.784 -0.8583 -1.5824 -3.2350
 7368SOL     OW33565   0.988   4.231   5.017 -0.1951 -0.1532  0.2544
 7368SOL    HW133566   0.983   4.244   4.922  1.9643  1.0193  0.2828
 7368SOL    HW233567   0.923   4.299   5.035  1.6478  1.5775  0.3441
 7369SOL     OW33568   3.059   2.033   5.957  0.5681  0.0591  0.1691
 7369SOL    HW133569   3.027   2.023   6.047  1.3660 -0.8681  0.3578
 7369SOL    HW233570   3.144   1.987   5.956 -0.2624 -1.4373 -1.4026
 7370SOL     OW33571   1.895   1.185  11.250 -0.2720  0.6893  0.2023
 7370SOL    HW133572   1.878   1.102  11.205 -2.7873  1.4438 -0.2448
 7370SOL    HW233573   1.869   1.162  11.338  1.4584 -2.9531 -0.2597
 7371SOL     OW33574   4.275   4.000   3.753  0.3632 -0.1535  0.2328
 7371SOL    HW133575   4.350   3.962   3.707 -0.1688  2.2837 -2.6405
 7371SOL    HW233576   4.228   3.928   3.794 -1.7508 -0.8929 -3.5241
 7372SOL     OW33577   0.439   2.709   7.717  0.1470  0.2415  0.3039
 7372SOL    HW133578   0.362   2.726   7.772 -0.1929  1.8066 -0.6469
 7372SOL    HW233579   0.507   2.724   7.783 -0.4587 -0.5623  1.1150
 7373SOL     OW33580   3.154   2.413   5.401  0.3196 -0.6894 -0.1976
 7373SOL    HW133581   3.135   2.477   5.332 -0.3426 -1.0963 -0.3881
 7373SOL    HW233582   3.062   2.403   5.427  0.2347 -2.2685 -1.1256
 7374SOL     OW33583   2.946   4.115   6.248  0.3081  0.2528 -0.6055
 7374SOL    HW133584   2.874   4.056   6.270 -0.0168  0.6483 -0.6063
 7374SOL    HW233585   2.899   4.198   6.257  0.2459  0.1249  0.2117
 7375SOL     OW33586   0.723   1.262   3.278 -0.1921  0.6389  0.0993
 7375SOL    HW133587   0.755   1.249   3.189  1.2141  0.2396  0.6524
 7375SOL    HW233588   0.731   1.174   3.315  0.1392  0.7770  0.3638
 7376SOL     OW33589   2.836   4.565   7.425  0.7561 -0.1582  0.0971
 7376SOL    HW133590   2.806   4.491   7.478 -2.2059  0.3675 -0.8395
 7376SOL    HW233591   2.830   4.637   7.488  1.3506 -1.7093  1.9343
 7377SOL     OW33592   2.117   0.478   3.560  0.5391 -0.1374  0.4106
 7377SOL    HW133593   2.121   0.464   3.466 -2.1957  1.3563  0.0715
 7377SOL    HW233594   2.199   0.438   3.590 -0.1675 -1.9603 -0.1046
 7378SOL     OW33595   0.377   2.418   7.863 -0.1091 -0.0366  0.3763
 7378SOL    HW133596   0.310   2.353   7.845 -2.2017  1.6899  1.9468
 7378SOL    HW233597   0.336   2.497   7.828  1.2749  0.0255 -1.1295
 7379SOL     OW33598   3.214   3.971   7.660  0.2265 -0.0633  0.2613
 7379SOL    HW133599   3.179   4.033   7.724  2.2410  2.2321 -0.8262
 7379SOL    HW233600   3.190   3.883   7.690  0.6424  0.5498  2.4462
 7380SOL     OW33601   4.090   0.979   9.856 -0.4161  0.2026  0.0573
 7380SOL    HW133602   4.175   0.966   9.899  0.1409  1.4686 -0.6619
 7380SOL    HW233603   4.048   0.893   9.858 -0.1178  0.0652  0.5673
 7381SOL     OW33604   4.579   1.478   4.534  0.0655  0.4307  0.3310
 7381SOL    HW133605   4.619   1.462   4.619 -1.5761 -1.3924  0.7593
 7381SOL    HW233606   4.650   1.529   4.494  1.0920 -1.3181 -0.0451
 7382SOL     OW33607   2.287   2.137  16.213  0.3835  0.3258  0.2991
 7382SOL    HW133608   2.336   2.207  16.170  2.2744 -0.8149  0.6113
 7382SOL    HW233609   2.208   2.184  16.237 -0.7352 -0.4802 -1.7680
 7383SOL     OW33610   2.112   3.536   6.462 -0.1371  0.0452 -0.5009
 7383SOL    HW133611   2.025   3.497   6.473 -0.0309  0.6189  2.1999
 7383SOL    HW233612   2.110   3.541   6.366 -1.6665  0.3980 -0.4527
 7384SOL     OW33613   3.503   2.788   5.997  0.4038  0.3872 -0.4618
 7384SOL    HW133614   3.556   2.800   5.917 -0.9872 -1.3333 -1.6336
 7384SOL    HW233615   3.412   2.799   5.968 -0.0304 -0.3502  0.6602
 7385SOL     OW33616   1.641   2.834   6.279 -0.2319  0.4545  1.0493
 7385SOL    HW133617   1.642   2.759   6.219  1.8426  0.4553  1.0938
 7385SOL    HW233618   1.724   2.824   6.325 -1.4371 -2.4167  2.5828
 7386SOL     OW33619   2.136   4.357   1.878 -0.5867 -0.2772 -0.2817
 7386SOL    HW133620   2.228   4.332   1.867 -0.7237 -1.3640  1.0158
 7386SOL    HW233621   2.099   4.286   1.930 -1.3912  1.1765  1.1455
 7387SOL     OW33622   2.588   2.215  14.806 -0.7240 -0.0571 -0.2583
 7387SOL    HW133623   2.564   2.271  14.731 -2.1357  1.5145  1.3553
 7387SOL    HW233624   2.545   2.133  14.780  1.9914 -2.3075  2.3219
 7388SOL     OW33625   3.268   1.353   6.697  0.1546  0.2478 -0.7735
 7388SOL    HW133626   3.342   1.344   6.637  0.6848  0.9748 -0.2355
 7388SOL    HW233627   3.294   1.299   6.772 -1.8328 -0.2833 -0.4645
 7389SOL     OW33628   1.484   1.709  16.997  0.4401  0.3085  0.1141
 7389SOL    HW133629   1.450   1.664  17.075  0.3224  0.0486 -0.0888
 7389SOL    HW233630   1.453   1.795  17.023 -0.4008 -0.3751  1.4079
 7390SOL     OW33631   1.256   1.919  10.116 -0.2151 -0.4000  0.0143
 7390SOL    HW133632   1.284   1.835  10.080  0.2403 -1.7982  3.7048
 7390SOL    HW233633   1.163   1.902  10.110 -0.0225 -1.0607 -1.1350
 7391SOL     OW33634   3.502   4.716   9.601 -0.1960 -0.3108  0.0529
 7391SOL    HW133635   3.513   0.031   9.690  0.0145  0.9812 -0.4835
 7391SOL    HW233636   3.430   4.657   9.625  0.5231 -1.8291 -1.5146
 7392SOL     OW33637   0.073   1.241   5.891 -0.5188 -0.1129 -0.2961
 7392SOL    HW133638   0.116   1.224   5.807  0.0046 -0.8130  0.1205
 7392SOL    HW233639   0.143   1.205   5.945 -0.2665  0.2727 -0.3630
 7393SOL     OW33640   3.946   0.888   3.720 -0.3299 -0.1333 -0.6177
 7393SOL    HW133641   3.923   0.960   3.780 -0.5021  0.6860 -1.6763
 7393SOL    HW233642   3.897   0.906   3.640 -1.0624 -1.3023 -0.4296
 7394SOL     OW33643   2.138   2.257  14.144  0.1949 -0.0067  0.0582
 7394SOL    HW133644   2.090   2.177  14.126  0.5292 -0.0503 -0.6368
 7394SOL    HW233645   2.076   2.322  14.109  1.4442  0.6996 -0.8537
 7395SOL     OW33646   2.989   3.632   5.472 -0.1641  0.1984 -0.5070
 7395SOL    HW133647   2.978   3.704   5.411  1.8065  1.3182  0.4514
 7395SOL    HW233648   2.992   3.555   5.415 -0.6897 -0.6279  0.5893
 7396SOL     OW33649   1.913   1.947  15.129 -0.0462 -0.6421  0.1079
 7396SOL    HW133650   1.951   1.865  15.162 -0.1037 -0.2368  1.1917
 7396SOL    HW233651   1.993   1.998  15.121 -0.0797 -0.8925 -1.7466
 7397SOL     OW33652   4.434   3.080   9.345 -0.1516 -0.3188  0.5994
 7397SOL    HW133653   4.372   3.124   9.403 -2.0099 -0.0134 -1.6082
 7397SOL    HW233654   4.438   3.130   9.263  2.0050 -1.3304  0.0875
 7398SOL     OW33655   4.405   0.685   2.870 -0.2641 -0.0327 -0.0056
 7398SOL    HW133656   4.381   0.701   2.961 -0.3653 -1.2188  0.1781
 7398SOL    HW233657   4.500   0.693   2.863 -0.3180  0.6133 -0.0127
 7399SOL     OW33658   1.569   4.310   4.931 -0.1342  0.3921 -1.1443
 7399SOL    HW133659   1.638   4.348   4.985 -1.2050 -0.9220  1.1662
 7399SOL    HW233660   1.592   4.218   4.942  0.7390  0.4661 -2.3538
 7400SOL     OW33661   0.956   4.329   6.042 -0.8119  0.7252  0.3210
 7400SOL    HW133662   0.997   4.415   6.049  0.6531  0.0670 -0.2360
 7400SOL    HW233663   0.981   4.308   5.952  0.3102  2.5830  0.1996
 7401SOL     OW33664   4.091   0.308  16.666 -0.0933 -0.4527 -0.2139
 7401SOL    HW133665   4.106   0.267  16.581  1.9540 -2.4808  1.1236
 7401SOL    HW233666   4.067   0.233  16.722  1.4075 -0.2375  0.7299
 7402SOL     OW33667   3.836   2.890   9.332 -0.5080  0.0249 -0.1644
 7402SOL    HW133668   3.782   2.913   9.257 -0.6918  0.4430  0.0966
 7402SOL    HW233669   3.799   2.805   9.357 -0.2369 -0.4702 -1.4255
 7403SOL     OW33670   3.027   2.755  11.550  0.5777 -0.4535  0.3385
 7403SOL    HW133671   2.950   2.730  11.499 -0.7594 -0.4577  2.3572
 7403SOL    HW233672   3.074   2.672  11.554  1.7355  0.0395 -3.8079
 7404SOL     OW33673   3.736   1.242   8.414  0.2266 -0.2292 -0.0846
 7404SOL    HW133674   3.797   1.264   8.344  0.9965 -0.3427  0.5632
 7404SOL    HW233675   3.712   1.153   8.391  1.5985 -0.4339 -0.6692
 7405SOL     OW33676   3.310   2.559   3.633  0.5752 -0.2248  0.0534
 7405SOL    HW133677   3.323   2.654   3.637  2.2456 -0.4541  0.1009
 7405SOL    HW233678   3.392   2.531   3.592 -0.5267  1.1933 -3.1211
 7406SOL     OW33679   1.057   2.256   4.067 -0.4240  0.0075 -0.9754
 7406SOL    HW133680   1.002   2.186   4.032 -1.0038  0.3815 -0.8293
 7406SOL    HW233681   0.984   2.318   4.075 -0.7028 -0.7160  2.1175
 7407SOL     OW33682   2.119   2.976   3.499 -0.5804  0.4195 -0.4468
 7407SOL    HW133683   2.201   3.019   3.472  0.2193 -0.0287  1.2230
 7407SOL    HW233684   2.147   2.901   3.551 -0.8105  1.1699  0.7549
 7408SOL     OW33685   2.637   0.091   3.446  0.2079 -0.2314 -0.3151
 7408SOL    HW133686   2.655   0.179   3.480  1.7376 -0.1894 -1.2682
 7408SOL    HW233687   2.654   0.052   3.532  1.4266  0.0441 -0.4427
 7409SOL     OW33688   2.388   3.024   1.965 -0.1469 -0.5466 -0.0582
 7409SOL    HW133689   2.440   2.947   1.940  1.3830 -0.3395  2.4764
 7409SOL    HW233690   2.418   3.071   1.887 -1.7082  0.8840  0.2011
 7410SOL     OW33691   3.775   3.694  10.976  0.0908  0.4013  0.4001
 7410SOL    HW133692   3.773   3.778  11.023 -2.0719  0.6692 -0.1752
 7410SOL    HW233693   3.790   3.626  11.042  3.2182  0.4533 -0.2626
 7411SOL     OW33694   2.335   0.997   2.862  0.0626 -0.8794  0.2930
 7411SOL    HW133695   2.365   1.080   2.823  1.1345 -1.4653 -0.1260
 7411SOL    HW233696   2.338   1.028   2.952  1.3419 -0.8382  0.2365
 7412SOL     OW33697   4.550   2.475  12.108 -0.4030  0.2783 -0.5975
 7412SOL    HW133698   4.604   2.529  12.050  0.4443 -0.2318 -0.2969
 7412SOL    HW233699   4.460   2.501  12.092 -0.9876  0.1803  2.6204
 7413SOL     OW33700   1.166   2.910   5.992  0.4331 -0.0907 -0.2733
 7413SOL    HW133701   1.197   2.975   6.055 -0.8000 -1.8354  2.1330
 7413SOL    HW233702   1.180   2.954   5.908  1.9351 -1.6603 -0.8590
 7414SOL     OW33703   2.111   3.831  10.201  0.0068 -0.1600 -0.1444
 7414SOL    HW133704   2.062   3.897  10.151 -2.3307  0.5715  3.1087
 7414SOL    HW233705   2.123   3.871  10.287 -0.3611 -0.9242  0.2602
 7415SOL     OW33706   1.762   1.495   9.098  0.3520  0.1553 -0.3521
 7415SOL    HW133707   1.701   1.567   9.080 -1.7853 -1.8487 -1.1482
 7415SOL    HW233708   1.821   1.500   9.023 -0.7210  3.6084 -0.9464
 7416SOL     OW33709   1.621   1.177   4.869  0.1851  0.0600  0.5297
 7416SOL    HW133710   1.686   1.197   4.802 -2.0045  2.2138 -0.8981
 7416SOL    HW233711   1.544   1.229   4.846  1.2178  1.4848  0.3196
 7417SOL     OW33712   4.524   3.648  13.668  0.1084 -0.4225 -0.4798
 7417SOL    HW133713   4.593   3.654  13.603  0.1596  2.8075 -0.1144
 7417SOL    HW233714   4.574   3.651  13.750 -1.0006  0.5696  0.1615
 7418SOL     OW33715   0.161   3.363   9.303  0.2236  0.1069  0.1894
 7418SOL    HW133716   0.211   3.287   9.332 -2.3606 -1.9552 -0.8308
 7418SOL    HW233717   0.107   3.394   9.376  0.6135  1.8734 -0.2670
 7419SOL     OW33718   3.645   4.359   7.295  0.1018  0.5323 -0.5382
 7419SOL    HW133719   3.550   4.351   7.281  0.1333 -0.9285  0.0741
 7419SOL    HW233720   3.639   4.429   7.360 -2.8896 -0.8845  0.7262
 7420SOL     OW33721   1.457   3.764   7.707  0.1095 -0.5386  0.7657
 7420SOL    HW133722   1.432   3.800   7.792 -1.6606  1.6005 -0.6879
 7420SOL    HW233723   1.378   3.724   7.671  0.2201  0.3358 -0.4313
 7421SOL     OW33724   2.631   1.959  17.134  0.2918  0.3585  0.3752
 7421SOL    HW133725   2.557   1.955  17.073  1.5021 -1.4104 -0.9504
 7421SOL    HW233726   2.597   1.906  17.206  2.6977 -1.6670  0.0053
 7422SOL     OW33727   3.926   0.920   6.705  0.2852 -0.1520  0.1312
 7422SOL    HW133728   3.850   0.969   6.736  0.3573 -0.6801  1.1444
 7422SOL    HW233729   3.887   0.833   6.713 -1.6014  0.5654 -1.2317
 7423SOL     OW33730   2.156   1.576   4.218 -0.0636 -0.1684  0.4734
 7423SOL    HW133731   2.114   1.513   4.276 -0.3107  0.3998  0.9130
 7423SOL    HW233732   2.248   1.551   4.233 -0.0122 -0.4357 -0.2963
 7424SOL     OW33733   1.278   3.674   0.150 -0.2253 -0.2065  0.4548
 7424SOL    HW133734   1.229   3.754   0.128  0.8884  0.1631 -0.6810
 7424SOL    HW233735   1.258   3.614   0.078  0.7032  1.8898 -1.5186
 7425SOL     OW33736   4.380   3.717   1.256  0.2039  0.4097 -0.2668
 7425SOL    HW133737   4.411   3.733   1.345  1.9322 -0.0366 -0.7809
 7425SOL    HW233738   4.443   3.650   1.228 -1.1927  0.0966 -2.6343
 7426SOL     OW33739   2.194   1.801  10.757 -0.2812  0.3170 -0.5163
 7426SOL    HW133740   2.165   1.753  10.835 -1.0193  0.4984 -0.6786
 7426SOL    HW233741   2.175   1.890  10.786  0.0910  0.0892  0.4298
 7427SOL     OW33742   2.517   1.349  15.919  0.1331  0.1090 -0.4283
 7427SOL    HW133743   2.486   1.394  15.998  0.3232  1.8342 -1.3526
 7427SOL    HW233744   2.511   1.258  15.948 -1.7733  1.1148  2.3459
 7428SOL     OW33745   2.047   1.859  12.031 -0.2200 -0.3114  0.3529
 7428SOL    HW133746   2.090   1.907  12.102 -0.9535  2.2935 -0.9667
 7428SOL    HW233747   2.042   1.769  12.064 -0.9030  0.5547  2.6990
 7429SOL     OW33748   3.090   3.130   1.979  0.0593 -0.3336  0.0904
 7429SOL    HW133749   3.127   3.060   1.926 -0.9089 -3.6063  3.7226
 7429SOL    HW233750   3.141   3.208   1.958 -2.7573  1.6227  0.5199
 7430SOL     OW33751   2.243   0.705   6.989  0.0612 -0.2216 -0.0850
 7430SOL    HW133752   2.239   0.660   6.904 -0.7647 -0.4148  0.0603
 7430SOL    HW233753   2.284   0.633   7.037  2.8884 -0.0591 -2.2741
 7431SOL     OW33754   2.971   4.199   3.660 -0.7089  0.5104  0.3489
 7431SOL    HW133755   3.027   4.178   3.734  0.3898  1.1227 -0.3201
 7431SOL    HW233756   2.885   4.187   3.702 -0.5492  0.1959  0.5840
 7432SOL     OW33757   2.878   1.696   8.200 -0.0093  0.2743  0.1039
 7432SOL    HW133758   2.848   1.774   8.154 -0.6746  0.1001  0.2546
 7432SOL    HW233759   2.929   1.651   8.132 -1.5753 -0.6484 -0.4537
 7433SOL     OW33760   1.004   3.181   9.434  0.3100 -0.5117  0.2354
 7433SOL    HW133761   1.037   3.170   9.345 -0.2775  3.6469 -0.4783
 7433SOL    HW233762   1.014   3.092   9.468 -3.5970 -1.1807 -0.2908
 7434SOL     OW33763   1.601   0.926   2.716 -0.7457  0.6916  0.0402
 7434SOL    HW133764   1.659   0.987   2.761 -1.5944  1.2414  0.3953
 7434SOL    HW233765   1.545   0.992   2.674  0.1054  0.6318 -1.1776
 7435SOL     OW33766   1.446   1.370   1.479  0.1407 -0.3748 -0.1936
 7435SOL    HW133767   1.404   1.361   1.565 -1.0015 -2.4751 -0.9698
 7435SOL    HW233768   1.472   1.462   1.480 -0.4036 -0.2115 -0.8376
 7436SOL     OW33769   3.936   2.329  16.462 -0.9052  1.0686  0.1954
 7436SOL    HW133770   3.863   2.272  16.490 -0.7998  0.9438  0.2187
 7436SOL    HW233771   3.969   2.287  16.383 -0.5588  2.6383 -0.4836
 7437SOL     OW33772   4.562   2.675  13.583 -0.3764  0.2958  0.2793
 7437SOL    HW133773   4.523   2.596  13.545  0.1304  0.8225 -1.3277
 7437SOL    HW233774   4.654   2.649  13.573 -0.8180 -1.1550  0.0265
 7438SOL     OW33775   4.511   1.805   5.323 -0.3325 -0.1210  0.2108
 7438SOL    HW133776   4.595   1.833   5.361 -0.8069  1.4807  0.0623
 7438SOL    HW233777   4.537   1.728   5.273  2.3117  0.4779  0.6608
 7439SOL     OW33778   4.118   2.224   9.473 -0.5569  0.5412  0.1134
 7439SOL    HW133779   4.101   2.267   9.389  0.8366  0.6312 -0.1231
 7439SOL    HW233780   4.211   2.239   9.487 -0.8432  1.1945  1.3098
 7440SOL     OW33781   2.382   4.034   3.287 -0.0674 -0.0095 -0.5191
 7440SOL    HW133782   2.471   4.025   3.321  0.1497 -0.5644 -1.2253
 7440SOL    HW233783   2.347   4.114   3.327  1.8488  2.3203 -3.4484
 7441SOL     OW33784   4.522   1.849   4.628 -0.3900 -0.6394 -0.0177
 7441SOL    HW133785   4.580   1.920   4.602 -0.8628 -0.0957  0.4281
 7441SOL    HW233786   4.586   1.783   4.658  1.8385  1.2007 -0.7184
 7442SOL     OW33787   0.829   1.819   7.539 -0.0727  0.2258  0.0907
 7442SOL    HW133788   0.742   1.785   7.560 -0.7565 -0.1782 -3.3535
 7442SOL    HW233789   0.884   1.745   7.566  1.1416  0.3748 -1.9358
 7443SOL     OW33790   2.449   4.093  13.954  0.5200  0.9164  0.2166
 7443SOL    HW133791   2.451   4.077  13.860 -2.5948  1.2947  0.0796
 7443SOL    HW233792   2.371   4.149  13.958 -2.0437 -2.6219  0.7346
 7444SOL     OW33793   2.852   2.561   4.733 -0.0433  0.5259  0.2707
 7444SOL    HW133794   2.798   2.623   4.685 -3.6730 -3.1700 -0.3541
 7444SOL    HW233795   2.936   2.606   4.724 -0.2596  0.9890  0.5457
 7445SOL     OW33796   2.263   2.743   2.839  0.2167  0.5591 -0.4758
 7445SOL    HW133797   2.328   2.804   2.873 -0.3019  2.1556 -2.3301
 7445SOL    HW233798   2.308   2.689   2.774  0.7367 -0.8330  1.0680
 7446SOL     OW33799   4.507   1.135  10.759  0.3354  0.0327 -0.5340
 7446SOL    HW133800   4.543   1.223  10.745  0.4162 -0.1671 -1.5845
 7446SOL    HW233801   4.414   1.153  10.748  0.3598  0.8104  0.4280
 7447SOL     OW33802   1.140   0.906  11.498  0.3495 -0.3471  0.2712
 7447SOL    HW133803   1.148   0.829  11.555  0.2957 -0.8858 -0.4470
 7447SOL    HW233804   1.170   0.870  11.414  0.1569 -2.7205  1.1995
 7448SOL     OW33805   0.059   1.935   2.200  0.1837 -0.4433  0.4230
 7448SOL    HW133806   0.035   1.932   2.108  1.7055 -1.7039  0.0769
 7448SOL    HW233807   0.065   1.842   2.219  1.7781 -0.3281  0.5453
 7449SOL     OW33808   3.486   3.643   6.546  0.6667 -0.1334  0.2513
 7449SOL    HW133809   3.469   3.561   6.500 -1.1057  1.1304 -1.3001
 7449SOL    HW233810   3.526   3.687   6.471 -0.5558 -0.6707 -0.7065
 7450SOL     OW33811   3.079   2.216  11.156  0.2550  0.3686  0.3042
 7450SOL    HW133812   3.079   2.151  11.226  3.1018 -0.8184 -0.7931
 7450SOL    HW233813   3.162   2.210  11.110  0.2670 -0.2493  0.4059
 7451SOL     OW33814   3.244   4.139   2.311  0.1047 -0.0601  0.1429
 7451SOL    HW133815   3.290   4.162   2.392 -0.1399 -0.7251  0.4662
 7451SOL    HW233816   3.306   4.070   2.286 -0.2570 -0.1764 -0.4409
 7452SOL     OW33817   2.542   1.194  11.428 -0.4263  0.5378  0.0164
 7452SOL    HW133818   2.629   1.216  11.459  0.1141 -2.5159  0.6247
 7452SOL    HW233819   2.514   1.127  11.489 -0.1242 -1.2617 -1.8102
 7453SOL     OW33820   1.191   1.929   9.004  0.1361 -0.1473 -0.9688
 7453SOL    HW133821   1.174   1.835   9.014  2.1994 -0.4517 -0.2904
 7453SOL    HW233822   1.282   1.923   8.974  0.2793  1.6371 -0.8823
 7454SOL     OW33823   4.344   3.683   5.172 -0.0442  0.1191  0.2728
 7454SOL    HW133824   4.401   3.733   5.114 -1.9203  0.1853 -1.4870
 7454SOL    HW233825   4.269   3.741   5.187 -0.8476 -0.4912 -1.3662
 7455SOL     OW33826   0.294   1.498   4.862 -0.1363  0.5893  0.3046
 7455SOL    HW133827   0.259   1.491   4.773 -0.8538  2.5837  0.4207
 7455SOL    HW233828   0.229   1.556   4.902  0.9434  1.8881  0.1691
 7456SOL     OW33829   4.475   1.233   9.598 -0.3807 -0.0588  0.2518
 7456SOL    HW133830   4.455   1.275   9.681  1.1320  2.0545 -0.4463
 7456SOL    HW233831   4.460   1.141   9.616 -0.8719 -0.2583 -1.1125
 7457SOL     OW33832   4.671   3.622   6.279 -0.2830  0.6039  0.0036
 7457SOL    HW133833   4.583   3.602   6.311  0.5151 -0.6606  1.4194
 7457SOL    HW233834   4.678   3.717   6.290  0.8215  0.2324  2.5800
 7458SOL     OW33835   2.869   3.121  15.563 -0.4692  0.0965 -0.1340
 7458SOL    HW133836   2.864   3.190  15.496 -0.1533  0.4841  0.2401
 7458SOL    HW233837   2.915   3.166  15.634  2.3685  0.1614 -2.0216
 7459SOL     OW33838   4.128   4.513   4.782  0.4647  0.5083  0.0947
 7459SOL    HW133839   4.073   4.575   4.732  2.9832  1.4033 -1.5508
 7459SOL    HW233840   4.192   4.492   4.715 -0.7079 -0.3655 -0.7567
 7460SOL     OW33841   1.815   1.143   0.706  0.6144 -0.1325  0.1203
 7460SOL    HW133842   1.903   1.161   0.740  0.0994  1.7783  0.4263
 7460SOL    HW233843   1.826   1.058   0.663 -1.9026 -0.5313  0.2747
 7461SOL     OW33844   3.932   2.241   6.025 -0.4050  0.8055 -0.1978
 7461SOL    HW133845   3.850   2.259   5.978 -0.3170 -0.1264 -0.6963
 7461SOL    HW233846   3.917   2.316   6.082 -1.0215 -0.0036  0.7003
 7462SOL     OW33847   3.513   3.463   7.874  0.0817 -0.0325 -0.5382
 7462SOL    HW133848   3.576   3.459   7.946  0.8995  0.7733 -1.2105
 7462SOL    HW233849   3.445   3.402   7.902  1.1389  0.5215  3.1901
 7463SOL     OW33850   2.144   0.065  14.451  0.8198 -0.0868  0.1170
 7463SOL    HW133851   2.095   0.011  14.390 -0.3966  1.3432 -0.1994
 7463SOL    HW233852   2.191   0.119  14.387 -1.3835  0.8540 -0.7007
 7464SOL     OW33853   1.751   3.658   3.048  0.6757 -0.1455  0.0475
 7464SOL    HW133854   1.709   3.663   2.963  0.3844 -2.5975  0.0509
 7464SOL    HW233855   1.843   3.675   3.028  0.4487 -0.8386 -1.5348
 7465SOL     OW33856   0.892   3.065   2.599 -0.2380  0.1726 -0.2844
 7465SOL    HW133857   0.909   3.017   2.518  0.9730  1.4738 -0.8061
 7465SOL    HW233858   0.974   3.075   2.648  0.0013  0.6398 -0.7843
 7466SOL     OW33859   2.440   0.143   5.500 -0.0637 -0.2806 -0.3237
 7466SOL    HW133860   2.368   0.189   5.458 -0.3060 -1.1446 -0.8441
 7466SOL    HW233861   2.385   0.108   5.570 -0.5468  1.2881  0.0902
 7467SOL     OW33862   1.555   0.694   4.188 -0.2812 -0.1192  0.2001
 7467SOL    HW133863   1.469   0.666   4.218 -0.5256 -1.0599 -1.3791
 7467SOL    HW233864   1.536   0.766   4.127 -2.2786 -1.0329 -0.2466
 7468SOL     OW33865   4.366   4.605   6.189  0.3246 -0.3028 -0.0882
 7468SOL    HW133866   4.459   4.616   6.170  0.0701  2.8859  0.4737
 7468SOL    HW233867   4.373   4.589   6.283  2.5256 -0.2593 -0.2383
 7469SOL     OW33868   3.724   1.955   2.380  0.0798 -0.4864 -0.2709
 7469SOL    HW133869   3.687   2.039   2.406  1.9804  0.1826  0.2996
 7469SOL    HW233870   3.703   1.912   2.463 -0.1057 -1.5630 -0.8722
 7470SOL     OW33871   2.942   2.467   7.857 -0.5064 -0.6889  0.1556
 7470SOL    HW133872   2.948   2.480   7.762  0.2625 -0.5630  0.2248
 7470SOL    HW233873   3.035   2.458   7.875 -0.2197 -2.5130 -2.2795
 7471SOL     OW33874   4.456   1.949   5.715  0.5770 -0.2215  0.0326
 7471SOL    HW133875   4.494   1.924   5.630  0.4654  1.8345 -0.6197
 7471SOL    HW233876   4.381   2.002   5.688 -0.1990 -0.7151  1.2332
 7472SOL     OW33877   2.614   2.167   3.331  0.2126  0.5995 -0.0244
 7472SOL    HW133878   2.667   2.221   3.388  0.4082  0.1878  0.1838
 7472SOL    HW233879   2.659   2.172   3.247 -0.2924  3.3245 -0.1329
 7473SOL     OW33880   0.107   2.145   5.513  0.3072  0.2602  0.1382
 7473SOL    HW133881   0.190   2.122   5.471 -0.1246  0.5793 -0.8897
 7473SOL    HW233882   0.108   2.240   5.522  1.3108  0.1542  1.1699
 7474SOL     OW33883   1.911   3.977   2.461 -0.1588  0.2584 -0.6017
 7474SOL    HW133884   1.822   4.010   2.445 -0.6823 -2.3268 -3.0451
 7474SOL    HW233885   1.937   3.932   2.381  0.3301  0.3565 -0.4951
 7475SOL     OW33886   3.863   1.642   7.702 -0.4162  0.1047  0.8777
 7475SOL    HW133887   3.842   1.589   7.624  0.1456 -0.1534  0.9011
 7475SOL    HW233888   3.952   1.674   7.692 -0.5575  0.3371  0.3313
 7476SOL     OW33889   1.802   2.474   0.051  0.4851  0.0785 -0.1420
 7476SOL    HW133890   1.810   2.422   0.131  2.2316  0.6630  0.0713
 7476SOL    HW233891   1.828   2.409  17.668 -0.0097  1.6241 -1.8702
 7477SOL     OW33892   2.322   3.478   0.357  0.3063 -0.0468  0.4016
 7477SOL    HW133893   2.328   3.382   0.360  2.1355  0.0497 -0.2790
 7477SOL    HW233894   2.320   3.498   0.264 -1.1756 -2.1818 -0.0354
 7478SOL     OW33895   1.680   2.758   9.662  0.1697  0.5676  0.2810
 7478SOL    HW133896   1.635   2.709   9.731 -1.3003  3.0278  1.0430
 7478SOL    HW233897   1.714   2.676   9.626  0.0294  0.0407  1.3497
 7479SOL     OW33898   1.108   1.016  12.370 -0.1977 -0.8438 -0.3940
 7479SOL    HW133899   1.107   0.963  12.290 -2.0467 -1.6359  0.1474
 7479SOL    HW233900   1.058   0.962  12.431 -3.2856  1.0040 -1.2858
 7480SOL     OW33901   3.652   0.080   4.701 -0.2312  0.2677 -0.3474
 7480SOL    HW133902   3.600   0.160   4.705 -0.4450  0.1005  0.3782
 7480SOL    HW233903   3.616   0.035   4.778 -1.8092 -0.0677 -1.2860
 7481SOL     OW33904   1.577   1.217   2.431  0.5434  0.5533  0.0920
 7481SOL    HW133905   1.630   1.293   2.455  3.2003 -0.5372 -2.3247
 7481SOL    HW233906   1.617   1.179   2.353 -0.5960  0.0083 -0.2236
 7482SOL     OW33907   3.313   1.804   6.072  0.0446 -0.2590 -0.5057
 7482SOL    HW133908   3.333   1.804   5.978 -0.1200  0.8458 -0.5420
 7482SOL    HW233909   3.396   1.837   6.106 -0.3351 -1.2553  1.3686
 7483SOL     OW33910   2.721   2.404   9.559  0.4555 -0.8093 -0.4996
 7483SOL    HW133911   2.647   2.385   9.502 -0.4433 -0.4725  0.5581
 7483SOL    HW233912   2.675   2.435   9.637 -0.9306  0.9935 -2.0369
 7484SOL     OW33913   2.220   4.196  14.902  0.1516 -0.5356  0.1674
 7484SOL    HW133914   2.296   4.238  14.861  0.0399 -1.6159 -1.1272
 7484SOL    HW233915   2.174   4.170  14.823  0.1289 -1.5835  0.5209
 7485SOL     OW33916   4.451   3.282   0.029 -0.3636 -0.0859  0.3354
 7485SOL    HW133917   4.448   3.229   0.109  0.5020 -0.6037  0.0283
 7485SOL    HW233918   4.361   3.266   0.001 -0.4749 -1.6677  1.5805
 7486SOL     OW33919   2.530   3.683   1.401 -0.1627  0.3702 -0.6420
 7486SOL    HW133920   2.468   3.720   1.337 -2.5057  2.2758  2.6765
 7486SOL    HW233921   2.474   3.681   1.479 -0.4160  1.1067 -0.8035
 7487SOL     OW33922   2.059   1.927   5.385 -0.7102  0.3377 -0.5530
 7487SOL    HW133923   2.046   1.900   5.476 -1.4764 -0.1611 -0.8117
 7487SOL    HW233924   2.083   1.846   5.340 -1.4613  1.4253 -2.9015
 7488SOL     OW33925   3.988   2.478   1.138 -0.0433 -0.3015 -0.4238
 7488SOL    HW133926   3.929   2.440   1.073 -0.4452  0.7643 -0.6787
 7488SOL    HW233927   4.048   2.405   1.149  0.2185  0.0377  0.3876
 7489SOL     OW33928   3.563   3.222   9.022  0.0388  0.1191 -0.3630
 7489SOL    HW133929   3.475   3.217   9.058 -0.3874 -0.3198 -1.4595
 7489SOL    HW233930   3.601   3.135   9.033  0.3447  0.3918  0.7490
 7490SOL     OW33931   1.080   4.465   3.886  0.3860 -0.5107 -0.3052
 7490SOL    HW133932   1.043   4.383   3.920 -1.9757  0.3661 -0.7514
 7490SOL    HW233933   1.010   4.526   3.909  0.1055 -1.0978  0.3935
 7491SOL     OW33934   1.401   3.290   5.758  0.1372  0.2954  0.6709
 7491SOL    HW133935   1.380   3.314   5.668  0.4474  1.6760  0.9529
 7491SOL    HW233936   1.484   3.338   5.766  0.1821  0.4895 -0.9561
 7492SOL     OW33937   2.495   1.144  14.779 -0.2442  0.4064  0.0442
 7492SOL    HW133938   2.507   1.086  14.704 -1.5526  0.8976 -0.5347
 7492SOL    HW233939   2.583   1.181  14.788 -0.3822  1.5010 -3.4799
 7493SOL     OW33940   1.889   0.556   3.697  0.3772 -0.1699 -0.1687
 7493SOL    HW133941   1.956   0.537   3.631 -0.4137 -3.1761 -0.0825
 7493SOL    HW233942   1.907   0.649   3.679 -3.1196  0.4699 -0.4083
 7494SOL     OW33943   0.223   1.632  16.484  0.2050  0.2550 -0.8518
 7494SOL    HW133944   0.224   1.710  16.428 -0.0750  0.7964 -0.1105
 7494SOL    HW233945   0.316   1.622  16.505  0.6493  1.0612 -2.4401
 7495SOL     OW33946   0.271   3.903   5.017  0.1974 -0.0115  0.2238
 7495SOL    HW133947   0.238   3.914   5.106  3.3256  5.5675  0.6818
 7495SOL    HW233948   0.354   3.863   5.042  1.6422  1.6332 -1.9492
 7496SOL     OW33949   2.352   3.872  16.224  0.0424 -0.1432 -0.2866
 7496SOL    HW133950   2.343   3.783  16.191 -3.0502 -0.3570  1.1168
 7496SOL    HW233951   2.269   3.899  16.262  1.2775  0.2068  2.1609
 7497SOL     OW33952   4.702   3.227   3.414 -0.9704 -0.7379 -0.4243
 7497SOL    HW133953   0.039   3.252   3.341 -2.4126  2.0203 -0.5914
 7497SOL    HW233954   4.658   3.151   3.377 -4.1124  2.2016 -2.6831
 7498SOL     OW33955   0.732   4.505   4.196 -0.4145 -0.3828 -0.3389
 7498SOL    HW133956   0.638   4.516   4.206 -0.3691 -0.2569 -0.0317
 7498SOL    HW233957   0.719   4.428   4.141  3.8088  0.3092 -2.2819
 7499SOL     OW33958   1.836   1.091  14.688  0.0384  0.4829  0.5280
 7499SOL    HW133959   1.762   1.079  14.748  0.7339  0.4022  1.3786
 7499SOL    HW233960   1.821   1.180  14.656 -1.6829 -0.1091 -0.2785
 7500SOL     OW33961   0.089   3.760   1.537  0.6478 -0.0223  0.4155
 7500SOL    HW133962   0.099   3.815   1.615 -0.8721 -1.1611  1.4168
 7500SOL    HW233963   0.087   3.832   1.474 -0.5226 -0.4874 -0.0653
 7501SOL     OW33964   0.089   2.281   5.151  0.3276  0.5955  0.0488
 7501SOL    HW133965   0.020   2.290   5.217 -0.2880 -1.9502 -0.2792
 7501SOL    HW233966   0.047   2.334   5.083 -1.2605 -0.3654  0.2837
 7502SOL     OW33967   1.095   0.693   2.820  0.0010 -0.1894  0.0676
 7502SOL    HW133968   1.062   0.727   2.736 -1.4829  1.3077  1.2567
 7502SOL    HW233969   1.190   0.705   2.811  0.0926 -1.3152 -0.5517
 7503SOL     OW33970   2.421   1.151   3.868  0.1124  0.0366 -0.0358
 7503SOL    HW133971   2.362   1.095   3.918  0.4324  0.2735  0.6151
 7503SOL    HW233972   2.375   1.234   3.858  0.7505  0.6288  1.9706
 7504SOL     OW33973   3.612   0.281  14.111 -0.1377 -0.2239 -0.3205
 7504SOL    HW133974   3.537   0.338  14.094  0.6747  0.8294 -0.4068
 7504SOL    HW233975   3.670   0.346  14.152  1.8624 -1.9372 -0.4284
 7505SOL     OW33976   2.133   3.180  16.986 -1.1195 -0.0002  0.3333
 7505SOL    HW133977   2.215   3.142  16.956 -2.5705 -0.8126 -2.5760
 7505SOL    HW233978   2.119   3.244  16.917 -0.1435 -0.6293 -0.4496
 7506SOL     OW33979   2.508   2.114  12.169  0.4689  0.1024  0.6192
 7506SOL    HW133980   2.446   2.044  12.185 -1.0191  0.9471 -1.5491
 7506SOL    HW233981   2.463   2.163  12.101  3.0232  0.3281 -0.9090
 7507SOL     OW33982   2.219   2.172   5.386 -0.1986 -0.2373  0.1065
 7507SOL    HW133983   2.156   2.102   5.405  1.3473 -0.8873  2.9048
 7507SOL    HW233984   2.277   2.168   5.463 -1.6220 -1.3732  1.1140
 7508SOL     OW33985   4.265   2.545  12.085  0.0717  0.1834 -0.0711
 7508SOL    HW133986   4.226   2.465  12.121 -0.4153  0.5625  0.2527
 7508SOL    HW233987   4.262   2.597  12.165 -1.4246 -1.9553  1.2697
 7509SOL     OW33988   4.705   1.474   6.762  0.2273 -0.0171 -0.2177
 7509SOL    HW133989   4.630   1.445   6.711  0.7364  2.7226 -2.5031
 7509SOL    HW233990   4.715   1.564   6.734  4.7695 -0.6838 -0.8449
 7510SOL     OW33991   3.422   3.638   5.986 -0.1041  0.3149  0.1653
 7510SOL    HW133992   3.515   3.622   5.972 -0.2456 -0.9931  0.7967
 7510SOL    HW233993   3.395   3.654   5.895 -2.8853  1.9734  1.2984
 7511SOL     OW33994   0.903   0.232   2.801  0.5642  0.0486 -0.4361
 7511SOL    HW133995   0.864   0.177   2.733 -1.6569  0.1369  0.7912
 7511SOL    HW233996   0.822   0.272   2.829  0.8633  1.4544 -1.5628
 7512SOL     OW33997   1.181   4.237   7.793 -0.5573  0.3317  0.4591
 7512SOL    HW133998   1.191   4.217   7.699 -0.4920 -2.5741  1.1035
 7512SOL    HW233999   1.097   4.201   7.820 -0.3983 -0.3996 -0.0192
 7513SOL     OW34000   1.998   2.758  16.389 -0.6945 -0.6776 -0.0444
 7513SOL    HW134001   1.905   2.771  16.371 -0.3052  0.8972 -0.8303
 7513SOL    HW234002   2.012   2.692  16.321  0.0130  1.3641 -1.8603
 7514SOL     OW34003   2.493   2.618   2.765 -0.2075 -0.0713  0.0823
 7514SOL    HW134004   2.584   2.648   2.766 -0.7346  1.4815  1.5121
 7514SOL    HW234005   2.509   2.529   2.735 -1.4839 -0.0100 -0.7582
 7515SOL     OW34006   0.337   2.954   8.855 -0.0876  0.9305 -0.2718
 7515SOL    HW134007   0.278   3.027   8.872 -0.4265  0.2843  1.3339
 7515SOL    HW234008   0.295   2.900   8.789  2.1433 -0.5773 -0.4667
 7516SOL     OW34009   2.999   0.176   7.787 -0.3420  0.1744  0.3677
 7516SOL    HW134010   3.083   0.189   7.831 -1.1735 -1.3921  2.4374
 7516SOL    HW234011   2.934   0.207   7.850  1.2421  1.3441  1.4353
 7517SOL     OW34012   3.443   1.625  15.493  0.3228  0.5707 -0.0767
 7517SOL    HW134013   3.523   1.664  15.455  0.2028  2.7812  1.9266
 7517SOL    HW234014   3.459   1.532  15.504 -0.9070  0.6483  2.3016
 7518SOL     OW34015   4.696   4.541   4.984 -0.0944  0.0818  0.3725
 7518SOL    HW134016   4.649   4.624   4.983  2.8132  1.7399  0.6199
 7518SOL    HW234017   4.642   4.492   4.922  0.3922  0.3841 -0.2977
 7519SOL     OW34018   1.771   3.208   2.917  0.2390 -0.1895 -0.1314
 7519SOL    HW134019   1.826   3.286   2.910  0.6977 -0.5669 -0.7329
 7519SOL    HW234020   1.838   3.143   2.937 -1.1501 -1.5351  0.1017
 7520SOL     OW34021   4.371   1.813  13.040  0.4811 -0.1491  0.0235
 7520SOL    HW134022   4.454   1.777  13.010  2.7034  3.2525  2.1880
 7520SOL    HW234023   4.370   1.795  13.134  0.2056 -1.7186 -0.2655
 7521SOL     OW34024   1.481   4.710   7.310 -0.6812  0.1376  0.4132
 7521SOL    HW134025   1.469   4.618   7.334 -1.4652 -0.1537 -1.0872
 7521SOL    HW234026   1.486   0.037   7.393  1.3269 -0.9766  0.9336
 7522SOL     OW34027   4.586   2.940   3.815 -0.2643  0.1027 -0.3151
 7522SOL    HW134028   4.578   3.021   3.865  5.3592  0.3837  0.0893
 7522SOL    HW234029   4.564   2.881   3.887 -3.7369 -1.6874 -2.8005
 7523SOL     OW34030   3.366   4.035  15.753 -0.0508 -0.4189 -0.5852
 7523SOL    HW134031   3.319   4.115  15.730  1.1777  0.5671  0.3560
 7523SOL    HW234032   3.367   3.983  15.672 -0.0596 -1.8287  0.3159
 7524SOL     OW34033   1.964   4.494   9.842  0.7865 -0.0654 -0.1374
 7524SOL    HW134034   1.918   4.452   9.914 -0.8053  0.3608 -0.8954
 7524SOL    HW234035   1.899   4.561   9.820  0.7387  0.0340  0.3091
 7525SOL     OW34036   3.555   1.681  17.218  0.5310 -0.2733  0.7071
 7525SOL    HW134037   3.467   1.659  17.249  0.0804  2.5737  1.5129
 7525SOL    HW234038   3.549   1.777  17.213  0.0697 -0.2555  1.6145
 7526SOL     OW34039   4.586   3.449  14.394 -0.1023  0.3245  0.5420
 7526SOL    HW134040   4.538   3.404  14.324  1.5325  1.1842 -1.1453
 7526SOL    HW234041   4.613   3.368  14.436  2.6789  0.9366 -0.0936
 7527SOL     OW34042   3.625   0.387   5.708 -0.0431 -0.6372  0.3775
 7527SOL    HW134043   3.666   0.301   5.715  0.9146 -0.0273  2.2072
 7527SOL    HW234044   3.608   0.387   5.802 -1.5657  1.5286  0.0961
 7528SOL     OW34045   2.937   2.818   1.863 -0.3578 -0.3388  0.1023
 7528SOL    HW134046   2.847   2.849   1.858  0.6582  2.2132 -1.6251
 7528SOL    HW234047   2.931   2.776   1.949  2.1208 -1.1095 -0.1043
 7529SOL     OW34048   0.258   1.326  15.273 -0.1090 -0.4693 -0.1872
 7529SOL    HW134049   0.232   1.404  15.322  1.1052  0.7511 -1.4576
 7529SOL    HW234050   0.176   1.278  15.266  0.0203 -0.8456  0.8267
 7530SOL     OW34051   4.684   1.601   1.981 -0.3588 -0.2599  0.6127
 7530SOL    HW134052   4.657   1.691   1.960 -0.1583 -0.1336  0.8996
 7530SOL    HW234053   0.025   1.583   1.909 -1.4748  0.3390 -0.4824
 7531SOL     OW34054   2.760   3.277   7.768  0.4415 -0.7066 -0.4672
 7531SOL    HW134055   2.721   3.314   7.847  0.5655 -1.6371  0.0263
 7531SOL    HW234056   2.832   3.226   7.805  0.0732 -2.1213 -1.6717
 7532SOL     OW34057   0.212   4.103   1.595 -0.5754 -0.6235  0.1998
 7532SOL    HW134058   0.229   4.171   1.660  1.2952  0.4538 -1.4038
 7532SOL    HW234059   0.199   4.037   1.662  0.2296 -2.0582 -1.0607
 7533SOL     OW34060   3.530   3.964   0.035 -0.4141 -0.0261 -0.1095
 7533SOL    HW134061   3.552   3.946   0.126  0.4392  1.0359 -0.0947
 7533SOL    HW234062   3.441   3.931   0.027 -0.5997  0.2904  0.6513
 7534SOL     OW34063   0.124   1.080   7.456 -0.5596 -0.3866  0.2176
 7534SOL    HW134064   0.067   1.095   7.380  1.8198  2.4430 -1.0106
 7534SOL    HW234065   0.149   0.987   7.449 -1.8692 -0.7951  0.9894
 7535SOL     OW34066   1.314   2.720   0.875  0.1002  0.4750  0.6500
 7535SOL    HW134067   1.409   2.725   0.879  0.0395  0.1933  2.4798
 7535SOL    HW234068   1.293   2.777   0.949 -1.1314  0.5832  0.2237
 7536SOL     OW34069   4.555   0.653  12.938  0.3015  0.1281 -0.0557
 7536SOL    HW134070   4.604   0.727  12.973 -1.2616  0.9328  0.4645
 7536SOL    HW234071   4.574   0.586  13.003 -2.5550  1.3574  2.0462
 7537SOL     OW34072   1.119   1.428  15.864 -0.0050 -0.7775  0.0206
 7537SOL    HW134073   1.170   1.436  15.945  1.0468  2.7360 -0.9997
 7537SOL    HW234074   1.173   1.466  15.795  1.0969 -2.7736 -0.2056
 7538SOL     OW34075   2.006   4.675  14.268 -0.4398 -0.2141 -0.7406
 7538SOL    HW134076   1.975   4.587  14.244 -3.2742  0.6093  0.0004
 7538SOL    HW234077   1.954   0.012  14.211  0.3314  0.0883 -1.1543
 7539SOL     OW34078   3.045   3.882  13.293 -0.4699 -0.3194  0.5469
 7539SOL    HW134079   2.951   3.886  13.273 -0.5318  0.5964  0.9850
 7539SOL    HW234080   3.042   3.793  13.328 -0.1295 -0.8096 -0.6617
 7540SOL     OW34081   0.060   3.222  13.179 -0.6476  0.5503  0.0761
 7540SOL    HW134082   0.016   3.194  13.258  0.3211  1.8632  1.0948
 7540SOL    HW234083   0.109   3.297  13.214  0.3340 -0.1813  0.2622
 7541SOL     OW34084   1.813   0.702   0.785 -0.5224 -0.4553  0.2468
 7541SOL    HW134085   1.873   0.761   0.738 -0.4820 -0.5954  0.1217
 7541SOL    HW234086   1.769   0.770   0.835 -1.9983  1.6102 -3.8841
 7542SOL     OW34087   3.473   0.578   0.190  0.0317  0.1965 -0.0213
 7542SOL    HW134088   3.500   0.558   0.280 -0.1882 -0.7889 -0.1731
 7542SOL    HW234089   3.501   0.498   0.145 -0.3552  0.3843 -0.5854
 7543SOL     OW34090   0.561   3.224   2.864 -0.4445  0.6285  0.5699
 7543SOL    HW134091   0.642   3.246   2.909 -0.7870 -0.4735  1.7192
 7543SOL    HW234092   0.579   3.134   2.837  1.8081  1.1672  0.2396
 7544SOL     OW34093   2.455   3.791  11.692  0.3268  0.4478 -0.4243
 7544SOL    HW134094   2.435   3.702  11.721  2.5735 -0.2769 -1.1027
 7544SOL    HW234095   2.451   3.847  11.769 -0.2635 -0.3412  0.1234
 7545SOL     OW34096   3.439   3.492   3.250  0.3345  0.1671  0.5212
 7545SOL    HW134097   3.374   3.427   3.223 -0.2700  0.5153  1.1322
 7545SOL    HW234098   3.447   3.553   3.176 -1.3110 -0.8253 -0.4621
 7546SOL     OW34099   0.445   2.186  11.102 -0.5770  0.3476 -0.0792
 7546SOL    HW134100   0.440   2.096  11.071  2.1019 -0.6286  2.3463
 7546SOL    HW234101   0.497   2.232  11.037  0.9263 -0.2367  0.7038
 7547SOL     OW34102   0.533   0.826   7.768  0.2348 -0.1637 -0.7919
 7547SOL    HW134103   0.463   0.778   7.724  1.2075 -0.9976 -1.4106
 7547SOL    HW234104   0.529   0.912   7.726  0.2770  0.6171  0.8102
 7548SOL     OW34105   1.490   1.581   0.674  0.3453 -0.0569 -0.0105
 7548SOL    HW134106   1.580   1.581   0.642  1.4573  1.1765  3.0559
 7548SOL    HW234107   1.511   1.586   0.768  0.4946  0.9002 -0.1025
 7549SOL     OW34108   1.778   1.249   5.915  0.0451 -0.5934 -0.1492
 7549SOL    HW134109   1.798   1.156   5.906 -0.2108 -0.6591 -0.0356
 7549SOL    HW234110   1.764   1.256   6.009  0.4423 -0.4863 -0.1010
 7550SOL     OW34111   3.582   2.495   9.155 -0.3453  0.3004 -0.5929
 7550SOL    HW134112   3.527   2.417   9.148 -0.1148  0.1786 -1.0902
 7550SOL    HW234113   3.670   2.457   9.161 -0.6856 -0.0206  2.0894
 7551SOL     OW34114   2.523   1.097  15.421  0.0166  0.6211  0.7497
 7551SOL    HW134115   2.482   1.104  15.506  0.1424 -1.6589  0.9975
 7551SOL    HW234116   2.577   1.176  15.429  0.8372 -0.0481  1.7350
 7552SOL     OW34117   2.999   4.422   5.074 -0.1895 -0.0260  0.2022
 7552SOL    HW134118   3.028   4.466   5.155 -0.7033 -1.3687  1.1098
 7552SOL    HW234119   3.021   4.330   5.087  1.5624  0.2481 -0.8318
 7553SOL     OW34120   0.710   3.424   5.010  0.4024  0.7892  0.4037
 7553SOL    HW134121   0.622   3.395   5.034  1.0946  0.2160  2.2382
 7553SOL    HW234122   0.685   3.503   4.961  1.3412  2.5436  2.7011
 7554SOL     OW34123   0.611   3.844  13.043 -0.2712  0.1365 -0.1734
 7554SOL    HW134124   0.686   3.785  13.036  0.0852  0.6491 -0.7041
 7554SOL    HW234125   0.642   3.925  13.001  1.3630 -0.9830 -1.1403
 7555SOL     OW34126   1.257   3.736   9.329 -0.0152  0.3878 -0.4031
 7555SOL    HW134127   1.347   3.719   9.358 -0.6819  0.3451  1.5915
 7555SOL    HW234128   1.230   3.791   9.402  0.3919 -0.9089  0.7103
 7556SOL     OW34129   0.927   0.100   6.467 -0.2330 -0.4493  0.2540
 7556SOL    HW134130   0.847   0.064   6.429 -1.5932 -0.4849  3.1260
 7556SOL    HW234131   0.911   0.065   6.555 -2.3111 -0.4222 -0.0962
 7557SOL     OW34132   1.012   3.846   7.942 -0.2810 -0.5057  0.0083
 7557SOL    HW134133   1.069   3.852   8.019  1.0809 -1.3145 -0.9326
 7557SOL    HW234134   1.061   3.899   7.878 -0.0211 -0.3890  0.3034
 7558SOL     OW34135   1.902   0.266   4.179  0.3720  0.2813 -0.0216
 7558SOL    HW134136   1.882   0.305   4.093 -2.1787  2.6395  1.6603
 7558SOL    HW234137   1.817   0.240   4.213  0.3933 -1.6428 -1.4147
 7559SOL     OW34138   4.494   1.316   2.927 -0.7183  0.0787 -0.3157
 7559SOL    HW134139   4.410   1.363   2.933 -1.2553 -0.9958  0.6874
 7559SOL    HW234140   4.522   1.322   2.836  1.4399  0.8420  0.4006
 7560SOL     OW34141   3.027   4.716   1.734 -0.4164  0.0225  0.1591
 7560SOL    HW134142   2.933   0.015   1.734 -0.3506  0.3480 -1.9688
 7560SOL    HW234143   3.012   4.633   1.687  1.6969 -0.1814 -0.1354
 7561SOL     OW34144   0.742   2.305   9.693  0.2990 -0.3929 -0.0884
 7561SOL    HW134145   0.819   2.361   9.705 -1.6177  2.2939 -0.3092
 7561SOL    HW234146   0.740   2.314   9.598  0.7648 -0.8907 -0.1434
 7562SOL     OW34147   0.358   0.591   1.343 -0.0328  0.0939 -0.2684
 7562SOL    HW134148   0.347   0.675   1.388  0.0421  0.0842 -0.2328
 7562SOL    HW234149   0.269   0.583   1.308 -0.2037  0.1747  0.1428
 7563SOL     OW34150   0.789   2.804  13.302 -0.4480 -0.7401  0.5678
 7563SOL    HW134151   0.751   2.884  13.339 -0.6926 -0.9686  0.8123
 7563SOL    HW234152   0.713   2.769  13.255  1.1367  0.5588 -2.9882
 7564SOL     OW34153   3.061   3.386   8.752 -0.4474 -0.2497 -0.4345
 7564SOL    HW134154   2.987   3.327   8.764  0.0929 -1.5485 -3.3565
 7564SOL    HW234155   3.136   3.333   8.781 -0.3290  0.4166  0.4444
 7565SOL     OW34156   1.197   4.037  12.833  0.8538  0.0245  0.3473
 7565SOL    HW134157   1.205   4.131  12.819 -1.2755  0.0025 -0.9041
 7565SOL    HW234158   1.119   4.011  12.785  0.2502  1.6226  0.4915
 7566SOL     OW34159   2.226   1.668  15.945 -0.0013 -0.5647 -0.2877
 7566SOL    HW134160   2.260   1.647  16.032 -1.5896  1.3164  0.7599
 7566SOL    HW234161   2.299   1.721  15.914  1.9245 -2.9607  0.0785
 7567SOL     OW34162   2.765   0.793  14.417 -0.0191 -0.3495  0.0758
 7567SOL    HW134163   2.672   0.804  14.397  0.3397  2.1704 -0.2760
 7567SOL    HW234164   2.769   0.707  14.457  3.7963  0.5869  1.7775
 7568SOL     OW34165   4.105   0.872   6.301  0.0275 -0.3664 -0.3059
 7568SOL    HW134166   4.088   0.943   6.238 -0.4531  0.0926  0.3440
 7568SOL    HW234167   4.121   0.921   6.382  1.6998 -1.5898  0.0888
 7569SOL     OW34168   4.662   1.569   3.761 -0.2477 -0.0530  0.2913
 7569SOL    HW134169   4.654   1.555   3.666 -1.0708 -0.6064  0.4460
 7569SOL    HW234170   0.002   1.644   3.765 -3.4173  2.5208 -0.0808
 7570SOL     OW34171   1.514   3.474   8.121  0.0581  0.1500 -0.0346
 7570SOL    HW134172   1.428   3.472   8.162 -0.3621 -0.2208 -0.9268
 7570SOL    HW234173   1.548   3.556   8.158  0.0235  0.5124 -0.7792
 7571SOL     OW34174   4.422   1.439   4.324 -0.0332  0.3645 -0.4356
 7571SOL    HW134175   4.489   1.421   4.257  1.1741 -1.0153  1.1259
 7571SOL    HW234176   4.479   1.474   4.393 -0.8572  1.3336 -0.2553
 7572SOL     OW34177   0.108   0.827   2.601 -0.1017 -0.1112  0.1339
 7572SOL    HW134178   0.061   0.744   2.604  1.1149 -0.7920  0.6200
 7572SOL    HW234179   0.058   0.867   2.530  1.4910  1.2403 -0.2226
 7573SOL     OW34180   3.601   1.876  10.104  0.1594 -0.2369  0.4581
 7573SOL    HW134181   3.668   1.868  10.172  1.2638  1.9139 -0.3883
 7573SOL    HW234182   3.527   1.854  10.160 -0.8532 -0.2034 -0.8583
 7574SOL     OW34183   3.387   0.325  11.964 -0.1498  0.1833 -0.2417
 7574SOL    HW134184   3.340   0.243  11.978 -1.2984  1.1527  1.5155
 7574SOL    HW234185   3.430   0.335  12.049  1.0622 -0.4721 -0.7723
 7575SOL     OW34186   0.200   4.619   1.124  0.2630 -0.4572 -0.1144
 7575SOL    HW134187   0.264   4.690   1.128  0.2986 -0.5010  0.1276
 7575SOL    HW234188   0.236   4.556   1.062 -3.0257 -0.6302 -1.8720
 7576SOL     OW34189   0.205   0.932   4.314  0.0434  0.0582  0.3380
 7576SOL    HW134190   0.177   1.002   4.255  0.4521 -0.1706 -0.1354
 7576SOL    HW234191   0.296   0.960   4.325 -0.0190  0.6468 -0.6571
 7577SOL     OW34192   4.261   3.225   7.591 -0.4690 -0.2003  0.2615
 7577SOL    HW134193   4.312   3.205   7.669  0.1271 -0.0647 -0.0929
 7577SOL    HW234194   4.176   3.185   7.610 -0.9081  0.5119 -0.1905
 7578SOL     OW34195   1.701   2.599  16.038  1.1602 -0.2548  0.1729
 7578SOL    HW134196   1.705   2.644  15.954 -2.8267  0.5512  0.3871
 7578SOL    HW234197   1.607   2.597  16.056  1.3124 -4.3624  0.5657
 7579SOL     OW34198   3.669   0.479   3.268 -0.4715 -0.7467  0.2455
 7579SOL    HW134199   3.643   0.387   3.260  0.4867 -0.9603 -0.4147
 7579SOL    HW234200   3.763   0.465   3.257 -0.5052 -1.8214  1.2500
 7580SOL     OW34201   2.874   4.322   9.692 -0.0148  0.3085 -0.1782
 7580SOL    HW134202   2.805   4.341   9.628 -0.2921 -1.5706 -0.4332
 7580SOL    HW234203   2.820   4.288   9.764  0.4866 -1.7044 -0.7640
 7581SOL     OW34204   1.973   4.511   6.412 -0.3123  0.2616  0.1507
 7581SOL    HW134205   1.936   4.429   6.380  0.3050  0.3326 -0.7418
 7581SOL    HW234206   1.962   4.573   6.340  0.3524 -1.7922 -1.7276
 7582SOL     OW34207   1.712   2.715   1.607 -0.1705  0.1704  0.0105
 7582SOL    HW134208   1.763   2.640   1.637 -1.5528 -0.2308  1.3644
 7582SOL    HW234209   1.789   2.771   1.601 -1.2530  1.7642  0.8680
 7583SOL     OW34210   2.659   0.277   7.672  0.5618  0.0102  0.2995
 7583SOL    HW134211   2.573   0.251   7.639  0.8544  0.0895 -0.5285
 7583SOL    HW234212   2.707   0.195   7.656  0.5244  0.0057  0.2105
 7584SOL     OW34213   1.385   4.216   0.647 -0.0947  0.5103 -0.5495
 7584SOL    HW134214   1.309   4.162   0.625 -0.7998  1.1459  0.2953
 7584SOL    HW234215   1.370   4.231   0.741 -0.6238  1.0447 -0.7201
 7585SOL     OW34216   1.445   4.383  10.271  0.3476 -0.0218  0.0812
 7585SOL    HW134217   1.398   4.335  10.204 -0.6228 -1.3972  1.7549
 7585SOL    HW234218   1.418   4.473  10.257  0.5203  0.3116  1.8403
 7586SOL     OW34219   1.446   0.358   4.699 -0.1280  0.5270 -0.3885
 7586SOL    HW134220   1.525   0.320   4.660 -0.1938 -0.0833  0.0705
 7586SOL    HW234221   1.404   0.388   4.619 -0.4787  1.1013  0.0160
 7587SOL     OW34222   3.019   2.933   1.187 -0.5999  0.3054  0.0898
 7587SOL    HW134223   3.025   2.882   1.269 -0.1053 -0.2363 -0.2791
 7587SOL    HW234224   3.051   3.016   1.222 -1.7814  1.0854 -0.7072
 7588SOL     OW34225   0.189   4.211   4.049 -0.3718  0.0310  0.4357
 7588SOL    HW134226   0.204   4.212   3.954  0.4546 -0.3771  0.5661
 7588SOL    HW234227   0.199   4.116   4.054 -1.1934 -0.1178 -0.8091
 7589SOL     OW34228   1.781   2.433   5.539  0.5290 -0.0892  0.5558
 7589SOL    HW134229   1.752   2.361   5.483  1.7494 -0.6588  0.6579
 7589SOL    HW234230   1.816   2.488   5.469  0.4725  0.3854  0.9031
 7590SOL     OW34231   1.772   3.594  11.668 -0.0137 -0.0498 -0.5075
 7590SOL    HW134232   1.765   3.530  11.597 -3.2716  1.9425 -2.0347
 7590SOL    HW234233   1.716   3.666  11.637  0.2397  0.0050 -0.8363
 7591SOL     OW34234   1.558   4.447   1.396 -0.1491 -0.2546  0.6176
 7591SOL    HW134235   1.557   4.423   1.303  1.8701 -1.4141  0.8839
 7591SOL    HW234236   1.500   4.384   1.437  0.2454 -1.0760 -0.0785
 7592SOL     OW34237   4.120   3.092   0.801  0.0024 -0.1957 -0.0993
 7592SOL    HW134238   4.188   3.115   0.738  1.4081 -0.5425  1.3086
 7592SOL    HW234239   4.132   3.167   0.859 -0.7278  0.4179 -0.7440
 7593SOL     OW34240   4.317   3.162  16.061  0.4901  0.1229 -0.7380
 7593SOL    HW134241   4.368   3.226  16.012  2.2884 -1.6300 -1.1863
 7593SOL    HW234242   4.296   3.103  15.989 -1.0320 -0.3461  0.0712
 7594SOL     OW34243   4.169   1.045   4.701 -1.1581  0.5073  0.2795
 7594SOL    HW134244   4.237   1.052   4.768  0.1052 -2.1678 -0.7040
 7594SOL    HW234245   4.107   0.987   4.746 -0.8974 -1.2842 -1.6338
 7595SOL     OW34246   3.496   3.541   2.337 -0.6424 -0.1688  0.0107
 7595SOL    HW134247   3.498   3.621   2.284  1.0090  0.0030  0.3127
 7595SOL    HW234248   3.590   3.526   2.352 -0.5176  0.8162  0.2091
 7596SOL     OW34249   4.157   1.262   6.534 -0.4324  0.1039 -0.2059
 7596SOL    HW134250   4.084   1.254   6.595 -2.6103 -0.0198 -2.8401
 7596SOL    HW234251   4.183   1.170   6.538  0.9744  0.6281  2.9947
 7597SOL     OW34252   1.433   1.901   3.467  0.3728 -0.2923 -0.1772
 7597SOL    HW134253   1.517   1.910   3.510  0.9241 -3.0552 -0.7378
 7597SOL    HW234254   1.421   1.807   3.475 -2.7034  0.2353  1.4744
 7598SOL     OW34255   3.585   3.177  13.340 -0.1076 -0.6196 -0.1934
 7598SOL    HW134256   3.645   3.251  13.351  0.3540 -1.2715  1.5735
 7598SOL    HW234257   3.625   3.152  13.256 -0.4452 -1.7607 -0.0088
 7599SOL     OW34258   1.997   2.309   3.495  0.1412 -0.4712  0.1755
 7599SOL    HW134259   1.957   2.288   3.580  2.0969  0.5330  1.3600
 7599SOL    HW234260   1.930   2.364   3.454 -1.2460 -1.7919  0.6891
 7600SOL     OW34261   4.411   2.841   0.852  0.3793  0.8259 -0.1640
 7600SOL    HW134262   4.441   2.757   0.887 -0.2923  1.3580  1.6888
 7600SOL    HW234263   4.500   2.875   0.857 -0.0122  1.8865 -0.5322
 7601SOL     OW34264   0.595   4.653   3.714  0.0823 -0.2293 -0.3765
 7601SOL    HW134265   0.562   4.572   3.675 -0.0981  0.2098 -1.1318
 7601SOL    HW234266   0.610   4.702   3.633  0.7525  2.9207  1.6872
 7602SOL     OW34267   2.398   3.137   7.397  0.1011 -0.3077 -1.0059
 7602SOL    HW134268   2.404   3.187   7.316 -0.8875  3.8716  1.5134
 7602SOL    HW234269   2.464   3.181   7.451 -0.4642 -1.6651  0.8101
 7603SOL     OW34270   4.064   4.061   5.660 -0.0511 -0.2712 -0.0669
 7603SOL    HW134271   4.152   4.067   5.697  0.3883  0.8770 -1.2863
 7603SOL    HW234272   4.010   4.053   5.739 -1.1897 -2.3590 -1.0301
 7604SOL     OW34273   3.140   1.286   5.137  0.4311 -0.4169 -0.1737
 7604SOL    HW134274   3.117   1.351   5.204  1.8439 -0.7333  0.6087
 7604SOL    HW234275   3.146   1.209   5.193  0.7097 -0.9709 -0.9600
 7605SOL     OW34276   0.294   1.221   6.063 -0.3934 -0.6971 -0.0767
 7605SOL    HW134277   0.340   1.300   6.034  1.6008 -0.9202  2.4512
 7605SOL    HW234278   0.362   1.168   6.104 -0.4055 -0.7478 -0.1227
 7606SOL     OW34279   4.598   1.954  14.511  0.2388  0.3248  0.2484
 7606SOL    HW134280   4.592   2.043  14.474 -0.7214  0.0350 -0.3004
 7606SOL    HW234281   4.536   1.960  14.584 -0.3181 -2.9475  0.0030
 7607SOL     OW34282   2.105   3.291   1.467  0.0478 -0.3472 -0.3867
 7607SOL    HW134283   2.143   3.300   1.380  1.0183  0.3717  0.1050
 7607SOL    HW234284   2.059   3.375   1.471 -2.3862 -1.7398  0.5822
 7608SOL     OW34285   1.596   1.677   8.472  0.4375  0.7310  0.2557
 7608SOL    HW134286   1.607   1.682   8.377 -0.5726  0.7684  0.1329
 7608SOL    HW234287   1.657   1.742   8.505  0.4230  1.0243 -0.2829
 7609SOL     OW34288   2.142   1.454  13.181  0.5937 -0.4364  0.2346
 7609SOL    HW134289   2.207   1.521  13.204 -0.5951  0.7822  0.0711
 7609SOL    HW234290   2.154   1.448  13.086  0.6178  0.2207  0.1925
 7610SOL     OW34291   3.463   2.283   2.290  0.1569  0.4900 -0.3408
 7610SOL    HW134292   3.486   2.375   2.305 -0.2798  0.8914 -2.1316
 7610SOL    HW234293   3.538   2.252   2.341  1.0718  1.3847 -1.1182
 7611SOL     OW34294   0.620   1.025   3.998  0.8576 -0.0635  0.1901
 7611SOL    HW134295   0.657   1.030   3.910  1.0764  2.9581  0.4628
 7611SOL    HW234296   0.701   1.021   4.049  1.9638 -1.0579 -1.6263
 7612SOL     OW34297   1.625   4.201   6.034 -0.0937  0.5446 -0.0196
 7612SOL    HW134298   1.708   4.175   6.074 -1.3779  1.2465  3.1176
 7612SOL    HW234299   1.570   4.170   6.106 -1.1609 -0.7736 -1.4002
 7613SOL     OW34300   1.573   1.200   6.579 -0.1894  0.4782  0.2252
 7613SOL    HW134301   1.574   1.143   6.657  1.5199  1.0130  0.5886
 7613SOL    HW234302   1.614   1.279   6.615  0.1691  0.6511 -0.5690
 7614SOL     OW34303   1.990   3.544  15.056 -0.3096  0.5816 -0.3992
 7614SOL    HW134304   1.977   3.508  14.969  0.7936  0.4990 -0.5284
 7614SOL    HW234305   2.049   3.618  15.041  1.1225 -0.3031  0.8429
 7615SOL     OW34306   1.974   4.512  17.499 -0.2965 -0.3285  0.3063
 7615SOL    HW134307   1.976   4.524  17.594  0.7122  1.6789  0.0307
 7615SOL    HW234308   1.882   4.527  17.476 -1.0897 -2.6879  1.9933
 7616SOL     OW34309   0.406   1.485  13.314  0.3067 -0.0449 -0.1916
 7616SOL    HW134310   0.337   1.455  13.373 -0.7863  1.8115 -0.5455
 7616SOL    HW234311   0.361   1.502  13.231  1.2768  0.5125 -0.5996
 7617SOL     OW34312   1.763   2.174  14.338 -0.1031  0.2292 -0.3560
 7617SOL    HW134313   1.808   2.258  14.329 -0.1071  0.0109 -2.4282
 7617SOL    HW234314   1.796   2.152  14.425 -0.8667 -0.9494 -0.3654
 7618SOL     OW34315   3.557   4.133   2.901 -0.1627 -0.6582  0.1506
 7618SOL    HW134316   3.649   4.149   2.878  0.4012 -2.2880  1.2514
 7618SOL    HW234317   3.531   4.077   2.828  2.8701 -0.1903 -1.2846
 7619SOL     OW34318   0.536   4.513  15.082 -0.2546  0.4247  0.2499
 7619SOL    HW134319   0.523   4.492  14.989 -1.6676 -2.1435  1.0490
 7619SOL    HW234320   0.611   4.571  15.073  0.6338 -0.4578  2.1212
 7620SOL     OW34321   1.564   2.232   7.512  0.0600 -0.0277  0.4315
 7620SOL    HW134322   1.530   2.296   7.574 -1.7018 -0.1055 -0.4306
 7620SOL    HW234323   1.537   2.153   7.559 -0.4542 -0.4645 -0.5854
 7621SOL     OW34324   1.023   4.404   7.073  0.0844 -0.2940  0.6802
 7621SOL    HW134325   1.046   4.326   7.022 -1.8920  0.1647 -0.9041
 7621SOL    HW234326   1.109   4.441   7.092  0.7877 -0.8879 -1.3581
 7622SOL     OW34327   1.686   0.657  13.964 -0.3773 -0.2744 -0.2123
 7622SOL    HW134328   1.652   0.645  14.052 -0.7692 -3.1621 -0.7530
 7622SOL    HW234329   1.610   0.677  13.909  0.5141  0.6874 -1.0945
 7623SOL     OW34330   2.338   2.490  17.577  0.0559  0.3034 -0.3676
 7623SOL    HW134331   2.420   2.505  17.529 -1.3449 -0.1051 -2.8757
 7623SOL    HW234332   2.370   2.421  17.635 -2.3421  1.1215  1.8965
 7624SOL     OW34333   1.044   4.379   2.879  0.3859  0.6090 -0.2567
 7624SOL    HW134334   0.992   4.451   2.844 -1.5518 -0.9216 -0.4937
 7624SOL    HW234335   1.100   4.371   2.801  2.2041  2.4374  0.8523
 7625SOL     OW34336   2.620   4.628  10.187 -0.0953  0.4101 -0.1422
 7625SOL    HW134337   2.535   4.669  10.203  0.3166  1.7109 -1.3385
 7625SOL    HW234338   2.658   4.618  10.275 -0.7587 -1.7243 -0.0988
 7626SOL     OW34339   1.856   1.794  12.352 -0.0757  0.9730  0.0768
 7626SOL    HW134340   1.940   1.756  12.378 -1.3334 -2.3669 -0.6937
 7626SOL    HW234341   1.806   1.768  12.430  0.5006  0.4090  0.2541
 7627SOL     OW34342   1.532   4.116  11.242  0.0665 -0.2746  0.3008
 7627SOL    HW134343   1.578   4.136  11.323 -1.0018  2.6567  0.1902
 7627SOL    HW234344   1.467   4.048  11.257 -0.0082 -0.4260 -0.7216
 7628SOL     OW34345   0.680   4.418   6.873 -0.6002  0.0221  0.2631
 7628SOL    HW134346   0.760   4.464   6.847  0.5083 -0.6055  2.5301
 7628SOL    HW234347   0.699   4.400   6.966 -1.6924 -0.9630  0.2893
 7629SOL     OW34348   0.624   3.114  10.894  0.1677  0.1785 -0.4318
 7629SOL    HW134349   0.635   3.040  10.834  1.3589  0.8997 -1.1153
 7629SOL    HW234350   0.715   3.143  10.898  0.2062  0.0287 -0.1833
 7630SOL     OW34351   0.196   2.530   6.439 -1.0388 -0.0064  0.7164
 7630SOL    HW134352   0.264   2.569   6.385  1.0990 -0.3619  3.1517
 7630SOL    HW234353   0.203   2.581   6.520  2.3506  1.1053 -0.2705
 7631SOL     OW34354   1.703   0.766   2.453 -0.3369  0.9340  0.2074
 7631SOL    HW134355   1.647   0.775   2.530 -1.3441 -2.2552 -0.1775
 7631SOL    HW234356   1.782   0.719   2.480  0.2686 -0.3278 -3.7379
 7632SOL     OW34357   4.466   1.350   9.058  0.0873  0.3966 -0.2696
 7632SOL    HW134358   4.511   1.309   9.132  1.7665  3.1519  0.2351
 7632SOL    HW234359   4.528   1.418   9.034  2.1522 -1.8122 -1.1988
 7633SOL     OW34360   4.046   4.665  11.585 -0.0096  0.2817 -0.4983
 7633SOL    HW134361   4.136   4.645  11.613 -0.1728  2.2853  1.4803
 7633SOL    HW234362   4.027   0.001  11.661  1.4918  0.0325  0.0742
 7634SOL     OW34363   3.975   3.576   9.363  0.0707  0.4613 -0.1056
 7634SOL    HW134364   3.950   3.645   9.424  1.0930  1.5628 -0.9191
 7634SOL    HW234365   3.924   3.500   9.392 -0.7782  0.4983 -1.4997
 7635SOL     OW34366   4.529   3.464  11.030  0.3112  0.3102  0.1693
 7635SOL    HW134367   4.489   3.466  11.117  0.2703  3.3583  0.1145
 7635SOL    HW234368   4.597   3.399  11.047  1.1741  1.3031  0.5920
 7636SOL     OW34369   1.740   1.544   8.738 -0.1884  0.6433  0.4424
 7636SOL    HW134370   1.725   1.629   8.696  1.1701  1.3648  1.4096
 7636SOL    HW234371   1.658   1.499   8.719  0.6375 -0.3941 -0.7328
 7637SOL     OW34372   4.570   4.079  15.711 -0.0017 -0.3885  0.5361
 7637SOL    HW134373   4.570   3.988  15.683 -1.0236 -0.9777  2.4667
 7637SOL    HW234374   4.504   4.122  15.656  1.3551 -0.7255 -1.3758
 7638SOL     OW34375   1.368   1.136  13.028  0.0357  0.3561 -0.5960
 7638SOL    HW134376   1.424   1.058  13.026 -0.5972 -0.1287  0.5979
 7638SOL    HW234377   1.423   1.204  12.990 -2.5234  3.2885  0.9798
 7639SOL     OW34378   3.759   3.071   1.077 -0.7812 -0.1314 -0.4963
 7639SOL    HW134379   3.772   3.071   0.982  1.2855 -0.3799 -0.2092
 7639SOL    HW234380   3.665   3.058   1.073 -0.8245  0.4669 -1.5064
 7640SOL     OW34381   2.372   1.252  14.309  0.2909  0.0405 -0.0411
 7640SOL    HW134382   2.462   1.270  14.337  0.0144 -0.1606  0.9715
 7640SOL    HW234383   2.326   1.201  14.375  1.4163 -0.6325  0.2144
 7641SOL     OW34384   2.637   2.859   5.938 -0.1852 -0.0072  0.1053
 7641SOL    HW134385   2.733   2.866   5.937 -0.2452  0.6778 -0.5400
 7641SOL    HW234386   2.615   2.943   5.980  0.9043  0.3025  0.0699
 7642SOL     OW34387   0.254   3.350   7.654 -0.6072 -0.3126 -0.6713
 7642SOL    HW134388   0.319   3.291   7.691  0.6291  2.7184  2.0066
 7642SOL    HW234389   0.272   3.338   7.561 -1.0344  1.6827 -1.0241
 7643SOL     OW34390   0.252   3.494  14.487  0.2870 -0.6283 -0.6627
 7643SOL    HW134391   0.329   3.465  14.438  1.6090  1.5717  0.1222
 7643SOL    HW234392   0.197   3.517  14.412 -0.3120  0.3381  0.0826
 7644SOL     OW34393   2.868   1.912   8.973  0.5740  0.2522  0.0667
 7644SOL    HW134394   2.946   1.964   8.953 -0.3690  2.1063  1.1776
 7644SOL    HW234395   2.868   1.920   9.068 -2.2115 -3.9335  0.4374
 7645SOL     OW34396   0.900   3.866   5.517 -0.4249  0.1675  0.2400
 7645SOL    HW134397   0.838   3.803   5.481  1.2535 -1.6309  0.5007
 7645SOL    HW234398   0.862   3.944   5.478  0.7467  1.4453  1.6443
 7646SOL     OW34399   4.488   3.353  13.588  0.7132 -0.1061 -0.1328
 7646SOL    HW134400   4.488   3.283  13.654  0.6545  0.2489  0.2490
 7646SOL    HW234401   4.515   3.429  13.641 -0.6937  2.0167 -2.4729
 7647SOL     OW34402   0.257   1.863   2.646  0.2870  0.0953  0.0017
 7647SOL    HW134403   0.184   1.872   2.585 -0.5408 -1.0480  0.8235
 7647SOL    HW234404   0.267   1.952   2.681  1.5562 -0.0790  0.0721
 7648SOL     OW34405   2.253   1.949  12.905  0.0506 -0.1972  0.8024
 7648SOL    HW134406   2.238   1.871  12.958  2.6222 -1.5781 -0.4770
 7648SOL    HW234407   2.162   1.975  12.891  0.3644 -0.2911 -1.5134
 7649SOL     OW34408   2.066   2.566   9.387  0.6255 -0.4279 -0.3442
 7649SOL    HW134409   2.000   2.635   9.391 -1.8407 -2.7887  0.0085
 7649SOL    HW234410   2.014   2.492   9.355  1.1739  0.0926 -2.4029
 7650SOL     OW34411   2.431   2.730   7.151  0.4195 -0.4463 -0.5082
 7650SOL    HW134412   2.338   2.751   7.137  0.2757 -0.1904  0.8702
 7650SOL    HW234413   2.434   2.639   7.124  0.0977 -0.2536 -1.2186
 7651SOL     OW34414   3.066   0.529  14.699 -0.0997  0.6218 -0.1997
 7651SOL    HW134415   2.983   0.518  14.652  0.9979  0.5775 -2.1505
 7651SOL    HW234416   3.103   0.605  14.654 -0.6839  0.7987 -0.3776
 7652SOL     OW34417   3.383   3.290   6.984  0.3644  0.0441 -0.0278
 7652SOL    HW134418   3.290   3.279   7.000  0.2696  0.8787  0.0154
 7652SOL    HW234419   3.393   3.326   6.896 -0.1673  1.2170  0.3930
 7653SOL     OW34420   1.240   4.467   2.443  0.1898 -0.3540 -0.0003
 7653SOL    HW134421   1.262   4.383   2.483  0.7495  0.5310  1.5373
 7653SOL    HW234422   1.218   4.516   2.522  0.7769  1.6027 -1.0643
 7654SOL     OW34423   3.041   3.157   7.388 -0.1633 -0.2838  0.0320
 7654SOL    HW134424   3.103   3.117   7.327 -1.7071 -0.8081 -1.1731
 7654SOL    HW234425   2.964   3.138   7.335 -0.0253  0.4325 -0.4190
 7655SOL     OW34426   1.318   3.592  17.242 -0.6830  0.0647  0.4155
 7655SOL    HW134427   1.372   3.613  17.166 -2.0764  0.1484 -0.5306
 7655SOL    HW234428   1.250   3.659  17.232 -0.4900  0.3050  0.6950
 7656SOL     OW34429   1.391   4.033   2.025 -0.6427  0.4482 -0.3567
 7656SOL    HW134430   1.401   4.123   1.995  0.2013  0.3365 -0.3967
 7656SOL    HW234431   1.382   3.987   1.942 -1.4304 -1.4697  0.7957
 7657SOL     OW34432   2.379   0.666   0.173 -0.4898  0.2932  0.2003
 7657SOL    HW134433   2.449   0.600   0.179 -2.9908 -2.2441  1.4779
 7657SOL    HW234434   2.400   0.726   0.245  2.3438 -1.7885  1.1214
 7658SOL     OW34435   0.357   0.058  16.586 -0.6667  0.5390  0.2230
 7658SOL    HW134436   0.441   0.063  16.632 -0.1784  0.0086 -0.6361
 7658SOL    HW234437   0.305   0.065  16.667 -0.2640 -3.2738  0.7727
 7659SOL     OW34438   3.953   3.778   8.810 -0.1744 -0.1624  0.2251
 7659SOL    HW134439   3.877   3.778   8.752 -0.3158 -0.1183  0.4132
 7659SOL    HW234440   3.922   3.721   8.880  0.5712 -0.1957  0.5233
 7660SOL     OW34441   0.582   3.882   1.874 -0.0732 -0.4838  0.5422
 7660SOL    HW134442   0.556   3.963   1.918  0.0080 -0.4732  0.5712
 7660SOL    HW234443   0.627   3.841   1.947 -0.1678 -3.1551 -0.8970
 7661SOL     OW34444   3.226   3.013   7.954  0.0667  0.3647 -0.1429
 7661SOL    HW134445   3.183   3.058   8.027 -0.3583  0.0882 -0.2277
 7661SOL    HW234446   3.157   2.957   7.920  1.0593 -1.0957  0.2538
 7662SOL     OW34447   4.572   3.328   1.764 -0.0757 -0.1019  0.0964
 7662SOL    HW134448   4.533   3.264   1.824 -2.3441 -1.7818 -3.1827
 7662SOL    HW234449   4.587   3.285   1.680 -0.2105  0.3928 -0.1854
 7663SOL     OW34450   2.982   4.438  13.842 -0.7916  0.6052 -0.0447
 7663SOL    HW134451   3.028   4.357  13.864 -1.1197  0.4266 -0.0186
 7663SOL    HW234452   2.932   4.446  13.923 -1.1720 -1.6682 -0.0615
 7664SOL     OW34453   1.741   3.402  17.487 -0.2247  0.3776 -0.2799
 7664SOL    HW134454   1.684   3.466  17.446  0.9335  1.5360 -0.0866
 7664SOL    HW234455   1.813   3.405  17.425  0.5820 -0.3490  0.6086
 7665SOL     OW34456   4.250   0.349  11.325  0.2527  0.7649  0.4136
 7665SOL    HW134457   4.311   0.294  11.373  1.0959  0.0169 -1.5162
 7665SOL    HW234458   4.262   0.431  11.373  4.3574  1.2565 -1.4204
 7666SOL     OW34459   3.593   0.292   5.239  0.3096  0.1140 -0.4324
 7666SOL    HW134460   3.507   0.255   5.218 -0.2491  0.8465  0.5858
 7666SOL    HW234461   3.593   0.282   5.334 -0.5982  0.1010 -0.4352
 7667SOL     OW34462   2.230   4.262   4.831 -0.7260  0.0203  0.4146
 7667SOL    HW134463   2.213   4.284   4.739  2.1667  2.5032  0.4636
 7667SOL    HW234464   2.325   4.275   4.839 -0.4247 -1.2280 -1.1155
 7668SOL     OW34465   2.026   2.983  13.056 -0.6709 -0.2492 -0.3684
 7668SOL    HW134466   2.100   3.003  12.999 -0.8102  3.0464  0.5939
 7668SOL    HW234467   2.041   3.030  13.138  1.7270  1.4610 -1.8046
 7669SOL     OW34468   1.942   4.089   3.176 -0.2130 -0.3300  0.3671
 7669SOL    HW134469   2.008   4.022   3.155 -1.3798 -0.6635 -2.1159
 7669SOL    HW234470   1.989   4.133   3.248  0.0294 -0.6040  0.3774
 7670SOL     OW34471   0.976   3.802   6.219  0.2754 -0.6355 -0.8369
 7670SOL    HW134472   0.944   3.756   6.297  0.1736 -0.6080 -0.8629
 7670SOL    HW234473   0.957   3.887   6.257  2.0655 -0.8008  0.4427
 7671SOL     OW34474   3.936   2.489  10.790 -0.1427 -0.6880  0.1790
 7671SOL    HW134475   3.864   2.540  10.754  1.6266  0.4913 -1.6839
 7671SOL    HW234476   3.953   2.538  10.871 -1.0274  0.5682 -0.3933
 7672SOL     OW34477   2.003   0.961  13.467  0.2337  0.4131 -0.1706
 7672SOL    HW134478   2.037   1.021  13.401 -0.0887 -0.5270 -1.1984
 7672SOL    HW234479   1.977   1.019  13.538 -0.9191 -0.2334 -0.0698
 7673SOL     OW34480   2.282   3.457  11.587 -0.3874  0.4829  0.0813
 7673SOL    HW134481   2.266   3.403  11.665  1.0072 -0.3807 -0.2395
 7673SOL    HW234482   2.307   3.539  11.630  1.0008 -0.0677  0.3274
 7674SOL     OW34483   0.995   0.642   8.704 -0.1947  0.3977 -0.1930
 7674SOL    HW134484   1.015   0.614   8.794 -0.5551 -0.1599 -0.2889
 7674SOL    HW234485   0.904   0.611   8.711 -0.1477  0.0478 -1.2732
 7675SOL     OW34486   2.924   0.898   0.409  0.5981 -0.1456  0.4967
 7675SOL    HW134487   2.969   0.830   0.460  0.1106 -0.5557  0.3742
 7675SOL    HW234488   2.937   0.859   0.322 -1.5040  0.6973 -0.1970
 7676SOL     OW34489   1.799   2.830   4.416 -0.4502  0.0115 -0.7698
 7676SOL    HW134490   1.816   2.916   4.455  1.0742 -1.2829  1.3639
 7676SOL    HW234491   1.845   2.772   4.475 -0.6371 -0.7850 -1.4044
 7677SOL     OW34492   3.388   1.459   0.983 -0.5681 -0.4965  0.5887
 7677SOL    HW134493   3.310   1.481   0.933 -1.0396 -1.2565  0.9824
 7677SOL    HW234494   3.359   1.428   1.069  1.4530  2.9074  2.5050
 7678SOL     OW34495   3.007   3.761  16.637  0.6175 -0.9950 -0.6010
 7678SOL    HW134496   2.991   3.713  16.719 -1.9496  0.5956 -0.2041
 7678SOL    HW234497   3.014   3.687  16.577  0.9897 -1.0560 -0.4824
 7679SOL     OW34498   2.528   1.547   6.286  0.1610  0.1930 -0.3966
 7679SOL    HW134499   2.589   1.622   6.284 -1.4692  1.4738 -1.7961
 7679SOL    HW234500   2.465   1.598   6.235 -2.9925 -1.4830  1.8413
 7680SOL     OW34501   4.672   3.141   1.569  0.3078  0.1214 -0.0157
 7680SOL    HW134502   4.656   3.112   1.480  1.1591 -2.7354  0.7639
 7680SOL    HW234503   4.613   3.083   1.617  0.4923 -2.7078 -3.2011
 7681SOL     OW34504   2.926   2.413   3.663  0.4340 -0.1521  0.3477
 7681SOL    HW134505   2.986   2.372   3.601  0.1124 -0.0966  0.0032
 7681SOL    HW234506   2.963   2.501   3.661 -0.1424  0.0622 -0.9166
 7682SOL     OW34507   0.953   0.197   8.750 -0.1595 -0.0488  0.3939
 7682SOL    HW134508   0.966   0.102   8.752 -2.3010 -0.3210  1.6853
 7682SOL    HW234509   1.029   0.237   8.708 -0.3454 -0.8833 -0.7151
 7683SOL     OW34510   0.628   3.590   5.966  0.5013 -0.2748  0.8029
 7683SOL    HW134511   0.720   3.607   5.986  1.5286 -2.0402 -2.3763
 7683SOL    HW234512   0.630   3.609   5.873  0.6720  1.7288  1.2215
 7684SOL     OW34513   2.496   1.498  17.663 -0.3288  0.2450 -0.2827
 7684SOL    HW134514   2.534   1.493   0.069 -0.5299  1.7074 -0.1244
 7684SOL    HW234515   2.432   1.427  17.665 -0.2741  0.1884 -0.6189
 7685SOL     OW34516   0.585   0.251   5.391 -0.3380 -0.0151 -0.0811
 7685SOL    HW134517   0.617   0.186   5.329 -0.5312  2.1839 -2.4990
 7685SOL    HW234518   0.530   0.308   5.337  0.0835 -1.0137 -1.5646
 7686SOL     OW34519   0.643   0.839   7.100 -0.0664  0.2867  0.2204
 7686SOL    HW134520   0.697   0.917   7.091 -0.7950  0.6991 -0.5642
 7686SOL    HW234521   0.619   0.809   7.012 -2.2519 -0.3574  1.0099
 7687SOL     OW34522   1.514   0.374  12.272 -0.1840 -0.7731  0.2893
 7687SOL    HW134523   1.592   0.417  12.305 -1.1649 -0.5284  2.2866
 7687SOL    HW234524   1.554   0.297  12.231 -1.0234 -1.5323  0.8891
 7688SOL     OW34525   1.790   1.249   6.181  0.0555 -0.4225  0.0051
 7688SOL    HW134526   1.848   1.288   6.247  0.2843 -0.5241 -0.1340
 7688SOL    HW234527   1.708   1.285   6.216 -0.2878  0.1282 -1.3285
 7689SOL     OW34528   1.977   1.384   8.455  0.4032 -0.4926 -0.1897
 7689SOL    HW134529   2.049   1.322   8.468  0.1820 -0.5314  0.8739
 7689SOL    HW234530   2.029   1.460   8.431  1.0731 -0.9610 -0.2351
 7690SOL     OW34531   1.973   2.625  16.143  0.0560  0.3161 -0.7045
 7690SOL    HW134532   1.895   2.647  16.091 -0.1225 -1.3091 -1.0982
 7690SOL    HW234533   1.997   2.541  16.104  5.3921  1.4046  0.2591
 7691SOL     OW34534   2.236   0.138  15.270  0.0370 -0.1831  0.1695
 7691SOL    HW134535   2.229   0.139  15.366 -0.1486  2.4064  0.1403
 7691SOL    HW234536   2.190   0.058  15.244  0.2689 -0.2565 -0.0100
 7692SOL     OW34537   0.599   3.163  10.546 -0.0943  0.0147 -0.8711
 7692SOL    HW134538   0.578   3.243  10.593  1.8152 -0.4604  0.8124
 7692SOL    HW234539   0.518   3.140  10.502 -0.5961  0.7822 -0.3431
 7693SOL     OW34540   0.500   0.568   9.483  0.1339 -0.1833 -0.4229
 7693SOL    HW134541   0.420   0.617   9.465  0.2948  0.2566  0.0294
 7693SOL    HW234542   0.522   0.598   9.572  0.4677  1.0502 -0.9161
 7694SOL     OW34543   2.087   2.624   3.761 -0.0577  0.1404 -0.8476
 7694SOL    HW134544   2.158   2.638   3.824 -1.6941  1.4128  0.7352
 7694SOL    HW234545   2.031   2.696   3.788  1.3203  0.2193  1.8206
 7695SOL     OW34546   4.053   2.775   7.534  0.1344  0.2016  0.1774
 7695SOL    HW134547   4.092   2.695   7.568  0.0120  0.6357  1.3348
 7695SOL    HW234548   4.113   2.767   7.460  0.7481  1.6543  0.5209
 7696SOL     OW34549   2.907   4.270  15.492 -0.3378 -0.2212  0.4543
 7696SOL    HW134550   2.849   4.253  15.567 -0.2583 -3.6482 -0.2557
 7696SOL    HW234551   2.945   4.182  15.484 -1.0004 -0.5849  1.3073
 7697SOL     OW34552   2.817   0.780   6.474  0.0225  0.1913  0.2451
 7697SOL    HW134553   2.806   0.861   6.524 -0.5666 -0.4285  1.1115
 7697SOL    HW234554   2.887   0.747   6.531  1.5305  0.6037 -1.3771
 7698SOL     OW34555   4.041   3.674   1.794  0.1123 -0.2473 -0.6025
 7698SOL    HW134556   3.954   3.683   1.755 -0.8587 -0.5006  1.5477
 7698SOL    HW234557   4.084   3.755   1.766 -1.7969  1.3368  1.0495
 7699SOL     OW34558   4.211   1.657   7.983  0.4683 -0.5749 -0.0027
 7699SOL    HW134559   4.151   1.727   7.957  0.5280 -1.3316 -2.1786
 7699SOL    HW234560   4.238   1.698   8.065  2.5072 -0.5176 -0.7193
 7700SOL     OW34561   1.149   1.541   8.230  0.3382 -0.0158 -0.1581
 7700SOL    HW134562   1.177   1.633   8.222  1.3631 -0.1608  1.7784
 7700SOL    HW234563   1.076   1.565   8.287  0.5466 -0.0978  0.1440
 7701SOL     OW34564   1.962   3.980  14.026  0.7184  0.5560  0.3815
 7701SOL    HW134565   1.943   4.025  13.943  0.7314  0.1700  0.1681
 7701SOL    HW234566   2.033   3.921  13.999 -0.9439 -0.8240 -0.9992
 7702SOL     OW34567   1.701   4.602  10.358 -0.5772  0.4512  0.0287
 7702SOL    HW134568   1.667   4.614  10.447  1.5986  1.4222  0.7166
 7702SOL    HW234569   1.794   4.606  10.381 -0.9283 -1.0960  1.7425
 7703SOL     OW34570   0.586   3.555  16.538  0.1827  0.1072 -0.1260
 7703SOL    HW134571   0.539   3.635  16.515 -0.0045 -0.4872 -1.7894
 7703SOL    HW234572   0.548   3.486  16.483  0.4927 -1.1448  1.2219
 7704SOL     OW34573   1.473   2.011   8.589  0.6909  0.0779  0.5845
 7704SOL    HW134574   1.415   1.976   8.522  2.0408  0.2871 -0.7033
 7704SOL    HW234575   1.537   2.047   8.527 -0.8259  0.9946 -0.4570
 7705SOL     OW34576   3.976   3.517   1.198  0.4031  0.5617  0.0897
 7705SOL    HW134577   3.964   3.435   1.151 -0.4088  0.7134  0.0376
 7705SOL    HW234578   4.052   3.547   1.148 -2.1117  0.8366 -3.5472
 7706SOL     OW34579   4.629   2.238  16.364  0.4484  0.1440 -0.2042
 7706SOL    HW134580   4.580   2.307  16.409  0.9134  0.1399  0.3211
 7706SOL    HW234581   4.574   2.217  16.289 -1.4828  0.7041  1.0486
 7707SOL     OW34582   0.466   4.257   5.713  0.0343 -0.2357 -0.5892
 7707SOL    HW134583   0.379   4.284   5.744  0.8988 -1.4901  2.9365
 7707SOL    HW234584   0.455   4.253   5.618 -2.9347 -2.8227 -0.1556
 7708SOL     OW34585   3.520   3.778   2.213 -0.0287  0.0616  0.0580
 7708SOL    HW134586   3.464   3.820   2.149 -1.0332 -2.0811 -0.4532
 7708SOL    HW234587   3.530   3.850   2.275  0.5321 -1.5414  1.8397
 7709SOL     OW34588   3.274   2.842  15.773  0.2168  0.1413  0.8273
 7709SOL    HW134589   3.200   2.784  15.786  0.8795 -0.8246  0.3000
 7709SOL    HW234590   3.349   2.783  15.784  0.9391  0.6889 -1.0382
 7710SOL     OW34591   1.556   4.699   6.368  0.2758  0.2714 -0.4969
 7710SOL    HW134592   1.616   4.633   6.402  0.9317  1.0262 -0.2116
 7710SOL    HW234593   1.605   0.058   6.389  1.0524 -0.0541 -1.1241
 7711SOL     OW34594   2.443   4.357   4.297 -0.5440  0.5657  0.6311
 7711SOL    HW134595   2.509   4.340   4.365 -1.2570  0.5555  1.3236
 7711SOL    HW234596   2.405   4.270   4.285 -1.6284  1.2149 -0.6592
 7712SOL     OW34597   2.312   3.643  17.591  0.2517 -0.6153 -0.2071
 7712SOL    HW134598   2.229   3.617  17.551  0.6096  1.8084 -2.5372
 7712SOL    HW234599   2.324   3.721  17.536  1.7866 -0.7492 -0.0688
 7713SOL     OW34600   1.969   3.140   6.793 -0.0167  0.1737  0.0475
 7713SOL    HW134601   1.975   3.187   6.710  2.2913 -0.4833 -0.1535
 7713SOL    HW234602   2.062   3.119   6.805 -0.1285 -0.8666 -0.9674
 7714SOL     OW34603   0.515   2.162   3.902  0.4416 -0.4905  0.0342
 7714SOL    HW134604   0.482   2.235   3.850  0.6448  0.1600  0.8163
 7714SOL    HW234605   0.541   2.101   3.833  0.6786 -0.6455  0.2559
 7715SOL     OW34606   3.674   1.435   4.709  0.3713  0.1765 -0.2551
 7715SOL    HW134607   3.673   1.529   4.726  1.1576  0.3387 -1.0737
 7715SOL    HW234608   3.614   1.431   4.634  0.6331  1.0522 -0.5145
 7716SOL     OW34609   1.425   1.666   3.557 -0.6492  0.0244  0.0765
 7716SOL    HW134610   1.355   1.621   3.511 -0.8877  1.9832 -1.4947
 7716SOL    HW234611   1.503   1.623   3.524 -0.3554  1.0509 -0.5869
 7717SOL     OW34612   3.670   0.343   6.669  0.1079 -0.3339  0.6450
 7717SOL    HW134613   3.594   0.344   6.728 -0.1464 -1.2738  0.3382
 7717SOL    HW234614   3.626   0.306   6.592 -0.5804  2.4391 -0.2857
 7718SOL     OW34615   3.560   4.717   5.645 -0.4027 -0.1770 -0.0442
 7718SOL    HW134616   3.513   0.060   5.591 -0.1261 -1.6078 -1.9142
 7718SOL    HW234617   3.612   4.678   5.575  1.3262 -0.4696  1.3848
 7719SOL     OW34618   3.542   2.178   8.696 -0.3942  0.6482  0.1550
 7719SOL    HW134619   3.510   2.222   8.774 -0.5471  1.5758 -0.4277
 7719SOL    HW234620   3.623   2.131   8.718 -0.5947  0.2291 -0.0091
 7720SOL     OW34621   3.448   2.059  12.139  0.3255 -0.2933  0.0431
 7720SOL    HW134622   3.520   2.120  12.151  0.5375 -0.6476  0.5417
 7720SOL    HW234623   3.376   2.121  12.150  0.2372  0.1788 -2.9742
 7721SOL     OW34624   1.153   3.077   2.686 -0.0517  0.0573  0.0004
 7721SOL    HW134625   1.240   3.040   2.701  0.4419  0.5650 -1.6415
 7721SOL    HW234626   1.178   3.167   2.664 -0.6049  0.4341  0.8920
 7722SOL     OW34627   1.061   0.603  16.218 -0.0898 -0.3030 -0.4473
 7722SOL    HW134628   1.007   0.608  16.297 -0.2898 -1.9769 -0.4807
 7722SOL    HW234629   1.071   0.508  16.210  1.8992 -0.1916  0.7202
 7723SOL     OW34630   3.199   1.441   4.731 -0.4834  0.0713 -0.1777
 7723SOL    HW134631   3.249   1.510   4.688 -0.1265 -0.4329 -0.5822
 7723SOL    HW234632   3.242   1.458   4.815 -1.2671  2.2395 -0.2389
 7724SOL     OW34633   0.912   0.207   3.884 -0.5366 -0.0514  0.2122
 7724SOL    HW134634   0.853   0.241   3.816 -1.8621 -0.2399  1.2715
 7724SOL    HW234635   0.896   0.113   3.875 -2.2203  0.3226 -0.9014
 7725SOL     OW34636   0.734   4.326   3.724 -0.2625  0.2871 -0.5127
 7725SOL    HW134637   0.653   4.363   3.688 -1.4293  0.4878  2.2912
 7725SOL    HW234638   0.798   4.344   3.655  0.5505 -0.1542  0.1329
 7726SOL     OW34639   2.890   1.035   6.239  1.0468 -0.3130 -0.5173
 7726SOL    HW134640   2.876   0.941   6.238  0.0519 -0.1718 -0.4529
 7726SOL    HW234641   2.809   1.077   6.210  0.6728 -1.6578 -1.3958
 7727SOL     OW34642   1.916   0.292  16.420 -0.0659  0.5701  0.3751
 7727SOL    HW134643   1.951   0.242  16.494  0.7687  2.7094  1.3952
 7727SOL    HW234644   1.942   0.230  16.351 -1.9558  0.7655 -0.5208
 7728SOL     OW34645   4.325   2.938   1.106  0.1511  0.1782 -0.5932
 7728SOL    HW134646   4.378   2.999   1.054  0.0817  0.5200 -0.2593
 7728SOL    HW234647   4.391   2.905   1.167 -1.0766 -0.0993  0.5611
 7729SOL     OW34648   2.138   1.760   9.819 -0.5325 -0.1847  0.3342
 7729SOL    HW134649   2.123   1.677   9.773  0.5835  0.0952 -0.5593
 7729SOL    HW234650   2.135   1.723   9.907 -3.0366 -0.2074  0.2382
 7730SOL     OW34651   0.178   3.181   4.577  0.7429 -0.0910 -0.4633
 7730SOL    HW134652   0.146   3.264   4.611  1.0645 -1.1831  2.4989
 7730SOL    HW234653   0.169   3.204   4.484 -0.3426 -3.9475 -1.3402
 7731SOL     OW34654   2.222   3.416   3.721 -0.0999 -0.2890 -0.1211
 7731SOL    HW134655   2.271   3.466   3.786  0.6861 -1.5493  0.2550
 7731SOL    HW234656   2.258   3.454   3.641 -0.2367  1.1076  0.4763
 7732SOL     OW34657   3.115   2.307   6.690  0.4221  0.1164 -0.1880
 7732SOL    HW134658   3.109   2.333   6.782  0.9544 -0.1853 -0.0672
 7732SOL    HW234659   3.137   2.391   6.651  0.7697 -1.0613 -2.5173
 7733SOL     OW34660   0.547   2.809   9.793  0.2420 -0.4620  1.1002
 7733SOL    HW134661   0.466   2.761   9.778  0.5536 -0.6490  0.0311
 7733SOL    HW234662   0.599   2.748   9.740 -1.9808 -0.5327 -0.9661
 7734SOL     OW34663   0.799   0.304   5.836 -0.3820  0.6676  0.4320
 7734SOL    HW134664   0.880   0.312   5.886  1.1453 -1.1587 -1.7393
 7734SOL    HW234665   0.759   0.219   5.857  0.3733 -0.5542 -2.9413
 7735SOL     OW34666   3.950   0.703   3.385 -0.2164  0.0149  0.3181
 7735SOL    HW134667   4.018   0.699   3.452  0.3941 -2.4724 -0.4431
 7735SOL    HW234668   3.873   0.675   3.434 -0.3086  0.9976  0.7376
 7736SOL     OW34669   3.726   0.374   7.665  0.2413  0.7713 -0.2571
 7736SOL    HW134670   3.737   0.279   7.674  1.3883  0.9080 -0.1933
 7736SOL    HW234671   3.809   0.406   7.700  0.1458 -1.6364  2.0982
 7737SOL     OW34672   1.086   2.472   0.496  0.2391  0.0064  0.0914
 7737SOL    HW134673   1.082   2.547   0.555 -0.4534  0.4416 -0.5198
 7737SOL    HW234674   1.027   2.412   0.541 -0.7969  1.6989  0.9879
 7738SOL     OW34675   2.147   1.424  15.817  0.9469  0.6086 -0.1176
 7738SOL    HW134676   2.185   1.493  15.871  2.1569 -0.2531  0.1200
 7738SOL    HW234677   2.055   1.450  15.824  0.9568  0.7348 -0.4445
 7739SOL     OW34678   1.781   2.021  15.632  0.1887  0.3725  0.4739
 7739SOL    HW134679   1.686   2.027  15.639  0.2167 -0.3403  1.4870
 7739SOL    HW234680   1.804   2.004  15.540 -1.9734 -0.3009  0.0783
 7740SOL     OW34681   3.163   2.332  16.234 -0.9044  0.3421  0.0925
 7740SOL    HW134682   3.094   2.266  16.235 -1.9563  1.4587  0.8584
 7740SOL    HW234683   3.176   2.348  16.140 -0.9008  0.6311  0.1402
 7741SOL     OW34684   1.591   1.154   5.145  0.4871 -0.1232  0.9749
 7741SOL    HW134685   1.593   1.163   5.050  2.8757 -1.2057  0.9147
 7741SOL    HW234686   1.674   1.190   5.178  1.3900 -0.4256 -0.9511
 7742SOL     OW34687   2.368   3.479   3.504  0.1230 -0.4276  0.3412
 7742SOL    HW134688   2.412   3.564   3.497  2.0181 -1.4703 -0.0837
 7742SOL    HW234689   2.429   3.434   3.562 -0.2954 -2.7772 -1.0780
 7743SOL     OW34690   2.056   4.118   7.227  0.3959  0.2167  0.3572
 7743SOL    HW134691   1.982   4.148   7.280 -0.4212 -1.5725  0.2337
 7743SOL    HW234692   2.130   4.167   7.263  0.0051 -0.7121  2.3828
 7744SOL     OW34693   3.439   4.525   3.448 -0.3116 -0.0766  0.5651
 7744SOL    HW134694   3.502   4.573   3.394 -0.3964 -0.2682  0.2910
 7744SOL    HW234695   3.356   4.564   3.420 -1.1558 -1.0818  1.6800
 7745SOL     OW34696   0.205   2.968  13.673 -0.1810  0.4642 -0.4366
 7745SOL    HW134697   0.298   2.986  13.690  0.0111  1.4340 -2.4800
 7745SOL    HW234698   0.176   3.013  13.753 -0.5647 -2.0792  0.8643
 7746SOL     OW34699   1.086   2.364  14.560 -0.4111 -0.1238 -0.1414
 7746SOL    HW134700   0.990   2.359  14.558 -0.5013  1.3226  0.7711
 7746SOL    HW234701   1.105   2.274  14.587 -2.8403  0.3855  3.2637
 7747SOL     OW34702   3.058   3.582   0.082  0.1263 -0.0677 -0.3244
 7747SOL    HW134703   2.969   3.585   0.116  0.0952 -1.9383 -0.2420
 7747SOL    HW234704   3.088   3.501   0.123 -2.3925 -1.4946 -1.3446
 7748SOL     OW34705   2.770   3.784   0.329 -0.5470 -0.6437  0.2115
 7748SOL    HW134706   2.742   3.854   0.270  2.2393 -0.0070 -0.4072
 7748SOL    HW234707   2.772   3.818   0.418 -0.2949 -0.5558  0.1734
 7749SOL     OW34708   2.714   4.222   7.280 -0.0956 -0.0878 -0.6070
 7749SOL    HW134709   2.627   4.189   7.259 -0.6270  1.0888 -0.2544
 7749SOL    HW234710   2.768   4.186   7.210 -1.2782 -1.8400 -0.6140
 7750SOL     OW34711   3.936   1.094   4.357 -0.3773 -0.3853 -0.1678
 7750SOL    HW134712   3.871   1.048   4.409  0.6210  0.8958  2.1902
 7750SOL    HW234713   3.986   1.142   4.423 -0.2918 -2.2923  1.1219
 7751SOL     OW34714   1.671   2.035   2.293 -0.0273  0.4197 -0.1984
 7751SOL    HW134715   1.650   2.015   2.385  1.2671  1.2175  0.2676
 7751SOL    HW234716   1.758   1.995   2.296 -0.3717 -0.4354 -1.5619
 7752SOL     OW34717   3.827   2.204   4.858 -0.1254 -0.2130 -1.0942
 7752SOL    HW134718   3.856   2.283   4.904 -0.1958 -0.7018 -0.1932
 7752SOL    HW234719   3.813   2.142   4.930 -2.7352 -2.0144 -3.1746
 7753SOL     OW34720   2.991   1.052   8.713 -0.3756 -0.0428 -0.1814
 7753SOL    HW134721   2.985   1.111   8.788  1.4829 -0.1616  0.0687
 7753SOL    HW234722   2.906   1.009   8.711 -0.8785  0.9511  0.1696
 7754SOL     OW34723   4.211   3.315  12.769  0.1968 -0.3052  0.0370
 7754SOL    HW134724   4.226   3.408  12.752  1.8838 -0.6290 -0.2216
 7754SOL    HW234725   4.301   3.283  12.758  0.7179  0.8322  1.0654
 7755SOL     OW34726   2.335   2.571  16.619 -0.3208 -0.0369  0.3325
 7755SOL    HW134727   2.249   2.551  16.655  0.6786 -0.6897  2.3885
 7755SOL    HW234728   2.320   2.554  16.526 -1.3000  3.1875 -0.0746
 7756SOL     OW34729   3.397   1.459  16.028 -0.6556  0.3831 -0.8750
 7756SOL    HW134730   3.471   1.410  15.991 -0.1168  0.3897  0.1875
 7756SOL    HW234731   3.351   1.473  15.945 -0.1162 -0.0887 -1.2606
 7757SOL     OW34732   3.768   1.466  13.935  0.3079 -0.3873  0.2948
 7757SOL    HW134733   3.857   1.486  13.966 -0.3710  2.3021  0.5756
 7757SOL    HW234734   3.746   1.556  13.911  2.3355  0.1677  0.5114
 7758SOL     OW34735   2.512   1.398   2.729  0.1997  0.1949 -0.0787
 7758SOL    HW134736   2.603   1.417   2.706 -0.0274  0.1322 -1.0317
 7758SOL    HW234737   2.491   1.447   2.809  2.3037 -0.0916  0.6578
 7759SOL     OW34738   1.876   2.301  11.337  0.3684  0.2617  0.8009
 7759SOL    HW134739   1.782   2.303  11.350  0.0137 -1.2200 -1.4698
 7759SOL    HW234740   1.876   2.252  11.254  0.5221 -0.4755  1.2322
 7760SOL     OW34741   2.792   4.006   8.777 -0.3777  0.5672 -0.4432
 7760SOL    HW134742   2.827   4.094   8.792 -0.4957  0.6080 -0.4069
 7760SOL    HW234743   2.728   4.000   8.848 -0.1438 -0.9215 -0.3763
 7761SOL     OW34744   2.957   1.639   5.014  0.5278  0.5319  0.1641
 7761SOL    HW134745   3.000   1.570   4.964 -1.2045 -0.3375 -0.1196
 7761SOL    HW234746   2.963   1.613   5.106  1.9675  0.2154 -0.0198
 7762SOL     OW34747   1.634   4.555   0.177 -0.1375 -0.1715 -0.0435
 7762SOL    HW134748   1.639   4.587   0.267  1.0817 -1.8556  0.4839
 7762SOL    HW234749   1.604   4.638   0.141  0.0439 -0.8752 -1.8145
 7763SOL     OW34750   2.608   1.558   8.196  0.4495 -0.4219 -0.4432
 7763SOL    HW134751   2.675   1.617   8.231  0.7920 -0.2678 -1.3577
 7763SOL    HW234752   2.660   1.495   8.147  1.8721  1.5166 -1.4239
 7764SOL     OW34753   2.541   4.464   3.104  0.0823  0.0833 -0.7444
 7764SOL    HW134754   2.583   4.407   3.168  1.7508  2.1700  0.0291
 7764SOL    HW234755   2.532   4.547   3.152 -1.1546 -0.2224 -0.4405
 7765SOL     OW34756   2.453   2.280  13.953  0.0374  0.0842  0.2376
 7765SOL    HW134757   2.450   2.193  13.993  2.9529  0.0290  0.3283
 7765SOL    HW234758   2.548   2.285  13.955  0.1273 -0.8321 -1.3901
 7766SOL     OW34759   3.409   2.482   5.399  0.5560 -0.3487 -0.4392
 7766SOL    HW134760   3.426   2.466   5.306 -0.3126  0.9053 -0.8202
 7766SOL    HW234761   3.321   2.447   5.406  1.0225 -1.1650  1.3112
 7767SOL     OW34762   2.550   2.360   2.673  0.4867  0.0781  0.0941
 7767SOL    HW134763   2.612   2.302   2.716  0.2965 -1.2850 -1.5177
 7767SOL    HW234764   2.472   2.308   2.657 -2.1720  3.5819  1.5198
 7768SOL     OW34765   4.675   4.570   4.703 -0.2329 -0.0126 -0.0271
 7768SOL    HW134766   0.020   4.577   4.773 -0.7536  0.3125  0.4210
 7768SOL    HW234767   4.698   4.482   4.674 -3.0879 -0.8979  0.3550
 7769SOL     OW34768   4.708   4.665  12.452  0.1361 -1.1193  0.4346
 7769SOL    HW134769   4.661   4.641  12.372  1.1928  0.9758 -0.8194
 7769SOL    HW234770   0.061   4.605  12.439  0.7526 -0.4670  0.8345
 7770SOL     OW34771   1.229   3.815   3.531  0.0744 -0.5203  0.5322
 7770SOL    HW134772   1.224   3.880   3.602 -0.8938 -0.0131 -0.0187
 7770SOL    HW234773   1.203   3.873   3.460  0.0343 -0.1694  0.8321
 7771SOL     OW34774   2.944   1.648  13.684 -0.0436  0.3126 -0.2313
 7771SOL    HW134775   3.028   1.688  13.707  0.4655 -0.8896 -0.0217
 7771SOL    HW234776   2.971   1.556  13.683 -0.9174  0.0724 -2.2987
 7772SOL     OW34777   1.563   1.422  11.268  0.9122  0.2978 -0.0597
 7772SOL    HW134778   1.551   1.331  11.240 -1.1123  0.7420 -0.6420
 7772SOL    HW234779   1.478   1.427  11.313  1.2299  0.8008  0.4790
 7773SOL     OW34780   1.225   2.713   3.905 -0.7374 -0.3368  0.8503
 7773SOL    HW134781   1.148   2.698   3.850 -0.9795  1.6306  0.6469
 7773SOL    HW234782   1.212   2.669   3.989  1.9739  0.1475  1.5078
 7774SOL     OW34783   0.293   0.443   7.044  0.0587 -0.6880 -0.4715
 7774SOL    HW134784   0.347   0.456   7.122 -0.6570 -1.3550  0.1332
 7774SOL    HW234785   0.226   0.511   7.041 -0.8573 -1.5841 -0.0908
 7775SOL     OW34786   0.815   2.075   6.419 -0.3355 -0.0882  0.0616
 7775SOL    HW134787   0.781   2.061   6.507  1.2263 -1.6751  0.3998
 7775SOL    HW234788   0.778   2.162   6.401  0.1333  0.3533  1.2679
 7776SOL     OW34789   2.867   4.540   8.015 -0.0960  0.1775 -0.2641
 7776SOL    HW134790   2.861   4.596   8.092  0.4160 -0.9301  0.5762
 7776SOL    HW234791   2.950   4.498   8.038 -1.4932 -0.6996  3.1731
 7777SOL     OW34792   3.631   2.221   0.349  0.3408  0.1277 -0.9551
 7777SOL    HW134793   3.561   2.272   0.390  2.2836  0.9261  1.4189
 7777SOL    HW234794   3.657   2.171   0.427  0.3785 -1.6732 -2.1221
 7778SOL     OW34795   0.548   3.628  14.622  0.3125  0.3791  0.0774
 7778SOL    HW134796   0.642   3.630  14.640  0.4713 -0.0785 -0.7019
 7778SOL    HW234797   0.546   3.665  14.534 -0.8949 -0.1299 -0.1154
 7779SOL     OW34798   0.148   0.012   0.628 -0.3148 -0.1344  0.6234
 7779SOL    HW134799   0.075   4.710   0.686  0.1880  0.2614  1.4091
 7779SOL    HW234800   0.167   4.647   0.588  2.9429  1.4750 -1.2429
 7780SOL     OW34801   2.546   4.184   1.119  0.0241 -0.0427 -0.9349
 7780SOL    HW134802   2.520   4.137   1.198  2.7352 -1.4542 -0.8645
 7780SOL    HW234803   2.616   4.236   1.160 -1.3038  1.3504 -0.4158
 7781SOL     OW34804   2.178   2.837   2.279 -0.1589 -0.0292  0.1255
 7781SOL    HW134805   2.105   2.830   2.340  0.3200 -0.2153  0.6775
 7781SOL    HW234806   2.249   2.789   2.321  0.7387  0.1712 -1.1606
 7782SOL     OW34807   3.419   3.306   5.380  0.3094  0.2446 -0.3791
 7782SOL    HW134808   3.403   3.376   5.317 -0.1985  0.2970 -0.1952
 7782SOL    HW234809   3.338   3.256   5.364 -0.0921 -0.0064  2.4366
 7783SOL     OW34810   1.757   0.937  12.447 -0.6306  0.0807  0.3758
 7783SOL    HW134811   1.670   0.937  12.487 -0.0566 -0.2292  1.6283
 7783SOL    HW234812   1.756   0.994  12.371  1.3301  1.3428  1.2920
 7784SOL     OW34813   3.167   0.514   6.637 -0.2213 -0.2965  0.5668
 7784SOL    HW134814   3.169   0.609   6.630 -1.6519 -0.4551 -1.9063
 7784SOL    HW234815   3.107   0.494   6.709 -1.1363  0.2968 -0.0268
 7785SOL     OW34816   1.787   0.802  15.011 -0.3082 -0.1597 -0.1922
 7785SOL    HW134817   1.698   0.767  15.006 -0.8926  1.6644 -2.5090
 7785SOL    HW234818   1.823   0.768  15.093 -1.1159 -1.9561 -0.5748
 7786SOL     OW34819   4.326   0.182   7.171 -0.4733  0.4538  0.6934
 7786SOL    HW134820   4.372   0.098   7.175 -0.6285  0.3299 -0.2964
 7786SOL    HW234821   4.369   0.223   7.096 -1.0292 -0.9058 -0.3625
 7787SOL     OW34822   1.516   2.045   5.810  0.3871  0.3137 -0.2497
 7787SOL    HW134823   1.497   2.105   5.737  0.1956  0.0104 -0.4478
 7787SOL    HW234824   1.442   1.986   5.793 -0.0355  1.2052 -1.5065
 7788SOL     OW34825   2.286   0.104   2.499 -0.1294 -0.1048  0.0156
 7788SOL    HW134826   2.192   0.093   2.482  0.4700 -1.6309 -2.2062
 7788SOL    HW234827   2.322   0.023   2.463 -0.0048  1.7549 -4.1132
 7789SOL     OW34828   2.531   1.570   1.389 -0.0335  0.1234  0.0019
 7789SOL    HW134829   2.548   1.496   1.447  1.5803  0.6203  0.1566
 7789SOL    HW234830   2.605   1.557   1.329  1.2819  1.3824  1.3544
 7790SOL     OW34831   1.071   3.790   3.032 -0.0995 -0.2319  0.2292
 7790SOL    HW134832   1.098   3.774   2.942  0.0832 -1.5190  0.5011
 7790SOL    HW234833   1.121   3.722   3.078  0.1857  1.8530  3.0536
 7791SOL     OW34834   0.547   1.787   4.660  0.8247 -0.5124 -0.0280
 7791SOL    HW134835   0.452   1.800   4.663  0.4272 -3.8770  2.5031
 7791SOL    HW234836   0.548   1.741   4.744  0.7918 -2.5858 -1.1665
 7792SOL     OW34837   4.407   2.800  17.570  0.4770  0.2556 -0.8485
 7792SOL    HW134838   4.469   2.753  17.515 -0.1183 -1.6343  0.0956
 7792SOL    HW234839   4.425   2.750  17.649  1.4360 -0.4976 -1.5401
 7793SOL     OW34840   4.430   4.539  12.832  0.0300 -0.4135  0.1024
 7793SOL    HW134841   4.347   4.559  12.875  1.3611  2.6407  1.2218
 7793SOL    HW234842   4.487   4.608  12.865 -1.9447  1.0281  0.5278
 7794SOL     OW34843   2.871   1.136  12.483  0.0103 -0.1960 -0.0392
 7794SOL    HW134844   2.796   1.159  12.428 -0.3154  0.5489  0.7142
 7794SOL    HW234845   2.894   1.227  12.504 -1.2429 -0.0030  0.5522
 7795SOL     OW34846   0.212   3.302  13.465 -0.6150  0.6189 -0.2857
 7795SOL    HW134847   0.256   3.368  13.412  0.7368 -1.8179 -2.1956
 7795SOL    HW234848   0.264   3.223  13.452 -1.0710  0.6371 -2.2166
 7796SOL     OW34849   0.948   1.251   9.950 -0.2346  0.3096  0.0650
 7796SOL    HW134850   0.925   1.219  10.037  0.8356  0.3800  0.3740
 7796SOL    HW234851   0.887   1.207   9.891 -0.8777 -1.2792  1.8912
 7797SOL     OW34852   0.264   0.429  17.178  0.6977  0.3692 -0.3204
 7797SOL    HW134853   0.214   0.401  17.102  0.5338  0.3843 -0.2188
 7797SOL    HW234854   0.340   0.373  17.168 -0.3827 -1.3358  1.0927
 7798SOL     OW34855   3.188   2.352   6.990 -0.2863 -0.2822 -0.1732
 7798SOL    HW134856   3.150   2.319   7.071 -1.5676 -1.6592 -1.3308
 7798SOL    HW234857   3.250   2.282   6.970  0.0730 -0.4696  1.5977
 7799SOL     OW34858   3.264   0.490  15.935 -0.0460 -0.0127  0.2516
 7799SOL    HW134859   3.248   0.419  15.998 -1.3269  1.7743  1.9445
 7799SOL    HW234860   3.296   0.443  15.858  0.6818  1.6048 -0.4118
 7800SOL     OW34861   0.553   3.851   7.120 -0.6282  0.4663  0.2566
 7800SOL    HW134862   0.648   3.842   7.112 -0.2239  3.3333  1.6205
 7800SOL    HW234863   0.560   3.946   7.110 -2.5153  0.5899  0.1902
 7801SOL     OW34864   0.641   4.319   4.016 -0.0656  0.2928  0.3739
 7801SOL    HW134865   0.616   4.229   4.034 -2.6000  1.2518  1.6511
 7801SOL    HW234866   0.590   4.337   3.936 -0.3839  0.0689  0.5285
 7802SOL     OW34867   0.132   3.258   4.302  0.6320  0.0788 -0.1055
 7802SOL    HW134868   0.164   3.331   4.249 -2.6005  0.5960 -1.3317
 7802SOL    HW234869   0.154   3.185   4.244  2.9911  1.5215 -1.0097
 7803SOL     OW34870   1.860   1.774   7.248 -0.0389  0.5846  0.3419
 7803SOL    HW134871   1.890   1.861   7.275  1.0063 -0.5241  2.7867
 7803SOL    HW234872   1.768   1.789   7.229  0.4212  1.6487 -1.0510
 7804SOL     OW34873   2.804   1.505   4.318  0.2732 -0.3874  0.5493
 7804SOL    HW134874   2.764   1.488   4.233 -1.0186  0.3934  0.9901
 7804SOL    HW234875   2.762   1.435   4.368  1.5978 -0.8876  0.9607
 7805SOL     OW34876   3.584   0.963   4.364 -0.1404 -0.2039  0.1713
 7805SOL    HW134877   3.672   0.955   4.400  0.7129 -1.2571 -2.2010
 7805SOL    HW234878   3.547   1.043   4.401 -0.7736 -0.0904 -0.7182
 7806SOL     OW34879   4.695   0.614   2.949  0.7926 -0.2538 -0.0480
 7806SOL    HW134880   0.066   0.622   2.980  0.5542 -0.4211  0.6933
 7806SOL    HW234881   4.690   0.519   2.941  0.9767 -0.1585 -1.2411
 7807SOL     OW34882   1.525   1.572  16.325 -0.9035  0.1555  0.5905
 7807SOL    HW134883   1.521   1.525  16.408 -1.0759 -0.8213  0.0309
 7807SOL    HW234884   1.433   1.599  16.327 -0.8175  0.6121 -1.9310
 7808SOL     OW34885   1.042   0.827   1.918 -0.3071 -0.4256 -1.1472
 7808SOL    HW134886   0.961   0.800   1.962  0.3052 -0.1781  0.1602
 7808SOL    HW234887   1.089   0.872   1.989 -0.4595 -2.3668  0.1798
 7809SOL     OW34888   1.630   0.443   4.318 -0.3389 -0.1354 -0.0653
 7809SOL    HW134889   1.667   0.472   4.402 -0.4497 -1.4892  0.4475
 7809SOL    HW234890   1.644   0.529   4.278  2.2299 -0.0968  0.8795
 7810SOL     OW34891   4.371   1.671   3.081 -0.5252  0.0932  0.2272
 7810SOL    HW134892   4.310   1.599   3.066 -0.5145  0.5481 -1.9359
 7810SOL    HW234893   4.317   1.741   3.118 -1.6471 -0.7254  0.1417
 7811SOL     OW34894   2.811   1.472   5.924  0.6989  0.8617 -0.1983
 7811SOL    HW134895   2.887   1.531   5.916  1.9489 -0.5328  1.3900
 7811SOL    HW234896   2.816   1.432   5.837 -0.6517  1.0565 -0.3540
 7812SOL     OW34897   1.997   4.683   8.105 -0.0567  0.4115  0.1872
 7812SOL    HW134898   2.028   0.041   8.152  2.2610 -0.2473 -0.2253
 7812SOL    HW234899   1.920   4.663   8.157 -1.2176  0.8148 -1.3929
 7813SOL     OW34900   3.210   4.140   4.557 -0.0226  0.0899 -0.3496
 7813SOL    HW134901   3.126   4.121   4.516  0.0964  1.2880 -1.1462
 7813SOL    HW234902   3.267   4.189   4.497 -0.2742 -1.7696 -2.1026
 7814SOL     OW34903   4.579   1.507  13.054  0.3694  0.2254  0.0337
 7814SOL    HW134904   4.603   1.599  13.061  1.6785 -0.1340  0.2953
 7814SOL    HW234905   4.492   1.515  13.093  0.1427 -2.1671  0.0321
 7815SOL     OW34906   3.683   3.776   0.785 -0.2239  0.3294  0.0379
 7815SOL    HW134907   3.609   3.828   0.753  0.8255  1.7625 -0.0018
 7815SOL    HW234908   3.645   3.730   0.860  0.5306  0.0130  0.2219
 7816SOL     OW34909   0.569   1.240   9.097  0.4986 -0.2253 -0.6645
 7816SOL    HW134910   0.554   1.269   9.007 -0.7656  1.5133  0.1074
 7816SOL    HW234911   0.504   1.291   9.144  1.6788 -0.9703  1.7652
 7817SOL     OW34912   0.537   2.271  10.834 -0.1468 -0.5895  0.4572
 7817SOL    HW134913   0.604   2.327  10.794  0.4544 -1.9520 -0.4498
 7817SOL    HW234914   0.517   2.202  10.771  0.0878 -1.6208  1.5170
 7818SOL     OW34915   4.618   0.230  13.294  0.1734  0.1246 -0.0061
 7818SOL    HW134916   4.708   0.232  13.324  1.3123 -1.4034 -3.2802
 7818SOL    HW234917   4.580   0.175  13.362 -0.1191  0.7390  0.3372
 7819SOL     OW34918   1.993   0.652   2.843 -0.0034 -0.2197  0.1050
 7819SOL    HW134919   2.067   0.705   2.813  0.0432 -1.7305 -2.3813
 7819SOL    HW234920   2.035   0.581   2.892  0.8604 -0.3319 -0.7971
 7820SOL     OW34921   1.882   3.433  16.702  0.1599  0.0786 -0.3413
 7820SOL    HW134922   1.789   3.453  16.699  0.0134 -0.0217  3.1146
 7820SOL    HW234923   1.925   3.494  16.642 -0.6608 -0.6826 -1.6947
 7821SOL     OW34924   4.265   3.229   9.528 -0.5989 -0.0183  0.6434
 7821SOL    HW134925   4.277   3.317   9.491  1.4040  0.4611  2.3878
 7821SOL    HW234926   4.194   3.250   9.588 -1.5595 -2.9948  0.5495
 7822SOL     OW34927   0.112   0.656   6.942 -0.0374 -0.1987 -0.4580
 7822SOL    HW134928   0.197   0.701   6.943 -0.3728  0.4231  1.0274
 7822SOL    HW234929   0.074   0.708   6.872 -0.3847  0.7315  0.4205
 7823SOL     OW34930   1.191   1.327   4.864  0.2749 -0.0335 -0.6797
 7823SOL    HW134931   1.124   1.395   4.874  0.4272 -0.3872  2.9485
 7823SOL    HW234932   1.267   1.360   4.913  0.2026  2.0329 -1.9414
 7824SOL     OW34933   2.144   2.651   1.156  0.0837  0.2210  0.2800
 7824SOL    HW134934   2.087   2.656   1.080 -0.7324 -0.2877  0.8534
 7824SOL    HW234935   2.115   2.729   1.204  1.3246  0.9290 -0.1377
 7825SOL     OW34936   4.537   3.465  13.298  0.4489  0.0237  0.4000
 7825SOL    HW134937   4.581   3.393  13.253 -1.0635 -1.0853  0.7007
 7825SOL    HW234938   4.599   3.486  13.368 -1.1649 -0.6304  2.0255
 7826SOL     OW34939   0.123   2.907  12.786 -0.1535 -0.8023 -0.4734
 7826SOL    HW134940   0.135   2.813  12.773  0.5936 -1.0356  1.8450
 7826SOL    HW234941   0.188   2.939  12.724 -1.6737  2.1302 -0.5194
 7827SOL     OW34942   0.796   3.932   7.183  0.0693 -0.3104 -0.3039
 7827SOL    HW134943   0.873   3.970   7.139  0.4419 -1.4708 -0.6447
 7827SOL    HW234944   0.756   4.006   7.228  0.0817 -0.3688 -0.1991
 7828SOL     OW34945   2.854   3.765   4.649 -0.1273 -0.2115 -0.4107
 7828SOL    HW134946   2.915   3.719   4.705  0.6565  1.3983  0.0412
 7828SOL    HW234947   2.863   3.854   4.684  0.0438 -0.0269 -0.9195
 7829SOL     OW34948   0.895   4.227   0.530 -0.0278  0.6240  0.3297
 7829SOL    HW134949   0.970   4.237   0.588 -0.0137 -1.0137  0.5820
 7829SOL    HW234950   0.832   4.270   0.588 -0.1417  0.7008  0.1494
 7830SOL     OW34951   0.012   0.699  10.769 -0.1130  0.2462 -0.2868
 7830SOL    HW134952   4.688   0.704  10.684 -2.0227 -0.1168  0.6677
 7830SOL    HW234953   4.664   0.710  10.837 -0.5092  0.0851 -0.6579
 7831SOL     OW34954   1.852   1.187   1.021 -0.4092  0.0043  0.8009
 7831SOL    HW134955   1.840   1.189   1.116 -2.0333  0.8055  0.5810
 7831SOL    HW234956   1.825   1.277   1.000 -3.2911 -0.3473  3.0515
 7832SOL     OW34957   3.226   2.461  10.834  0.1500 -0.1350 -0.5353
 7832SOL    HW134958   3.142   2.466  10.788 -0.3364 -1.7558  0.1730
 7832SOL    HW234959   3.277   2.397  10.786 -0.6565 -0.4226 -1.0154
 7833SOL     OW34960   4.359   2.097   8.421 -0.3031  0.6691 -0.5503
 7833SOL    HW134961   4.349   2.037   8.495  2.2432  1.7278  0.6385
 7833SOL    HW234962   4.453   2.092   8.409  0.0924  0.5018  2.6713
 7834SOL     OW34963   2.176   1.187  11.757 -0.6869 -0.0264 -0.1792
 7834SOL    HW134964   2.183   1.187  11.661  1.7462  2.6275  0.0082
 7834SOL    HW234965   2.253   1.142  11.791 -0.2161  0.1013 -1.0581
 7835SOL     OW34966   1.215   3.441  10.175 -0.0429  0.1483 -0.1695
 7835SOL    HW134967   1.228   3.505  10.245  0.1955  1.0910 -1.0769
 7835SOL    HW234968   1.286   3.461  10.114  0.6185 -0.8797  0.2625
 7836SOL     OW34969   0.068   3.871   5.645  0.1033 -0.0084 -0.2377
 7836SOL    HW134970   0.075   3.882   5.740 -3.1898 -1.2665  0.1519
 7836SOL    HW234971   0.060   3.776   5.634 -2.0363  0.0898  0.3970
 7837SOL     OW34972   3.294   2.792   6.929 -0.8855  0.1343  0.1636
 7837SOL    HW134973   3.302   2.717   6.988  0.6913 -1.6044 -2.2479
 7837SOL    HW234974   3.328   2.863   6.983 -0.6904 -0.7530  1.1913
 7838SOL     OW34975   1.700   1.118  16.390  0.2386  0.3808 -0.1500
 7838SOL    HW134976   1.684   1.082  16.478  1.4112 -0.1413 -0.1495
 7838SOL    HW234977   1.624   1.089  16.339 -0.6691  1.2262  0.7083
 7839SOL     OW34978   2.682   2.572   7.437  0.3324  0.4406  0.3805
 7839SOL    HW134979   2.667   2.557   7.530  3.4172 -1.7402  0.5178
 7839SOL    HW234980   2.775   2.593   7.428  0.4941  0.2408  1.6374
 7840SOL     OW34981   3.894   0.028  15.372 -0.4144  0.4123 -0.0724
 7840SOL    HW134982   3.940   4.685  15.427  0.5299  1.1797  0.0081
 7840SOL    HW234983   3.900   4.693  15.294  0.2893 -1.1014  1.0503
 7841SOL     OW34984   4.087   4.492   8.050  0.0296  0.7967  0.2168
 7841SOL    HW134985   4.085   4.447   8.134 -0.7755  0.5547  0.0614
 7841SOL    HW234986   3.994   4.510   8.041  0.1669  0.4972 -1.8188
 7842SOL     OW34987   1.965   2.381   4.159  0.4643 -0.5448  0.0448
 7842SOL    HW134988   1.978   2.417   4.072  1.6789  0.8690  0.8185
 7842SOL    HW234989   2.046   2.336   4.182 -0.1029 -0.7254  1.7123
 7843SOL     OW34990   3.717   1.460  12.222 -0.3203  0.1228  0.5770
 7843SOL    HW134991   3.737   1.367  12.219 -1.6317 -0.1364 -0.3509
 7843SOL    HW234992   3.631   1.468  12.264  0.4863  0.4812  2.1547
 7844SOL     OW34993   3.222   0.570   4.060  0.0112 -0.3716 -0.0657
 7844SOL    HW134994   3.177   0.510   4.000 -1.5496  2.8025 -2.0932
 7844SOL    HW234995   3.243   0.649   4.009 -0.8505  1.0835  1.8152
 7845SOL     OW34996   1.503   3.273  11.170 -0.0909  0.1945  0.1661
 7845SOL    HW134997   1.447   3.252  11.095  0.0185  1.0199 -0.1481
 7845SOL    HW234998   1.556   3.330  11.113  0.0447 -0.4462 -0.3529
 7846SOL     OW34999   1.627   0.193   4.582  0.2787 -0.1664 -0.3447
 7846SOL    HW135000   1.712   0.151   4.597 -0.9469 -2.7220 -0.6088
 7846SOL    HW235001   1.585   0.126   4.529 -3.1498  1.2687  0.5678
 7847SOL     OW35002   4.416   2.537   6.002  0.2938 -0.4019 -0.1099
 7847SOL    HW135003   4.325   2.530   6.032 -0.2578  0.2371 -1.6388
 7847SOL    HW235004   4.461   2.576   6.076  1.1303  0.3873 -1.0323
 7848SOL     OW35005   3.961   4.409   5.956 -0.1267 -0.1466 -0.2329
 7848SOL    HW135006   3.893   4.375   5.898 -2.2518  1.5026  1.3278
 7848SOL    HW235007   3.924   4.483   6.003  1.0647 -1.4217  2.6931
 7849SOL     OW35008   1.076   0.834  15.567  0.3666 -0.0448  0.5471
 7849SOL    HW135009   0.989   0.807  15.539  0.4048  1.9176 -1.5492
 7849SOL    HW235010   1.060   0.899  15.636 -0.2760 -0.5757  0.8839
 7850SOL     OW35011   4.666   0.087  13.791  0.1370 -0.4841 -0.0495
 7850SOL    HW135012   4.711   0.074  13.708 -2.0856 -3.7291 -0.7316
 7850SOL    HW235013   4.617   0.005  13.796  0.7079 -0.6506  2.9063
 7851SOL     OW35014   1.372   2.036  14.183  0.1307  0.6225  0.4801
 7851SOL    HW135015   1.397   2.097  14.252  0.4112  0.1404  0.8033
 7851SOL    HW235016   1.445   1.975  14.183 -2.0861 -2.0155  0.1888
 7852SOL     OW35017   3.163   3.276  13.572 -0.4716  0.1190  0.3594
 7852SOL    HW135018   3.160   3.367  13.545 -0.4856 -0.8049 -2.7472
 7852SOL    HW235019   3.250   3.253  13.605 -0.5255  0.6033  0.8443
 7853SOL     OW35020   0.650   2.834  15.153 -0.0695 -0.0881 -0.3243
 7853SOL    HW135021   0.561   2.861  15.134  0.0355  0.2602 -0.3128
 7853SOL    HW235022   0.633   2.760  15.212  0.7098 -1.2416 -1.5440
 7854SOL     OW35023   3.963   0.573   7.523 -0.1870  0.4750 -0.1003
 7854SOL    HW135024   3.871   0.592   7.502 -0.1959  0.4902 -0.0481
 7854SOL    HW235025   4.013   0.616   7.454  0.6324 -0.7441 -0.2666
 7855SOL     OW35026   0.950   4.558   8.464  0.2655  0.0042 -0.1460
 7855SOL    HW135027   0.861   4.592   8.474  0.3576  0.1167  0.3332
 7855SOL    HW235028   0.965   4.558   8.370 -1.8517 -0.3725 -0.4664
 7856SOL     OW35029   4.019   4.542  15.544  0.1540  0.2832 -0.5564
 7856SOL    HW135030   4.033   4.596  15.622 -1.0295  0.3938 -0.4133
 7856SOL    HW235031   3.940   4.496  15.575  2.1529 -1.4893  1.9530
 7857SOL     OW35032   1.331   2.686  17.090  0.0426  0.3543 -0.2770
 7857SOL    HW135033   1.361   2.644  17.009  0.2821  0.6391 -0.3340
 7857SOL    HW235034   1.260   2.627  17.115 -0.2084  0.4259 -0.8281
 7858SOL     OW35035   0.014   4.429   6.998 -0.1557  0.3777  0.2982
 7858SOL    HW135036   0.079   4.497   6.979  1.0693 -1.2939 -1.4772
 7858SOL    HW235037   4.650   4.472   6.980  1.6409  2.4259 -3.1032
 7859SOL     OW35038   3.141   3.147   5.382  0.2702 -0.1165 -0.0941
 7859SOL    HW135039   3.056   3.170   5.345  0.1274 -1.1794 -0.4344
 7859SOL    HW235040   3.136   3.052   5.395 -2.1023  0.1532  0.8205
 7860SOL     OW35041   2.049   4.513   3.871  0.4116 -0.3778  0.3828
 7860SOL    HW135042   1.983   4.446   3.854 -2.0695  1.9969  0.6780
 7860SOL    HW235043   2.047   4.523   3.966 -0.4236  0.1288  0.3095
 7861SOL     OW35044   0.980   1.482   4.794 -0.1242 -0.2875 -0.3259
 7861SOL    HW135045   0.987   1.575   4.815 -1.6809 -0.3433  0.4584
 7861SOL    HW235046   0.896   1.459   4.834 -1.6303  1.3084 -2.5993
 7862SOL     OW35047   4.602   2.383   8.935 -0.4027  0.0941 -0.5417
 7862SOL    HW135048   4.513   2.359   8.962 -0.1169  0.8643  1.0640
 7862SOL    HW235049   4.604   2.358   8.842  0.2717 -0.2707 -0.4300
 7863SOL     OW35050   1.799   4.451   1.066 -0.3362 -0.6112  0.6890
 7863SOL    HW135051   1.824   4.542   1.080 -0.0324 -0.6042  0.0783
 7863SOL    HW235052   1.707   4.449   1.093 -0.5014 -1.5954  0.0629
 7864SOL     OW35053   3.034   2.839   3.954  0.6606 -0.2897 -0.1292
 7864SOL    HW135054   3.033   2.828   4.049  2.0895  0.8850  0.0157
 7864SOL    HW235055   2.961   2.900   3.944  0.2817 -0.6610  0.3563
 7865SOL     OW35056   3.530   3.506   8.242  0.0689 -0.4141 -0.0450
 7865SOL    HW135057   3.441   3.473   8.227 -0.1045 -1.0847  2.4304
 7865SOL    HW235058   3.539   3.485   8.335 -0.4454  1.6086  0.4645
 7866SOL     OW35059   4.529   4.372   7.809 -0.4000  0.4816  0.2059
 7866SOL    HW135060   4.550   4.278   7.804 -2.0481  0.2560 -2.1693
 7866SOL    HW235061   4.451   4.384   7.755 -0.3351  1.9800  0.4550
 7867SOL     OW35062   4.030   3.067   1.969 -0.3501 -0.4521 -0.7278
 7867SOL    HW135063   3.941   3.063   1.932 -1.3007 -1.8842  1.7077
 7867SOL    HW235064   4.050   2.974   1.962 -0.3050 -0.2960 -2.6878
 7868SOL     OW35065   2.956   3.838   3.862 -1.0875  0.6746  0.1111
 7868SOL    HW135066   3.029   3.809   3.807 -0.6605 -0.8682  1.4908
 7868SOL    HW235067   2.992   3.925   3.875  0.0265 -0.1655  2.5973
 7869SOL     OW35068   2.484   0.981  11.603  0.1358 -0.3030  0.2068
 7869SOL    HW135069   2.492   0.955  11.695 -2.3517  0.8254  0.7612
 7869SOL    HW235070   2.533   0.910  11.563  1.6919  0.5721  0.5404
 7870SOL     OW35071   3.048   0.051   2.914 -0.3139  0.0471 -0.1151
 7870SOL    HW135072   2.964   0.050   2.867 -0.9125  1.4478  0.9558
 7870SOL    HW235073   3.102   4.709   2.864  0.1912 -0.0841  0.5906
 7871SOL     OW35074   4.623   1.446  11.226  0.5463  0.2064 -0.4171
 7871SOL    HW135075   4.599   1.365  11.180  0.1242  1.4906 -2.4669
 7871SOL    HW235076   4.684   1.479  11.161 -0.4930  2.3552 -0.3227
 7872SOL     OW35077   0.384   1.173   7.429  0.2906 -0.5457 -0.0383
 7872SOL    HW135078   0.355   1.218   7.349 -1.4278  0.3132  1.0597
 7872SOL    HW235079   0.302   1.131   7.456  0.0142 -0.5569 -0.8844
 7873SOL     OW35080   3.739   3.510   3.954 -0.2517  0.1407 -0.1208
 7873SOL    HW135081   3.676   3.562   3.903 -0.3777  0.6922  0.5926
 7873SOL    HW235082   3.698   3.509   4.040 -0.0135  2.3808  0.0331
 7874SOL     OW35083   4.385   2.279  10.498  0.0204  0.3098  0.7221
 7874SOL    HW135084   4.452   2.213  10.511  0.4320  0.3208 -1.3023
 7874SOL    HW235085   4.434   2.361  10.487 -0.7446  0.3302 -2.5406
 7875SOL     OW35086   1.561   0.162  12.131  0.0330 -0.3155 -0.0377
 7875SOL    HW135087   1.501   0.183  12.060  2.0260 -0.7216 -1.8498
 7875SOL    HW235088   1.537   0.071  12.152  0.7942 -0.6503 -0.6007
 7876SOL     OW35089   2.655   0.830  15.526  0.5267  0.2463  0.2291
 7876SOL    HW135090   2.711   0.906  15.543 -2.7847  2.5021  1.1129
 7876SOL    HW235091   2.577   0.870  15.487 -1.3171 -1.4908  2.1575
 7877SOL     OW35092   1.308   0.592   1.539 -0.2784  0.0713  0.3291
 7877SOL    HW135093   1.315   0.497   1.542 -1.1736 -0.0806 -1.8158
 7877SOL    HW235094   1.213   0.599   1.535 -0.3671 -1.4227 -0.2100
 7878SOL     OW35095   1.963   3.459   8.720  0.1591  0.1942  0.3094
 7878SOL    HW135096   2.058   3.456   8.709  0.0532 -0.5941 -0.3232
 7878SOL    HW235097   1.942   3.404   8.645  1.0036 -0.0410  0.2433
 7879SOL     OW35098   3.537   0.557   8.430 -0.4834  0.5519 -0.1292
 7879SOL    HW135099   3.595   0.569   8.505  0.1013  1.1507 -0.6708
 7879SOL    HW235100   3.605   0.522   8.372 -0.0836 -1.5478  1.5909
 7880SOL     OW35101   3.863   1.351   8.771  0.0297 -0.5305 -0.0573
 7880SOL    HW135102   3.816   1.433   8.779  0.2513 -0.5524  1.4852
 7880SOL    HW235103   3.936   1.380   8.826 -0.5626  0.8487 -0.0005
 7881SOL     OW35104   3.946   0.358  17.181 -0.5076  0.3175 -0.2488
 7881SOL    HW135105   4.019   0.400  17.135 -1.3052  0.7030 -1.1566
 7881SOL    HW235106   3.919   0.413  17.255 -1.3682 -1.1605  0.5305
 7882SOL     OW35107   3.664   0.359  17.529 -0.0320 -0.0626  0.7230
 7882SOL    HW135108   3.743   0.411  17.515  0.1024  0.5364  3.8374
 7882SOL    HW235109   3.608   0.378  17.453  2.1712  1.4941 -0.5387
 7883SOL     OW35110   1.461   3.094   3.782 -0.1943 -0.0055 -0.1524
 7883SOL    HW135111   1.413   3.174   3.764 -2.9133 -1.5324  0.2922
 7883SOL    HW235112   1.551   3.126   3.779 -0.1981  0.1048  0.9374
 7884SOL     OW35113   2.767   1.835   4.925  0.1150  0.2181 -0.6184
 7884SOL    HW135114   2.821   1.765   4.962  0.0736  0.5846  0.1437
 7884SOL    HW235115   2.682   1.812   4.962  0.6831  1.0156  1.2150
 7885SOL     OW35116   1.557   3.026   2.207  1.0345  0.5741 -0.3637
 7885SOL    HW135117   1.649   3.008   2.223  0.4360  0.9084  3.4255
 7885SOL    HW235118   1.564   3.093   2.139 -0.4049 -0.2867 -1.3643
 7886SOL     OW35119   4.341   0.260  11.977  0.0516  0.6165  0.2429
 7886SOL    HW135120   4.395   0.327  11.935  0.6118  1.1261  1.7629
 7886SOL    HW235121   4.248   0.278  11.963 -0.0341 -2.4577 -2.9558
 7887SOL     OW35122   1.578   0.100  10.244  0.1844  0.2938 -0.3864
 7887SOL    HW135123   1.494   0.066  10.214  0.2118 -0.9906  0.9725
 7887SOL    HW235124   1.620   0.021  10.280 -3.2882 -1.9970 -1.3481
 7888SOL     OW35125   3.361   2.971   9.906  0.3154  0.1764  0.3247
 7888SOL    HW135126   3.317   2.925   9.834  1.2434 -1.8357  1.0449
 7888SOL    HW235127   3.286   3.021   9.938 -0.3664 -0.0800 -0.8596
 7889SOL     OW35128   4.418   2.756   8.164 -0.3699  0.1017  0.4278
 7889SOL    HW135129   4.439   2.848   8.178  0.0093  0.0597  0.1300
 7889SOL    HW235130   4.388   2.726   8.249 -1.2485 -0.2229  0.0120
 7890SOL     OW35131   3.061   4.718   8.766 -0.4414 -0.3482  0.2313
 7890SOL    HW135132   3.084   0.020   8.856  1.2991  1.7145 -0.7014
 7890SOL    HW235133   3.011   4.637   8.775  0.0836 -0.7076 -0.0832
 7891SOL     OW35134   2.724   3.000   1.842  0.5252 -0.2734 -0.1759
 7891SOL    HW135135   2.656   2.934   1.855  0.3347 -0.3121 -1.3490
 7891SOL    HW235136   2.679   3.073   1.801  0.5643 -1.0573 -1.6216
 7892SOL     OW35137   0.839   4.562   2.777 -0.3274 -0.2196 -0.2959
 7892SOL    HW135138   0.744   4.556   2.789 -0.3584  2.0872  0.6486
 7892SOL    HW235139   0.843   4.614   2.696  3.2812  1.2461  0.8436
 7893SOL     OW35140   0.996   2.831   5.668 -0.3946 -0.2254  0.2789
 7893SOL    HW135141   1.004   2.809   5.575 -2.3310  0.6965 -0.1013
 7893SOL    HW235142   0.980   2.925   5.661 -0.0688 -0.1491  0.5328
 7894SOL     OW35143   3.203   1.745   1.724 -0.4728 -0.3197 -0.6632
 7894SOL    HW135144   3.183   1.806   1.653  0.3501  0.4199 -0.2693
 7894SOL    HW235145   3.249   1.673   1.683  0.2922 -0.0683 -0.2486
 7895SOL     OW35146   1.308   3.499   0.417  0.4073 -0.0394  0.5387
 7895SOL    HW135147   1.215   3.488   0.438  0.2557 -0.3070 -0.2819
 7895SOL    HW235148   1.340   3.451   0.494 -0.1243  2.3464  2.2503
 7896SOL     OW35149   1.111   4.603   5.585 -0.1286  0.2692  0.5915
 7896SOL    HW135150   1.016   4.611   5.590 -0.3190 -0.8848 -1.3033
 7896SOL    HW235151   1.125   4.671   5.519  2.3808 -3.8281 -3.1604
 7897SOL     OW35152   4.348   2.840   0.298 -0.6911 -0.2457 -0.4161
 7897SOL    HW135153   4.349   2.935   0.287  0.1929 -0.2305 -0.2215
 7897SOL    HW235154   4.344   2.833   0.393  0.3631  1.7293 -0.2222
 7898SOL     OW35155   0.725   2.795   9.053 -0.1664 -0.2961  0.1311
 7898SOL    HW135156   0.661   2.864   9.070  0.8997  0.8243 -0.4242
 7898SOL    HW235157   0.679   2.741   8.989  0.9075 -0.8115 -0.2028
 7899SOL     OW35158   3.674   3.387   3.351 -0.2605 -0.3826 -0.1347
 7899SOL    HW135159   3.606   3.438   3.307  1.2801  2.0474  0.2916
 7899SOL    HW235160   3.631   3.363   3.433 -1.7460  0.7757 -0.5698
 7900SOL     OW35161   0.470   1.834   7.845  0.1811 -0.2362 -0.2783
 7900SOL    HW135162   0.486   1.921   7.810  0.0906 -0.9429 -2.0520
 7900SOL    HW235163   0.489   1.783   7.767  3.0777  1.4482 -0.6602
 7901SOL     OW35164   0.135   2.638   4.466  0.0512  1.0602  0.1649
 7901SOL    HW135165   0.182   2.690   4.401 -0.2061  1.0392 -0.0344
 7901SOL    HW235166   0.071   2.601   4.406 -0.7162 -0.2313  1.7583
 7902SOL     OW35167   1.241   1.458   4.299  0.3887 -0.3527  0.1221
 7902SOL    HW135168   1.229   1.553   4.293  0.0121 -0.4750 -1.0851
 7902SOL    HW235169   1.227   1.452   4.393 -2.2891 -2.0177 -0.3688
 7903SOL     OW35170   2.287   2.498  10.289 -0.4369  0.2750 -0.0632
 7903SOL    HW135171   2.286   2.402  10.286  0.8781  0.3054 -1.2022
 7903SOL    HW235172   2.206   2.523  10.244  0.8819  1.9608 -1.4789
 7904SOL     OW35173   3.049   0.202   9.716  0.8319  0.0549  0.4323
 7904SOL    HW135174   3.061   0.238   9.628  0.6718  0.6433  0.6491
 7904SOL    HW235175   3.044   0.108   9.702 -1.7710  0.2429  0.1720
 7905SOL     OW35176   0.798   2.499   5.376  0.2705 -0.1039  0.1132
 7905SOL    HW135177   0.723   2.457   5.416 -0.3486  1.6045  0.7690
 7905SOL    HW235178   0.796   2.587   5.415 -1.2718 -1.2152  2.5082
 7906SOL     OW35179   4.349   3.631  15.811  0.5799 -0.3045 -0.6183
 7906SOL    HW135180   4.330   3.724  15.820  0.2211 -0.2616 -1.8165
 7906SOL    HW235181   4.304   3.593  15.886  1.0232 -0.9786 -0.6881
 7907SOL     OW35182   1.866   4.641  15.380  0.0722 -0.8942  0.0738
 7907SOL    HW135183   1.868   4.565  15.321 -2.3436 -0.1441 -0.9814
 7907SOL    HW235184   1.920   4.610  15.452  0.2284  1.2103  0.8768
 7908SOL     OW35185   2.241   2.753   9.125  0.1562  0.5236 -0.0366
 7908SOL    HW135186   2.181   2.805   9.178 -0.8602  0.5564 -1.2127
 7908SOL    HW235187   2.221   2.667   9.161 -1.4593  2.0453  2.6875
 7909SOL     OW35188   1.027   4.031   7.054 -0.7192  0.4317 -0.2772
 7909SOL    HW135189   1.018   4.100   6.989 -0.6964  0.8683  0.1823
 7909SOL    HW235190   1.117   4.048   7.083  0.0848 -1.3906 -1.6813
 7910SOL     OW35191   1.042   1.932   8.626  0.4157 -0.2604 -0.1759
 7910SOL    HW135192   1.106   1.863   8.643  1.1647  0.4325 -0.1955
 7910SOL    HW235193   0.965   1.897   8.670  1.5935 -1.4602  0.9020
 7911SOL     OW35194   4.677   4.552   6.733 -0.2592 -0.0809 -0.6141
 7911SOL    HW135195   0.022   4.585   6.795 -0.7505 -1.2483  0.5192
 7911SOL    HW235196   4.707   4.583   6.648  1.7512 -0.2307  0.0541
 7912SOL     OW35197   3.773   0.156   5.456  0.1138  0.5084  0.3380
 7912SOL    HW135198   3.759   0.250   5.461  0.9838  0.5088  2.4770
 7912SOL    HW235199   3.856   0.146   5.409  0.0579 -0.6060  0.4715
 7913SOL     OW35200   1.352   3.870   1.781  0.3442 -0.6975  0.2619
 7913SOL    HW135201   1.275   3.815   1.794 -0.4702  0.2353 -0.6732
 7913SOL    HW235202   1.419   3.803   1.792  0.6163 -0.7213 -1.5243
 7914SOL     OW35203   2.567   1.598   3.782 -0.0151 -0.4565 -0.3970
 7914SOL    HW135204   2.595   1.606   3.690 -2.0648  1.9631 -0.8215
 7914SOL    HW235205   2.586   1.685   3.818  0.2752 -1.4017  1.7094
 7915SOL     OW35206   1.577   3.484   7.286  0.0414  0.8217  0.4874
 7915SOL    HW135207   1.521   3.492   7.363 -0.4618  0.5984  0.1477
 7915SOL    HW235208   1.500   3.493   7.230  1.2311 -1.6985 -1.5860
 7916SOL     OW35209   0.736   4.231  11.420  0.5692  0.0666  0.3698
 7916SOL    HW135210   0.715   4.317  11.457 -2.0778  0.3476 -1.8040
 7916SOL    HW235211   0.696   4.171  11.483  0.7043  1.5445  1.8471
 7917SOL     OW35212   2.614   1.026   3.116  0.1412  0.1433  0.3157
 7917SOL    HW135213   2.593   0.960   3.182  0.0529  0.6228  0.7686
 7917SOL    HW235214   2.683   1.077   3.157  2.9263 -2.1964 -1.4020
 7918SOL     OW35215   3.222   1.550  14.017 -0.0630  0.3763 -0.0392
 7918SOL    HW135216   3.219   1.645  14.021  0.4028  0.3078  1.7537
 7918SOL    HW235217   3.155   1.531  13.951 -0.8087  0.3566  0.7198
 7919SOL     OW35218   2.666   4.341   2.898 -0.3679 -0.2097  0.3037
 7919SOL    HW135219   2.646   4.395   2.975 -1.6253 -0.6197  0.2629
 7919SOL    HW235220   2.627   4.398   2.831  0.8211 -1.9838 -1.8858
 7920SOL     OW35221   2.020   3.286  11.343  0.6009  0.7792  0.6993
 7920SOL    HW135222   1.967   3.361  11.318  0.9077  0.4944 -0.8275
 7920SOL    HW235223   1.967   3.243  11.410 -0.6103  0.8844 -0.1729
 7921SOL     OW35224   0.966   4.334   3.563  0.1708 -0.6963  0.5402
 7921SOL    HW135225   1.040   4.321   3.621  0.4790  1.7684  0.7155
 7921SOL    HW235226   0.995   4.304   3.476 -0.8383  2.6102 -0.9464
 7922SOL     OW35227   0.006   1.642  13.867  0.2572  0.1119  0.6075
 7922SOL    HW135228   0.003   1.723  13.917 -0.7566 -0.1966  1.0579
 7922SOL    HW235229   0.089   1.606  13.900 -0.0107 -2.3486 -1.4172
 7923SOL     OW35230   2.358   3.821   1.896 -0.6221  0.6927 -0.2098
 7923SOL    HW135231   2.431   3.874   1.863  0.1769  0.7090  1.5604
 7923SOL    HW235232   2.304   3.894   1.928 -0.3089 -0.2893  2.5567
 7924SOL     OW35233   2.594   3.949  13.397 -0.2899 -0.1677  0.1715
 7924SOL    HW135234   2.629   4.001  13.470 -1.2428 -0.7876  1.0598
 7924SOL    HW235235   2.501   3.944  13.419 -0.2642 -2.2245 -0.2302
 7925SOL     OW35236   3.297   0.613   8.508 -0.1011  0.0617  0.6218
 7925SOL    HW135237   3.273   0.534   8.557  1.0810 -1.1778 -0.8114
 7925SOL    HW235238   3.385   0.592   8.478  0.0464  2.1340 -0.3918
 7926SOL     OW35239   2.260   2.296  11.595  0.0749 -0.4664  0.3250
 7926SOL    HW135240   2.171   2.274  11.571 -0.2413  3.4365 -1.9938
 7926SOL    HW235241   2.259   2.389  11.616 -0.5805 -0.3447 -0.2765
 7927SOL     OW35242   0.889   0.985   4.285  0.5108  0.3436  0.1974
 7927SOL    HW135243   0.979   1.010   4.307  0.4485  0.7412  0.0057
 7927SOL    HW235244   0.893   0.899   4.326  0.0453  0.0617 -0.3420
 7928SOL     OW35245   3.321   4.019   4.890  0.0606  0.3307  0.0796
 7928SOL    HW135246   3.376   4.097   4.905 -0.6866  0.4057  2.3391
 7928SOL    HW235247   3.370   3.951   4.935  1.4602  1.4751  0.3144
 7929SOL     OW35248   0.404   1.487   1.437 -0.4807 -0.0986  0.5879
 7929SOL    HW135249   0.345   1.552   1.476  0.9891  0.8605  1.2114
 7929SOL    HW235250   0.382   1.404   1.479  0.1582 -1.3337 -1.5071
 7930SOL     OW35251   0.175   4.268   5.171 -0.4808 -0.2928 -0.0718
 7930SOL    HW135252   0.104   4.331   5.186  0.5877  0.5931  1.2516
 7930SOL    HW235253   0.251   4.326   5.178 -0.0816 -0.9812  1.3355
 7931SOL     OW35254   0.674   1.158   4.336 -0.6452 -0.4289 -0.0938
 7931SOL    HW135255   0.750   1.108   4.307 -0.8493 -0.7663 -0.0408
 7931SOL    HW235256   0.709   1.246   4.347  0.5156 -0.9845  0.5994
 7932SOL     OW35257   4.511   3.803   3.104  0.3834 -0.3722  0.4844
 7932SOL    HW135258   4.465   3.720   3.120  1.0945 -0.2969  3.0580
 7932SOL    HW235259   4.557   3.801   3.021  0.1709 -0.5708  0.3721
 7933SOL     OW35260   3.724   0.361  15.977  0.7427  0.4550 -0.2039
 7933SOL    HW135261   3.671   0.428  16.019  0.2258  0.6610 -1.1852
 7933SOL    HW235262   3.775   0.402  15.907  3.1195 -1.1281  0.6169
 7934SOL     OW35263   2.197   1.852   4.483  0.2335 -0.5954 -0.0203
 7934SOL    HW135264   2.143   1.881   4.410  0.6361 -0.6775 -0.3478
 7934SOL    HW235265   2.277   1.902   4.467 -0.5956  0.3339 -1.2679
 7935SOL     OW35266   3.165   3.369   2.349  0.7177  0.2142 -0.6044
 7935SOL    HW135267   3.116   3.289   2.368  1.1509  0.4924  1.6463
 7935SOL    HW235268   3.123   3.433   2.407  1.3400 -0.5527  0.6804
 7936SOL     OW35269   3.515   0.404   2.936 -0.8538  0.1609  0.3736
 7936SOL    HW135270   3.594   0.459   2.937 -1.1526  0.5684  2.0126
 7936SOL    HW235271   3.496   0.396   2.843  0.9226 -0.4033  0.0469
 7937SOL     OW35272   1.067   0.719   3.435  0.0145  0.7447 -0.4829
 7937SOL    HW135273   1.143   0.664   3.417  0.3697  1.4876 -1.2247
 7937SOL    HW235274   1.073   0.792   3.374 -1.4076  0.7925 -0.5725
 7938SOL     OW35275   1.038   4.470  16.614 -0.4775  0.3405 -0.1008
 7938SOL    HW135276   0.996   4.387  16.639 -2.1963  1.6309  1.2979
 7938SOL    HW235277   0.977   4.491  16.544 -0.8844 -2.7216 -0.6827
 7939SOL     OW35278   4.336   3.806   4.817 -0.1842 -0.8647  0.9506
 7939SOL    HW135279   4.420   3.828   4.777  0.4299 -2.2681  1.5006
 7939SOL    HW235280   4.333   3.866   4.892 -1.8042  0.8994 -0.5177
 7940SOL     OW35281   2.269   1.023   3.127 -0.1833 -0.1737 -0.2457
 7940SOL    HW135282   2.348   1.008   3.179 -0.4261  1.0773  0.4816
 7940SOL    HW235283   2.203   0.976   3.178 -0.5655 -0.8542 -1.3721
 7941SOL     OW35284   2.146   4.304   1.564  0.8172 -0.0398 -0.0695
 7941SOL    HW135285   2.070   4.309   1.622  0.4965  0.0052 -0.4922
 7941SOL    HW235286   2.215   4.287   1.627  1.5394  4.3158  0.2637
 7942SOL     OW35287   0.647   4.239   5.442  0.2425  0.3267 -0.2103
 7942SOL    HW135288   0.584   4.168   5.450 -2.5315  2.7513 -0.4037
 7942SOL    HW235289   0.723   4.208   5.392  0.9202  0.5361  0.6755
 7943SOL     OW35290   4.241   2.324   6.426 -0.2613 -0.0532 -0.0038
 7943SOL    HW135291   4.295   2.391   6.384  0.7349 -0.5021  0.5639
 7943SOL    HW235292   4.296   2.312   6.503 -2.3298 -0.5022  1.3965
 7944SOL     OW35293   2.721   0.941  17.044 -0.0667 -0.6225 -0.1221
 7944SOL    HW135294   2.626   0.947  17.043 -0.1117 -0.9497  1.5752
 7944SOL    HW235295   2.737   0.867  17.102  1.5499 -0.4744 -0.3636
 7945SOL     OW35296   4.607   0.632   0.329 -0.7017 -0.0410 -0.3839
 7945SOL    HW135297   4.629   0.723   0.309  0.1800  0.4647  2.8826
 7945SOL    HW235298   4.515   0.631   0.355 -1.4438 -1.4417 -3.0745
 7946SOL     OW35299   4.520   2.154   8.080 -0.9944 -0.0626 -0.4803
 7946SOL    HW135300   4.593   2.190   8.031  1.4225 -2.4272  1.3792
 7946SOL    HW235301   4.507   2.224   8.144  2.2536  0.4023 -0.3182
 7947SOL     OW35302   0.259   0.480   6.544  0.5970 -0.8792  0.5113
 7947SOL    HW135303   0.170   0.444   6.542 -0.1144  0.8251  0.9469
 7947SOL    HW235304   0.283   0.439   6.627  2.1704  0.2914  0.6291
 7948SOL     OW35305   0.328   4.682   5.428  0.2307 -0.3683  0.6646
 7948SOL    HW135306   0.324   0.055   5.408  0.1986 -1.1839 -3.0892
 7948SOL    HW235307   0.276   4.659   5.351 -0.6472  2.2693  0.4867
 7949SOL     OW35308   0.770   1.884  16.319 -0.0694 -0.2433 -0.1068
 7949SOL    HW135309   0.731   1.915  16.238  1.4319  0.6486 -0.4908
 7949SOL    HW235310   0.686   1.868  16.362  0.8598 -0.5412  1.6231
 7950SOL     OW35311   3.859   0.896  14.437 -0.4646  0.1427  0.3584
 7950SOL    HW135312   3.846   0.806  14.405 -2.6053  0.0234  1.5742
 7950SOL    HW235313   3.859   0.880  14.531 -2.9906  1.8351  0.6386
 7951SOL     OW35314   1.681   3.562   7.637 -0.3734 -0.4437 -0.3382
 7951SOL    HW135315   1.710   3.500   7.703 -0.1839  0.3014  0.2846
 7951SOL    HW235316   1.621   3.613   7.692 -0.7280 -0.4014 -0.7664
 7952SOL     OW35317   2.651   3.595  16.861 -0.3752  0.4417  0.2387
 7952SOL    HW135318   2.562   3.595  16.897  1.1020 -0.7709  3.7918
 7952SOL    HW235319   2.635   3.617  16.769 -0.3011  0.5933  0.2610
 7953SOL     OW35320   1.238   2.845   1.105 -0.3084 -0.3201 -0.0302
 7953SOL    HW135321   1.288   2.831   1.185  0.6716  0.5229 -0.4818
 7953SOL    HW235322   1.156   2.881   1.137  1.1782  0.7724  2.5094
 7954SOL     OW35323   1.017   1.883   2.298  0.0976  0.9505  0.0098
 7954SOL    HW135324   1.036   1.854   2.209 -3.0280  0.7255 -0.5968
 7954SOL    HW235325   1.070   1.815   2.342  0.6481  1.3933  0.0244
 7955SOL     OW35326   4.685   2.748   2.971 -0.2615  0.1395  0.0877
 7955SOL    HW135327   4.635   2.790   2.902 -0.2365 -1.4661 -0.9069
 7955SOL    HW235328   0.049   2.794   2.967 -0.6289  0.7786 -0.2833
 7956SOL     OW35329   2.981   0.876  16.845 -0.2335  0.4198  0.2482
 7956SOL    HW135330   3.000   0.812  16.776  0.1312 -0.5635  1.2515
 7956SOL    HW235331   3.058   0.876  16.902 -0.6023 -3.0147  0.7427
 7957SOL     OW35332   2.725   3.455   8.760  0.5246 -0.6234 -0.2767
 7957SOL    HW135333   2.776   3.457   8.679 -0.1843 -1.6293 -0.7557
 7957SOL    HW235334   2.754   3.377   8.807  2.4288 -0.3956 -1.0723
 7958SOL     OW35335   3.318   2.821   2.875 -0.0094 -0.2367  0.1309
 7958SOL    HW135336   3.236   2.771   2.870 -0.7169  1.1014 -1.9219
 7958SOL    HW235337   3.384   2.769   2.921  0.9995  1.1625  0.2468
 7959SOL     OW35338   4.300   3.753   8.585  0.3331 -0.4767  0.3464
 7959SOL    HW135339   4.376   3.754   8.527 -0.4219  0.7597 -0.6324
 7959SOL    HW235340   4.250   3.823   8.542  0.3423 -0.6431  0.0682
 7960SOL     OW35341   2.658   2.326   5.280  0.4192 -0.3996 -0.5087
 7960SOL    HW135342   2.666   2.375   5.198  0.7535 -0.4230 -0.4917
 7960SOL    HW235343   2.568   2.294   5.275  0.3388  0.1913 -2.9353
 7961SOL     OW35344   0.801   2.312   5.151  0.0523  0.2347  0.3103
 7961SOL    HW135345   0.797   2.369   5.074 -0.8962 -0.5053 -0.1923
 7961SOL    HW235346   0.708   2.298   5.170  0.5708 -0.6037  2.2096
 7962SOL     OW35347   1.632   4.471   7.081 -0.3992  0.1304 -0.1025
 7962SOL    HW135348   1.727   4.484   7.076 -0.3693 -0.8871 -2.0984
 7962SOL    HW235349   1.636   4.377   7.095  0.0834  0.4788  2.0487
 7963SOL     OW35350   0.982   2.901   9.000 -0.4012 -0.4263  0.0161
 7963SOL    HW135351   0.960   2.935   8.913 -1.7797 -0.5473  0.3145
 7963SOL    HW235352   0.901   2.854   9.021 -0.2639 -0.1899  1.0481
 7964SOL     OW35353   2.273   4.467  17.438  0.7857 -0.3356 -0.0793
 7964SOL    HW135354   2.180   4.470  17.463  0.6859 -0.8178 -0.3869
 7964SOL    HW235355   2.279   4.562  17.442  2.1026 -0.4553  0.7478
 7965SOL     OW35356   0.292   1.356   0.485 -0.3416  0.4164  0.5743
 7965SOL    HW135357   0.334   1.425   0.538  1.6850 -0.2811 -0.1258
 7965SOL    HW235358   0.277   1.296   0.558  0.6673 -1.2590 -0.6009
 7966SOL     OW35359   0.756   0.279  17.653 -0.1309  0.4506 -0.3760
 7966SOL    HW135360   0.834   0.332  17.637  2.6678 -2.8547  2.3116
 7966SOL    HW235361   0.738   0.302   0.063 -2.0030 -1.7256 -0.2018
 7967SOL     OW35362   0.942   4.649   2.529  0.1196  0.0763  0.5646
 7967SOL    HW135363   0.861   4.691   2.500  2.0000  1.8110 -2.1880
 7967SOL    HW235364   0.987   4.670   2.448 -0.5180  1.0807  0.4731
 7968SOL     OW35365   1.618   0.674   0.409  0.2523 -0.1155 -0.1311
 7968SOL    HW135366   1.586   0.585   0.398 -2.8551  0.9147  0.6819
 7968SOL    HW235367   1.704   0.667   0.450 -0.0058 -0.8326  0.2706
 7969SOL     OW35368   2.354   0.725   3.683 -0.2751 -0.1426  0.4428
 7969SOL    HW135369   2.291   0.684   3.742 -1.3380  0.0987 -0.5256
 7969SOL    HW235370   2.437   0.687   3.713  0.2244 -0.1762 -0.9981
 7970SOL     OW35371   3.118   1.888   5.317 -0.1592  0.3791 -0.0200
 7970SOL    HW135372   3.121   1.884   5.222  3.2853 -0.0746  0.0961
 7970SOL    HW235373   3.091   1.979   5.325 -0.1320  0.3446  0.5215
 7971SOL     OW35374   1.861   0.731   4.969 -0.5006  0.1162 -0.7065
 7971SOL    HW135375   1.783   0.737   5.025 -1.5648 -0.1821 -2.1463
 7971SOL    HW235376   1.924   0.758   5.036 -0.4150 -1.6118 -0.0867
 7972SOL     OW35377   0.688   0.308   8.046 -0.0945 -0.3163 -0.5445
 7972SOL    HW135378   0.628   0.343   8.113  2.0748  3.3429 -0.5060
 7972SOL    HW235379   0.700   0.215   8.064  0.5576 -0.2148 -0.4508
 7973SOL     OW35380   1.327   3.072   4.037 -0.5875 -0.0439  0.0423
 7973SOL    HW135381   1.404   3.062   3.980 -0.5590 -1.2618  0.2810
 7973SOL    HW235382   1.255   3.117   3.993 -0.0608  2.2075  1.5167
 7974SOL     OW35383   1.937   2.129   5.240  0.2491  0.0872 -0.4390
 7974SOL    HW135384   1.976   2.044   5.263  1.1975  0.8783  0.8682
 7974SOL    HW235385   2.014   2.184   5.256  1.5509 -1.9743  0.3621
 7975SOL     OW35386   2.130   1.343   5.275 -0.5364  0.6812 -0.0817
 7975SOL    HW135387   2.158   1.405   5.208 -1.7098  2.2542  0.8999
 7975SOL    HW235388   2.040   1.375   5.286 -2.0144 -3.1818 -0.9419
 7976SOL     OW35389   0.023   0.501  16.357  0.1121  0.4527  0.3388
 7976SOL    HW135390   4.716   0.590  16.380 -0.7499 -0.1680  1.7219
 7976SOL    HW235391   0.103   0.488  16.407 -0.6292 -3.0544  0.6011
 7977SOL     OW35392   3.617   2.540   1.778 -0.1974 -0.0115  0.3038
 7977SOL    HW135393   3.657   2.616   1.820  0.0753 -0.3794  0.7159
 7977SOL    HW235394   3.703   2.503   1.758 -0.4987  0.3523 -1.6271
 7978SOL     OW35395   0.406   1.384  12.806 -0.4402  0.3316 -0.1220
 7978SOL    HW135396   0.443   1.384  12.718 -1.1793  0.8886 -0.4232
 7978SOL    HW235397   0.422   1.295  12.839  2.1065  0.9830  0.3805
 7979SOL     OW35398   2.278   1.446  11.213 -0.1926  0.3605  0.0442
 7979SOL    HW135399   2.188   1.460  11.242 -0.4886  0.2383 -0.8117
 7979SOL    HW235400   2.304   1.359  11.244 -1.8117 -0.6100 -1.3318
 7980SOL     OW35401   2.789   2.586   2.827  0.6076 -0.4286  0.1593
 7980SOL    HW135402   2.883   2.594   2.814  0.7655 -0.9101  1.0347
 7980SOL    HW235403   2.784   2.537   2.909  0.9766 -0.3226  0.2422
 7981SOL     OW35404   1.682   3.287   7.146 -0.4252  0.1547  0.1699
 7981SOL    HW135405   1.654   3.362   7.198  1.7202  0.9030  0.2410
 7981SOL    HW235406   1.755   3.331   7.102 -0.0354 -2.3526 -1.6785
 7982SOL     OW35407   1.393   2.951   2.735  0.2543 -0.3692 -0.1292
 7982SOL    HW135408   1.460   2.890   2.706 -0.6067 -1.1652 -0.4386
 7982SOL    HW235409   1.438   3.032   2.762 -2.1321  0.5393  1.0857
 7983SOL     OW35410   1.570   0.478  11.786  0.0303 -0.2458  0.2073
 7983SOL    HW135411   1.591   0.419  11.714  1.2562  0.0977  0.2786
 7983SOL    HW235412   1.558   0.566  11.750  2.8350  0.0382 -0.0619
 7984SOL     OW35413   4.644   2.560  16.487  0.1080 -0.0750 -0.2042
 7984SOL    HW135414   4.617   2.651  16.502 -0.2580 -0.3952  1.0942
 7984SOL    HW235415   4.561   2.519  16.465 -0.4173  0.3231  1.0021
 7985SOL     OW35416   2.618   0.842   2.066 -0.1567  0.2504 -0.0498
 7985SOL    HW135417   2.616   0.938   2.065  1.5295  0.2498 -1.8995
 7985SOL    HW235418   2.659   0.831   1.980  3.9549  1.3854  1.7936
 7986SOL     OW35419   2.896   2.206  13.824 -0.0697  0.0849 -0.6876
 7986SOL    HW135420   2.867   2.223  13.734 -1.1128 -0.0338 -0.3827
 7986SOL    HW235421   2.942   2.126  13.801 -0.6798 -0.3461 -0.4212
 7987SOL     OW35422   0.745   2.032   7.922  0.0725  0.2691  0.2591
 7987SOL    HW135423   0.746   2.108   7.980 -0.6171  2.4670 -2.6345
 7987SOL    HW235424   0.705   1.971   7.984  0.9790 -1.6729 -1.0504
 7988SOL     OW35425   2.701   2.328   3.529 -0.0037  0.1133 -0.2440
 7988SOL    HW135426   2.628   2.386   3.549 -0.4090 -0.0058 -1.3645
 7988SOL    HW235427   2.778   2.367   3.570  1.6269 -3.2540 -0.1568
 7989SOL     OW35428   0.304   2.641   4.897 -0.5008 -0.1312  0.0559
 7989SOL    HW135429   0.228   2.652   4.839 -1.5974  1.6545  1.8340
 7989SOL    HW235430   0.370   2.638   4.827 -0.2984 -3.2338  0.3949
 7990SOL     OW35431   0.325   2.691  16.546  0.0432 -0.4404  0.2753
 7990SOL    HW135432   0.418   2.685  16.567 -0.3399 -1.8125  1.6116
 7990SOL    HW235433   0.311   2.781  16.517  1.5120  0.1828  1.5188
 7991SOL     OW35434   3.228   1.000  11.542 -0.2876  0.1502  0.0268
 7991SOL    HW135435   3.216   0.925  11.484  0.0923  0.2572 -0.1890
 7991SOL    HW235436   3.143   1.045  11.542 -0.3779 -0.0047 -2.3323
 7992SOL     OW35437   2.897   3.764  10.022  0.2285 -0.2866 -0.7808
 7992SOL    HW135438   2.938   3.796  10.103 -0.5709  1.7252 -1.1968
 7992SOL    HW235439   2.804   3.759  10.043 -0.0746  1.6677 -1.7279
 7993SOL     OW35440   1.817   4.118   8.302 -0.2337  0.2398  0.2484
 7993SOL    HW135441   1.758   4.117   8.377 -1.4638  0.4157 -0.7107
 7993SOL    HW235442   1.776   4.176   8.238  3.1355  0.2814 -1.8446
 7994SOL     OW35443   0.981   2.722   0.289 -0.6282  0.1639  0.3615
 7994SOL    HW135444   0.982   2.629   0.267 -2.4296  0.4147 -0.7939
 7994SOL    HW235445   0.966   2.705   0.382 -1.7897 -0.1611  0.1163
 7995SOL     OW35446   0.485   2.368   3.295 -0.7386  0.5213  0.5313
 7995SOL    HW135447   0.543   2.422   3.347  1.9828 -0.1138 -1.8540
 7995SOL    HW235448   0.512   2.281   3.324 -1.7105  0.3617  0.9657
 7996SOL     OW35449   1.090   1.078   4.967  0.0488  0.0074  0.5115
 7996SOL    HW135450   0.997   1.090   4.947  0.0403 -0.3855  0.3315
 7996SOL    HW235451   1.120   1.168   4.980  0.8113 -0.3513  1.2625
 7997SOL     OW35452   3.605   0.854   0.201  0.3527 -0.5167  0.2816
 7997SOL    HW135453   3.644   0.875   0.116  1.4509 -2.1797  0.3669
 7997SOL    HW235454   3.532   0.795   0.180 -1.4215  1.3735  1.1842
 7998SOL     OW35455   4.022   2.506   3.549  0.3241  0.3275 -1.1626
 7998SOL    HW135456   4.111   2.504   3.514 -0.3080 -0.1704 -2.7170
 7998SOL    HW235457   4.037   2.448   3.624  3.2208  0.1021 -1.9141
 7999SOL     OW35458   3.615   3.479   4.756  0.0212 -0.5990  0.0039
 7999SOL    HW135459   3.605   3.396   4.709 -0.3651 -0.0852 -0.8100
 7999SOL    HW235460   3.681   3.521   4.701  2.0817 -1.3337  1.9301
 8000SOL     OW35461   2.282   4.303   3.078  0.3146 -0.0893 -0.0326
 8000SOL    HW135462   2.217   4.310   3.148  1.5274  0.3498  1.0651
 8000SOL    HW235463   2.289   4.389   3.037 -1.6870  0.0232 -0.1316
 8001SOL     OW35464   2.059   1.492   9.721  0.3939  0.4948  0.0404
 8001SOL    HW135465   2.035   1.463   9.809 -0.5817 -1.7866 -0.9589
 8001SOL    HW235466   2.039   1.413   9.671 -0.5842  0.3009  0.7204
 8002SOL     OW35467   0.746   3.374  12.907 -0.0507  0.1256  0.0627
 8002SOL    HW135468   0.676   3.310  12.920  0.7043 -0.6469  0.2945
 8002SOL    HW235469   0.757   3.378  12.812 -0.9681 -0.3098 -0.0600
 8003SOL     OW35470   2.770   3.273   1.892 -0.8046 -0.2359 -0.1361
 8003SOL    HW135471   2.772   3.178   1.902 -0.1286 -0.0900  1.1442
 8003SOL    HW235472   2.702   3.287   1.826 -0.6427  1.1221 -0.0052
 8004SOL     OW35473   3.549   0.398   4.644  0.3673  0.0894 -0.0408
 8004SOL    HW135474   3.576   0.364   4.559  0.7466  2.2852 -0.8001
 8004SOL    HW235475   3.611   0.469   4.661 -0.4968  0.6322  0.8456
 8005SOL     OW35476   0.342   3.808   4.506 -0.3902  0.2227 -0.0767
 8005SOL    HW135477   0.420   3.753   4.505  1.0471  2.2073  1.6584
 8005SOL    HW235478   0.390   3.891   4.508  0.1410 -0.1057  0.6467
 8006SOL     OW35479   2.987   3.529   2.492  0.2612 -0.1115 -0.1685
 8006SOL    HW135480   2.896   3.506   2.475  0.1632  2.2946 -2.9301
 8006SOL    HW235481   2.985   3.549   2.586 -0.5306 -1.0067 -0.0045
 8007SOL     OW35482   3.844   0.943   1.078 -0.3745  0.1229  0.0239
 8007SOL    HW135483   3.890   0.970   0.998  1.0481  2.2836  1.6027
 8007SOL    HW235484   3.756   0.979   1.065 -0.9718 -1.8441 -1.4572
 8008SOL     OW35485   0.113   2.105  16.477  0.3089 -0.2655 -0.0563
 8008SOL    HW135486   0.121   2.177  16.539 -0.3244  1.1602 -1.6365
 8008SOL    HW235487   0.049   2.142  16.415  0.1587 -0.6872 -0.1556
 8009SOL     OW35488   3.394   0.195  16.589 -0.0769  0.1182  0.0791
 8009SOL    HW135489   3.359   0.282  16.606  0.1557  1.1296 -4.4872
 8009SOL    HW235490   3.313   0.144  16.591  1.4107 -2.2498  0.7466
 8010SOL     OW35491   2.398   3.741   9.069 -0.3643  0.1386  0.2188
 8010SOL    HW135492   2.327   3.805   9.078 -1.4414 -0.8932 -0.9801
 8010SOL    HW235493   2.426   3.759   8.980  0.6572  0.3270  0.5843
 8011SOL     OW35494   1.278   1.793   1.203  0.3721 -0.1275  0.1754
 8011SOL    HW135495   1.186   1.774   1.220  0.2974 -1.4369 -1.6466
 8011SOL    HW235496   1.303   1.827   1.289 -1.7283 -0.0501  0.7514
 8012SOL     OW35497   0.573   2.687   6.993  0.3467 -0.7407 -0.4416
 8012SOL    HW135498   0.587   2.713   6.902  1.7277  0.1642  0.0271
 8012SOL    HW235499   0.645   2.624   6.990  1.2251  0.3049 -1.3355
 8013SOL     OW35500   0.963   2.605   6.676 -0.6227 -0.2643 -0.1399
 8013SOL    HW135501   0.973   2.653   6.594  0.3879 -1.5203 -0.7709
 8013SOL    HW235502   1.058   2.604   6.694 -0.4472 -1.0662 -1.1257
 8014SOL     OW35503   2.403   2.392   3.133 -0.0891  0.5217  0.2534
 8014SOL    HW135504   2.358   2.470   3.101  0.3828 -0.4170 -2.7000
 8014SOL    HW235505   2.459   2.437   3.196  1.9041 -1.6124  0.0234
 8015SOL     OW35506   1.018   1.952   6.322  0.0785 -0.5186 -0.2622
 8015SOL    HW135507   0.936   2.000   6.331  0.6145  0.8618 -2.6680
 8015SOL    HW235508   0.997   1.874   6.373 -1.7928 -0.5205 -1.0655
 8016SOL     OW35509   3.257   0.859  16.005  0.9444 -0.1904  0.1791
 8016SOL    HW135510   3.334   0.825  15.959  0.0708 -0.5375 -1.0377
 8016SOL    HW235511   3.264   0.955  16.011  0.3323 -0.1556  0.3357
 8017SOL     OW35512   1.725   0.369   7.733  0.2311  0.0014  0.7543
 8017SOL    HW135513   1.784   0.384   7.806 -0.9847  1.3193  1.4633
 8017SOL    HW235514   1.658   0.317   7.776 -0.1281  0.9947  1.3918
 8018SOL     OW35515   0.945   0.835   8.544 -0.4508  0.6992 -0.0123
 8018SOL    HW135516   0.962   0.912   8.598  2.7460  0.5345 -0.7529
 8018SOL    HW235517   0.948   0.759   8.603  2.2553 -0.8694 -2.1782
 8019SOL     OW35518   2.239   3.858   0.981  0.2415  0.6047 -0.0444
 8019SOL    HW135519   2.281   3.834   0.898 -1.3510  1.4920 -1.1144
 8019SOL    HW235520   2.249   3.954   0.981  3.0923  0.3133  0.2396
 8020SOL     OW35521   1.082   0.921   2.202  0.2523  0.7915  0.8782
 8020SOL    HW135522   0.993   0.919   2.236  0.5534  0.0015  1.6052
 8020SOL    HW235523   1.104   1.010   2.230  0.2614  0.7539  0.9875
 8021SOL     OW35524   1.795   2.164   3.201  0.4329  0.3699 -0.0552
 8021SOL    HW135525   1.852   2.240   3.194  2.3504 -0.8434  1.9918
 8021SOL    HW235526   1.862   2.097   3.186  1.7051  1.2694  1.6239
 8022SOL     OW35527   2.147   1.758   4.902  0.5882 -0.3266  0.3866
 8022SOL    HW135528   2.061   1.758   4.944 -1.1721 -0.3676 -3.2252
 8022SOL    HW235529   2.120   1.716   4.821 -2.8078  2.4457  0.0700
 8023SOL     OW35530   4.223   1.404   9.191  0.5956 -0.1435  0.5069
 8023SOL    HW135531   4.289   1.357   9.140  1.6866  0.6147  1.2256
 8023SOL    HW235532   4.213   1.346   9.267  0.3085  0.0761  0.6366
 8024SOL     OW35533   3.057   2.620   4.505  0.0104 -0.2058  0.3000
 8024SOL    HW135534   3.010   2.702   4.520 -0.5715 -0.7705  1.5094
 8024SOL    HW235535   3.148   2.653   4.504 -0.0345 -0.0852 -0.2379
 8025SOL     OW35536   0.897   2.559   4.630 -0.3030  0.3519 -0.5130
 8025SOL    HW135537   0.982   2.547   4.674 -0.1860  0.2616 -0.7641
 8025SOL    HW235538   0.914   2.647   4.596  1.5008 -0.7562 -2.4955
 8026SOL     OW35539   0.026   3.246   1.121 -0.2540  0.3314 -0.1220
 8026SOL    HW135540   0.036   3.328   1.073  0.9975  0.3868  0.2348
 8026SOL    HW235541   0.096   3.193   1.083 -0.3342 -3.1138  4.5212
 8027SOL     OW35542   1.992   3.339   3.596  0.1273 -0.4425  0.2910
 8027SOL    HW135543   2.078   3.340   3.637  0.3237  0.4765 -0.1400
 8027SOL    HW235544   1.989   3.409   3.532  0.6890  0.5820  1.3785
 8028SOL     OW35545   1.593   0.598   9.338  0.5045 -0.2222  0.1606
 8028SOL    HW135546   1.685   0.605   9.365  0.7389 -2.3247 -0.1057
 8028SOL    HW235547   1.591   0.667   9.272 -0.7537 -0.6539 -0.2428
 8029SOL     OW35548   4.127   0.299   3.082 -0.1967  0.1036  0.5996
 8029SOL    HW135549   4.085   0.317   2.998  0.4920 -2.9471 -0.3733
 8029SOL    HW235550   4.214   0.278   3.049 -0.7260 -0.8700 -0.1408
 8030SOL     OW35551   0.308   0.622  16.968 -0.0393  0.2644 -0.5294
 8030SOL    HW135552   0.322   0.587  17.056  1.2397 -0.8910 -1.2077
 8030SOL    HW235553   0.370   0.695  16.968  0.1855  0.0497 -3.3786
 8031SOL     OW35554   4.015   0.171   6.486  0.1057 -0.4246 -0.1152
 8031SOL    HW135555   3.994   0.263   6.468  0.0416 -0.1493  1.3574
 8031SOL    HW235556   4.030   0.174   6.581  0.6275  0.0512 -0.2117
 8032SOL     OW35557   0.013   1.421   7.230  0.2009  0.1905  0.6339
 8032SOL    HW135558   4.652   1.396   7.276 -0.3616 -0.4435 -0.6890
 8032SOL    HW235559   4.695   1.455   7.149 -0.8138 -0.7952  0.6810
 8033SOL     OW35560   1.983   3.447   2.804  0.3161 -0.7079  0.1655
 8033SOL    HW135561   1.938   3.489   2.730 -1.7586 -1.0356  1.2607
 8033SOL    HW235562   2.018   3.371   2.758 -0.4345 -0.9378 -0.0197
 8034SOL     OW35563   0.035   1.653  10.233 -0.4434 -0.1928  0.3719
 8034SOL    HW135564   0.112   1.617  10.275 -1.8713 -0.5229  2.7295
 8034SOL    HW235565   0.084   1.705  10.169  0.6913 -0.8362  0.7245
 8035SOL     OW35566   0.548   0.773   5.231 -0.0863  0.6326 -0.0131
 8035SOL    HW135567   0.563   0.708   5.300 -0.1656 -0.7284 -1.2793
 8035SOL    HW235568   0.457   0.787   5.258 -0.3118 -0.6169 -0.1364
 8036SOL     OW35569   1.604   3.364   4.329 -0.2871  0.3876  0.6818
 8036SOL    HW135570   1.543   3.434   4.306 -1.4636 -0.2432  1.9111
 8036SOL    HW235571   1.553   3.284   4.321 -1.2025  1.0136  0.2639
 8037SOL     OW35572   0.945   4.587  16.864  0.4966  0.3312  0.3735
 8037SOL    HW135573   0.996   4.539  16.799  1.8954 -0.2274  1.8867
 8037SOL    HW235574   0.856   4.558  16.843  0.2035  1.4705  0.0422
 8038SOL     OW35575   1.079   3.398  11.179 -0.4207  0.1114 -0.2168
 8038SOL    HW135576   1.094   3.468  11.115 -0.1164 -2.5590 -3.0294
 8038SOL    HW235577   0.999   3.363  11.140 -0.8417  1.0535 -0.2080
 8039SOL     OW35578   0.642   0.469   4.344  0.0835 -0.0916  0.0263
 8039SOL    HW135579   0.735   0.446   4.348 -0.1480 -1.3439 -1.7401
 8039SOL    HW235580   0.647   0.554   4.388 -1.4215  0.9891 -1.8872
 8040SOL     OW35581   0.248   3.228   6.099 -0.1045 -0.3857 -0.3264
 8040SOL    HW135582   0.227   3.259   6.187  0.8841 -3.6723  1.0733
 8040SOL    HW235583   0.285   3.308   6.064 -1.5189 -0.0227 -1.0032
 8041SOL     OW35584   3.247   4.249   6.522  0.8368  0.0466  0.3203
 8041SOL    HW135585   3.291   4.333   6.536 -1.3349  0.7903  2.7880
 8041SOL    HW235586   3.198   4.241   6.604 -0.6887 -0.6116 -0.6573
 8042SOL     OW35587   1.379   4.074   8.542 -0.1037  0.2104 -0.1613
 8042SOL    HW135588   1.319   4.135   8.585  0.4576  0.0503  0.8423
 8042SOL    HW235589   1.367   3.991   8.589  1.7186  0.4562  0.7137
 8043SOL     OW35590   1.893   1.877   6.397  0.2245 -0.4853 -0.1266
 8043SOL    HW135591   1.866   1.856   6.486  0.4787  0.1458  0.1001
 8043SOL    HW235592   1.811   1.870   6.347  0.1409  0.6294 -0.1565
 8044SOL     OW35593   0.839   3.245   4.531  0.4084 -0.0877 -0.0888
 8044SOL    HW135594   0.855   3.226   4.439  1.2066 -0.2761  0.0833
 8044SOL    HW235595   0.836   3.158   4.571  2.6819  0.1261  0.5399
 8045SOL     OW35596   4.221   3.683  15.527 -0.6842 -0.4021  0.0440
 8045SOL    HW135597   4.174   3.608  15.491  1.0800 -1.6370  0.3059
 8045SOL    HW235598   4.154   3.749  15.513 -0.9006 -0.3752  1.2465
 8046SOL     OW35599   3.162   2.237  13.537  0.1390  0.1723 -0.3018
 8046SOL    HW135600   3.104   2.169  13.571 -3.3878  1.3596 -3.8998
 8046SOL    HW235601   3.143   2.313  13.592 -0.2589 -0.5886  0.6131
 8047SOL     OW35602   3.118   2.009   7.903  0.2514  0.7880 -0.5556
 8047SOL    HW135603   3.180   1.947   7.942  0.4279  0.0269 -2.0622
 8047SOL    HW235604   3.124   2.084   7.962 -0.8172  0.7482 -0.4046
 8048SOL     OW35605   4.045   2.870  14.839  0.4241  0.4455 -0.0439
 8048SOL    HW135606   3.961   2.839  14.803 -0.1407 -1.2627  2.7361
 8048SOL    HW235607   4.044   2.958  14.801 -0.0490 -0.4492 -2.1461
 8049SOL     OW35608   3.714   0.121   5.817 -0.3011 -0.1947 -0.0432
 8049SOL    HW135609   3.668   0.072   5.749  0.9305  0.3199 -1.2580
 8049SOL    HW235610   3.677   0.084   5.897  0.7865 -3.0928 -0.8574
 8050SOL     OW35611   2.741   2.855   1.212  0.2666 -0.0024  0.2513
 8050SOL    HW135612   2.741   2.854   1.308  2.4688 -0.6518  0.2255
 8050SOL    HW235613   2.819   2.908   1.197  0.4321 -0.6664 -1.2306
 8051SOL     OW35614   3.378   1.247   3.768 -0.3331  0.1759  0.8132
 8051SOL    HW135615   3.427   1.165   3.760 -0.1138  0.1326  2.5709
 8051SOL    HW235616   3.285   1.223   3.762  0.1221 -1.7541  1.4956
 8052SOL     OW35617   1.507   3.595  15.085 -0.2408  0.6887  0.1268
 8052SOL    HW135618   1.455   3.549  15.151 -0.3506  2.5683  1.3453
 8052SOL    HW235619   1.588   3.587  15.136  0.7470  0.5329 -1.4424
 8053SOL     OW35620   2.003   0.373   9.198  0.4397  0.0948 -0.0624
 8053SOL    HW135621   2.029   0.336   9.283  2.5976 -0.6378 -1.0347
 8053SOL    HW235622   2.074   0.432   9.174  0.4579  0.0795 -0.0465
 8054SOL     OW35623   0.063   0.404   0.882  0.9473  0.3766  0.1969
 8054SOL    HW135624   0.094   0.359   0.804 -0.5926  0.1317 -0.2778
 8054SOL    HW235625   4.692   0.377   0.867  0.6259  1.6254 -0.1430
 8055SOL     OW35626   0.065   2.817   7.374 -0.3178 -0.2786  0.5126
 8055SOL    HW135627   0.066   2.897   7.427  1.2447  0.4965 -0.6702
 8055SOL    HW235628   0.091   2.750   7.436  0.4951 -0.0632  0.4085
 8056SOL     OW35629   2.837   2.347   7.233 -0.4115 -0.0862 -0.2088
 8056SOL    HW135630   2.835   2.375   7.325 -0.8836 -0.0714 -0.2272
 8056SOL    HW235631   2.933   2.347   7.223 -0.7908 -0.1902 -3.6713
 8057SOL     OW35632   0.362   1.386  17.592  0.5608  0.2289  0.7449
 8057SOL    HW135633   0.400   1.324  17.654  3.3814 -0.3581 -1.5502
 8057SOL    HW235634   0.270   1.363  17.607  1.0130 -0.8582  1.8386
 8058SOL     OW35635   4.134   4.440  17.404  0.8167  0.4434  0.0973
 8058SOL    HW135636   4.181   4.394  17.334  0.8718  2.0162 -0.9131
 8058SOL    HW235637   4.070   4.485  17.349  0.5464 -1.8196 -1.4481
 8059SOL     OW35638   2.882   1.360   6.600 -0.2168 -0.2820 -0.1629
 8059SOL    HW135639   2.800   1.326   6.566 -0.1651 -0.6416  0.0729
 8059SOL    HW235640   2.926   1.387   6.519 -0.1292  1.4140  0.4379
 8060SOL     OW35641   4.437   0.989  11.388 -0.5725  0.8377  0.2564
 8060SOL    HW135642   4.398   1.075  11.375 -2.6507  0.2801  2.8622
 8060SOL    HW235643   4.474   1.018  11.472  0.1820  0.1993  0.1480
 8061SOL     OW35644   1.753   2.442  17.353  0.4421 -0.2467  0.3496
 8061SOL    HW135645   1.675   2.492  17.376  1.7347  2.5215 -1.3951
 8061SOL    HW235646   1.710   2.359  17.330 -1.7667  0.6338  1.2942
 8062SOL     OW35647   1.186   3.814   0.480 -0.1726  0.3789  0.0044
 8062SOL    HW135648   1.197   3.767   0.562  1.2306  0.6564 -0.0170
 8062SOL    HW235649   1.192   3.747   0.412  2.7235 -0.3723  1.0002
 8063SOL     OW35650   3.661   1.043   4.130  0.1612 -0.1075  0.4798
 8063SOL    HW135651   3.635   1.074   4.217 -1.4890 -0.1419  0.0007
 8063SOL    HW235652   3.667   0.948   4.138 -2.3765 -0.2045  1.1502
 8064SOL     OW35653   3.740   2.388   4.604 -0.0060  0.2274 -0.0882
 8064SOL    HW135654   3.711   2.445   4.533  1.5083 -1.4751 -2.0685
 8064SOL    HW235655   3.753   2.301   4.567 -0.1432  1.3781 -2.8477
 8065SOL     OW35656   1.428   3.316  17.245  0.0270 -0.1522 -0.8023
 8065SOL    HW135657   1.430   3.299  17.340 -1.0516  2.3855 -0.3463
 8065SOL    HW235658   1.366   3.388  17.244  0.3171  0.1820  2.5240
 8066SOL     OW35659   1.002   1.639   1.189  0.7373  0.0369  0.8507
 8066SOL    HW135660   1.010   1.706   1.121 -1.4025  0.0297  0.5812
 8066SOL    HW235661   0.950   1.565   1.159  0.0092  0.8078  0.2020
 8067SOL     OW35662   0.812   2.343   4.268  0.0048 -0.2812  0.1152
 8067SOL    HW135663   0.811   2.286   4.344  1.1122 -0.0266  0.3107
 8067SOL    HW235664   0.798   2.287   4.191 -1.6860  0.7694 -0.3441
 8068SOL     OW35665   3.712   1.613   5.041 -0.0117  0.0768 -0.4047
 8068SOL    HW135666   3.802   1.644   5.051  1.0403 -3.1578  0.1292
 8068SOL    HW235667   3.667   1.694   5.018 -2.6936 -0.8585  1.4768
 8069SOL     OW35668   1.246   0.659   8.588  0.1303 -0.2342  0.1807
 8069SOL    HW135669   1.151   0.665   8.600  0.5076  4.0514  1.2547
 8069SOL    HW235670   1.274   0.589   8.646  2.6293  0.2824 -0.4111
 8070SOL     OW35671   1.182   4.048   0.647 -0.2180 -0.4934  0.1319
 8070SOL    HW135672   1.151   3.967   0.606 -1.2788  0.0371 -0.1178
 8070SOL    HW235673   1.227   4.019   0.726 -0.1438  0.0372  0.2796
 8071SOL     OW35674   2.360   4.540  10.294 -0.1014 -0.1172 -0.0735
 8071SOL    HW135675   2.409   4.565  10.372  3.2133 -1.8347 -1.6173
 8071SOL    HW235676   2.313   4.615  10.258 -0.2233  0.3407  1.0658
 8072SOL     OW35677   2.183   1.093   8.099  0.2197 -0.2932 -0.9019
 8072SOL    HW135678   2.153   1.119   8.012 -1.4128  1.1009  0.0699
 8072SOL    HW235679   2.261   1.145   8.117  1.3821 -2.2314 -0.4522
 8073SOL     OW35680   0.520   1.122   7.666 -0.2698 -1.0742 -0.0912
 8073SOL    HW135681   0.474   1.157   7.590  2.0824  0.9223 -0.6167
 8073SOL    HW235682   0.469   1.162   7.736  1.1027 -0.5960  0.6417
 8074SOL     OW35683   0.272   4.670  10.616  0.5267  0.3209  0.1983
 8074SOL    HW135684   0.302   4.580  10.628 -2.3647 -0.5334  0.9833
 8074SOL    HW235685   0.316   4.692  10.534 -0.1900  0.0410 -0.2630
 8075SOL     OW35686   1.057   4.465   9.216 -0.3692 -0.2992  0.4757
 8075SOL    HW135687   1.088   4.436   9.130 -1.7493 -2.3758  0.6773
 8075SOL    HW235688   1.031   4.548   9.177  0.8990  0.2592  0.8129
 8076SOL     OW35689   2.272   4.120   6.035 -0.6396  0.1967 -0.1614
 8076SOL    HW135690   2.341   4.079   6.088 -0.4856 -0.2244 -0.6950
 8076SOL    HW235691   2.193   4.105   6.088 -1.4470 -1.9648 -2.0037
 8077SOL     OW35692   2.566   1.215   8.740  0.7570  0.0631  0.3302
 8077SOL    HW135693   2.643   1.163   8.719 -0.1367 -0.6596 -1.0959
 8077SOL    HW235694   2.499   1.147   8.743  0.3906  0.2980 -2.3418
 8078SOL     OW35695   0.098   1.603  11.411 -0.1442 -0.3204  0.2881
 8078SOL    HW135696   0.159   1.566  11.347  0.4220 -1.8538  1.7100
 8078SOL    HW235697   0.160   1.629  11.479 -1.2282  1.2932  0.6561
 8079SOL     OW35698   0.622   0.266  11.653 -0.1774 -0.2823 -0.4322
 8079SOL    HW135699   0.708   0.225  11.661 -0.5921 -1.0739 -0.0630
 8079SOL    HW235700   0.591   0.267  11.744  0.7601  0.8062 -0.1242
 8080SOL     OW35701   1.475   2.968  17.368 -0.2162  0.3801 -0.0199
 8080SOL    HW135702   1.532   2.965  17.445  0.2376 -1.2584 -0.4282
 8080SOL    HW235703   1.511   3.049  17.332  0.3677 -0.8240 -2.1141
 8081SOL     OW35704   3.116   1.571   7.491  0.0174 -0.2837 -0.4934
 8081SOL    HW135705   3.027   1.541   7.513 -0.3867  0.4079 -1.2116
 8081SOL    HW235706   3.132   1.529   7.407 -1.6367 -0.3062 -0.7970
 8082SOL     OW35707   2.619   1.183   7.222 -0.0287  0.2101  0.4830
 8082SOL    HW135708   2.542   1.134   7.251 -1.6884  2.4037 -0.1770
 8082SOL    HW235709   2.580   1.258   7.176  0.1241  0.1707  0.2891
 8083SOL     OW35710   0.231   2.293   5.912  0.7228  0.0377  0.0165
 8083SOL    HW135711   0.251   2.200   5.922  1.9786  0.1413 -1.6867
 8083SOL    HW235712   0.276   2.332   5.987  0.9624 -1.4037  0.6230
 8084SOL     OW35713   0.270   2.235   6.323  0.2428  0.7936  0.1463
 8084SOL    HW135714   0.349   2.250   6.271  0.0420 -0.0224 -0.3952
 8084SOL    HW235715   0.228   2.319   6.343 -1.2829 -0.1339  0.8189
 8085SOL     OW35716   3.748   2.633   9.552  0.0864 -0.2027 -0.2647
 8085SOL    HW135717   3.733   2.547   9.593 -1.1122 -0.5891 -1.5073
 8085SOL    HW235718   3.844   2.628   9.554  0.2032  2.1560 -0.6360
 8086SOL     OW35719   2.263   1.460   1.450  0.5692  0.4811 -0.4651
 8086SOL    HW135720   2.184   1.478   1.501 -0.6315  2.6632 -3.0823
 8086SOL    HW235721   2.236   1.478   1.360  0.9689  0.0459 -0.6719
 8087SOL     OW35722   0.471   1.646   4.120 -0.2323 -0.6629  0.3138
 8087SOL    HW135723   0.478   1.630   4.214  0.8496 -2.3091 -0.0517
 8087SOL    HW235724   0.523   1.570   4.093  2.1171  0.5225  1.5297
 8088SOL     OW35725   2.298   2.318   2.523 -0.0503  0.2561 -0.2057
 8088SOL    HW135726   2.213   2.355   2.548 -0.2319  0.7298 -1.5625
 8088SOL    HW235727   2.313   2.234   2.567 -0.0760 -0.2177 -1.0949
 8089SOL     OW35728   2.003   2.624  16.634  0.1122  0.0731 -0.0366
 8089SOL    HW135729   1.963   2.687  16.694  0.3497 -1.2978  1.5532
 8089SOL    HW235730   1.993   2.671  16.551 -0.5035 -0.2627 -0.1556
 8090SOL     OW35731   2.372   1.030   7.641  0.1075  0.0479 -0.3114
 8090SOL    HW135732   2.443   1.094   7.626 -1.0106  1.0708 -1.2083
 8090SOL    HW235733   2.421   0.971   7.698  0.1214  0.3782  0.0226
 8091SOL     OW35734   1.414   1.137   9.090  0.0402 -0.3659 -0.2299
 8091SOL    HW135735   1.450   1.123   9.002 -2.6313 -0.8296 -1.2599
 8091SOL    HW235736   1.500   1.137   9.131  0.0702 -0.6996 -0.2924
 8092SOL     OW35737   3.031   1.173   1.730 -0.4413 -0.3214 -0.4655
 8092SOL    HW135738   2.951   1.221   1.754  0.7017  1.3158  0.0839
 8092SOL    HW235739   3.089   1.214   1.794 -1.6903  1.4796 -0.4847
 8093SOL     OW35740   0.633   1.678   7.635 -0.8861 -0.1238  0.5116
 8093SOL    HW135741   0.603   1.605   7.580 -0.8381 -1.8849  2.8148
 8093SOL    HW235742   0.634   1.644   7.725  0.8198  0.0550  0.5666
 8094SOL     OW35743   4.386   3.388   2.604 -0.1674 -0.8092 -0.0960
 8094SOL    HW135744   4.418   3.323   2.667 -0.8216 -1.5093 -0.4817
 8094SOL    HW235745   4.471   3.432   2.595 -1.1381  0.5216 -2.8202
 8095SOL     OW35746   3.334   0.595  10.895 -0.7489 -0.3675 -0.3515
 8095SOL    HW135747   3.427   0.586  10.914 -0.7211  1.0175  0.1408
 8095SOL    HW235748   3.326   0.688  10.874 -3.3394 -0.5503 -0.2117
 8096SOL     OW35749   2.088   2.393   0.555 -0.0868 -0.0244 -0.1524
 8096SOL    HW135750   2.144   2.462   0.520 -0.7431  0.4515 -0.2693
 8096SOL    HW235751   2.034   2.459   0.599 -0.2189  0.3276 -0.8395
 8097SOL     OW35752   0.020   4.651   1.329 -0.2403 -0.3818 -0.0020
 8097SOL    HW135753   0.082   4.612   1.267 -0.3704  1.5541 -1.3513
 8097SOL    HW235754   4.657   4.643   1.283 -1.3101 -0.3004  1.9487
 8098SOL     OW35755   2.073   0.204   7.158  0.3123  0.1870 -0.0126
 8098SOL    HW135756   1.989   0.160   7.172 -1.2745  2.8076 -1.2645
 8098SOL    HW235757   2.062   0.288   7.203 -2.0986  0.5747 -1.3724
 8099SOL     OW35758   0.500   2.174   1.491 -0.4332 -0.1187 -0.2515
 8099SOL    HW135759   0.433   2.231   1.528  0.0475 -0.6595  1.4455
 8099SOL    HW235760   0.568   2.179   1.559  0.4692  0.2315 -1.1739
 8100SOL     OW35761   0.371   1.876   2.247 -0.1335  0.1193  0.3487
 8100SOL    HW135762   0.309   1.915   2.309  1.0017  0.4561  1.2592
 8100SOL    HW235763   0.333   1.791   2.227  0.1326 -0.6567  3.1976
 8101SOL     OW35764   2.064   2.884   2.555  0.6051 -0.2073  0.1481
 8101SOL    HW135765   2.159   2.894   2.552  0.6193 -0.3363  0.1438
 8101SOL    HW235766   2.047   2.843   2.640  1.9363  1.2093  1.1007
 8102SOL     OW35767   0.007   3.533   1.850 -0.1153 -0.4213  0.8207
 8102SOL    HW135768   4.675   3.459   1.818 -0.9222  0.3318  0.3789
 8102SOL    HW235769   0.084   3.527   1.793 -0.8331 -0.2336 -0.1633
 8103SOL     OW35770   4.370   2.509   1.247  0.2596  0.7117 -0.1644
 8103SOL    HW135771   4.376   2.604   1.237 -0.7977  0.5844 -1.9179
 8103SOL    HW235772   4.344   2.480   1.160 -0.9345 -0.2154  0.5105
 8104SOL     OW35773   1.517   2.484  10.817  0.4146 -0.1318  0.1994
 8104SOL    HW135774   1.447   2.443  10.766  2.2422 -0.7942 -1.7894
 8104SOL    HW235775   1.469   2.565  10.833 -2.0162 -1.5682  0.3179
 8105SOL     OW35776   3.880   3.103   3.455  0.1943  0.0696  0.0090
 8105SOL    HW135777   3.965   3.123   3.415 -0.6726  0.2115 -1.7081
 8105SOL    HW235778   3.900   3.025   3.509  1.9283  1.2589  1.0999
 8106SOL     OW35779   4.116   2.266   7.016  0.1235  0.2042 -0.3859
 8106SOL    HW135780   4.078   2.303   7.096  0.3572  0.4823 -0.4080
 8106SOL    HW235781   4.087   2.330   6.952 -1.4090  0.9922  1.0723
 8107SOL     OW35782   4.193   2.423  10.110 -0.0232  0.3223 -0.3739
 8107SOL    HW135783   4.119   2.428  10.050  0.2911 -1.0038 -0.8684
 8107SOL    HW235784   4.140   2.442  10.188 -0.7102 -2.3141 -0.2166
 8108SOL     OW35785   0.894   2.893  15.058 -0.3514  0.2704 -1.3956
 8108SOL    HW135786   0.880   2.974  15.107  3.5043 -1.0841  1.9539
 8108SOL    HW235787   0.814   2.851  15.089 -0.0551  0.8789  0.2057
 8109SOL     OW35788   2.149   4.525   6.611  0.7017 -0.2634 -0.1769
 8109SOL    HW135789   2.095   4.539   6.533 -0.2736  0.6390  0.6741
 8109SOL    HW235790   2.153   4.430   6.627  0.4105  0.2455  2.9042
 8110SOL     OW35791   4.297   4.279   2.399  0.0906 -0.1169  0.0880
 8110SOL    HW135792   4.369   4.311   2.453  0.6225 -1.2272  0.0301
 8110SOL    HW235793   4.332   4.192   2.380 -0.2373 -0.1761 -0.2688
 8111SOL     OW35794   0.299   4.105   3.580  0.5658 -0.5308  0.0130
 8111SOL    HW135795   0.342   4.183   3.545  1.3160 -0.3970  1.2351
 8111SOL    HW235796   0.260   4.069   3.500 -0.1818 -0.1736  0.2139
 8112SOL     OW35797   3.159   0.992   6.380 -0.2285 -1.0124  0.2101
 8112SOL    HW135798   3.087   0.992   6.317  0.3329 -0.9517 -0.4341
 8112SOL    HW235799   3.121   1.030   6.459 -2.2368 -0.6174 -0.9421
 8113SOL     OW35800   0.680   1.434   5.443  0.3490 -0.0640  0.2238
 8113SOL    HW135801   0.749   1.492   5.477  0.1835  1.4007 -1.9293
 8113SOL    HW235802   0.630   1.401   5.518 -1.8621  2.0210 -0.3149
 8114SOL     OW35803   1.754   2.466   0.790  0.1898  0.1263  0.3927
 8114SOL    HW135804   1.815   2.392   0.789  1.5631  1.2360  1.9820
 8114SOL    HW235805   1.691   2.431   0.727  0.9951  1.3148 -1.0630
 8115SOL     OW35806   0.321   4.010   0.025  0.8652  0.6619 -0.3170
 8115SOL    HW135807   0.265   4.010   0.103 -0.0630 -2.1765 -0.9911
 8115SOL    HW235808   0.311   4.101  17.678  1.6375  0.8414 -0.0231
 8116SOL     OW35809   2.832   2.936  15.770  0.1738  0.2556  0.0620
 8116SOL    HW135810   2.920   2.908  15.746  0.0971  0.9512 -1.0463
 8116SOL    HW235811   2.819   3.006  15.706 -1.3681  0.2718  0.3777
 8117SOL     OW35812   1.011   4.221   0.780 -0.2734 -0.6486 -0.0727
 8117SOL    HW135813   0.962   4.172   0.845 -0.6357  0.3833  0.4396
 8117SOL    HW235814   1.063   4.154   0.735 -0.7896 -1.5836  0.7235
 8118SOL     OW35815   2.323   0.112   1.088 -0.8740  0.4586 -0.0324
 8118SOL    HW135816   2.243   0.129   1.138 -2.1403 -1.4428 -1.3951
 8118SOL    HW235817   2.285   0.094   1.002 -0.8248 -0.3893  0.1214
 8119SOL     OW35818   3.463   2.771   9.112  0.1839 -0.0143  0.6852
 8119SOL    HW135819   3.392   2.768   9.177 -1.0516 -0.8631 -0.7129
 8119SOL    HW235820   3.487   2.679   9.100  2.4505  0.8384 -1.2960
 8120SOL     OW35821   0.816   1.182   5.026 -0.2426  0.4682 -0.1822
 8120SOL    HW135822   0.815   1.092   5.057  0.2470  0.7837  0.7578
 8120SOL    HW235823   0.828   1.225   5.111  1.0087  3.1683 -1.6957
 8121SOL     OW35824   4.454   0.834   1.877  0.3981 -0.0487  0.0251
 8121SOL    HW135825   4.405   0.820   1.796  1.0067  1.3824 -0.5880
 8121SOL    HW235826   4.406   0.907   1.917  1.7737  0.4541  0.7554
 8122SOL     OW35827   4.038   1.243   9.970  0.5576  0.4522 -0.2963
 8122SOL    HW135828   4.060   1.155   9.940  1.6583  0.3038  0.9836
 8122SOL    HW235829   3.959   1.213  10.015  0.3812  0.8489 -0.3389
 8123SOL     OW35830   3.538   0.513   1.967  0.1330 -0.1080  0.3252
 8123SOL    HW135831   3.466   0.451   1.982 -0.9869  0.8560 -1.0351
 8123SOL    HW235832   3.592   0.452   1.918 -0.1199 -0.4315  0.4476
 8124SOL     OW35833   0.648   0.739   4.155 -0.0570 -0.4473  0.6721
 8124SOL    HW135834   0.554   0.722   4.145 -0.2476  0.8697  0.2084
 8124SOL    HW235835   0.651   0.835   4.152 -1.1960 -0.3920  1.1770
 8125SOL     OW35836   1.569   0.657   6.053 -0.1388 -0.5135 -0.4943
 8125SOL    HW135837   1.477   0.631   6.044  0.1191 -1.2316 -1.1047
 8125SOL    HW235838   1.566   0.744   6.013  0.8291  0.7196  2.1318
 8126SOL     OW35839   2.772   1.850  13.752 -0.5956 -0.3327  0.3011
 8126SOL    HW135840   2.807   1.777  13.701 -1.2863 -0.0079 -0.6300
 8126SOL    HW235841   2.859   1.875  13.785  0.9893 -2.0791 -2.5755
 8127SOL     OW35842   2.647   3.452   1.272 -0.3187 -0.3746 -0.0334
 8127SOL    HW135843   2.706   3.442   1.346 -0.2121 -0.6491 -0.1544
 8127SOL    HW235844   2.627   3.545   1.285 -0.4154 -0.7392  2.4815
 8128SOL     OW35845   4.261   0.871  15.156  0.6334 -0.9315 -0.0437
 8128SOL    HW135846   4.320   0.887  15.229  1.2378 -0.3648 -0.6571
 8128SOL    HW235847   4.260   0.776  15.160 -1.8501 -0.8757  0.6138
 8129SOL     OW35848   1.309   0.215   7.920  0.2888  0.2097  0.2956
 8129SOL    HW135849   1.388   0.200   7.972  0.4463  0.5839  0.1635
 8129SOL    HW235850   1.238   0.230   7.982  0.8947  0.3202  0.9677
 8130SOL     OW35851   1.900   0.242  15.239 -0.5832  0.2262 -0.1216
 8130SOL    HW135852   1.889   0.335  15.258 -0.5090 -0.1812  1.8323
 8130SOL    HW235853   1.875   0.208  15.324  1.3355  0.6403  0.6118
 8131SOL     OW35854   4.632   2.062  15.924 -0.3308  0.5662  1.0748
 8131SOL    HW135855   4.569   2.102  15.864  0.3411 -1.1425 -0.7569
 8131SOL    HW235856   4.613   2.090  16.013 -0.3675 -1.5460  1.7358
 8132SOL     OW35857   2.856   3.648   2.170  0.1859 -0.2570 -0.5107
 8132SOL    HW135858   2.913   3.702   2.224 -2.3134 -0.6224  2.5244
 8132SOL    HW235859   2.826   3.703   2.098  0.0946 -1.4506 -1.3828
 8133SOL     OW35860   1.582   3.942   2.203 -0.1591 -0.1003  0.2808
 8133SOL    HW135861   1.532   3.981   2.131  0.2499  1.9531  1.1188
 8133SOL    HW235862   1.535   3.960   2.285  1.5097 -0.8819  1.4088
 8134SOL     OW35863   4.527   0.085   0.096 -0.5096 -0.1963  0.7976
 8134SOL    HW135864   4.603   0.094   0.154 -0.3403  0.7210  0.4398
 8134SOL    HW235865   4.497   0.175   0.110  0.5299 -0.2228  3.1834
 8135SOL     OW35866   0.534   3.673   8.306 -0.2228 -0.1779  0.7860
 8135SOL    HW135867   0.559   3.722   8.229 -1.1492  0.0644  0.6392
 8135SOL    HW235868   0.478   3.733   8.356 -1.8275  0.8987 -2.3525
 8136SOL     OW35869   2.323   2.776   2.485  0.2540 -0.1138 -0.0657
 8136SOL    HW135870   2.377   2.703   2.454  1.0548 -0.2755  1.6905
 8136SOL    HW235871   2.381   2.833   2.535  0.9956 -1.9379  1.1719
 8137SOL     OW35872   3.366   2.853   0.926 -0.4056 -0.0349 -0.5553
 8137SOL    HW135873   3.337   2.858   1.017  1.3637  0.7301 -0.0316
 8137SOL    HW235874   3.438   2.916   0.917 -0.7330  0.6904  1.8957
 8138SOL     OW35875   0.504   0.030   7.100 -0.2468 -0.4208 -0.5746
 8138SOL    HW135876   0.415   0.064   7.112 -0.5656 -0.6429 -2.2660
 8138SOL    HW235877   0.553   0.111   7.114  2.6551 -2.6407  2.0484
 8139SOL     OW35878   4.381   1.561   6.036 -0.5523  0.0034  0.4804
 8139SOL    HW135879   4.453   1.615   6.068 -2.8258  2.9952  0.6121
 8139SOL    HW235880   4.370   1.609   5.953 -1.1532  0.3796  0.7821
 8140SOL     OW35881   1.154   1.215   6.775  1.2895 -0.3792 -0.0348
 8140SOL    HW135882   1.120   1.297   6.741 -2.0958 -2.4635 -1.7538
 8140SOL    HW235883   1.241   1.245   6.801 -0.3520  2.2428  2.4031
 8141SOL     OW35884   0.414   2.968   6.997  0.2543 -0.0443 -0.3293
 8141SOL    HW135885   0.476   3.036   6.971 -0.5959  0.3347 -1.3603
 8141SOL    HW235886   0.464   2.886   7.001 -3.4857 -2.3896 -1.0856
 8142SOL     OW35887   1.063   3.894  12.484 -0.0253  0.0620  0.3667
 8142SOL    HW135888   1.026   3.934  12.406 -0.0116  0.0884  0.3739
 8142SOL    HW235889   1.135   3.840  12.450  0.9987  2.5794 -1.4441
 8143SOL     OW35890   2.141   3.380   6.204 -0.1642  0.2063  0.2400
 8143SOL    HW135891   2.170   3.318   6.271 -0.1118 -1.7617 -1.6158
 8143SOL    HW235892   2.121   3.317   6.134 -1.3743  1.8203 -0.8458
 8144SOL     OW35893   1.729   1.403   8.364  0.1904  0.5526  0.1336
 8144SOL    HW135894   1.814   1.439   8.393  0.1342  0.6450  0.1849
 8144SOL    HW235895   1.692   1.479   8.318  0.6284  0.8878  0.3244
 8145SOL     OW35896   1.756   1.605   0.600 -0.2146 -0.7935  0.7333
 8145SOL    HW135897   1.819   1.632   0.532 -0.1991 -0.2796  0.9468
 8145SOL    HW235898   1.811   1.617   0.677  0.9396  1.0824 -0.3546
 8146SOL     OW35899   0.624   3.412  10.653 -0.0476  0.3658 -0.1132
 8146SOL    HW135900   0.617   3.485  10.714  0.3343  0.5500 -0.2884
 8146SOL    HW235901   0.552   3.428  10.593 -0.3983  3.0507  1.0573
 8147SOL     OW35902   0.833   1.610   4.228  0.1035  0.1689  0.3906
 8147SOL    HW135903   0.752   1.641   4.268 -1.0092 -2.6594  0.3131
 8147SOL    HW235904   0.870   1.695   4.206  0.4319 -0.0106  0.2481
 8148SOL     OW35905   2.299   2.744   3.569  0.2425  0.3390  0.0637
 8148SOL    HW135906   2.283   2.715   3.659 -0.2899  0.0481 -0.1259
 8148SOL    HW235907   2.230   2.697   3.523  0.3976  0.0146  0.1604
 8149SOL     OW35908   0.025   1.682   2.225 -0.1209  0.6377  0.0867
 8149SOL    HW135909   4.667   1.635   2.257 -0.9616  1.9079 -0.1268
 8149SOL    HW235910   0.021   1.654   2.134  0.7280  1.4095 -0.1836
 8150SOL     OW35911   0.747   1.084  15.498  0.0085 -0.0005  0.5080
 8150SOL    HW135912   0.704   1.161  15.462  0.4143  0.1642  0.3882
 8150SOL    HW235913   0.838   1.113  15.502  0.0885 -0.3285  1.2128
 8151SOL     OW35914   3.835   2.602   0.601  0.5009 -0.3710  0.2951
 8151SOL    HW135915   3.846   2.528   0.661 -1.9334  0.6297  1.9754
 8151SOL    HW235916   3.758   2.577   0.550 -0.7702  0.9031  1.5758
 8152SOL     OW35917   0.591   4.001   3.066  0.3490  0.1489 -0.3976
 8152SOL    HW135918   0.685   3.986   3.056  0.7976  1.1305  2.2747
 8152SOL    HW235919   0.559   3.950   2.992  1.4822 -0.3150 -0.5637
 8153SOL     OW35920   1.369   1.823   2.624  0.2980 -0.0855  0.1747
 8153SOL    HW135921   1.274   1.811   2.632  0.0922  0.1215 -1.8997
 8153SOL    HW235922   1.403   1.753   2.680 -0.3440  1.1224  2.0728
 8154SOL     OW35923   1.707   2.791   5.323  0.0868 -0.0427 -0.4330
 8154SOL    HW135924   1.642   2.817   5.258  0.8305  1.3765 -0.6168
 8154SOL    HW235925   1.678   2.706   5.355 -1.0055  0.4846 -0.0002
 8155SOL     OW35926   4.051   3.243   2.191  0.7774 -0.6493 -0.4855
 8155SOL    HW135927   4.040   3.165   2.246 -1.7364 -0.5399 -0.8409
 8155SOL    HW235928   4.047   3.209   2.101  0.7063  1.6960 -1.3671
 8156SOL     OW35929   1.118   2.965   6.849 -0.1912 -0.4510 -0.3906
 8156SOL    HW135930   1.053   2.897   6.867  1.8524 -2.2362  0.2189
 8156SOL    HW235931   1.083   3.039   6.897 -1.0305 -1.6915  0.9026
 8157SOL     OW35932   2.981   1.424   7.747 -0.2904 -0.0244  0.1784
 8157SOL    HW135933   2.995   1.477   7.825 -1.3696  2.7392 -1.5033
 8157SOL    HW235934   2.938   1.495   7.700 -1.0489 -0.8130 -0.3187
 8158SOL     OW35935   4.331   2.332  11.888 -0.5207 -0.3586 -0.5689
 8158SOL    HW135936   4.241   2.303  11.871  0.4250 -2.6777 -1.5786
 8158SOL    HW235937   4.371   2.293  11.810  1.0790 -0.6799  0.4212
 8159SOL     OW35938   1.332   4.150   8.978  0.6028  0.2339  0.1348
 8159SOL    HW135939   1.376   4.089   8.919  0.4083 -1.0018  1.2471
 8159SOL    HW235940   1.247   4.134   8.937  0.5800 -1.6176  0.8936
 8160SOL     OW35941   0.471   2.626   5.231 -0.4062  0.1165 -0.4540
 8160SOL    HW135942   0.421   2.678   5.168 -2.2774  2.1710  2.7371
 8160SOL    HW235943   0.431   2.676   5.302  2.2257  0.0994  1.0155
 8161SOL     OW35944   4.155   2.662   1.397 -0.1992 -0.2791  0.0736
 8161SOL    HW135945   4.175   2.755   1.406 -3.1443  0.4763 -1.1242
 8161SOL    HW235946   4.180   2.627   1.483  1.7324 -1.5622 -1.0058
 8162SOL     OW35947   3.725   2.735  11.518 -0.3403  0.0260 -0.0949
 8162SOL    HW135948   3.730   2.710  11.426 -0.5461 -0.2587 -0.0291
 8162SOL    HW235949   3.787   2.808  11.515 -0.5312  0.1068 -2.3718
 8163SOL     OW35950   3.281   2.191   7.434  0.9369 -0.0622  0.1342
 8163SOL    HW135951   3.286   2.208   7.528 -2.2236  1.2094  0.0615
 8163SOL    HW235952   3.367   2.216   7.399  0.1505  0.5068 -1.3807
 8164SOL     OW35953   4.667   3.449   5.271  0.3848  0.5733  0.5551
 8164SOL    HW135954   4.581   3.415   5.298  0.5685  0.2293  0.7152
 8164SOL    HW235955   4.679   3.409   5.185 -1.0651 -1.7276  1.3935
 8165SOL     OW35956   3.441   0.719   2.247  0.2870  0.3874  0.0074
 8165SOL    HW135957   3.467   0.632   2.214 -0.9108 -1.1411  3.0928
 8165SOL    HW235958   3.430   0.756   2.160  1.9486  0.0119 -0.3790
 8166SOL     OW35959   1.290   4.320   3.393 -0.2534 -0.5503  0.7472
 8166SOL    HW135960   1.277   4.323   3.298  1.7407 -1.6659  0.4508
 8166SOL    HW235961   1.280   4.225   3.402 -0.2842 -0.8651 -2.6064
 8167SOL     OW35962   1.168   1.600   6.160 -0.0361 -0.7487  0.1383
 8167SOL    HW135963   1.211   1.683   6.184 -1.7359  0.0685  0.3830
 8167SOL    HW235964   1.176   1.604   6.065  2.6490  2.1456  0.4478
 8168SOL     OW35965   4.540   3.710   7.813  0.2940 -0.0869 -0.1136
 8168SOL    HW135966   4.559   3.772   7.743 -3.7433  0.4721 -0.7215
 8168SOL    HW235967   4.598   3.634   7.805  0.8481  0.4662 -1.3207
 8169SOL     OW35968   4.629   4.070  17.494  1.3741 -0.0699  0.1805
 8169SOL    HW135969   4.545   4.114  17.480  1.7309  0.5995  0.1419
 8169SOL    HW235970   4.609   3.977  17.485  0.3227  0.4071 -2.8041
 8170SOL     OW35971   2.043   3.803   1.721 -0.0766  0.3536  0.0270
 8170SOL    HW135972   1.953   3.807   1.691  0.4713  0.0317 -1.6522
 8170SOL    HW235973   2.033   3.737   1.790 -2.0639  0.8235  0.1813
 8171SOL     OW35974   0.901   1.576   5.443 -0.0604  0.3545 -0.2257
 8171SOL    HW135975   0.895   1.667   5.414 -3.5233  0.9546  2.3623
 8171SOL    HW235976   0.918   1.543   5.355 -0.6410 -2.0613  0.5716
 8172SOL     OW35977   4.338   0.383   5.053 -1.1723  0.0829  0.5066
 8172SOL    HW135978   4.300   0.312   5.105 -1.5176 -0.7614 -0.9128
 8172SOL    HW235979   4.266   0.438   5.023 -0.3404  1.1098  0.3874
 8173SOL     OW35980   3.743   2.710   2.276  0.3270 -0.7483 -0.4532
 8173SOL    HW135981   3.758   2.762   2.196 -3.3077  0.2192 -0.5258
 8173SOL    HW235982   3.749   2.777   2.345  1.8046 -1.8056  0.4336
 8174SOL     OW35983   4.160   1.963  15.808 -0.3367 -0.0998  0.1862
 8174SOL    HW135984   4.207   1.886  15.840  0.6550  0.4171 -0.0434
 8174SOL    HW235985   4.211   1.979  15.729  2.9767 -1.6991  1.9968
 8175SOL     OW35986   2.869   2.404   5.473 -0.2931 -0.2193 -0.1568
 8175SOL    HW135987   2.795   2.361   5.431  1.4853 -2.4163 -1.0011
 8175SOL    HW235988   2.857   2.366   5.559  1.5171  0.7770  0.5464
 8176SOL     OW35989   3.517   1.253   6.542  0.7114 -0.0926 -0.3439
 8176SOL    HW135990   3.490   1.162   6.555 -0.0798  0.1324 -0.4374
 8176SOL    HW235991   3.593   1.252   6.484 -0.0937 -0.3040 -1.3741
 8177SOL     OW35992   4.106   4.532   3.719 -0.0187  0.3503  0.3690
 8177SOL    HW135993   4.158   4.588   3.662  0.6288  1.8613  2.4453
 8177SOL    HW235994   4.179   4.508   3.776  0.2786  0.5618  0.0779
 8178SOL     OW35995   1.227   1.926  12.079  0.2785  0.2519 -0.1787
 8178SOL    HW135996   1.296   1.868  12.111 -1.3260 -0.5717  1.7609
 8178SOL    HW235997   1.236   2.010  12.124 -0.1409 -0.9439  2.0996
 8179SOL     OW35998   4.428   0.736   8.835 -0.2715  0.0844 -0.4363
 8179SOL    HW135999   4.446   0.665   8.774  0.6989 -0.8284  0.9081
 8179SOL    HW236000   4.352   0.702   8.883 -0.8255  1.9578  0.0285
 8180SOL     OW36001   2.341   2.971   4.312 -0.0813  0.1631  0.0400
 8180SOL    HW136002   2.292   2.952   4.232 -0.9846 -2.4022  1.2005
 8180SOL    HW236003   2.393   2.891   4.320  1.0954  0.6407 -2.7012
 8181SOL     OW36004   1.049   2.009   8.184 -0.3669  0.3992  0.1025
 8181SOL    HW136005   1.120   2.066   8.213 -0.9053  0.7795  0.6714
 8181SOL    HW236006   1.087   1.926   8.211  0.6810  0.9874  0.4337
 8182SOL     OW36007   2.779   0.950   4.310 -0.3785  0.4720 -0.2849
 8182SOL    HW136008   2.736   0.944   4.225 -1.2306  0.1128  0.1744
 8182SOL    HW236009   2.817   0.863   4.320 -0.0053  0.7486  0.7228
 8183SOL     OW36010   3.878   1.433   5.919  0.0271 -0.2431 -0.0894
 8183SOL    HW136011   3.830   1.425   5.837 -1.6557  1.8999  0.6868
 8183SOL    HW236012   3.971   1.446   5.900  0.4517 -2.5055  0.4055
 8184SOL     OW36013   1.671   1.014   9.334 -0.3862  0.1451 -0.4237
 8184SOL    HW136014   1.680   1.092   9.281  0.1032 -0.1439 -0.7643
 8184SOL    HW236015   1.705   0.948   9.274 -2.6235 -1.9178  0.5975
 8185SOL     OW36016   0.744   2.976   9.839  0.5906 -0.1366  0.3085
 8185SOL    HW136017   0.650   2.956   9.840  0.3439  0.9758 -0.9398
 8185SOL    HW236018   0.767   2.919   9.766  0.4482  0.6568 -0.3506
 8186SOL     OW36019   0.943   2.500   9.656  0.2226  0.5072 -0.5038
 8186SOL    HW136020   1.010   2.545   9.708  1.9735  0.0046 -2.3150
 8186SOL    HW236021   0.987   2.440   9.595 -0.6180 -0.5068 -0.1067
 8187SOL     OW36022   3.034   2.864   7.793 -0.0130  0.0190  0.2125
 8187SOL    HW136023   2.957   2.823   7.752 -0.0333  0.1131  0.1576
 8187SOL    HW236024   3.026   2.956   7.768  0.9784 -0.3269 -1.4378
 8188SOL     OW36025   4.021   4.212   9.198 -0.1348 -0.0127 -0.2940
 8188SOL    HW136026   3.929   4.189   9.181  0.2019 -1.7634  0.2682
 8188SOL    HW236027   4.045   4.153   9.269  0.1370 -0.3872 -0.6940
 8189SOL     OW36028   3.239   0.704   9.922 -0.3647  0.3159  0.0317
 8189SOL    HW136029   3.219   0.623   9.968  2.6371 -1.2293 -1.3584
 8189SOL    HW236030   3.152   0.734   9.896 -1.2657 -1.2518  1.2935
 8190SOL     OW36031   3.237   3.827  12.085 -0.1614  0.1722  0.1976
 8190SOL    HW136032   3.303   3.870  12.140  0.4777  0.9069 -1.1559
 8190SOL    HW236033   3.172   3.805  12.152 -0.4494 -0.5674 -0.3270
 8191SOL     OW36034   0.833   2.036   6.738  0.7415 -0.0190 -0.0102
 8191SOL    HW136035   0.794   1.991   6.813  3.2255 -0.4948  0.9988
 8191SOL    HW236036   0.800   2.125   6.751  2.1320  0.3533  1.0241
 8192SOL     OW36037   3.529   0.347   3.999 -0.0131  0.0591  0.0522
 8192SOL    HW136038   3.571   0.344   3.913  0.7143  0.3700  0.3867
 8192SOL    HW236039   3.541   0.437   4.031  0.1832  1.3252 -3.5437
 8193SOL     OW36040   1.585   1.688   4.147 -0.0338 -0.0306 -0.1088
 8193SOL    HW136041   1.591   1.759   4.083 -0.2430 -1.0012 -1.2139
 8193SOL    HW236042   1.639   1.613   4.122 -0.4038 -0.8941  1.6689
 8194SOL     OW36043   0.013   2.396   4.677 -0.0259 -0.6344  0.3465
 8194SOL    HW136044   0.020   2.483   4.717  0.8758 -1.0975  1.2137
 8194SOL    HW236045   0.023   2.419   4.585  0.3382  0.2221  0.5932
 8195SOL     OW36046   0.867   3.483   3.516 -0.0339 -0.2377  0.8476
 8195SOL    HW136047   0.811   3.552   3.480  0.9084  0.0505 -0.0528
 8195SOL    HW236048   0.937   3.462   3.454  1.1251  0.5396  1.9085
 8196SOL     OW36049   3.279   2.792  14.884 -0.4489  0.0945  0.5136
 8196SOL    HW136050   3.185   2.774  14.876 -0.5174  0.6693  0.0131
 8196SOL    HW236051   3.276   2.830  14.972  0.2066 -0.2700  0.6861
 8197SOL     OW36052   4.710   1.290  11.510  0.0153 -0.0469 -0.4228
 8197SOL    HW136053   0.064   1.268  11.567  0.1268  1.7044  0.1112
 8197SOL    HW236054   4.634   1.240  11.541  0.4842 -0.8230 -0.5224
 8198SOL     OW36055   3.473   1.021  15.814  0.1001 -0.6112 -0.1265
 8198SOL    HW136056   3.456   1.050  15.724 -0.1420 -1.8511 -0.4829
 8198SOL    HW236057   3.398   1.056  15.862  1.9486  0.3921  2.0220
 8199SOL     OW36058   2.152   3.894   9.052  0.1479  0.8590  0.3810
 8199SOL    HW136059   2.109   3.810   9.036  0.6062  0.4051  1.5010
 8199SOL    HW236060   2.186   3.915   8.965  1.8125 -0.5697  0.6929
 8200SOL     OW36061   3.485   1.185  13.251  0.1501  0.8202  0.2328
 8200SOL    HW136062   3.574   1.162  13.277 -0.8559 -1.4704  1.6382
 8200SOL    HW236063   3.480   1.161  13.159  1.3240  2.0230 -0.1556
 8201SOL     OW36064   1.707   1.259   6.979  0.2524  0.1712 -0.2516
 8201SOL    HW136065   1.707   1.344   7.023 -0.5397  0.4594 -0.7957
 8201SOL    HW236066   1.776   1.213   7.026  0.3173  2.2270  1.6793
 8202SOL     OW36067   4.200   1.755  16.530 -0.8415 -0.3398 -0.2877
 8202SOL    HW136068   4.197   1.830  16.471 -1.1387  0.2993  0.5404
 8202SOL    HW236069   4.295   1.752  16.542 -0.5663  1.6674 -1.9163
 8203SOL     OW36070   2.541   1.959  13.863 -0.3223  0.1634  0.8128
 8203SOL    HW136071   2.625   1.926  13.833  0.5147  2.5133  0.6116
 8203SOL    HW236072   2.488   1.958  13.784  1.8189  2.1070 -0.6490
 8204SOL     OW36073   3.260   0.773   3.894  0.2466 -0.0310 -0.0867
 8204SOL    HW136074   3.343   0.772   3.847 -0.3061  2.3177 -1.0879
 8204SOL    HW236075   3.258   0.855   3.943  1.5912 -0.2933  0.4006
 8205SOL     OW36076   4.002   0.036   7.417  0.7361  0.1957 -0.1562
 8205SOL    HW136077   4.067   4.703   7.463  1.3074  1.8635  0.9407
 8205SOL    HW236078   4.051   0.112   7.386 -0.1992  0.9271  0.1432
 8206SOL     OW36079   2.927   2.390  11.302 -0.1189 -0.2497  0.3184
 8206SOL    HW136080   2.845   2.364  11.260  0.0259  1.3192 -0.8919
 8206SOL    HW236081   2.980   2.321  11.261  1.3725  0.3893  1.1462
 8207SOL     OW36082   2.564   3.439   3.734  0.4212  0.3953  0.3857
 8207SOL    HW136083   2.547   3.420   3.826  2.2538  4.1464  1.4906
 8207SOL    HW236084   2.610   3.523   3.729 -1.9033  1.6533  0.0954
 8208SOL     OW36085   3.068   4.443   5.646 -0.1612  0.0199  0.1569
 8208SOL    HW136086   3.043   4.396   5.567 -1.2625  0.2954  0.3296
 8208SOL    HW236087   3.026   4.385   5.709 -2.5132  0.2789 -1.1686
 8209SOL     OW36088   2.523   3.630  12.055 -0.2060  0.0578  0.6675
 8209SOL    HW136089   2.546   3.593  12.140  2.5258  2.6900  1.0462
 8209SOL    HW236090   2.591   3.696  12.041 -2.0238  2.0437  1.2304
 8210SOL     OW36091   0.287   1.705   8.355  0.2480 -0.2646  0.3705
 8210SOL    HW136092   0.241   1.684   8.273 -0.3403  1.1440  0.3335
 8210SOL    HW236093   0.254   1.795   8.359  1.1478  0.1415 -1.2657
 8211SOL     OW36094   4.564   1.628   6.247  0.0719  0.1384  0.0923
 8211SOL    HW136095   4.632   1.636   6.313  0.0442  0.4425  0.0829
 8211SOL    HW236096   4.585   1.541   6.211 -2.4308 -0.7988  0.8594
 8212SOL     OW36097   0.041   1.214   4.826 -0.4100 -0.2728 -0.2708
 8212SOL    HW136098   0.021   1.236   4.735  0.1850  1.1170 -0.0641
 8212SOL    HW236099   0.133   1.184   4.824 -0.8524 -1.4838 -2.5623
 8213SOL     OW36100   4.506   2.010   9.246  0.0347  0.0632  0.2213
 8213SOL    HW136101   4.550   2.063   9.313  0.0804  0.6839 -0.2891
 8213SOL    HW236102   4.431   1.996   9.303  0.3426  2.1624  1.1523
 8214SOL     OW36103   1.925   4.258  17.175 -0.0174 -0.3115  0.0204
 8214SOL    HW136104   1.963   4.193  17.115  1.4992 -0.9701  1.6926
 8214SOL    HW236105   1.849   4.298  17.132 -0.1421  0.9221  1.3693
 8215SOL     OW36106   2.424   2.904   6.355  0.1184 -0.8933  0.2858
 8215SOL    HW136107   2.340   2.877   6.318  0.7280  0.5599 -2.1088
 8215SOL    HW236108   2.447   2.972   6.292 -2.2820 -0.9594 -0.6591
 8216SOL     OW36109   2.074   3.940   8.467 -0.0940  0.4634 -0.1305
 8216SOL    HW136110   2.106   4.027   8.444 -1.3346  0.7795 -0.6742
 8216SOL    HW236111   2.152   3.886   8.454 -0.9307 -0.4804 -1.3249
 8217SOL     OW36112   2.836   1.576   9.971 -0.0977  0.3705 -0.0272
 8217SOL    HW136113   2.828   1.569   9.876  1.4152 -0.5752 -0.0863
 8217SOL    HW236114   2.899   1.647   9.985  2.3156 -1.4654 -1.6923
 8218SOL     OW36115   1.361   0.154   1.991  0.4503  0.0736 -0.5193
 8218SOL    HW136116   1.410   0.186   2.066 -1.8740 -1.4328  1.6603
 8218SOL    HW236117   1.337   0.240   1.955 -1.8907 -0.0483  0.7546
 8219SOL     OW36118   2.775   3.161   2.882  0.5340 -0.0172 -0.1524
 8219SOL    HW136119   2.863   3.198   2.875 -0.5095  2.6853  1.1254
 8219SOL    HW236120   2.781   3.127   2.971  0.3467 -0.2756 -0.2398
 8220SOL     OW36121   4.333   3.608   0.817  0.7101 -0.3956  0.3469
 8220SOL    HW136122   4.252   3.579   0.774  0.3354  0.6144  0.3717
 8220SOL    HW236123   4.393   3.534   0.815  1.4130  0.1800  0.2167
 8221SOL     OW36124   3.467   0.776   8.180  0.0693 -0.5633 -0.3886
 8221SOL    HW136125   3.456   0.725   8.260 -2.5390 -0.2154 -0.5421
 8221SOL    HW236126   3.539   0.828   8.215  1.0333 -1.0766 -1.5857
 8222SOL     OW36127   0.653   4.260   3.064  0.0419 -0.2854  0.3156
 8222SOL    HW136128   0.581   4.305   3.019 -1.4761  0.5073  3.4516
 8222SOL    HW236129   0.635   4.166   3.056  1.3270 -0.6154  1.3512
 8223SOL     OW36130   2.670   1.132   6.109 -0.7150 -0.3664 -0.1982
 8223SOL    HW136131   2.648   1.085   6.028 -1.5002  0.0146 -0.1985
 8223SOL    HW236132   2.584   1.173   6.116  0.2396  2.4005 -4.4410
 8224SOL     OW36133   4.051   1.878   9.539 -0.1111  0.4055  0.4314
 8224SOL    HW136134   3.988   1.807   9.530 -0.4498  0.6445  0.9213
 8224SOL    HW236135   4.056   1.885   9.634 -1.5672 -2.3040  0.7183
 8225SOL     OW36136   0.342   2.866  12.611 -0.2308 -0.3542 -0.2558
 8225SOL    HW136137   0.308   2.817  12.537 -0.2927 -0.9267  0.1534
 8225SOL    HW236138   0.410   2.802  12.633 -0.2964 -0.8859 -1.6149
 8226SOL     OW36139   3.245   1.012  14.648 -0.5973 -0.4161 -0.3216
 8226SOL    HW136140   3.264   0.923  14.620 -0.5686 -0.9669  1.4587
 8226SOL    HW236141   3.181   1.049  14.588 -1.1701  1.0900  1.2086
 8227SOL     OW36142   0.489   2.513   9.897 -0.1242 -0.2549 -0.2970
 8227SOL    HW136143   0.395   2.496   9.896 -0.1931  0.0756  1.8252
 8227SOL    HW236144   0.506   2.483   9.986  1.6735 -0.1098 -0.5867
 8228SOL     OW36145   1.231   2.414   9.849  0.2930 -0.7802 -0.0604
 8228SOL    HW136146   1.247   2.466   9.928  0.6129  0.9639 -1.2664
 8228SOL    HW236147   1.156   2.359   9.871  0.6017 -1.1048  0.1787
 8229SOL     OW36148   1.472   3.135   5.363  0.4543  0.0813 -0.2151
 8229SOL    HW136149   1.530   3.138   5.287  0.2849  1.5749 -0.2884
 8229SOL    HW236150   1.438   3.224   5.351  1.3398  0.0939 -2.6580
 8230SOL     OW36151   3.037   0.561  10.936 -0.1195  0.0798 -0.4399
 8230SOL    HW136152   3.129   0.545  10.958 -0.8295 -1.7383  1.2674
 8230SOL    HW236153   3.000   0.476  10.957  2.1482 -0.7931  0.0901
 8231SOL     OW36154   1.851   2.828   0.526  0.9141  0.3658  0.4403
 8231SOL    HW136155   1.835   2.840   0.433 -2.2042 -0.0774  0.9075
 8231SOL    HW236156   1.804   2.901   0.568  2.1346  0.3176  1.8999
 8232SOL     OW36157   1.416   1.983   8.869 -0.0879  0.7036  0.3785
 8232SOL    HW136158   1.501   1.941   8.860 -0.7796 -0.3628 -1.2740
 8232SOL    HW236159   1.405   1.998   8.775 -1.4439 -3.0063 -0.0342
 8233SOL     OW36160   2.218   1.659   3.794 -0.4779  0.5826 -0.1124
 8233SOL    HW136161   2.239   1.731   3.735  0.8533 -0.5290 -0.9970
 8233SOL    HW236162   2.137   1.695   3.829  0.2682  1.9475  0.2066
 8234SOL     OW36163   2.794   1.326  11.521 -0.2108 -0.0013  0.0888
 8234SOL    HW136164   2.773   1.400  11.464 -2.2946  1.4364  2.7359
 8234SOL    HW236165   2.770   1.354  11.609 -1.8784 -0.1217 -0.3393
 8235SOL     OW36166   1.365   2.533   7.331  0.7802 -0.0707 -0.1240
 8235SOL    HW136167   1.375   2.558   7.240 -0.5791 -0.1960 -0.3144
 8235SOL    HW236168   1.373   2.438   7.323 -4.2033 -0.6615  1.3626
 8236SOL     OW36169   3.930   3.769   7.497  0.3218  0.6232  0.5082
 8236SOL    HW136170   3.868   3.826   7.452 -0.9106 -1.1884 -0.0936
 8236SOL    HW236171   3.867   3.702   7.523  0.7922 -0.3368 -0.8369
 8237SOL     OW36172   3.237   4.290  13.515 -0.0665 -0.2794  0.1687
 8237SOL    HW136173   3.282   4.356  13.568  0.0325  0.5711 -0.9575
 8237SOL    HW236174   3.312   4.271  13.458  0.6429  1.2379  0.5818
 8238SOL     OW36175   0.488   3.545  13.415 -0.7290 -0.4850  0.4247
 8238SOL    HW136176   0.520   3.595  13.489 -0.8672 -1.8350  1.3966
 8238SOL    HW236177   0.570   3.530  13.369 -0.6550  1.4219 -0.0710
 8239SOL     OW36178   4.200   2.029   3.032 -0.1991  0.7191 -0.3147
 8239SOL    HW136179   4.191   1.935   3.013 -0.4424  0.8310 -0.7707
 8239SOL    HW236180   4.238   2.053   2.947  0.7795  0.4635  0.0506
 8240SOL     OW36181   3.040   4.306   2.269  0.5645  0.0424  0.5199
 8240SOL    HW136182   3.108   4.240   2.281 -0.5719 -0.8125  2.1566
 8240SOL    HW236183   3.091   4.339   2.194  0.6303 -0.3255  0.3996
 8241SOL     OW36184   2.541   2.617   8.249 -0.6127  0.8124  0.6895
 8241SOL    HW136185   2.585   2.542   8.210  5.2473  3.7274  1.7244
 8241SOL    HW236186   2.556   2.598   8.342  1.1409 -1.9558 -0.1494
 8242SOL     OW36187   3.254   3.436   7.544 -0.0021  0.1756 -0.6321
 8242SOL    HW136188   3.290   3.525   7.552 -0.6377  0.4404 -0.7407
 8242SOL    HW236189   3.170   3.447   7.588 -0.3576 -1.1849 -0.9633
 8243SOL     OW36190   4.267   3.538   2.376 -0.0281 -0.2281  0.0052
 8243SOL    HW136191   4.282   3.624   2.413 -1.9800  0.2568 -0.3413
 8243SOL    HW236192   4.298   3.481   2.447  2.6937  0.7238 -0.4160
 8244SOL     OW36193   4.627   0.346  17.049  0.0858 -0.2954 -0.2355
 8244SOL    HW136194   4.538   0.378  17.066 -0.3167 -0.0258 -2.9629
 8244SOL    HW236195   4.668   0.345  17.136 -1.1976  0.9917  0.3861
 8245SOL     OW36196   0.585   3.769   8.055  0.2444 -0.0423 -0.1679
 8245SOL    HW136197   0.659   3.742   8.000  0.7273  1.9557 -0.5018
 8245SOL    HW236198   0.518   3.758   7.988  0.4418  0.8700 -0.5231
 8246SOL     OW36199   2.332   3.364  14.188 -0.1175 -0.5789 -0.4345
 8246SOL    HW136200   2.373   3.396  14.107  2.2658 -1.7649  0.2845
 8246SOL    HW236201   2.363   3.274  14.176 -0.9052 -1.1391  1.8669
 8247SOL     OW36202   0.794   1.878   3.375 -0.0026  0.0149 -0.2776
 8247SOL    HW136203   0.872   1.880   3.320  0.8455 -2.0095  0.8711
 8247SOL    HW236204   0.752   1.793   3.360 -1.3142  0.5753  0.2058
 8248SOL     OW36205   0.420   2.714   3.833 -0.0136  0.4882 -0.1965
 8248SOL    HW136206   0.335   2.758   3.843  0.7134  1.8771 -0.1965
 8248SOL    HW236207   0.451   2.716   3.923 -0.8172 -1.5887  0.1278
 8249SOL     OW36208   0.170   3.783   8.000 -0.8174  0.0416 -0.2143
 8249SOL    HW136209   0.200   3.704   8.044  0.3607  1.0243  0.7349
 8249SOL    HW236210   0.179   3.751   7.910  2.1513  0.4719 -0.0729
 8250SOL     OW36211   3.953   4.307   4.656  0.0279 -0.6101 -0.6696
 8250SOL    HW136212   4.020   4.284   4.721 -0.2815  2.7549  0.8746
 8250SOL    HW236213   3.918   4.383   4.702  1.9708 -0.1202  0.0206
 8251SOL     OW36214   4.557   2.213   6.639 -0.6891 -0.1129 -0.0682
 8251SOL    HW136215   4.579   2.180   6.552  4.3504  1.6120  0.5532
 8251SOL    HW236216   4.551   2.309   6.630 -0.2588 -0.0801  0.0131
 8252SOL     OW36217   3.274   3.924   2.108  0.1025 -0.3308 -0.2463
 8252SOL    HW136218   3.302   4.014   2.093  0.1751 -0.2927  0.1223
 8252SOL    HW236219   3.183   3.931   2.079  0.6994 -1.0181 -2.3030
 8253SOL     OW36220   4.026   1.968   6.720 -0.1483 -0.2619  0.6292
 8253SOL    HW136221   4.037   1.917   6.640  0.0718  1.6333 -0.5464
 8253SOL    HW236222   4.117   1.984   6.744 -0.2736  2.4938 -0.7837
 8254SOL     OW36223   3.211   1.285   8.068  0.4366 -0.2162  0.1620
 8254SOL    HW136224   3.287   1.237   8.101 -0.0631 -1.8166 -1.0530
 8254SOL    HW236225   3.145   1.216   8.066  1.1375 -0.8896  0.5566
 8255SOL     OW36226   1.791   1.846   8.596 -0.2453  0.1455 -0.0437
 8255SOL    HW136227   1.740   1.846   8.676  1.3677 -2.0472  0.9922
 8255SOL    HW236228   1.873   1.883   8.629 -1.1241  1.2952  0.8216
 8256SOL     OW36229   2.913   3.163   8.837  0.1381 -0.2936 -0.0495
 8256SOL    HW136230   2.847   3.125   8.895 -1.7913  0.2932 -1.8816
 8256SOL    HW236231   2.988   3.103   8.848  0.4863  0.5327  2.0883
 8257SOL     OW36232   2.684   1.982  16.809 -0.0985 -0.2558  0.2612
 8257SOL    HW136233   2.628   1.924  16.861 -0.5260  0.2873  0.4089
 8257SOL    HW236234   2.661   2.070  16.840  0.4745  0.1506 -0.4600
 8258SOL     OW36235   1.648   4.235   4.012  0.2551  0.0259 -0.2969
 8258SOL    HW136236   1.579   4.244   4.077 -0.6749  1.1878 -1.4685
 8258SOL    HW236237   1.600   4.180   3.950  0.0512 -0.3389  0.1836
 8259SOL     OW36238   2.498   0.396   6.592 -0.3925  0.1883 -0.2477
 8259SOL    HW136239   2.507   0.488   6.618 -1.2812 -0.1810  1.3689
 8259SOL    HW236240   2.415   0.398   6.543  0.0797 -2.6491 -1.1585
 8260SOL     OW36241   1.267   0.442   9.302  0.4446  0.0946  0.1184
 8260SOL    HW136242   1.330   0.439   9.230 -0.3636 -0.5674 -0.5647
 8260SOL    HW236243   1.240   0.533   9.293 -2.0611 -0.6025  0.5491
 8261SOL     OW36244   2.394   1.666  11.457 -0.6234 -0.1238 -0.6988
 8261SOL    HW136245   2.398   1.710  11.372 -1.9074 -0.8010 -1.1187
 8261SOL    HW236246   2.301   1.657  11.480 -1.0563  0.8119 -2.0650
 8262SOL     OW36247   3.215   1.029   8.579 -0.1873  0.3297  0.2224
 8262SOL    HW136248   3.145   1.055   8.639 -3.4832 -4.7814 -1.3200
 8262SOL    HW236249   3.171   1.055   8.498 -1.4892  0.6355  1.0179
 8263SOL     OW36250   4.234   2.072  16.082  0.4782  0.4842  0.4376
 8263SOL    HW136251   4.201   2.158  16.105 -0.0193  1.4009 -3.7326
 8263SOL    HW236252   4.184   2.049  16.003  3.1901  2.2971 -1.7617
 8264SOL     OW36253   3.865   0.038  16.538 -0.3715 -0.0003 -0.4270
 8264SOL    HW136254   3.906   0.095  16.473 -2.6043 -0.1353 -1.9755
 8264SOL    HW236255   3.928   0.054  16.608  0.9141  2.1313 -2.0520
 8265SOL     OW36256   3.905   2.183   9.666 -0.2746  0.1397  0.1443
 8265SOL    HW136257   3.853   2.111   9.629  1.7462 -1.4306  0.3255
 8265SOL    HW236258   3.984   2.181   9.612 -0.1605 -0.7961  0.3416
 8266SOL     OW36259   0.157   3.209   1.726 -0.9369  0.6135 -0.4209
 8266SOL    HW136260   0.116   3.293   1.706  0.6087  1.9031  1.8613
 8266SOL    HW236261   0.096   3.159   1.671 -0.1626 -1.7774  0.9147
 8267SOL     OW36262   4.550   0.517  11.220  0.1953 -0.5087 -0.3815
 8267SOL    HW136263   4.528   0.609  11.203  1.6046  0.0830  1.0694
 8267SOL    HW236264   4.509   0.482  11.141 -3.3899 -0.3717  1.3987
 8268SOL     OW36265   3.995   3.146   6.499 -0.2248 -0.0975 -0.4339
 8268SOL    HW136266   4.046   3.182   6.572 -0.6416 -0.7815  0.1867
 8268SOL    HW236267   3.908   3.184   6.506 -1.0522 -1.6691 -2.1143
 8269SOL     OW36268   4.400   2.530   6.329  0.0613  0.1208 -0.0974
 8269SOL    HW136269   4.383   2.613   6.372 -0.1960 -0.8736  1.7083
 8269SOL    HW236270   4.480   2.555   6.284 -0.9104 -1.9464 -3.0125
 8270SOL     OW36271   2.087   0.692  13.358 -0.3987 -0.2900  0.2166
 8270SOL    HW136272   2.066   0.758  13.292  0.2304 -0.2776  0.0362
 8270SOL    HW236273   2.082   0.749  13.435  1.6901  0.0323  0.1044
 8271SOL     OW36274   4.377   1.884   8.600 -0.6659  0.3223 -0.4887
 8271SOL    HW136275   4.448   1.841   8.647 -1.6886  0.8990  1.5747
 8271SOL    HW236276   4.324   1.898   8.679 -1.2689  0.0699 -0.8552
 8272SOL     OW36277   0.296   4.157   7.212  0.3270 -0.2507 -0.3922
 8272SOL    HW136278   0.242   4.213   7.268 -0.5622 -1.7748  0.2670
 8272SOL    HW236279   0.223   4.097   7.196  1.3633 -1.8015  0.6316
 8273SOL     OW36280   2.332   3.620  16.128  0.0551  0.2314 -0.2319
 8273SOL    HW136281   2.374   3.552  16.077  0.1225  0.2579 -0.2119
 8273SOL    HW236282   2.254   3.627  16.073  0.4493  2.5133 -0.4967
 8274SOL     OW36283   2.075   1.201  13.319 -0.5277  0.1413  0.6243
 8274SOL    HW136284   2.152   1.152  13.293 -0.9935 -0.0959 -0.2927
 8274SOL    HW236285   2.073   1.275  13.258 -0.0737 -0.1356  0.2804
 8275SOL     OW36286   3.914   3.512   6.106 -0.0696  0.4111 -0.4441
 8275SOL    HW136287   3.942   3.427   6.140  0.9675  1.5764  1.6371
 8275SOL    HW236288   3.996   3.558   6.085 -0.4017  1.0175 -0.4320
 8276SOL     OW36289   0.169   0.792  16.075  0.2009  0.2310  0.1075
 8276SOL    HW136290   0.141   0.709  16.036 -0.2789  0.6853 -0.5164
 8276SOL    HW236291   0.143   0.860  16.012 -0.0282 -1.5825 -1.7465
 8277SOL     OW36292   4.319   0.774   3.761  0.2722  0.1139 -0.0720
 8277SOL    HW136293   4.291   0.865   3.750  0.0054  0.0017 -0.3133
 8277SOL    HW236294   4.285   0.758   3.849  0.3606  1.4469  0.2030
 8278SOL     OW36295   4.137   0.456  17.019  0.2522  0.0603 -0.1523
 8278SOL    HW136296   4.122   0.498  16.934 -1.2043  0.5608  0.3606
 8278SOL    HW236297   4.230   0.465  17.041  0.1928 -0.5152  0.3354
 8279SOL     OW36298   2.692   2.932   2.717 -0.3980 -0.3293 -0.2118
 8279SOL    HW136299   2.737   2.941   2.633  1.3390 -2.2763  0.5011
 8279SOL    HW236300   2.736   3.000   2.768  2.1774 -1.9997 -0.2036
 8280SOL     OW36301   2.495   4.495   3.443 -0.7285 -0.0641 -0.0587
 8280SOL    HW136302   2.490   4.571   3.386  0.9641  0.5568  0.6061
 8280SOL    HW236303   2.584   4.498   3.480 -0.9690  0.8178  0.4375
 8281SOL     OW36304   0.326   2.672   7.151  0.3540 -0.4022  0.2289
 8281SOL    HW136305   0.253   2.723   7.116 -1.2367 -2.7911  0.0539
 8281SOL    HW236306   0.393   2.686   7.084  0.9022 -1.5050  0.5426
 8282SOL     OW36307   0.322   3.133   3.798  0.1386 -0.3337  0.8559
 8282SOL    HW136308   0.376   3.202   3.759 -3.6273  1.6248 -0.8950
 8282SOL    HW236309   0.243   3.123   3.746  0.3992  0.7932  0.2381
 8283SOL     OW36310   0.712   2.754  10.496 -0.2175 -0.0214 -0.5273
 8283SOL    HW136311   0.676   2.674  10.458 -1.3676  0.4076 -0.3539
 8283SOL    HW236312   0.715   2.808  10.417  2.1523 -0.5696 -0.8143
 8284SOL     OW36313   0.099   0.186   6.707 -0.1879 -0.0220  0.8552
 8284SOL    HW136314   0.081   0.263   6.652  0.6540 -0.4511 -0.0120
 8284SOL    HW236315   0.133   0.133   6.636 -1.2584  0.6624 -0.1792
 8285SOL     OW36316   4.341   2.385   3.726  0.4994  0.3253 -0.3681
 8285SOL    HW136317   4.337   2.331   3.648  1.8693 -0.4173  0.0680
 8285SOL    HW236318   4.249   2.402   3.743  0.9383  0.2204  2.1175
 8286SOL     OW36319   0.803   2.068   8.963 -0.9065 -0.2079 -0.1183
 8286SOL    HW136320   0.894   2.085   8.987 -0.4829 -0.9205 -1.2432
 8286SOL    HW236321   0.813   1.973   8.952 -0.3659 -0.3690  1.7642
 8287SOL     OW36322   1.511   0.111  15.310  0.6456 -1.0118 -0.3128
 8287SOL    HW136323   1.455   0.034  15.320  0.9085 -1.2439 -0.6198
 8287SOL    HW236324   1.449   0.174  15.346 -1.1080 -0.9508 -3.4615
 8288SOL     OW36325   1.534   4.496   5.847 -0.6218  0.3196  0.0701
 8288SOL    HW136326   1.571   4.465   5.930  1.6285  0.7465 -0.7571
 8288SOL    HW236327   1.491   4.413   5.827  1.6475 -0.9607  0.4217
 8289SOL     OW36328   0.032   1.078   0.297 -0.1479  0.1162 -0.2636
 8289SOL    HW136329   0.005   1.121   0.216 -0.1245 -0.9665 -0.8592
 8289SOL    HW236330   4.664   1.068   0.335 -0.2349 -1.1306 -0.7628
 8290SOL     OW36331   1.842   3.887   5.174 -0.6603  0.0502  0.2562
 8290SOL    HW136332   1.898   3.908   5.249  0.0314 -0.4700 -0.1130
 8290SOL    HW236333   1.772   3.950   5.192  1.4648  1.7582  2.5950
 8291SOL     OW36334   2.626   3.896   3.978  0.0523 -0.3037 -0.4620
 8291SOL    HW136335   2.659   3.983   3.997 -3.5892  0.7424  0.9337
 8291SOL    HW236336   2.708   3.852   4.002 -1.1577 -2.0972  0.3979
 8292SOL     OW36337   0.099   0.368   3.519  0.3898 -0.5180  0.1557
 8292SOL    HW136338   0.044   0.445   3.509  0.7056 -0.0423  2.1027
 8292SOL    HW236339   0.174   0.394   3.466 -0.2682  1.8807  0.4149
 8293SOL     OW36340   0.719   2.518   6.685  0.2486 -0.2529  0.5790
 8293SOL    HW136341   0.815   2.523   6.683  0.0402  3.0275 -0.2401
 8293SOL    HW236342   0.695   2.606   6.712 -0.4567 -0.1883 -0.2599
 8294SOL     OW36343   2.862   4.225   2.037  0.7026  0.1959 -0.0589
 8294SOL    HW136344   2.809   4.149   2.061  1.8294 -1.1155 -1.7452
 8294SOL    HW236345   2.917   4.234   2.116 -1.9608 -1.7498  2.0108
 8295SOL     OW36346   1.381   3.672   8.362  0.4729  0.0085  0.3638
 8295SOL    HW136347   1.371   3.755   8.316 -0.8322 -0.3635 -0.0215
 8295SOL    HW236348   1.473   3.649   8.349  0.1478 -0.6361 -0.7667
 8296SOL     OW36349   0.097   4.470   9.263 -0.1195 -0.3918  0.3070
 8296SOL    HW136350   0.113   4.564   9.268  0.9199 -0.4818 -1.1021
 8296SOL    HW236351   0.079   4.460   9.169  2.2467  0.8113 -0.2677
 8297SOL     OW36352   1.509   0.834  16.408 -0.1646 -0.0727 -0.2572
 8297SOL    HW136353   1.534   0.881  16.329  0.7273  0.1680  0.1721
 8297SOL    HW236354   1.557   0.889  16.470  0.5332  0.1977 -1.0442
 8298SOL     OW36355   3.300   2.187   5.217 -0.1528 -0.1419  0.2924
 8298SOL    HW136356   3.330   2.123   5.282  1.4651  0.8722  0.5359
 8298SOL    HW236357   3.236   2.137   5.165  1.8296 -0.5923 -1.7121
 8299SOL     OW36358   3.740   0.696   4.245  0.2945 -0.2333 -0.1245
 8299SOL    HW136359   3.835   0.699   4.254  0.2063  2.2950 -0.2829
 8299SOL    HW236360   3.728   0.607   4.278 -3.4357  0.1970 -0.2933
 8300SOL     OW36361   0.536   1.781  16.430  0.4194 -0.5996  0.3610
 8300SOL    HW136362   0.448   1.818  16.434  0.5108 -0.4145  0.6799
 8300SOL    HW236363   0.545   1.725  16.508 -2.9607 -1.6235  0.0101
 8301SOL     OW36364   3.537   4.114   1.395 -0.7014  0.0435 -0.1224
 8301SOL    HW136365   3.619   4.129   1.442 -0.0910  1.0763 -1.5155
 8301SOL    HW236366   3.544   4.188   1.334  2.6415 -1.0621 -1.1285
 8302SOL     OW36367   3.617   0.715   9.612 -0.0996 -0.7392  0.6815
 8302SOL    HW136368   3.613   0.706   9.517  0.3225 -1.4724  0.7384
 8302SOL    HW236369   3.528   0.750   9.620  0.8097  0.9587  3.4307
 8303SOL     OW36370   3.352   4.112   5.248  0.0771  0.1032 -0.0223
 8303SOL    HW136371   3.337   4.163   5.328  1.2738  1.9615 -0.9879
 8303SOL    HW236372   3.430   4.156   5.213 -0.3734  0.3535 -0.7018
 8304SOL     OW36373   4.397   2.884   2.815 -0.2826 -0.8880 -0.0860
 8304SOL    HW136374   4.351   2.802   2.832 -2.2820  0.0266 -1.1036
 8304SOL    HW236375   4.466   2.854   2.755  0.6029 -0.2697  0.6170
 8305SOL     OW36376   1.767   0.472   2.251 -0.3956  0.0898 -0.3575
 8305SOL    HW136377   1.695   0.534   2.247  0.2398  0.9538  1.5504
 8305SOL    HW236378   1.819   0.502   2.176 -1.4002  0.1805 -1.0149
 8306SOL     OW36379   3.037   2.077  15.325 -0.2495  0.3623 -0.4187
 8306SOL    HW136380   2.945   2.098  15.341  0.1726  0.2473  2.1579
 8306SOL    HW236381   3.044   2.097  15.231 -1.4564 -1.3934 -0.8887
 8307SOL     OW36382   3.145   4.510   8.099  0.2661 -0.4197  0.6957
 8307SOL    HW136383   3.178   4.597   8.122  1.8633 -0.9553  0.4313
 8307SOL    HW236384   3.213   4.481   8.037  1.0279  0.4940  1.1046
 8308SOL     OW36385   0.747   0.173   7.799  0.6634 -0.3781  0.7141
 8308SOL    HW136386   0.714   0.198   7.713  0.8914  0.6914  0.9336
 8308SOL    HW236387   0.723   0.251   7.849 -0.3770 -0.4857  0.3768
 8309SOL     OW36388   0.671   4.542  10.177  0.3391 -0.4607 -0.0633
 8309SOL    HW136389   0.681   4.493  10.259  1.7035 -0.3769 -0.1765
 8309SOL    HW236390   0.720   4.494  10.109 -0.9670 -1.1117 -0.5378
 8310SOL     OW36391   1.226   3.068   7.690  0.5023 -0.0798  0.1169
 8310SOL    HW136392   1.263   3.041   7.774 -0.6770  0.4845  0.8213
 8310SOL    HW236393   1.131   3.061   7.700  0.3787 -1.0656 -1.6454
 8311SOL     OW36394   1.109   0.666   1.307 -0.0223 -0.2850  0.2048
 8311SOL    HW136395   1.070   0.620   1.381  0.7407  1.9102  1.9876
 8311SOL    HW236396   1.073   0.626   1.228  0.1484 -0.7820  0.3787
 8312SOL     OW36397   0.276   1.522   3.211  0.0499 -0.4978  0.0616
 8312SOL    HW136398   0.217   1.462   3.257  1.0987 -1.4518  0.1677
 8312SOL    HW236399   0.253   1.508   3.119  0.7420 -1.4607  0.0386
 8313SOL     OW36400   0.279   1.876  14.166 -0.0291  0.4388  0.0096
 8313SOL    HW136401   0.185   1.860  14.155 -0.2343  1.4992  0.1530
 8313SOL    HW236402   0.303   1.797  14.213 -0.4606  0.2264 -0.1238
 8314SOL     OW36403   1.252   3.717   8.639 -0.3955  0.6237  0.1967
 8314SOL    HW136404   1.346   3.702   8.630  0.0859  2.1398  2.6232
 8314SOL    HW236405   1.221   3.691   8.553  1.0408  1.5105 -0.5837
 8315SOL     OW36406   1.988   1.796  13.952  0.1770  0.0977 -0.0282
 8315SOL    HW136407   2.069   1.839  13.981 -0.6462 -0.7130  3.4039
 8315SOL    HW236408   2.010   1.767  13.864  1.0558  2.0212 -0.4453
 8316SOL     OW36409   3.111   2.789   1.391 -0.2436  0.2285 -0.1040
 8316SOL    HW136410   3.053   2.773   1.465  0.3521  1.4879  0.6322
 8316SOL    HW236411   3.179   2.727   1.416 -2.2586 -1.1828  1.8825
 8317SOL     OW36412   1.125   4.491   0.702 -0.1224  0.3222 -0.7468
 8317SOL    HW136413   1.099   4.427   0.768  1.1579  0.3176 -0.2423
 8317SOL    HW236414   1.045   4.501   0.650 -0.2898 -0.2128 -0.5808
 8318SOL     OW36415   1.550   3.536   2.649 -0.3901 -0.2839 -0.4180
 8318SOL    HW136416   1.473   3.590   2.630 -1.0817 -1.5632 -1.3258
 8318SOL    HW236417   1.626   3.589   2.627 -0.8366  0.2723 -0.6233
 8319SOL     OW36418   0.202   0.985  11.450 -0.9180 -0.4552  0.2202
 8319SOL    HW136419   0.139   1.011  11.518 -1.4348 -0.1502 -0.3786
 8319SOL    HW236420   0.155   1.022  11.376  1.1639 -0.0025 -0.8722
 8320SOL     OW36421   3.735   3.646   7.652 -0.2360 -0.2000 -0.3476
 8320SOL    HW136422   3.706   3.560   7.624  1.3057 -1.0701  0.7110
 8320SOL    HW236423   3.652   3.683   7.681  0.2763  1.2329 -0.6552
 8321SOL     OW36424   0.737   3.150   9.580  0.2866 -0.3240  0.2285
 8321SOL    HW136425   0.819   3.160   9.533  0.2802 -0.7138  0.1341
 8321SOL    HW236426   0.770   3.159   9.670 -1.6804 -1.7185  1.0992
 8322SOL     OW36427   1.462   1.124   7.850  0.0629 -0.2048 -0.3575
 8322SOL    HW136428   1.557   1.120   7.859  0.0941  1.2896  0.0232
 8322SOL    HW236429   1.461   1.187   7.778  0.5065  0.9332  0.6209
 8323SOL     OW36430   2.332   2.033   8.082  0.3101  0.0219 -0.1038
 8323SOL    HW136431   2.346   2.074   7.997 -1.3763 -0.9116 -0.8385
 8323SOL    HW236432   2.405   1.970   8.082 -0.0856 -0.4351 -0.5549
 8324SOL     OW36433   1.289   2.756   2.503  0.5782 -0.6157  0.6034
 8324SOL    HW136434   1.234   2.818   2.551  1.3279  0.0862  0.5390
 8324SOL    HW236435   1.332   2.818   2.445 -1.2013 -1.1404 -1.2895
 8325SOL     OW36436   4.453   4.154   6.141  0.8837  0.4126  0.1547
 8325SOL    HW136437   4.524   4.103   6.100 -0.6197 -0.6801 -1.0670
 8325SOL    HW236438   4.397   4.082   6.166  1.7361 -0.0127  0.8425
 8326SOL     OW36439   2.351   1.905   7.239  0.7436 -0.1319  0.0171
 8326SOL    HW136440   2.413   1.862   7.179 -1.2782 -1.8808 -0.8509
 8326SOL    HW236441   2.387   1.876   7.323 -2.1879  0.8595  1.5761
 8327SOL     OW36442   1.399   0.572  10.156 -0.2341 -0.7233 -0.1307
 8327SOL    HW136443   1.430   0.611  10.238 -0.1768 -0.5727 -0.2222
 8327SOL    HW236444   1.400   0.645  10.094 -2.0488  0.0530  0.7543
 8328SOL     OW36445   2.694   2.323  11.508 -0.6037 -0.1536 -0.2733
 8328SOL    HW136446   2.715   2.358  11.595 -3.7170 -2.2463  1.3003
 8328SOL    HW236447   2.782   2.325  11.470  0.0363  0.0525  1.1992
 8329SOL     OW36448   0.474   2.105   9.490 -0.4689  0.7708  0.5100
 8329SOL    HW136449   0.514   2.153   9.562  2.3429 -1.1433  0.2194
 8329SOL    HW236450   0.448   2.025   9.536  1.7437  0.0798  0.5501
 8330SOL     OW36451   4.083   3.318  17.123 -0.7866  0.0242 -0.2168
 8330SOL    HW136452   4.131   3.323  17.205 -0.6044  0.3274 -0.3422
 8330SOL    HW236453   4.037   3.403  17.119 -0.8743  0.0194  0.7981
 8331SOL     OW36454   0.468   2.989  13.755 -0.5014  0.0850 -0.5130
 8331SOL    HW136455   0.548   3.034  13.731  2.3558 -4.7439 -0.0831
 8331SOL    HW236456   0.491   2.913  13.809  0.6914  1.3722  0.8124
 8332SOL     OW36457   1.593   3.910   1.522  0.2533  0.3289 -0.0501
 8332SOL    HW136458   1.513   3.961   1.540  0.6057  0.2456  1.8082
 8332SOL    HW236459   1.568   3.841   1.462 -0.9938 -0.6341  1.5708
 8333SOL     OW36460   0.366   4.586   0.387  0.2819  0.1058  0.8278
 8333SOL    HW136461   0.433   4.526   0.356  0.6620 -0.5356  2.9268
 8333SOL    HW236462   0.416   4.663   0.414  1.2461 -0.2381  0.0332
 8334SOL     OW36463   1.664   0.978  13.933  0.3822 -0.0119  0.2342
 8334SOL    HW136464   1.675   1.001  14.025 -3.1326  0.6792  0.4829
 8334SOL    HW236465   1.735   1.025  13.889  0.8058 -1.0734 -0.2134
 8335SOL     OW36466   0.500   1.140   8.239 -0.2249 -0.0518 -0.0575
 8335SOL    HW136467   0.586   1.098   8.242 -1.1779 -2.0917 -0.9342
 8335SOL    HW236468   0.482   1.147   8.332 -0.2367  0.4095 -0.0983
 8336SOL     OW36469   4.314   1.309  16.341  0.5977  0.2124  0.2460
 8336SOL    HW136470   4.252   1.358  16.286  2.6504  2.7162  0.1667
 8336SOL    HW236471   4.365   1.380  16.380  0.7360  0.3715 -0.2245
 8337SOL     OW36472   2.669   3.640  17.599 -0.1787 -0.1725 -0.4841
 8337SOL    HW136473   2.588   3.626  17.648 -0.5876 -1.0508 -1.4052
 8337SOL    HW236474   2.702   3.550  17.603 -1.7610 -0.7153  0.6749
 8338SOL     OW36475   1.968   4.486   4.751 -0.0880  0.1634  0.4663
 8338SOL    HW136476   2.037   4.444   4.699 -0.3761  0.2389  0.0217
 8338SOL    HW236477   1.890   4.461   4.701 -0.5543  1.4599  0.5619
 8339SOL     OW36478   4.071   0.989   3.327  0.5045  0.4250 -0.0556
 8339SOL    HW136479   4.137   1.013   3.391  1.1278 -0.6035 -0.3300
 8339SOL    HW236480   4.001   0.942   3.373  1.7312 -1.0357  0.3081
 8340SOL     OW36481   0.293   4.600   8.438 -0.0227  0.0516  0.3257
 8340SOL    HW136482   0.265   4.691   8.427  0.6195 -0.3262 -4.5541
 8340SOL    HW236483   0.237   4.568   8.508 -0.6050  0.9141  0.2598
 8341SOL     OW36484   0.072   1.195   3.646 -0.3375 -1.0892 -0.8444
 8341SOL    HW136485   0.123   1.178   3.567  2.6683 -0.2899  0.9434
 8341SOL    HW236486   0.129   1.158   3.714  2.1371  2.1457 -1.1844
 8342SOL     OW36487   1.727   3.452   5.115 -0.2209  0.3703  0.5472
 8342SOL    HW136488   1.816   3.434   5.144  0.6257  2.4501 -0.7443
 8342SOL    HW236489   1.734   3.441   5.020 -4.2726 -0.7511  0.3968
 8343SOL     OW36490   0.900   2.141   3.382  0.6410 -0.8896 -0.4349
 8343SOL    HW136491   0.847   2.062   3.385  0.5156 -0.7461  0.8119
 8343SOL    HW236492   0.913   2.148   3.287 -1.9570 -0.5211 -0.7402
 8344SOL     OW36493   2.789   2.263   6.814 -0.3324  0.2130  0.4883
 8344SOL    HW136494   2.785   2.241   6.721 -2.4950 -0.3914  0.7150
 8344SOL    HW236495   2.853   2.200   6.847  0.5134  1.4711  1.2466
 8345SOL     OW36496   2.049   3.640   6.997 -0.7918  0.1669 -0.2458
 8345SOL    HW136497   2.096   3.702   7.053  0.2155 -1.4669  0.7221
 8345SOL    HW236498   1.973   3.619   7.052  0.7178  1.7798  2.4793
 8346SOL     OW36499   3.174   1.440  13.003 -0.5723  0.6379 -0.4268
 8346SOL    HW136500   3.187   1.454  12.909  3.7509  1.1888  0.2656
 8346SOL    HW236501   3.203   1.523  13.042  1.9724 -0.1065 -0.7398
 8347SOL     OW36502   1.751   2.099  11.539 -0.6756  0.5869  0.0890
 8347SOL    HW136503   1.679   2.157  11.561 -0.7850 -0.2962  2.0759
 8347SOL    HW236504   1.713   2.011  11.537 -0.5999  0.5663 -0.3780
 8348SOL     OW36505   3.792   0.692   5.162 -0.5863 -0.5884 -0.3812
 8348SOL    HW136506   3.858   0.761   5.177 -0.4127 -0.8601  0.1231
 8348SOL    HW236507   3.850   0.617   5.151 -0.8464 -0.6615 -1.2688
 8349SOL     OW36508   4.214   0.470  10.756 -0.7803 -0.5397  0.2822
 8349SOL    HW136509   4.257   0.431  10.681 -0.3808  3.1130 -1.3816
 8349SOL    HW236510   4.133   0.419  10.761 -0.9483 -0.0852  2.3623
 8350SOL     OW36511   4.652   4.385  16.099  0.0649  0.1944 -0.1606
 8350SOL    HW136512   4.641   4.458  16.037  0.9726  1.7890  1.5566
 8350SOL    HW236513   0.016   4.349  16.071 -0.3298  0.6282 -1.9476
 8351SOL     OW36514   1.686   4.144   5.774 -0.5305 -0.4471  0.0487
 8351SOL    HW136515   1.739   4.071   5.805  0.7119  0.5595  0.3158
 8351SOL    HW236516   1.641   4.168   5.855  0.4072 -2.2584  1.1097
 8352SOL     OW36517   0.154   0.752   9.224 -0.0562 -0.3811 -0.1462
 8352SOL    HW136518   0.132   0.716   9.138  0.6267 -0.3033 -0.3518
 8352SOL    HW236519   0.082   0.720   9.277  0.5451 -1.1887  0.1798
 8353SOL     OW36520   2.049   2.789   9.899 -0.4765  0.3098  0.1252
 8353SOL    HW136521   2.140   2.778   9.870 -0.0380  0.1995  1.5090
 8353SOL    HW236522   2.009   2.703   9.883 -0.3913  0.1683  0.6416
 8354SOL     OW36523   0.849   2.938   4.614  0.0994  0.2233 -0.3239
 8354SOL    HW136524   0.820   2.914   4.527  2.0149 -0.4701 -0.7748
 8354SOL    HW236525   0.942   2.914   4.612  0.6320  2.4312 -1.1971
 8355SOL     OW36526   0.806   4.097   6.690 -0.6832 -0.1023  0.1686
 8355SOL    HW136527   0.812   4.002   6.701  1.5490 -0.2534 -2.2666
 8355SOL    HW236528   0.719   4.113   6.726 -1.0735 -0.5521 -0.5719
 8356SOL     OW36529   3.079   3.234   5.637 -0.3587 -0.7348  0.3108
 8356SOL    HW136530   3.148   3.232   5.570 -0.8995 -3.1031 -0.1987
 8356SOL    HW236531   3.006   3.273   5.589  0.6774 -0.3284 -0.9516
 8357SOL     OW36532   2.160   4.654   5.252  0.1361 -0.1313 -0.6502
 8357SOL    HW136533   2.187   4.597   5.181  0.0850 -0.7309 -0.1820
 8357SOL    HW236534   2.074   4.617   5.271 -0.9896  2.3878 -0.8081
 8358SOL     OW36535   0.465   1.003   4.407  0.0638 -0.6883  0.2316
 8358SOL    HW136536   0.486   0.948   4.483  2.4461  0.2872  0.2553
 8358SOL    HW236537   0.548   1.048   4.394 -0.1104 -0.3127  0.4216
 8359SOL     OW36538   2.716   1.848   9.712  0.1400 -0.1905 -0.3161
 8359SOL    HW136539   2.641   1.861   9.654 -1.3505 -2.6534  1.0855
 8359SOL    HW236540   2.727   1.754   9.697  0.2014 -0.1952 -0.2434
 8360SOL     OW36541   3.473   1.372   6.289  0.6078 -0.0214  0.2709
 8360SOL    HW136542   3.556   1.386   6.244  1.3307 -2.2840  0.8802
 8360SOL    HW236543   3.483   1.439   6.356  2.9112 -0.0854 -0.0021
 8361SOL     OW36544   2.261   4.649   7.495 -0.2536  0.2761  0.7131
 8361SOL    HW136545   2.233   4.705   7.567 -1.2616  0.3927  0.2322
 8361SOL    HW236546   2.235   4.704   7.421 -1.0984 -1.8494 -0.6006
 8362SOL     OW36547   0.758   1.862   3.859 -0.4468 -0.5304 -0.6827
 8362SOL    HW136548   0.847   1.831   3.844 -0.6393 -2.0985  1.2958
 8362SOL    HW236549   0.760   1.947   3.815 -0.6023 -0.3676 -0.3749
 8363SOL     OW36550   0.203   1.254  11.681 -0.2783  0.0523  0.3034
 8363SOL    HW136551   0.247   1.338  11.681 -0.8179  0.3377  0.9436
 8363SOL    HW236552   0.276   1.199  11.655  0.6540  1.5739 -0.2452
 8364SOL     OW36553   1.848   4.424   8.483 -0.0253  0.6068  0.1807
 8364SOL    HW136554   1.888   4.343   8.516 -1.4103  0.7253  2.1559
 8364SOL    HW236555   1.817   4.401   8.396  1.5117 -0.5986 -0.0484
 8365SOL     OW36556   0.220   4.527   2.571  0.2303 -0.1131 -0.0038
 8365SOL    HW136557   0.234   4.598   2.509 -2.4992  0.4786  0.0596
 8365SOL    HW236558   0.309   4.495   2.584  1.3775  2.2138 -2.3157
 8366SOL     OW36559   1.236   3.362   2.558  0.1663 -0.1967  0.3095
 8366SOL    HW136560   1.255   3.454   2.541 -0.1035  0.2231  2.4033
 8366SOL    HW236561   1.322   3.319   2.548 -0.8440 -2.0090 -0.6337
 8367SOL     OW36562   0.238   2.509   9.320  0.0746 -0.0488 -0.1315
 8367SOL    HW136563   0.151   2.504   9.360  0.1556 -1.7522 -0.1865
 8367SOL    HW236564   0.244   2.590   9.269 -2.2741  0.4919  0.4258
 8368SOL     OW36565   0.713   2.483   7.326 -0.0134 -0.3901 -0.5935
 8368SOL    HW136566   0.665   2.535   7.390  1.6962 -0.7900  1.0011
 8368SOL    HW236567   0.785   2.443   7.375 -2.6225 -2.2814  1.6795
 8369SOL     OW36568   0.632   3.799   3.744 -0.1476  0.2602  0.2067
 8369SOL    HW136569   0.634   3.785   3.650 -0.5062  0.5061  0.1627
 8369SOL    HW236570   0.678   3.884   3.744  0.8525 -0.2779 -0.0761
 8370SOL     OW36571   0.843   2.548   7.820 -0.7393  0.4394  0.4255
 8370SOL    HW136572   0.818   2.639   7.802 -1.2005  0.2827  0.2826
 8370SOL    HW236573   0.762   2.503   7.844 -0.4195 -0.0769  0.5401
 8371SOL     OW36574   1.135   0.134   4.905 -0.1861 -0.1205  0.3321
 8371SOL    HW136575   1.094   0.198   4.847 -1.7717 -1.0169  0.4616
 8371SOL    HW236576   1.101   0.169   4.988 -0.9532  0.3190 -0.1623
 8372SOL     OW36577   3.041   3.491   7.724 -0.1894 -0.1346  0.1956
 8372SOL    HW136578   2.957   3.522   7.759 -0.4232 -0.1876 -0.3141
 8372SOL    HW236579   3.051   3.430   7.798  1.1547 -0.1821 -0.0284
 8373SOL     OW36580   4.253   3.585  11.505 -0.1308  0.2013 -0.4305
 8373SOL    HW136581   4.214   3.498  11.515  0.1082  0.0857 -0.5227
 8373SOL    HW236582   4.176   3.641  11.494 -0.2603 -0.1274 -1.1526
 8374SOL     OW36583   3.884   2.878   6.413 -0.5234  0.1678  0.2501
 8374SOL    HW136584   3.809   2.827   6.444  0.0912 -0.9414 -0.0949
 8374SOL    HW236585   3.883   2.962   6.460 -0.0436 -1.1141  2.5300
 8375SOL     OW36586   1.553   4.309  15.714  0.0550  0.0735  0.3762
 8375SOL    HW136587   1.555   4.214  15.706 -0.4889  0.0820  0.1216
 8375SOL    HW236588   1.460   4.329  15.729 -0.5281 -1.6097 -0.9259
 8376SOL     OW36589   0.154   2.290  14.668 -0.5137 -0.2288  0.6995
 8376SOL    HW136590   0.084   2.355  14.681 -0.4504 -0.0588  0.1850
 8376SOL    HW236591   0.233   2.335  14.698  0.3715  0.8491 -3.2227
 8377SOL     OW36592   3.876   4.518   4.467  0.7933 -0.2729  0.5139
 8377SOL    HW136593   3.857   4.507   4.374  1.3525  2.4257  0.0866
 8377SOL    HW236594   3.864   4.431   4.507  0.2587  0.1579  1.2766
 8378SOL     OW36595   2.371   3.587  11.835 -0.4440  0.3354  0.0500
 8378SOL    HW136596   2.431   3.600  11.908  2.7060 -1.0608 -2.2491
 8378SOL    HW236597   2.292   3.568  11.886 -1.1364 -0.5362 -1.3460
 8379SOL     OW36598   3.097   2.001   9.849  0.0797 -0.3428  0.2630
 8379SOL    HW136599   3.124   1.932   9.787 -2.1672 -2.1691  1.3019
 8379SOL    HW236600   3.024   2.028   9.793 -1.3307 -1.5470  1.5373
 8380SOL     OW36601   2.550   1.467   0.236  0.0508 -0.3665 -0.1260
 8380SOL    HW136602   2.618   1.462   0.304  1.2829  1.4924 -1.2188
 8380SOL    HW236603   2.491   1.394   0.255 -2.9610  1.6193 -1.8668
 8381SOL     OW36604   2.399   3.520  14.990 -0.1276 -0.1422 -0.2221
 8381SOL    HW136605   2.374   3.518  15.083 -0.4650  1.0388 -0.2920
 8381SOL    HW236606   2.359   3.435  14.973  1.7567 -1.0931  0.0378
 8382SOL     OW36607   2.074   1.816   0.127 -0.5298  0.4063 -0.3367
 8382SOL    HW136608   2.126   1.741   0.157 -1.3815  1.1223  2.8983
 8382SOL    HW236609   2.084   1.867   0.207 -0.7699 -0.7865  0.4563
 8383SOL     OW36610   1.432   0.345  14.741 -0.4870  0.1600  0.4048
 8383SOL    HW136611   1.429   0.271  14.802  1.0986 -0.4572 -0.2642
 8383SOL    HW236612   1.366   0.319  14.676 -1.0150  0.5905  0.7713
 8384SOL     OW36613   1.416   4.625   5.289 -0.3266  0.2730  0.3737
 8384SOL    HW136614   1.500   4.652   5.326  0.6280 -0.4711 -1.2500
 8384SOL    HW236615   1.438   4.636   5.197 -0.2904  1.0803  0.4815
 8385SOL     OW36616   3.345   2.910   5.035 -0.4003 -0.2670 -0.1030
 8385SOL    HW136617   3.371   2.856   5.110  0.4819  0.5246  0.1598
 8385SOL    HW236618   3.418   2.971   5.047 -0.5166 -0.1996  0.2486
 8386SOL     OW36619   2.911   3.856   4.170  0.0719  0.0276  0.1482
 8386SOL    HW136620   2.985   3.810   4.131 -0.0746  0.2229 -0.3631
 8386SOL    HW236621   2.892   3.796   4.242  1.8162  0.3010  0.8330
 8387SOL     OW36622   0.419   0.492  11.588 -0.0423  0.2266 -0.1518
 8387SOL    HW136623   0.483   0.553  11.624 -0.3651  0.5497 -0.1302
 8387SOL    HW236624   0.352   0.551  11.554 -1.2479 -1.5078 -0.8375
 8388SOL     OW36625   3.249   0.937   7.756 -0.1484  0.0408 -0.0483
 8388SOL    HW136626   3.287   0.849   7.755  0.2827  0.2292 -0.1486
 8388SOL    HW236627   3.273   0.947   7.848 -0.5876  0.1238  0.0580
 8389SOL     OW36628   0.575   0.047  17.600 -0.5745 -0.8388 -0.0465
 8389SOL    HW136629   0.620   0.107  17.659 -3.0529  0.4365  0.5333
 8389SOL    HW236630   0.493   0.026  17.644 -1.1110  2.5896  0.5971
 8390SOL     OW36631   1.181   2.899   3.154 -0.5776 -0.4205 -0.2261
 8390SOL    HW136632   1.099   2.851   3.164 -1.9674  2.0507  0.1578
 8390SOL    HW236633   1.175   2.926   3.062 -0.1583  0.0600 -0.1150
 8391SOL     OW36634   1.921   0.162   3.217  0.0076  0.1841  0.0879
 8391SOL    HW136635   1.880   0.129   3.138 -0.9867  1.0771  0.2226
 8391SOL    HW236636   1.974   0.089   3.248  0.9713  0.6611 -0.4198
 8392SOL     OW36637   4.170   3.390   1.808  0.3841 -0.5164 -0.4323
 8392SOL    HW136638   4.078   3.400   1.830  0.6888 -0.9161  1.0278
 8392SOL    HW236639   4.179   3.476   1.768  2.0261 -0.0640  0.9016
 8393SOL     OW36640   4.402   0.933  12.736 -0.1731  0.3917 -0.0023
 8393SOL    HW136641   4.492   0.907  12.752 -0.4179 -0.2040  0.3831
 8393SOL    HW236642   4.401   0.997  12.664  1.4228  0.5348  0.1039
 8394SOL     OW36643   2.051   4.433   8.224 -0.0067  0.6830  0.0576
 8394SOL    HW136644   2.131   4.433   8.276  1.7872 -0.4726 -2.6805
 8394SOL    HW236645   2.039   4.522   8.190  1.0748  0.3184 -1.2581
 8395SOL     OW36646   4.438   1.685   4.914  0.0593 -0.3937  0.6793
 8395SOL    HW136647   4.437   1.607   4.859  2.0558 -1.0410  1.5912
 8395SOL    HW236648   4.461   1.655   5.002 -0.9017 -1.5757  0.5211
 8396SOL     OW36649   3.971   2.873  13.065 -0.3108  0.6754  0.0143
 8396SOL    HW136650   3.958   2.893  12.972 -0.1308 -1.0484 -0.3754
 8396SOL    HW236651   4.000   2.782  13.061 -0.5528  0.5213  1.7149
 8397SOL     OW36652   2.382   2.595   5.316 -0.4919  0.5468  0.4132
 8397SOL    HW136653   2.471   2.632   5.318  0.8491 -2.4775 -2.3135
 8397SOL    HW236654   2.335   2.624   5.394  1.9079 -0.0027  2.0705
 8398SOL     OW36655   1.891   1.111   3.188  0.5917 -0.0208  0.0735
 8398SOL    HW136656   1.855   1.025   3.212  0.7474 -0.0937  0.0431
 8398SOL    HW236657   1.934   1.095   3.104  0.0487 -1.7178  0.1212
 8399SOL     OW36658   1.823   1.699   6.137 -0.2322 -0.0630 -0.9192
 8399SOL    HW136659   1.742   1.670   6.095 -1.5384  1.2435  0.6937
 8399SOL    HW236660   1.798   1.791   6.131  0.6797  0.2015 -0.6503
 8400SOL     OW36661   3.948   0.185  11.486  0.4626  0.0409 -0.0498
 8400SOL    HW136662   3.957   0.092  11.509  1.5089 -0.1713 -1.3380
 8400SOL    HW236663   3.941   0.231  11.569  1.1142 -2.0380  1.1464
 8401SOL     OW36664   1.939   1.359   0.180 -0.1279 -0.0466  0.7249
 8401SOL    HW136665   1.900   1.305   0.248  0.7406  0.4183  1.5905
 8401SOL    HW236666   2.023   1.369   0.225 -0.2542  2.2349  0.4758
 8402SOL     OW36667   1.922   0.370  16.777  0.0830  0.2096 -0.1226
 8402SOL    HW136668   1.881   0.287  16.801  0.8798  0.7583  3.1410
 8402SOL    HW236669   1.968   0.393  16.858 -1.5771  0.3649  0.7683
 8403SOL     OW36670   2.752   4.533   3.542  0.2057 -0.8438 -0.9791
 8403SOL    HW136671   2.796   4.503   3.621  0.7019  0.1596 -0.8695
 8403SOL    HW236672   2.815   4.501   3.477  2.5678 -0.8521  1.3118
 8404SOL     OW36673   1.983   4.054   8.762  0.0370  0.0919 -0.4817
 8404SOL    HW136674   1.933   4.035   8.682 -1.1643 -2.5409  0.8976
 8404SOL    HW236675   1.951   4.138   8.793 -1.5120 -2.0427  3.6817
 8405SOL     OW36676   3.036   1.224   1.206  0.3989 -0.3783  0.4303
 8405SOL    HW136677   2.948   1.203   1.176  0.7606 -0.1241 -0.8346
 8405SOL    HW236678   3.058   1.300   1.152  0.0273 -0.2884  0.4065
 8406SOL     OW36679   0.828   2.014   8.331  0.3335  0.2249 -0.1923
 8406SOL    HW136680   0.846   2.047   8.419 -0.8373 -2.4029  1.0173
 8406SOL    HW236681   0.908   2.037   8.284  1.0986  1.9329  1.9604
 8407SOL     OW36682   0.095   1.519   5.291 -0.1429  0.1081 -0.2188
 8407SOL    HW136683   0.153   1.529   5.366  0.5321  0.7602 -0.8302
 8407SOL    HW236684   0.059   1.607   5.295  2.0211  0.9096  1.6164
 8408SOL     OW36685   2.588   1.661   3.521 -0.0476  0.1665  0.4159
 8408SOL    HW136686   2.621   1.614   3.445 -1.8447 -0.1452 -0.1821
 8408SOL    HW236687   2.518   1.715   3.485  0.6699 -0.2794 -1.6538
 8409SOL     OW36688   3.592   2.548   3.275 -0.8110  0.1676  0.5295
 8409SOL    HW136689   3.675   2.589   3.298 -0.3543 -1.4268  1.6895
 8409SOL    HW236690   3.611   2.497   3.196 -1.3856  0.2072  0.3621
 8410SOL     OW36691   3.552   1.764   1.292 -0.1078 -0.2818  0.0866
 8410SOL    HW136692   3.592   1.687   1.252 -0.0829 -0.5537  0.6311
 8410SOL    HW236693   3.458   1.744   1.299 -0.4492  1.3533  0.0650
 8411SOL     OW36694   4.091   2.479  15.904 -0.7155  0.1351  0.2478
 8411SOL    HW136695   4.118   2.445  15.819 -2.7053  0.7754 -0.6284
 8411SOL    HW236696   4.123   2.567  15.887  0.4040  0.2644  2.9906
 8412SOL     OW36697   0.366   3.297   5.535  0.0499  0.7496  0.5433
 8412SOL    HW136698   0.271   3.289   5.526  0.1319 -0.3625  0.6435
 8412SOL    HW236699   0.379   3.322   5.626  0.5086  1.1712  0.3639
 8413SOL     OW36700   0.143   4.022  12.495 -0.7772  0.1676  0.2281
 8413SOL    HW136701   0.079   4.091  12.511 -1.1540 -0.2265  0.4164
 8413SOL    HW236702   0.098   3.940  12.516  0.6296 -0.4805  0.7399
 8414SOL     OW36703   1.565   4.157  12.073 -0.3026  0.2071  0.4326
 8414SOL    HW136704   1.660   4.145  12.065 -0.2581  2.2946 -1.8747
 8414SOL    HW236705   1.547   4.223  12.007  0.4051 -0.4140 -0.3788
 8415SOL     OW36706   2.942   2.530  14.459 -0.3556  0.4790 -0.1715
 8415SOL    HW136707   3.001   2.588  14.506  0.3624 -0.3194 -0.0906
 8415SOL    HW236708   2.973   2.533  14.369 -1.7507  0.1808 -0.6680
 8416SOL     OW36709   4.080   3.249   5.549 -0.1007 -0.0340 -0.0509
 8416SOL    HW136710   4.078   3.334   5.592  1.5042 -0.5507  1.0287
 8416SOL    HW236711   3.987   3.228   5.542 -0.2314  1.2686 -2.1592
 8417SOL     OW36712   0.658   1.959   4.382  0.1759  0.1654 -0.1891
 8417SOL    HW136713   0.599   2.029   4.409 -1.2732 -1.0526 -0.2236
 8417SOL    HW236714   0.645   1.959   4.287  1.6900 -0.0870 -0.3996
 8418SOL     OW36715   2.013   3.737  10.583  0.6829 -0.3493  0.2126
 8418SOL    HW136716   1.988   3.649  10.608  0.2808 -0.8445 -1.9634
 8418SOL    HW236717   2.092   3.756  10.634  0.1900  0.2062  0.7741
 8419SOL     OW36718   0.202   1.119   6.406  0.2052  0.3172 -0.3227
 8419SOL    HW136719   0.132   1.178   6.379 -0.0623  0.6234  0.9936
 8419SOL    HW236720   0.167   1.037   6.371  2.7853 -0.6054 -0.7269
 8420SOL     OW36721   2.522   3.369   0.648 -0.4747  0.4686  0.4179
 8420SOL    HW136722   2.530   3.273   0.654 -1.3517  0.4673  1.5175
 8420SOL    HW236723   2.444   3.373   0.703  1.0094 -0.6032  2.5724
 8421SOL     OW36724   3.301   2.800   2.550 -0.0874  0.3769 -0.0436
 8421SOL    HW136725   3.293   2.825   2.459  0.9302 -0.8859 -0.4888
 8421SOL    HW236726   3.396   2.790   2.563 -0.3618 -0.6539  1.1761
 8422SOL     OW36727   2.324   1.753   5.862 -0.3088  0.3749  0.3286
 8422SOL    HW136728   2.397   1.700   5.894 -1.2962 -1.6831 -0.8941
 8422SOL    HW236729   2.259   1.701   5.909  0.7858 -0.2538  1.1450
 8423SOL     OW36730   3.320   0.256   3.868 -0.3208 -0.3756  0.2487
 8423SOL    HW136731   3.324   0.166   3.900 -1.4584 -0.2239  0.7841
 8423SOL    HW236732   3.393   0.302   3.910  0.0944  0.4041 -1.3248
 8424SOL     OW36733   3.775   2.186   2.747 -0.3611 -0.3640 -0.2193
 8424SOL    HW136734   3.792   2.241   2.670  1.5358 -0.8562 -0.1391
 8424SOL    HW236735   3.863   2.187   2.783 -1.5464  0.6786  2.6821
 8425SOL     OW36736   2.505   2.914   4.786 -0.0126  0.0283 -0.2133
 8425SOL    HW136737   2.539   3.002   4.774 -2.5644  0.6173 -3.0188
 8425SOL    HW236738   2.440   2.911   4.716  1.2210 -2.6350 -1.2490
 8426SOL     OW36739   2.370   1.215  14.040 -0.0908  0.2960  0.3352
 8426SOL    HW136740   2.371   1.219  14.136 -2.0243  1.2156  0.3175
 8426SOL    HW236741   2.403   1.300  14.010 -0.9194  1.3088  2.3237
 8427SOL     OW36742   2.493   3.456   3.263 -0.4732  0.3166 -0.6015
 8427SOL    HW136743   2.422   3.457   3.327  1.2134 -1.3604  1.3159
 8427SOL    HW236744   2.467   3.534   3.214  0.9649  0.7788 -0.6468
 8428SOL     OW36745   4.016   0.055   5.623  0.0414 -0.0060  0.4030
 8428SOL    HW136746   3.927   0.033   5.651 -0.7772  2.9685  0.0802
 8428SOL    HW236747   4.069   0.018   5.694  2.3172  0.4357 -1.0697
 8429SOL     OW36748   3.969   2.384   6.494  0.6641 -0.3890 -0.1004
 8429SOL    HW136749   3.982   2.479   6.502 -0.6944 -0.3146  1.1645
 8429SOL    HW236750   4.055   2.350   6.468  0.7503 -0.5721  0.4220
 8430SOL     OW36751   2.849   3.571   8.528 -0.1292  0.4094 -0.4091
 8430SOL    HW136752   2.827   3.551   8.437 -0.3735  1.0197 -0.4806
 8430SOL    HW236753   2.906   3.645   8.507  0.0991 -0.0252 -1.3507
 8431SOL     OW36754   2.439   3.301   1.130 -0.3961 -1.1427 -0.2453
 8431SOL    HW136755   2.484   3.238   1.075 -1.2357  1.1702 -3.5398
 8431SOL    HW236756   2.506   3.348   1.180 -1.2218  0.0458 -0.2521
 8432SOL     OW36757   1.665   0.495   0.690  0.4089 -0.0509 -0.0060
 8432SOL    HW136758   1.720   0.567   0.720  1.8252 -0.6993 -1.1022
 8432SOL    HW236759   1.719   0.448   0.627  1.5032 -0.0585  0.9372
 8433SOL     OW36760   3.204   0.447  11.194  0.1167  0.0593 -0.5354
 8433SOL    HW136761   3.226   0.384  11.264  0.9572 -0.0743 -0.9261
 8433SOL    HW236762   3.253   0.523  11.225  0.5516  0.0243 -1.1397
 8434SOL     OW36763   2.385   3.202   0.399  0.4220  0.3920 -0.1276
 8434SOL    HW136764   2.412   3.156   0.479 -0.2419 -1.0554 -0.7405
 8434SOL    HW236765   2.373   3.141   0.326 -1.0150  2.5898 -1.6928
 8435SOL     OW36766   2.839   2.851   5.189 -0.3664 -0.6871 -0.0869
 8435SOL    HW136767   2.798   2.858   5.102 -1.8979  0.0899  0.6856
 8435SOL    HW236768   2.930   2.869   5.165 -0.7699 -0.0606 -1.2026
 8436SOL     OW36769   4.066   4.229   5.110 -0.0339  0.2222 -0.2087
 8436SOL    HW136770   4.117   4.149   5.101 -0.4967 -0.2812  1.6633
 8436SOL    HW236771   4.102   4.287   5.177  2.7972 -0.9749 -0.7272
 8437SOL     OW36772   1.628   0.347   3.029 -0.2136  0.3876 -0.2306
 8437SOL    HW136773   1.670   0.390   2.954  0.0785 -0.9413 -0.8306
 8437SOL    HW236774   1.603   0.424   3.081 -1.9715  0.0760 -0.6214
 8438SOL     OW36775   3.617   1.704  12.523 -0.7678 -0.4016 -0.3803
 8438SOL    HW136776   3.612   1.695  12.618 -0.7557  2.1851 -0.1193
 8438SOL    HW236777   3.579   1.792  12.520  0.6479  0.2624  0.8937
 8439SOL     OW36778   4.211   4.570  11.967 -0.7373 -0.2773  0.4681
 8439SOL    HW136779   4.267   4.624  12.024 -0.4579  1.2664 -1.2863
 8439SOL    HW236780   4.266   4.567  11.889 -0.5010  2.2655  0.5556
 8440SOL     OW36781   3.062   2.000  13.642  1.0323 -0.0791 -0.1055
 8440SOL    HW136782   3.041   1.950  13.721 -0.8501  0.8951  0.0118
 8440SOL    HW236783   3.113   1.929  13.604 -0.6870 -0.9131 -0.8000
 8441SOL     OW36784   1.605   3.394  14.108 -0.0621  0.3046 -0.3186
 8441SOL    HW136785   1.618   3.299  14.103 -0.7742  0.2276 -0.7445
 8441SOL    HW236786   1.658   3.414  14.186 -2.3565  0.7314  1.1312
 8442SOL     OW36787   3.910   1.111   1.894  0.2723  0.2520  0.5477
 8442SOL    HW136788   3.863   1.182   1.938  1.7301 -0.1491  2.7571
 8442SOL    HW236789   3.838   1.088   1.836  1.1806  1.4016 -1.0483
 8443SOL     OW36790   3.047   3.461   3.352  0.0126 -0.0621 -0.5011
 8443SOL    HW136791   3.109   3.532   3.370 -0.1442 -0.0685  0.0600
 8443SOL    HW236792   2.970   3.517   3.343  1.0498  1.2041 -1.5384
 8444SOL     OW36793   1.043   3.658   5.182  0.4614 -0.2343 -0.4549
 8444SOL    HW136794   0.990   3.580   5.200  1.4923 -0.4744  1.5785
 8444SOL    HW236795   0.984   3.701   5.121 -0.9570  1.8359  2.3682
 8445SOL     OW36796   0.240   3.177   9.114  0.7480  0.2429 -0.4446
 8445SOL    HW136797   0.227   3.266   9.146 -0.6203  0.4835 -1.6840
 8445SOL    HW236798   0.237   3.134   9.199  2.2391 -1.3880 -1.2175
 8446SOL     OW36799   1.066   3.158   9.178  0.6067  0.2583  0.0059
 8446SOL    HW136800   1.132   3.225   9.166  0.7229  0.1444  0.0111
 8446SOL    HW236801   1.009   3.173   9.102  3.9684  0.2562 -2.4759
 8447SOL     OW36802   1.223   3.803   4.582  0.6037  0.4903 -0.0741
 8447SOL    HW136803   1.166   3.851   4.642  1.2062 -1.7039  2.2300
 8447SOL    HW236804   1.264   3.732   4.630 -0.5113 -0.9763 -1.2848
 8448SOL     OW36805   1.536   4.345   8.887 -0.1664 -0.5297  0.2365
 8448SOL    HW136806   1.522   4.421   8.943 -2.5970 -0.4965 -0.4283
 8448SOL    HW236807   1.477   4.286   8.934 -0.3001 -1.0157 -0.5393
 8449SOL     OW36808   3.017   4.322   5.402 -0.6753 -0.3163  0.1630
 8449SOL    HW136809   2.932   4.321   5.359  0.0536  0.6889 -1.2689
 8449SOL    HW236810   3.004   4.231   5.430 -1.7175 -0.3158 -0.3389
 8450SOL     OW36811   1.255   3.483  10.944 -0.0291 -0.4475  0.3826
 8450SOL    HW136812   1.302   3.540  10.883  0.4802 -0.4725  0.7572
 8450SOL    HW236813   1.252   3.541  11.019 -0.3950 -3.8845  3.0254
 8451SOL     OW36814   2.724   3.188   6.302 -0.1317  0.1347 -0.0425
 8451SOL    HW136815   2.630   3.181   6.285  0.4221 -1.2796 -2.4551
 8451SOL    HW236816   2.725   3.122   6.371  0.5293 -0.7245 -0.8788
 8452SOL     OW36817   4.130   0.996   6.558  0.0203 -0.3183  0.3257
 8452SOL    HW136818   4.049   0.952   6.585 -0.2676  1.0220  1.6575
 8452SOL    HW236819   4.185   0.996   6.637  0.0576 -0.0106  0.3020
 8453SOL     OW36820   1.098   3.947   4.775 -0.7732 -0.3285  0.1614
 8453SOL    HW136821   1.024   4.006   4.783  0.0224  0.5331  1.0407
 8453SOL    HW236822   1.173   4.005   4.782 -1.1371 -0.1007  2.0384
 8454SOL     OW36823   3.799   3.404  10.560  0.0745 -0.3817  0.0970
 8454SOL    HW136824   3.739   3.462  10.514 -0.3370 -1.8538 -1.2229
 8454SOL    HW236825   3.751   3.322  10.576  2.2495 -1.3572  1.6373
 8455SOL     OW36826   2.213   4.042   6.350 -0.3132  0.1882  0.3671
 8455SOL    HW136827   2.186   4.116   6.404  1.3441  0.0127  1.4514
 8455SOL    HW236828   2.277   4.005   6.410 -0.7946  1.0537  1.4068
 8456SOL     OW36829   2.225   3.015   3.056 -0.1810 -0.2246 -0.4202
 8456SOL    HW136830   2.265   3.057   3.132  0.2804  0.3451 -0.9737
 8456SOL    HW236831   2.303   2.973   3.021 -0.7281 -3.4506  2.2107
 8457SOL     OW36832   1.393   1.856  11.780 -0.0504 -0.1565 -0.1020
 8457SOL    HW136833   1.371   1.834  11.689 -2.5807 -1.4957  0.8230
 8457SOL    HW236834   1.350   1.782  11.824 -0.1746 -0.2544 -0.3834
 8458SOL     OW36835   1.470   1.417  10.003  0.2253 -0.2099  0.7319
 8458SOL    HW136836   1.439   1.483  10.065  1.5411 -0.0450  1.2113
 8458SOL    HW236837   1.388   1.370   9.986  2.0560 -2.4342 -1.9054
 8459SOL     OW36838   0.585   0.268   5.032  0.1940  1.0304 -0.5105
 8459SOL    HW136839   0.673   0.256   5.069 -1.0944  1.2559  2.6547
 8459SOL    HW236840   0.539   0.308   5.106 -0.2139 -1.2440  0.4715
 8460SOL     OW36841   2.629   2.882   6.736  0.1292 -0.7256 -0.2985
 8460SOL    HW136842   2.696   2.951   6.734  0.3811 -0.9490  0.1974
 8460SOL    HW236843   2.587   2.905   6.819  0.7268  0.4272 -0.3128
 8461SOL     OW36844   3.749   1.278  11.981  0.6756 -0.0496 -0.0955
 8461SOL    HW136845   3.789   1.338  11.918  0.8359 -0.5862 -0.5028
 8461SOL    HW236846   3.659   1.309  11.983  1.7575  3.0636  1.1785
 8462SOL     OW36847   1.626   3.362  16.222 -0.6124  0.7852  0.3556
 8462SOL    HW136848   1.642   3.422  16.149  0.0511  0.6049  0.3499
 8462SOL    HW236849   1.663   3.414  16.294 -0.4779  0.2225  0.6960
 8463SOL     OW36850   1.174   4.612   1.949  0.8792  0.2974 -0.5359
 8463SOL    HW136851   1.079   4.626   1.942  0.8726  0.4641 -0.1268
 8463SOL    HW236852   1.183   4.551   2.022 -0.9492  0.4548 -0.1736
 8464SOL     OW36853   2.614   0.330  10.547 -0.4016  1.1201  0.5438
 8464SOL    HW136854   2.617   0.297  10.636 -0.1087  3.3871  1.3880
 8464SOL    HW236855   2.626   0.424  10.563  2.0541  0.7659  0.7876
 8465SOL     OW36856   3.541   3.335   3.591  0.4216 -0.5331 -0.3997
 8465SOL    HW136857   3.572   3.279   3.661  0.4697  1.1082  0.8925
 8465SOL    HW236858   3.460   3.371   3.627 -0.1872  0.4767 -2.7264
 8466SOL     OW36859   4.009   0.708   1.130 -0.7455  0.5271 -0.1710
 8466SOL    HW136860   3.973   0.680   1.046 -1.5256 -0.5417  0.5089
 8466SOL    HW236861   3.955   0.783   1.153 -3.0445 -0.9666 -0.7071
 8467SOL     OW36862   1.355   1.462   5.307  0.6579 -0.1574  0.5823
 8467SOL    HW136863   1.431   1.454   5.365  1.4713  1.4966 -0.2405
 8467SOL    HW236864   1.317   1.544   5.337  1.8218  1.0705 -1.2554
 8468SOL     OW36865   3.553   1.747   7.461  0.2948  0.5986  0.0379
 8468SOL    HW136866   3.585   1.715   7.376  0.1893 -0.2002  0.2971
 8468SOL    HW236867   3.533   1.664   7.504 -1.9522  0.6440 -0.9167
 8469SOL     OW36868   1.421   3.245   7.572  0.0296 -0.3020 -0.7834
 8469SOL    HW136869   1.489   3.214   7.633 -0.0345  1.5543  0.2181
 8469SOL    HW236870   1.337   3.214   7.605  0.2835  0.6358  0.7295
 8470SOL     OW36871   1.959   0.705   6.993  0.3963 -0.0422  0.6958
 8470SOL    HW136872   2.036   0.734   6.944  0.9419  1.7940  2.6352
 8470SOL    HW236873   1.975   0.726   7.085 -1.6775  3.2817  0.3097
 8471SOL     OW36874   0.933   2.154  17.016 -0.6650  0.5299  0.3469
 8471SOL    HW136875   0.951   2.108  16.934 -0.3549 -0.9410  1.2501
 8471SOL    HW236876   1.016   2.202  17.025 -0.1203 -0.0840 -1.3869
 8472SOL     OW36877   4.678   0.267  16.601  0.3102  0.3492  0.2994
 8472SOL    HW136878   4.632   0.307  16.527  0.8340 -1.9505 -1.2885
 8472SOL    HW236879   0.043   0.311  16.602  0.0999  0.7869 -1.1115
 8473SOL     OW36880   1.016   4.263  16.878  0.5417  0.1321 -0.2049
 8473SOL    HW136881   0.922   4.267  16.857 -0.0962 -0.2376  2.5333
 8473SOL    HW236882   1.007   4.262  16.974 -0.3660 -0.0371 -0.2857
 8474SOL     OW36883   1.784   2.819  13.858  0.3910  0.0810  0.0594
 8474SOL    HW136884   1.828   2.844  13.777  1.2870 -1.1203  0.1809
 8474SOL    HW236885   1.860   2.790  13.908  0.6232 -0.2260 -0.4732
 8475SOL     OW36886   4.644   0.043   3.945  0.5995 -0.3919  0.3416
 8475SOL    HW136887   4.711   0.034   4.013  0.8125  2.3373  0.5094
 8475SOL    HW236888   4.699   0.056   3.868  0.3888  1.8663  0.5679
 8476SOL     OW36889   0.322   2.740   9.177  0.1861  0.1334  0.6263
 8476SOL    HW136890   0.362   2.670   9.124  1.2631  1.2499 -0.0348
 8476SOL    HW236891   0.283   2.795   9.109 -0.4876  1.3290  2.0026
 8477SOL     OW36892   4.523   3.065   4.590 -0.7833  0.6939 -0.1801
 8477SOL    HW136893   4.445   3.106   4.627 -0.1375  0.2490  1.6422
 8477SOL    HW236894   4.586   3.087   4.658 -0.6977 -0.1835  0.0243
 8478SOL     OW36895   1.068   1.235   0.497  0.0161  0.0284  0.2724
 8478SOL    HW136896   1.008   1.308   0.483 -0.6578 -1.0437 -2.4139
 8478SOL    HW236897   1.146   1.277   0.533  0.6021 -0.4207 -0.4740
 8479SOL     OW36898   2.884   1.371  16.226  0.5980 -0.6036  0.7350
 8479SOL    HW136899   2.839   1.425  16.161  1.5685 -1.1300 -0.3758
 8479SOL    HW236900   2.830   1.380  16.304  0.6010  2.3829  0.3733
 8480SOL     OW36901   0.989   4.217   7.372  0.2339  0.6491  0.7265
 8480SOL    HW136902   1.003   4.238   7.280 -3.1772  0.8867  0.2495
 8480SOL    HW236903   0.897   4.190   7.368  1.0694 -1.9986 -0.2484
 8481SOL     OW36904   3.550   3.516   5.697  0.4586  0.1883 -0.2766
 8481SOL    HW136905   3.619   3.554   5.643 -0.3188  2.3554  0.2371
 8481SOL    HW236906   3.494   3.594   5.696 -0.1541 -0.2428  0.2624
 8482SOL     OW36907   2.693   0.908   4.051  0.0547 -0.8281  0.0693
 8482SOL    HW136908   2.775   0.870   4.018 -0.3464 -0.3991 -1.4638
 8482SOL    HW236909   2.686   0.985   3.995 -2.6487  0.6684  2.4948
 8483SOL     OW36910   2.139   2.842   1.645 -0.0885 -0.6452 -0.2160
 8483SOL    HW136911   2.065   2.842   1.706  0.7336  0.0485  0.7787
 8483SOL    HW236912   2.164   2.751   1.633  0.2158 -0.4140 -1.3808
 8484SOL     OW36913   4.702   0.542   7.128 -0.3664 -0.1796 -0.2459
 8484SOL    HW136914   4.706   0.587   7.212  0.9724  0.9748 -0.9345
 8484SOL    HW236915   0.022   0.601   7.064 -0.1766 -2.1426 -1.9606
 8485SOL     OW36916   0.105   3.144   6.414  0.5079 -0.0508  0.1698
 8485SOL    HW136917   0.043   3.170   6.483  0.6162  0.2216  0.1675
 8485SOL    HW236918   0.112   3.222   6.359  0.4665 -0.8006 -0.8937
 8486SOL     OW36919   2.780   0.606   4.610  0.2030  0.3002 -0.0657
 8486SOL    HW136920   2.764   0.537   4.546  1.0807 -1.5862  1.7523
 8486SOL    HW236921   2.842   0.663   4.565  0.9257 -0.3296  0.1303
 8487SOL     OW36922   3.744   2.350   5.882  0.2368 -0.0237  0.0252
 8487SOL    HW136923   3.665   2.331   5.932  0.3185 -0.1284  0.1128
 8487SOL    HW236924   3.748   2.439   5.916 -0.5634  0.4771 -1.2040
 8488SOL     OW36925   4.406   3.584   6.892  0.8883 -0.1812  0.2722
 8488SOL    HW136926   4.320   3.542   6.896  0.2648  1.0267 -0.4107
 8488SOL    HW236927   4.371   3.672   6.883  3.1688  0.5344 -1.7902
 8489SOL     OW36928   1.403   4.071   0.393  0.2322  0.8557 -0.1655
 8489SOL    HW136929   1.447   4.154   0.407  1.4785  0.0651  0.6202
 8489SOL    HW236930   1.402   4.023   0.476  0.8424  1.7345  0.3482
 8490SOL     OW36931   0.394   4.706  17.229  0.4054  0.2375 -0.4536
 8490SOL    HW136932   0.483   4.670  17.224  0.6295  0.5878  1.3452
 8490SOL    HW236933   0.341   4.639  17.186 -0.5351  2.2204 -2.3624
 8491SOL     OW36934   3.329   2.015  10.027 -0.1033  0.1701 -0.0945
 8491SOL    HW136935   3.368   1.928  10.035 -0.6544 -0.2728 -2.3500
 8491SOL    HW236936   3.262   1.995   9.963  0.3773  3.7107 -1.6669
 8492SOL     OW36937   0.417   2.807   2.742  0.0309 -0.0918 -0.1983
 8492SOL    HW136938   0.356   2.876   2.717 -0.3340 -0.6280 -0.7839
 8492SOL    HW236939   0.496   2.855   2.769 -0.5218  0.7508 -0.0849
 8493SOL     OW36940   4.246   2.296  10.785 -0.4032 -0.4070 -0.1999
 8493SOL    HW136941   4.277   2.343  10.862  0.3369  1.9277 -1.8958
 8493SOL    HW236942   4.259   2.360  10.714 -2.4438  1.5881  1.2302
 8494SOL     OW36943   4.245   4.205   0.592 -0.4978  0.3000  0.0929
 8494SOL    HW136944   4.173   4.252   0.635 -0.6286  2.0277 -1.9924
 8494SOL    HW236945   4.319   4.266   0.599 -1.0186  0.7538  1.5839
 8495SOL     OW36946   0.411   2.299   0.216  0.0051 -0.5654 -0.6733
 8495SOL    HW136947   0.475   2.281   0.148 -0.5212 -0.0602 -1.2963
 8495SOL    HW236948   0.358   2.364   0.170  1.4611 -0.2049 -1.8492
 8496SOL     OW36949   0.733   0.246  15.771  0.0938 -0.0321 -0.0389
 8496SOL    HW136950   0.670   0.287  15.831 -1.1630 -1.5456 -0.3434
 8496SOL    HW236951   0.810   0.298  15.795 -1.0000  1.4272  0.2981
 8497SOL     OW36952   1.422   2.971   9.589 -0.1630  0.3945  0.0311
 8497SOL    HW136953   1.505   3.012   9.610  0.1012 -0.4538  0.6546
 8497SOL    HW236954   1.371   3.022   9.652 -0.3816  1.5443 -1.0884
 8498SOL     OW36955   0.644   2.979   6.415  0.2483  0.2241  0.4427
 8498SOL    HW136956   0.574   3.038   6.441  0.4114  1.1531 -1.2221
 8498SOL    HW236957   0.598   2.900   6.445 -0.1885  0.3531  0.1104
 8499SOL     OW36958   2.439   1.242   5.218 -0.0316 -0.1208  0.0181
 8499SOL    HW136959   2.531   1.215   5.214  0.5186  1.5411  1.4833
 8499SOL    HW236960   2.403   1.242   5.129 -0.2119 -0.8810  0.0971
 8500SOL     OW36961   4.306   0.761  12.969 -0.4519 -0.5689  0.0057
 8500SOL    HW136962   4.336   0.840  12.924 -0.2367 -0.7126 -0.1075
 8500SOL    HW236963   4.375   0.701  12.941 -0.3025 -1.3062  1.9169
 8501SOL     OW36964   1.808   1.966  15.381  0.4117  0.0306 -0.0258
 8501SOL    HW136965   1.862   1.893  15.350  0.8574  0.1321  0.5113
 8501SOL    HW236966   1.809   2.016  15.299 -0.1508  0.2879  0.1315
 8502SOL     OW36967   2.772   4.057   9.588  0.1133 -0.1715  0.6398
 8502SOL    HW136968   2.693   4.004   9.588 -0.1783  0.2590  0.4100
 8502SOL    HW236969   2.782   4.089   9.677 -0.4528  1.2285  0.2025
 8503SOL     OW36970   3.248   1.566   0.309  0.4017  0.0385  0.2658
 8503SOL    HW136971   3.180   1.634   0.303 -0.9239 -1.1541  1.8395
 8503SOL    HW236972   3.225   1.507   0.380  0.0610 -1.6145 -1.2389
 8504SOL     OW36973   1.072   0.947   5.422  0.3161  0.3515 -0.0292
 8504SOL    HW136974   1.041   1.028   5.383  1.6969  1.5557  1.3561
 8504SOL    HW236975   1.134   0.975   5.489 -0.1564 -0.1172  0.6068
 8505SOL     OW36976   4.505   1.004   7.305  0.2100 -0.5168  0.3491
 8505SOL    HW136977   4.433   1.067   7.306  0.7892  0.1213  1.5457
 8505SOL    HW236978   4.454   0.934   7.347 -0.0791 -1.6604 -1.9087
 8506SOL     OW36979   4.007   0.690  11.254 -0.0770  0.1772  0.7415
 8506SOL    HW136980   4.041   0.741  11.327  0.3281  0.9869 -0.0154
 8506SOL    HW236981   4.081   0.694  11.193 -0.9506  0.4727 -0.2907
 8507SOL     OW36982   0.377   2.056   5.042  0.4980  0.1238 -0.0373
 8507SOL    HW136983   0.472   2.061   5.036  0.4550  1.9887  0.6503
 8507SOL    HW236984   0.354   2.145   5.016 -1.0717 -0.6250 -1.2255
 8508SOL     OW36985   4.102   2.730   6.952  0.0686 -0.4114 -0.7092
 8508SOL    HW136986   4.160   2.758   6.881  0.1260  0.2777 -0.3858
 8508SOL    HW236987   4.079   2.804   7.009 -0.9605 -0.2884 -1.2798
 8509SOL     OW36988   3.735   1.435   7.586  0.3390 -0.0548  0.1805
 8509SOL    HW136989   3.767   1.371   7.650  2.2167 -1.6101 -2.2998
 8509SOL    HW236990   3.644   1.453   7.610  0.1827 -0.1574 -0.3322
 8510SOL     OW36991   1.183   4.386   3.153  0.3087  0.5924  0.0451
 8510SOL    HW136992   1.131   4.396   3.073  1.1102  1.8730 -0.3078
 8510SOL    HW236993   1.222   4.473   3.160 -0.3135  0.7243  1.8791
 8511SOL     OW36994   2.741   0.829  12.833  0.0992 -0.1196  0.3791
 8511SOL    HW136995   2.815   0.873  12.876  1.6942 -0.3649 -2.1276
 8511SOL    HW236996   2.781   0.820  12.747 -2.7368 -3.3022 -0.6060
 8512SOL     OW36997   0.010   0.404   6.605  0.0812 -0.5408  0.3039
 8512SOL    HW136998   4.716   0.471   6.671  0.7759  0.4442 -0.5408
 8512SOL    HW236999   4.643   0.395   6.566 -0.2237  0.7646  0.6931
 8513SOL     OW37000   0.057   2.477  14.940 -0.0652  0.1591 -0.0171
 8513SOL    HW137001   0.007   2.454  15.018 -1.0627  0.0563 -0.6892
 8513SOL    HW237002   0.146   2.456  14.971  0.6816 -0.8631 -2.8537
 8514SOL     OW37003   0.982   4.454   1.005 -0.3383  0.2846  0.0213
 8514SOL    HW137004   0.928   4.375   1.003  0.1063 -0.0216  0.0601
 8514SOL    HW237005   0.931   4.506   1.067 -0.3690  0.1853  0.0808
 8515SOL     OW37006   3.522   0.255   8.423 -0.3905  0.2714  0.3514
 8515SOL    HW137007   3.453   0.319   8.443  0.9951  1.0835  2.4687
 8515SOL    HW237008   3.579   0.260   8.499  1.1753  0.0873 -0.8026
 8516SOL     OW37009   3.716   1.637   3.403 -0.3484  0.2546  0.0695
 8516SOL    HW137010   3.737   1.633   3.310  1.7127  0.9260  0.5184
 8516SOL    HW237011   3.776   1.711   3.415  1.5908 -1.4149  0.4849
 8517SOL     OW37012   4.680   2.023   8.656 -0.0545 -0.5326 -0.2432
 8517SOL    HW137013   4.619   2.057   8.722 -1.0695 -0.0222 -1.4505
 8517SOL    HW237014   0.038   2.016   8.712 -0.0554 -0.2656 -0.2062
 8518SOL     OW37015   4.629   3.853   7.579  0.3360  0.1467  0.0249
 8518SOL    HW137016   4.715   3.890   7.558  0.7648 -0.3026  0.9930
 8518SOL    HW237017   4.599   3.834   7.491  1.7724  3.5294 -1.2167
 8519SOL     OW37018   1.087   4.056   5.193  0.1623  0.1134  0.3308
 8519SOL    HW137019   1.046   4.110   5.125  0.4042  0.2447  0.2917
 8519SOL    HW237020   1.160   4.095   5.240  0.4285  1.1219 -0.9177
 8520SOL     OW37021   2.900   2.221   9.371  0.2216 -0.0094  0.0996
 8520SOL    HW137022   2.826   2.178   9.327  0.6657 -0.8026  0.1194
 8520SOL    HW237023   2.841   2.277   9.421  0.2879  1.8753 -1.9071
 8521SOL     OW37024   1.157   3.339   4.178 -0.1920  0.2523  0.0284
 8521SOL    HW137025   1.123   3.272   4.118 -0.4922 -1.3772  2.0176
 8521SOL    HW237026   1.118   3.309   4.260 -1.7132 -0.7460 -1.0547
 8522SOL     OW37027   4.159   0.834  15.497 -0.8005  0.4684 -0.2544
 8522SOL    HW137028   4.228   0.880  15.450 -0.3360  1.0392  0.9965
 8522SOL    HW237029   4.211   0.809  15.573 -1.9158  1.1253  0.7062
 8523SOL     OW37030   0.827   2.469   4.929 -0.3962  0.2211 -0.0439
 8523SOL    HW137031   0.869   2.516   4.857  1.0422 -1.5686 -0.3482
 8523SOL    HW237032   0.748   2.520   4.950  1.1665  1.8330  1.9627
 8524SOL     OW37033   1.917   0.365   5.623  0.1628  0.2380  0.4951
 8524SOL    HW137034   1.878   0.388   5.707 -1.9137 -0.0296 -0.3866
 8524SOL    HW237035   1.958   0.450   5.605  2.6638 -1.2479 -0.8333
 8525SOL     OW37036   0.336   4.459   6.555  0.1793 -0.5012 -0.4495
 8525SOL    HW137037   0.398   4.412   6.499  1.1093  0.2207 -0.0187
 8525SOL    HW237038   0.306   4.532   6.501  0.7624  0.9703  1.2076
 8526SOL     OW37039   2.075   0.696   1.367 -0.6701 -0.2942 -0.0639
 8526SOL    HW137040   2.079   0.618   1.311  0.2008  1.2410 -2.1728
 8526SOL    HW237041   2.165   0.728   1.366 -0.3806 -1.1009  1.1672
 8527SOL     OW37042   3.079   3.560  14.195 -0.0612  0.0083  0.1699
 8527SOL    HW137043   2.984   3.573  14.187 -0.1316  0.6020  2.0109
 8527SOL    HW237044   3.103   3.509  14.118 -1.3566  0.7842 -0.7463
 8528SOL     OW37045   0.486   1.659  16.673 -0.2096 -0.0347  0.1161
 8528SOL    HW137046   0.542   1.638  16.748  1.1700 -1.5188 -1.3132
 8528SOL    HW237047   0.398   1.629  16.694 -0.0556 -0.1608  0.5765
 8529SOL     OW37048   2.245   4.165   5.150  0.3647  0.2025 -0.0474
 8529SOL    HW137049   2.159   4.141   5.115 -0.9582  1.7817  2.1026
 8529SOL    HW237050   2.212   4.206   5.230 -0.5217  0.5061 -0.5717
 8530SOL     OW37051   1.028   1.455  15.506  0.0399 -0.7715 -0.5657
 8530SOL    HW137052   1.093   1.387  15.485  0.5227 -1.4080  3.0329
 8530SOL    HW237053   0.982   1.424  15.584 -0.6431  1.1236 -0.2306
 8531SOL     OW37054   2.103   2.216   6.980 -0.4156  0.6687  0.5597
 8531SOL    HW137055   2.144   2.297   6.948 -2.7165  0.0128 -4.0139
 8531SOL    HW237056   2.094   2.239   7.073 -0.5761  0.7386  0.5265
 8532SOL     OW37057   4.621   1.467  16.083 -0.0984  0.0426  0.6481
 8532SOL    HW137058   4.689   1.448  16.148  0.6796 -1.4730 -0.6038
 8532SOL    HW237059   4.601   1.560  16.095 -0.6632 -0.1873  1.4864
 8533SOL     OW37060   3.348   0.331  13.380 -0.2827  0.4343  0.2646
 8533SOL    HW137061   3.384   0.298  13.462  1.2608  1.7918  0.1426
 8533SOL    HW237062   3.271   0.274  13.374  0.6756 -0.9247  0.7688
 8534SOL     OW37063   1.263   0.683   8.888 -0.5022  0.4966  0.0150
 8534SOL    HW137064   1.334   0.717   8.942 -1.4131  2.5707 -0.0975
 8534SOL    HW237065   1.274   0.732   8.807 -0.4922  2.2218  1.0669
 8535SOL     OW37066   0.846   0.014   0.074 -0.0553  0.6181 -0.4777
 8535SOL    HW137067   0.929   4.710   0.032 -0.4182 -2.1373  0.3297
 8535SOL    HW237068   0.815   0.084   0.016 -0.2118  2.1783  1.5003
 8536SOL     OW37069   0.673   0.660   9.262  0.4723  0.2317  0.2115
 8536SOL    HW137070   0.700   0.737   9.312  2.0774  1.4393 -2.5474
 8536SOL    HW237071   0.649   0.605   9.336  0.0948  3.1923  2.3128
 8537SOL     OW37072   4.083   0.354  11.894  0.8860  0.1946 -0.1788
 8537SOL    HW137073   4.054   0.412  11.965  1.7288  0.7350 -0.2803
 8537SOL    HW237074   4.163   0.402  11.872 -1.2727  3.4972 -0.7918
 8538SOL     OW37075   1.682   0.026   5.241  0.6486  0.1758  0.2318
 8538SOL    HW137076   1.744   0.049   5.310  0.4234  0.5998  0.2874
 8538SOL    HW237077   1.744   4.708   5.178 -0.2468 -2.1997  0.7839
 8539SOL     OW37078   2.222   2.594   3.085 -0.8254  0.0919 -0.1661
 8539SOL    HW137079   2.183   2.662   3.140  0.4245  2.0887 -1.7569
 8539SOL    HW237080   2.241   2.651   3.010 -0.1524  1.8481  1.3375
 8540SOL     OW37081   2.216   1.024  11.516 -0.4810  0.0232 -0.1614
 8540SOL    HW137082   2.183   0.951  11.569  0.1475 -0.7715 -0.8738
 8540SOL    HW237083   2.305   1.030  11.549  0.3183 -1.1998 -2.1289
 8541SOL     OW37084   2.821   2.605   7.084 -0.2869 -0.4362  0.0335
 8541SOL    HW137085   2.851   2.656   7.160  0.1938 -0.3688 -0.2028
 8541SOL    HW237086   2.758   2.542   7.120  1.3951 -1.8577  0.5404
 8542SOL     OW37087   0.329   1.630   8.844  0.4163 -0.3117  0.3356
 8542SOL    HW137088   0.261   1.697   8.834  0.7430  0.2241  1.7845
 8542SOL    HW237089   0.389   1.653   8.773 -2.6022  0.7732 -1.8848
 8543SOL     OW37090   2.949   3.347  16.973  0.5926  0.0784  0.1691
 8543SOL    HW137091   2.989   3.321  17.056 -0.2766  0.1385  0.6018
 8543SOL    HW237092   2.869   3.296  16.963 -0.5144  1.5681  1.3791
 8544SOL     OW37093   4.402   0.216  16.116 -0.2127  0.1890 -0.3185
 8544SOL    HW137094   4.448   0.287  16.071  1.3432  0.1951  1.2841
 8544SOL    HW237095   4.407   0.249  16.206  2.3394 -0.3422 -0.2693
 8545SOL     OW37096   2.984   1.428  12.508 -0.0255  0.0768  0.5477
 8545SOL    HW137097   2.939   1.489  12.450 -0.0535  1.6203  2.2070
 8545SOL    HW237098   2.923   1.423  12.582 -2.0440 -1.7198 -1.2191
 8546SOL     OW37099   4.241   1.787   5.286  0.3736  0.0101 -0.3273
 8546SOL    HW137100   4.197   1.711   5.324 -2.3026  0.1046 -3.2586
 8546SOL    HW237101   4.332   1.772   5.314 -0.0908 -2.8093 -0.2957
 8547SOL     OW37102   2.421   1.299   1.605 -0.2618 -0.0501  0.2441
 8547SOL    HW137103   2.357   1.357   1.566 -0.9656  0.0013  1.4889
 8547SOL    HW237104   2.457   1.355   1.673 -0.4472  1.7928 -1.1860
 8548SOL     OW37105   2.030   0.005   4.336  0.6743 -0.0649  0.2040
 8548SOL    HW137106   2.110   4.698   4.291  0.0256  0.6417 -1.3595
 8548SOL    HW237107   2.068   0.041   4.416  4.3939  0.5036 -1.8514
 8549SOL     OW37108   0.807   4.694   7.213 -0.0857  0.2854 -0.1162
 8549SOL    HW137109   0.821   0.025   7.293  0.6237  0.7582 -0.5404
 8549SOL    HW237110   0.900   4.673   7.204  0.2301  2.0967 -0.9857
 8550SOL     OW37111   3.763   2.297   8.273  0.2162  0.0981 -0.1685
 8550SOL    HW137112   3.750   2.225   8.211  1.1468  1.1218 -1.5623
 8550SOL    HW237113   3.719   2.255   8.347  2.3555  0.9425  1.5774
 8551SOL     OW37114   1.640   1.159   1.518 -0.3086 -0.0936  0.0893
 8551SOL    HW137115   1.617   1.252   1.508 -1.0153 -0.2078  0.6416
 8551SOL    HW237116   1.567   1.110   1.480  0.9958 -0.3500 -2.1059
 8552SOL     OW37117   3.323   0.406  12.255 -0.1723  0.1327 -0.1814
 8552SOL    HW137118   3.364   0.333  12.303  0.1273  0.5240  0.1536
 8552SOL    HW237119   3.234   0.388  12.285  0.1755  0.5384  1.0846
 8553SOL     OW37120   1.770   1.875   0.368 -0.1392  0.3346 -0.9359
 8553SOL    HW137121   1.715   1.886   0.446  0.2528  1.3389 -0.7951
 8553SOL    HW237122   1.699   1.861   0.305 -0.8973 -1.5968  0.3750
 8554SOL     OW37123   1.475   2.183  14.380  0.2793  0.3131 -0.6644
 8554SOL    HW137124   1.569   2.167  14.367  0.9742  3.4666  0.4880
 8554SOL    HW237125   1.477   2.206  14.473 -0.9296 -2.5126  0.0695
 8555SOL     OW37126   2.509   1.770   4.908  0.3054 -0.0250  0.4395
 8555SOL    HW137127   2.555   1.692   4.877 -1.6110 -0.5672 -1.0328
 8555SOL    HW237128   2.451   1.780   4.833  0.2106 -0.6493  0.4270
 8556SOL     OW37129   4.367   1.013  16.217 -0.0995  0.6379  0.3427
 8556SOL    HW137130   4.426   0.964  16.161 -0.2363  0.3153  0.4813
 8556SOL    HW237131   4.386   1.103  16.189  2.9085  0.5111  2.0584
 8557SOL     OW37132   2.501   4.607  16.684 -0.3567 -0.2737  0.1676
 8557SOL    HW137133   2.440   4.573  16.619  1.1820 -0.0573 -1.3978
 8557SOL    HW237134   2.443   4.678  16.710  1.1311  1.4101 -1.0697
 8558SOL     OW37135   4.378   2.399  11.021 -0.7364  0.4098  0.3696
 8558SOL    HW137136   4.462   2.361  10.995 -0.1091  0.8886  1.7018
 8558SOL    HW237137   4.401   2.491  11.035  1.5991  0.0912 -1.2539
 8559SOL     OW37138   0.763   2.335   4.567  0.4929 -0.2861 -0.5796
 8559SOL    HW137139   0.852   2.305   4.584  0.8034  1.1332  0.2343
 8559SOL    HW237140   0.791   2.425   4.583 -2.6672  0.8248 -1.1328
 8560SOL     OW37141   0.452   2.828   6.528  0.2122 -0.7088 -0.0575
 8560SOL    HW137142   0.428   2.917   6.501  1.2134 -0.2695  0.5308
 8560SOL    HW237143   0.384   2.802   6.590 -0.2302 -0.5570 -0.4774
 8561SOL     OW37144   2.442   4.323  17.282 -0.2955 -0.0315 -0.0754
 8561SOL    HW137145   2.512   4.288  17.338 -0.5664 -0.4156  0.0238
 8561SOL    HW237146   2.394   4.384  17.338  2.3174  1.4338  0.5672
 8562SOL     OW37147   2.021   3.882   2.701 -0.1294  0.2995 -0.1839
 8562SOL    HW137148   1.959   3.920   2.763 -1.0327 -0.3804 -0.6625
 8562SOL    HW237149   1.985   3.923   2.623 -0.3743  3.2409  1.4627
 8563SOL     OW37150   1.075   3.466   6.033 -0.3882 -0.5032  0.1148
 8563SOL    HW137151   1.140   3.505   5.975  0.2582  0.0601  1.2218
 8563SOL    HW237152   1.000   3.519   6.005  0.2453 -1.0701 -2.7315
 8564SOL     OW37153   4.625   2.571   7.325  0.6243  0.0153 -0.5636
 8564SOL    HW137154   4.678   2.651   7.321 -2.2932  2.0548  1.7500
 8564SOL    HW237155   4.679   2.501   7.361  0.1404  1.6489  3.3292
 8565SOL     OW37156   1.295   0.762  11.291  0.1732  0.1122  0.4359
 8565SOL    HW137157   1.272   0.751  11.199  1.4238  0.3519  0.0985
 8565SOL    HW237158   1.348   0.842  11.283 -0.7399  0.5516 -1.2226
 8566SOL     OW37159   3.560   2.447   0.908  0.6949 -0.2337  0.8245
 8566SOL    HW137160   3.475   2.428   0.946  0.7213 -0.5473  0.7278
 8566SOL    HW237161   3.565   2.542   0.896  1.1078 -0.2534  0.8340
 8567SOL     OW37162   2.944   2.357  15.149 -0.6319 -1.2455 -0.0336
 8567SOL    HW137163   2.989   2.273  15.140 -1.2372 -1.5078 -0.6054
 8567SOL    HW237164   2.854   2.335  15.173 -0.6517  1.1114  2.0665
 8568SOL     OW37165   2.880   1.770   7.707  0.0137  0.0593 -0.1109
 8568SOL    HW137166   2.846   1.699   7.653 -0.1412 -1.3381  1.8109
 8568SOL    HW237167   2.971   1.781   7.677 -0.1146 -0.0585 -0.5356
 8569SOL     OW37168   3.875   4.489   6.680  0.2312 -0.0682  0.4371
 8569SOL    HW137169   3.939   4.516   6.614 -1.1794  4.2603  0.9028
 8569SOL    HW237170   3.938   4.469   6.749  0.1645  2.0782  1.1118
 8570SOL     OW37171   0.276   2.230  11.323  0.3299  0.1031 -0.0846
 8570SOL    HW137172   0.283   2.325  11.333  0.9303  0.2343 -1.8468
 8570SOL    HW237173   0.319   2.219  11.239  2.3876 -0.4862  1.0497
 8571SOL     OW37174   2.355   3.703  10.334 -0.0272 -0.1785 -0.3079
 8571SOL    HW137175   2.301   3.717  10.257  1.0163 -0.4345 -1.0943
 8571SOL    HW237176   2.381   3.794  10.346 -1.5691 -0.0005  1.6285
 8572SOL     OW37177   3.692   4.619   5.430  0.6197 -0.0136  0.7805
 8572SOL    HW137178   3.743   4.557   5.483  0.7532  0.8895  1.7111
 8572SOL    HW237179   3.743   4.695   5.457  1.9166 -1.3839  2.2459
 8573SOL     OW37180   1.765   3.623   9.807  0.3298 -0.8835  0.2535
 8573SOL    HW137181   1.760   3.694   9.744  0.6858 -0.5587  0.5949
 8573SOL    HW237182   1.735   3.554   9.747 -0.5018 -1.6587  1.5561
 8574SOL     OW37183   4.406   3.488   3.074 -0.4522  0.1482  0.2796
 8574SOL    HW137184   4.470   3.500   3.004 -0.3034 -0.3795  0.3272
 8574SOL    HW237185   4.339   3.432   3.035  0.3409 -0.5192 -0.1039
 8575SOL     OW37186   2.622   4.370   3.948 -0.4277 -0.0370  1.1540
 8575SOL    HW137187   2.597   4.438   4.011  0.8410  1.1248  0.4178
 8575SOL    HW237188   2.558   4.397   3.883  2.8536  1.3640 -1.4979
 8576SOL     OW37189   0.277   2.102   6.572 -0.4153 -0.2579 -0.1301
 8576SOL    HW137190   0.271   2.167   6.502 -2.0906 -0.3866 -0.0970
 8576SOL    HW237191   0.371   2.091   6.590  0.4571  5.5921 -1.0626
 8577SOL     OW37192   3.882   1.353  14.617  0.0871 -0.2553 -0.6960
 8577SOL    HW137193   3.809   1.392  14.664 -0.8262 -1.1668 -1.3338
 8577SOL    HW237194   3.930   1.432  14.595  1.4561 -0.8406  0.2367
 8578SOL     OW37195   1.728   2.175   9.062  0.1664 -0.3231  0.5281
 8578SOL    HW137196   1.685   2.170   8.976  0.5617  0.6271  0.2674
 8578SOL    HW237197   1.652   2.206   9.111 -1.3594 -0.8208 -1.5110
 8579SOL     OW37198   2.530   4.692   4.344 -0.1774  0.8366 -0.0042
 8579SOL    HW137199   2.602   4.681   4.406  0.8022  3.7479 -0.6280
 8579SOL    HW237200   2.564   4.628   4.282  3.0294  0.4862  2.1191
 8580SOL     OW37201   1.325   4.268  10.750  0.4028  0.0589  0.2674
 8580SOL    HW137202   1.396   4.288  10.689 -0.7460 -1.7033 -1.6450
 8580SOL    HW237203   1.377   4.268  10.830  1.9069 -4.0042 -0.7034
 8581SOL     OW37204   1.475   0.659   7.611  0.1569 -0.3943  0.3360
 8581SOL    HW137205   1.458   0.660   7.705 -0.4706  1.7271  0.1865
 8581SOL    HW237206   1.393   0.624   7.577 -0.7319  1.2736  0.7628
 8582SOL     OW37207   0.119   4.566   5.199 -0.0293 -0.4038  0.8240
 8582SOL    HW137208   0.061   4.541   5.127 -1.9751  3.1896  1.1424
 8582SOL    HW237209   0.074   4.518   5.269 -2.8688  1.6083  0.3951
 8583SOL     OW37210   4.406   0.855  10.712  0.4076 -0.2106 -0.0464
 8583SOL    HW137211   4.325   0.839  10.760  1.2297 -1.0854  1.0539
 8583SOL    HW237212   4.422   0.949  10.707  0.2984 -0.2165 -0.4801
 8584SOL     OW37213   2.424   0.141  15.064  0.5195  0.4214  0.5647
 8584SOL    HW137214   2.465   0.227  15.071  0.4626  0.3674  1.5657
 8584SOL    HW237215   2.372   0.149  15.144  0.5444 -0.5295  0.6691
 8585SOL     OW37216   1.833   0.369   8.223 -0.1681 -0.3520 -0.0368
 8585SOL    HW137217   1.796   0.387   8.136  0.5775 -0.7849 -0.4500
 8585SOL    HW237218   1.822   0.450   8.271 -0.6964  0.0620 -0.8454
 8586SOL     OW37219   4.272   4.076  10.668  0.7120  0.1196 -0.3071
 8586SOL    HW137220   4.313   3.993  10.690  1.9856  1.0693  0.8459
 8586SOL    HW237221   4.274   4.065  10.573  1.3930 -1.7498 -0.0742
 8587SOL     OW37222   1.453   2.204   5.610  0.0532 -0.2414  0.5698
 8587SOL    HW137223   1.433   2.255   5.532 -0.6466 -0.6394  0.4874
 8587SOL    HW237224   1.440   2.280   5.667  0.3080 -0.5697  1.0737
 8588SOL     OW37225   4.101   3.516   5.626  0.1214  0.3397  0.4012
 8588SOL    HW137226   4.170   3.522   5.560 -0.6939  2.1361 -0.2799
 8588SOL    HW237227   4.122   3.588   5.686 -1.1740  0.1319  1.1103
 8589SOL     OW37228   0.700   1.967   9.319 -0.1464 -0.2294  0.1673
 8589SOL    HW137229   0.607   1.987   9.327  0.0576  0.8077 -0.0040
 8589SOL    HW237230   0.710   1.904   9.390 -1.5146  1.4469  1.8422
 8590SOL     OW37231   3.670   3.806   1.947 -0.0784 -1.1854  0.4920
 8590SOL    HW137232   3.750   3.757   1.961  2.0551  2.1369 -0.1087
 8590SOL    HW237233   3.614   3.768   2.015  0.3714 -0.2846  1.3682
 8591SOL     OW37234   2.253   3.243   4.235  0.7228 -0.2389 -0.2507
 8591SOL    HW137235   2.261   3.149   4.251 -2.4036 -0.6285 -0.9151
 8591SOL    HW237236   2.174   3.249   4.288  0.3650  1.9320 -1.0063
 8592SOL     OW37237   1.933   2.731   4.610 -0.4025  0.3358  0.0015
 8592SOL    HW137238   1.953   2.656   4.665 -1.2017 -0.7688 -1.2094
 8592SOL    HW237239   1.982   2.802   4.651  0.3162  0.8008 -1.6560
 8593SOL     OW37240   2.263   1.205   2.392  0.1507 -0.4458  0.3668
 8593SOL    HW137241   2.246   1.202   2.486  0.6103  1.4860  0.5060
 8593SOL    HW237242   2.187   1.173   2.344 -0.6509  1.9422  0.0529
 8594SOL     OW37243   4.171   3.971   8.456 -0.5546  0.5503 -0.6449
 8594SOL    HW137244   4.088   3.976   8.409  0.0150 -0.6708 -1.7934
 8594SOL    HW237245   4.140   3.967   8.546 -2.0193  1.1371 -1.1131
 8595SOL     OW37246   1.824   2.013   8.335 -0.1160  0.4238  0.0466
 8595SOL    HW137247   1.798   1.943   8.394 -0.2496 -0.1535 -0.6868
 8595SOL    HW237248   1.916   1.993   8.316  0.2216  0.5471  1.5548
 8596SOL     OW37249   4.172   3.159   4.467  0.0099 -0.4870 -0.1676
 8596SOL    HW137250   4.242   3.184   4.528 -0.1017 -1.0871  0.2009
 8596SOL    HW237251   4.100   3.196   4.519  0.5953  1.4929 -0.7498
 8597SOL     OW37252   4.643   1.435   5.506 -0.4517  0.2828  0.1596
 8597SOL    HW137253   4.667   1.486   5.429  0.0323 -0.8077 -0.4067
 8597SOL    HW237254   4.582   1.376   5.462  0.4430 -0.5554  0.0648
 8598SOL     OW37255   0.364   3.784   0.293  0.3630 -0.4896  0.3431
 8598SOL    HW137256   0.456   3.807   0.284 -0.5036  2.4253 -1.1862
 8598SOL    HW237257   0.357   3.776   0.388  3.3643 -0.6536  0.5397
 8599SOL     OW37258   2.764   3.178   8.593  0.1855 -0.4057  0.1387
 8599SOL    HW137259   2.726   3.141   8.672  0.5494  0.0981  0.5500
 8599SOL    HW237260   2.858   3.164   8.601  0.5347  1.3518 -0.7167
 8600SOL     OW37261   0.287   1.804  11.948  0.3761 -1.0675 -0.0953
 8600SOL    HW137262   0.294   1.884  11.896 -0.5249 -0.4885  0.6902
 8600SOL    HW237263   0.241   1.831  12.027 -0.5924 -0.7890 -0.7482
 8601SOL     OW37264   4.576   1.304   2.682  0.6109 -0.4846 -0.3381
 8601SOL    HW137265   4.671   1.296   2.681  0.6973  0.3608  1.2090
 8601SOL    HW237266   4.546   1.259   2.602  2.0247 -1.9849 -0.0274
 8602SOL     OW37267   0.199   3.727  13.684 -0.0937  0.1393  0.3084
 8602SOL    HW137268   0.253   3.758  13.756 -3.2675  1.4569  2.1217
 8602SOL    HW237269   0.227   3.636  13.679 -2.4171 -0.5194 -1.2059
 8603SOL     OW37270   2.879   1.655  15.778  0.2762  0.5617 -0.0005
 8603SOL    HW137271   2.853   1.613  15.860 -1.2771  0.1780 -0.6908
 8603SOL    HW237272   2.972   1.648  15.799  0.3007 -0.3915 -0.4021
 8604SOL     OW37273   1.608   1.800  15.408  0.0041 -0.1043 -0.3098
 8604SOL    HW137274   1.548   1.811  15.334 -0.5033  1.2570  0.3121
 8604SOL    HW237275   1.652   1.884  15.398  0.5333 -0.2098  1.1492
 8605SOL     OW37276   1.071   3.758  17.539  0.2904 -0.0964 -0.1775
 8605SOL    HW137277   1.058   3.851  17.559 -0.2855 -0.6665  2.0133
 8605SOL    HW237278   0.999   3.729  17.483 -0.4845  1.9411 -0.2440
 8606SOL     OW37279   0.566   2.447  13.092  0.1571 -0.1227 -0.7152
 8606SOL    HW137280   0.566   2.426  12.999 -1.9717  0.8114 -0.9223
 8606SOL    HW237281   0.600   2.537  13.088  4.1566 -1.5263  1.7493
 8607SOL     OW37282   4.335   1.664  13.576 -0.1543  0.0871  0.0598
 8607SOL    HW137283   4.305   1.685  13.665 -0.2237  1.1953 -0.2284
 8607SOL    HW237284   4.425   1.696  13.576 -0.1521  0.0897 -3.1984
 8608SOL     OW37285   1.980   1.700  11.025  0.3439 -0.0590  0.5555
 8608SOL    HW137286   1.903   1.682  11.078 -1.6395 -1.7065 -2.9372
 8608SOL    HW237287   1.953   1.667  10.939 -1.5484 -2.1781  1.9630
 8609SOL     OW37288   1.204   2.494   0.248  0.5545  0.4097  0.1078
 8609SOL    HW137289   1.248   2.409   0.241 -1.0973 -0.4615  0.0590
 8609SOL    HW237290   1.142   2.472   0.319  0.3665 -0.3167 -0.2821
 8610SOL     OW37291   2.911   2.951   6.021  0.3099 -0.4093  0.9568
 8610SOL    HW137292   2.965   2.964   6.099 -1.2028  2.9218  1.4423
 8610SOL    HW237293   2.910   2.855   6.017 -1.2498 -0.4127  1.1750
 8611SOL     OW37294   4.210   4.685   3.974 -0.3457 -0.1844  0.0937
 8611SOL    HW137295   4.218   4.592   3.995  3.6906 -0.1804 -1.3432
 8611SOL    HW237296   4.169   4.716   4.054 -0.0921  0.0824  0.1231
 8612SOL     OW37297   0.481   2.435   9.470 -0.0764 -0.2167  0.1124
 8612SOL    HW137298   0.398   2.474   9.441  0.0666 -0.5331 -0.7323
 8612SOL    HW237299   0.533   2.461   9.394  0.1616 -0.2849  0.2537
 8613SOL     OW37300   2.159   3.819  10.884  0.2100 -0.5394  0.4075
 8613SOL    HW137301   2.155   3.903  10.837 -2.0952 -0.5558  0.5535
 8613SOL    HW237302   2.083   3.823  10.942 -0.9895 -0.0959 -1.1738
 8614SOL     OW37303   2.967   3.633  11.997  1.3102  0.2152  0.2155
 8614SOL    HW137304   2.942   3.715  12.039  0.8195 -1.2840  2.8578
 8614SOL    HW237305   2.933   3.639  11.908 -0.3229  2.0134  0.9792
 8615SOL     OW37306   2.344   0.099   3.985  0.0031 -0.2002 -0.2058
 8615SOL    HW137307   2.333   0.090   3.890 -1.1988  2.5414 -0.3272
 8615SOL    HW237308   2.250   0.097   4.000  0.0999  3.3057  0.8499
 8616SOL     OW37309   1.114   3.218   3.916  0.2692  0.0835 -0.6113
 8616SOL    HW137310   1.095   3.267   3.836 -0.6829  1.4565  0.4456
 8616SOL    HW237311   1.051   3.148   3.901  1.3006 -0.6288 -1.6253
 8617SOL     OW37312   2.311   1.895   0.330 -0.1615  0.3657  0.4310
 8617SOL    HW137313   2.231   1.943   0.349  0.8837  2.2101  0.1727
 8617SOL    HW237314   2.385   1.956   0.335  0.2683 -0.2760  1.9996
 8618SOL     OW37315   4.139   0.663   7.335  0.3955 -0.0683 -0.1190
 8618SOL    HW137316   4.095   0.696   7.257 -0.7516  0.9845  0.9619
 8618SOL    HW237317   4.209   0.607   7.301 -0.3999 -0.0186 -1.8423
 8619SOL     OW37318   0.319   2.261   7.121 -0.0661 -0.3496 -0.1967
 8619SOL    HW137319   0.409   2.247   7.151  0.0070 -0.7351 -0.6053
 8619SOL    HW237320   0.345   2.242   7.031 -1.2016  1.7978 -0.9725
 8620SOL     OW37321   3.366   1.006   4.983 -0.0108 -0.1601  0.9155
 8620SOL    HW137322   3.277   1.037   4.996  0.6083  1.3953  1.4695
 8620SOL    HW237323   3.356   0.911   4.985 -2.0279  0.0374 -0.0762
 8621SOL     OW37324   0.871   3.251  13.136 -0.5788 -0.2817 -0.2845
 8621SOL    HW137325   0.830   3.307  13.071  1.2673 -1.4987 -2.5302
 8621SOL    HW237326   0.948   3.229  13.084 -0.5048  0.0366 -0.3061
 8622SOL     OW37327   0.480   3.926   2.187 -0.4686 -0.1753  0.1553
 8622SOL    HW137328   0.554   3.979   2.159  0.7482 -0.7215  2.3399
 8622SOL    HW237329   0.506   3.892   2.273 -2.6103 -1.0450  0.4660
 8623SOL     OW37330   3.210   1.278   1.904  0.4685 -0.0742 -0.1763
 8623SOL    HW137331   3.282   1.217   1.917 -1.1790 -1.8279  0.6876
 8623SOL    HW237332   3.263   1.351   1.871  0.6226 -0.3197 -0.4660
 8624SOL     OW37333   0.294   1.347   8.152  0.3823 -0.5993 -0.2037
 8624SOL    HW137334   0.234   1.279   8.182  0.6728 -1.8295 -2.4253
 8624SOL    HW237335   0.355   1.350   8.226  0.1878 -0.0374 -0.0652
 8625SOL     OW37336   1.415   0.869   4.568  0.1088  0.2196  0.3842
 8625SOL    HW137337   1.359   0.840   4.496  0.3481  1.6676 -0.3862
 8625SOL    HW237338   1.350   0.869   4.638 -0.8053 -0.2425 -0.4559
 8626SOL     OW37339   3.475   1.679   3.280  0.0446  0.3228 -0.2062
 8626SOL    HW137340   3.456   1.593   3.242  2.3765  0.3053 -1.3117
 8626SOL    HW237341   3.559   1.657   3.319 -0.8906 -2.1874  0.3681
 8627SOL     OW37342   2.531   1.562   7.076 -0.4404 -0.1417 -0.3149
 8627SOL    HW137343   2.520   1.625   7.005  0.2689 -0.6496 -0.8777
 8627SOL    HW237344   2.442   1.548   7.107 -0.3896  1.6724  0.6500
 8628SOL     OW37345   0.081   3.964   1.350  0.0169  0.4863  0.3768
 8628SOL    HW137346   0.024   4.039   1.337 -0.9092 -0.1709  0.6690
 8628SOL    HW237347   0.152   4.010   1.395 -0.5712  1.7917 -0.0308
 8629SOL     OW37348   0.473   3.123   7.230  0.1199  0.0906  0.0312
 8629SOL    HW137349   0.492   3.179   7.154  1.9014  1.1477  1.2502
 8629SOL    HW237350   0.429   3.052   7.183 -2.2540  0.7081  1.3111
 8630SOL     OW37351   3.983   0.692   6.166 -0.0371  0.2298 -0.6579
 8630SOL    HW137352   4.051   0.724   6.226  0.9931 -2.1289 -0.5507
 8630SOL    HW237353   3.925   0.768   6.162 -1.5823 -0.9139  0.2161
 8631SOL     OW37354   1.491   2.008   2.842  0.3675  0.2895  0.1572
 8631SOL    HW137355   1.467   1.961   2.762  2.8361  0.2665 -0.5665
 8631SOL    HW237356   1.435   1.962   2.904  0.0647  0.8542  0.3045
 8632SOL     OW37357   2.779   3.871   6.992  0.2800 -0.2060  0.3081
 8632SOL    HW137358   2.701   3.892   6.941 -0.0068  0.3595  0.9664
 8632SOL    HW237359   2.795   3.784   6.955  0.3734 -0.0979  0.0951
 8633SOL     OW37360   4.477   1.116   3.925 -0.5014  0.3831  0.3390
 8633SOL    HW137361   4.518   1.203   3.929 -1.1139  0.6904 -0.0387
 8633SOL    HW237362   4.534   1.057   3.974  0.8803 -0.7816 -2.6395
 8634SOL     OW37363   2.405   1.825   2.833 -0.2721  0.0751 -0.1478
 8634SOL    HW137364   2.438   1.740   2.861  1.4972  0.9150  0.3396
 8634SOL    HW237365   2.454   1.881   2.893  4.2640 -0.1312 -3.6839
 8635SOL     OW37366   0.795   1.320   8.622 -0.0475  0.1435  0.0933
 8635SOL    HW137367   0.808   1.360   8.708  2.1515  1.7522 -0.9982
 8635SOL    HW237368   0.747   1.396   8.590 -2.6840 -1.4117  0.3533
 8636SOL     OW37369   1.218   1.431   9.319  0.0866 -0.0458 -0.0666
 8636SOL    HW137370   1.295   1.450   9.373  0.6408 -1.0046 -0.5217
 8636SOL    HW237371   1.195   1.342   9.348  2.9008 -0.3368  1.2368
 8637SOL     OW37372   0.005   4.527  16.850 -0.1800 -0.1195  0.2349
 8637SOL    HW137373   4.642   4.502  16.811 -1.6168  0.6140  2.8218
 8637SOL    HW237374   4.707   4.620  16.866  2.5207  0.2982  0.8328
 8638SOL     OW37375   0.948   1.250   7.253 -0.4803 -0.5556 -0.3739
 8638SOL    HW137376   0.900   1.330   7.275 -3.5510 -2.2271 -0.9025
 8638SOL    HW237377   1.021   1.289   7.205 -0.3056 -0.9515 -0.4301
 8639SOL     OW37378   4.326   1.994   3.995 -0.4489  0.2234 -0.1065
 8639SOL    HW137379   4.299   1.902   3.996 -1.5797  0.5727  2.5170
 8639SOL    HW237380   4.410   1.984   4.040 -0.1559 -2.0938 -1.1685
 8640SOL     OW37381   1.652   0.234   1.448  0.0429  0.2887 -0.6362
 8640SOL    HW137382   1.741   0.247   1.415  0.6880 -2.3289  0.1139
 8640SOL    HW237383   1.643   0.139   1.441 -0.5615  0.2919  0.1590
 8641SOL     OW37384   4.209   1.139   2.615  0.0734 -0.1972 -0.4461
 8641SOL    HW137385   4.196   1.084   2.693  1.0395 -1.0816 -0.9107
 8641SOL    HW237386   4.280   1.085   2.581  0.5806  0.0035  0.2909
 8642SOL     OW37387   2.936   3.637   1.171 -0.6216  0.6621  0.1003
 8642SOL    HW137388   2.924   3.547   1.142 -0.9574  0.4999  0.7562
 8642SOL    HW237389   3.006   3.664   1.111  1.1588  1.2673  2.4941
 8643SOL     OW37390   2.127   0.611  14.959 -0.0049  0.1781 -0.0817
 8643SOL    HW137391   2.043   0.606  15.003  1.3049 -2.1274  2.1483
 8643SOL    HW237392   2.169   0.538  15.004  0.5997  1.5113  1.5068
 8644SOL     OW37393   4.042   3.005   5.760 -0.6098 -0.0372 -0.1041
 8644SOL    HW137394   4.079   3.093   5.764 -1.6540  0.4431 -1.0859
 8644SOL    HW237395   4.077   2.975   5.676 -1.3564  1.9181 -1.1098
 8645SOL     OW37396   2.458   3.972  11.911  0.3632  0.4138 -0.0892
 8645SOL    HW137397   2.488   3.949  11.999  0.8060  0.4096 -0.2399
 8645SOL    HW237398   2.486   4.063  11.906 -0.3212  0.8085  3.2234
 8646SOL     OW37399   2.409   4.681   8.560 -0.1070 -0.0112 -0.3814
 8646SOL    HW137400   2.348   4.700   8.632  0.1381 -0.6741 -0.0017
 8646SOL    HW237401   2.354   0.006   8.496  0.0154  1.7518  0.7297
 8647SOL     OW37402   4.252   2.975   8.855 -0.2382  0.2417 -0.3251
 8647SOL    HW137403   4.294   2.938   8.777 -2.1532  0.1715 -1.3136
 8647SOL    HW237404   4.336   3.014   8.883 -1.1818  0.9843  1.4766
 8648SOL     OW37405   3.140   2.447   0.409 -0.0537  0.8015 -0.2195
 8648SOL    HW137406   3.121   2.445   0.502  0.2473 -0.9265 -0.2038
 8648SOL    HW237407   3.096   2.377   0.360  0.9356 -0.7809  1.1496
 8649SOL     OW37408   4.209   2.893   5.109 -0.6544  0.2693  0.2774
 8649SOL    HW137409   4.259   2.946   5.047  0.9304 -0.1863  1.1382
 8649SOL    HW237410   4.238   2.939   5.189 -0.3138  2.9123 -1.3653
 8650SOL     OW37411   3.549   4.674  16.705 -0.2747 -0.2528  0.1477
 8650SOL    HW137412   3.485   4.605  16.723 -0.8189  0.0911 -0.5072
 8650SOL    HW237413   3.504   0.038  16.708  0.1520 -0.0191 -0.2309
 8651SOL     OW37414   4.264   1.424   8.775  0.3845 -0.1459  0.1739
 8651SOL    HW137415   4.239   1.517   8.772 -1.4606 -0.6285  0.9924
 8651SOL    HW237416   4.260   1.400   8.682  0.3397  2.1837 -0.4293
 8652SOL     OW37417   3.138   0.636   7.359  0.4285 -0.1951  0.4579
 8652SOL    HW137418   3.134   0.730   7.346 -0.0805 -0.4578 -1.2789
 8652SOL    HW237419   3.071   0.622   7.427 -0.0691  1.4332  0.2950
 8653SOL     OW37420   4.490   1.434   8.215  0.0618  0.1009 -0.1319
 8653SOL    HW137421   4.486   1.508   8.276 -0.7712  0.2323 -0.3345
 8653SOL    HW237422   4.540   1.469   8.141 -0.1061 -0.3188 -0.4411
 8654SOL     OW37423   1.965   3.184  10.723 -0.2238 -0.1590 -0.2133
 8654SOL    HW137424   2.049   3.225  10.701 -0.1849  0.6157  1.3960
 8654SOL    HW237425   1.975   3.133  10.804 -0.3514 -0.7509 -0.5710
 8655SOL     OW37426   1.967   1.435  13.891 -0.2007  0.5503 -0.0635
 8655SOL    HW137427   1.872   1.442  13.880 -0.2292  0.2976  0.0278
 8655SOL    HW237428   1.989   1.365  13.829  1.7543  0.8402  0.3012
 8656SOL     OW37429   2.748   3.659   3.749 -0.3467  0.6383 -0.4148
 8656SOL    HW137430   2.811   3.717   3.792 -0.5648 -0.0894  0.8843
 8656SOL    HW237431   2.749   3.701   3.663 -1.1825 -0.1216 -0.7949
 8657SOL     OW37432   3.535   0.725   2.503 -0.1134 -0.0451  0.0422
 8657SOL    HW137433   3.576   0.638   2.505  0.0063  0.0307  0.7282
 8657SOL    HW237434   3.520   0.733   2.409  2.5994 -0.6249 -0.4455
 8658SOL     OW37435   2.160   3.372   8.083  0.0019 -0.0204 -0.2075
 8658SOL    HW137436   2.079   3.354   8.035  0.6029 -1.6341 -0.6221
 8658SOL    HW237437   2.201   3.285   8.082 -0.2000 -0.1296  1.4702
 8659SOL     OW37438   1.345   4.116  11.034  0.3203  0.3186 -0.0256
 8659SOL    HW137439   1.412   4.088  11.097 -0.4745  0.7561  0.9950
 8659SOL    HW237440   1.294   4.171  11.093  0.9889  0.5435  0.3531
 8660SOL     OW37441   0.942   4.235  14.548 -0.8829 -0.2646 -0.9394
 8660SOL    HW137442   1.001   4.159  14.549 -0.2049  0.2798 -0.3741
 8660SOL    HW237443   1.002   4.304  14.520  1.9188 -2.0521  0.7262
 8661SOL     OW37444   2.893   2.072   9.698 -0.0990  0.3601  0.5054
 8661SOL    HW137445   2.957   2.045   9.632  1.0034  1.2084  1.2306
 8661SOL    HW237446   2.835   1.995   9.690 -0.5983  0.6693  1.2088
 8662SOL     OW37447   1.316   4.709   1.424 -0.7139 -0.5541  0.2091
 8662SOL    HW137448   1.251   4.698   1.354 -0.8633  2.0009 -0.0374
 8662SOL    HW237449   1.291   0.075   1.457  1.6570 -1.1139  3.4296
 8663SOL     OW37450   3.919   4.594  11.935 -0.4303 -0.1620 -0.6326
 8663SOL    HW137451   3.998   4.589  11.989  0.7209  0.9599 -2.2019
 8663SOL    HW237452   3.927   4.679  11.891 -2.0390  0.0673 -0.4785
 8664SOL     OW37453   1.992   0.110   6.859  0.1344 -0.2194  0.1478
 8664SOL    HW137454   2.013   0.176   6.793  2.6792 -2.5419 -1.3877
 8664SOL    HW237455   1.933   0.156   6.919 -1.0038 -2.9994  1.1465
 8665SOL     OW37456   0.367   2.856   3.180  0.0317  0.3566  0.1579
 8665SOL    HW137457   0.382   2.761   3.181  1.1761  0.5118 -2.0728
 8665SOL    HW237458   0.459   2.878   3.164 -0.4390  0.4592 -2.2940
 8666SOL     OW37459   1.788   1.492   4.194  0.1043  0.5093 -0.5798
 8666SOL    HW137460   1.836   1.505   4.276  0.3900 -0.5712 -0.5776
 8666SOL    HW237461   1.813   1.402   4.173 -0.8139  0.1038  0.0507
 8667SOL     OW37462   2.181   4.034   1.796 -0.2106  0.2994  0.2576
 8667SOL    HW137463   2.127   3.963   1.761 -0.4161 -1.1598  3.5148
 8667SOL    HW237464   2.121   4.082   1.853 -0.6429  0.9823 -0.7759
 8668SOL     OW37465   1.669   3.785   8.610  0.2087 -0.1723 -0.1138
 8668SOL    HW137466   1.658   3.880   8.614  1.0116 -0.0867  0.0291
 8668SOL    HW237467   1.729   3.775   8.536 -1.9708  3.1725 -2.3438
 8669SOL     OW37468   1.563   3.999   8.870 -0.5237  0.3046  0.1613
 8669SOL    HW137469   1.657   4.002   8.887 -0.6265 -1.0193  1.0207
 8669SOL    HW237470   1.527   3.963   8.951 -2.1417  1.1571 -0.1855
 8670SOL     OW37471   2.090   3.873   3.501 -0.3650  0.3730  0.5017
 8670SOL    HW137472   2.114   3.818   3.576  1.0580  1.3545  0.7597
 8670SOL    HW237473   2.150   3.844   3.433 -1.3197  0.1763 -0.2657
 8671SOL     OW37474   2.157   2.951   4.114 -0.1474 -0.0778  0.0369
 8671SOL    HW137475   2.155   2.861   4.081  2.0837  0.8970 -2.7910
 8671SOL    HW237476   2.102   2.996   4.051 -0.3474  0.8965  0.9150
 8672SOL     OW37477   0.842   3.385  12.473 -0.2439 -0.1173 -0.3981
 8672SOL    HW137478   0.854   3.350  12.385 -0.8346 -0.5568 -0.3040
 8672SOL    HW237479   0.767   3.333  12.502  1.4114 -3.1183 -1.4887
 8673SOL     OW37480   2.886   1.944  17.053 -0.1918  0.5603  0.0279
 8673SOL    HW137481   2.875   1.854  17.024 -1.2277  0.6787  0.0759
 8673SOL    HW237482   2.799   1.965  17.086 -0.0188  0.3652  0.6139
 8674SOL     OW37483   2.725   3.147  16.950 -0.2631  0.4649  0.1115
 8674SOL    HW137484   2.706   3.062  16.908  1.6982 -1.2620  2.7376
 8674SOL    HW237485   2.636   3.179  16.940 -0.6230 -0.5937 -0.1478
 8675SOL     OW37486   1.458   0.820   9.979  0.1203 -0.0053  0.9490
 8675SOL    HW137487   1.532   0.836  10.037  0.7561 -1.7078  0.6090
 8675SOL    HW237488   1.399   0.894   9.985  1.3723  0.8463  2.8250
 8676SOL     OW37489   4.324   0.160   3.373  0.3953  0.0286 -0.4312
 8676SOL    HW137490   4.249   0.219   3.382  0.6503  0.1408  0.9669
 8676SOL    HW237491   4.317   0.132   3.464 -0.7544 -2.5972 -1.3222
 8677SOL     OW37492   3.689   2.965  13.657 -0.0147  0.1514  0.0881
 8677SOL    HW137493   3.596   2.987  13.668  0.7038  2.8040  0.6699
 8677SOL    HW237494   3.677   2.891  13.596 -0.6300 -0.0713  0.4795
 8678SOL     OW37495   2.066   3.796  14.967 -0.2117 -0.6713  0.1273
 8678SOL    HW137496   2.106   3.826  14.885 -0.2017 -2.2320 -0.4408
 8678SOL    HW237497   2.065   3.876  15.019 -0.7924 -1.0095  0.6316
 8679SOL     OW37498   3.484   0.977   3.167 -0.2956 -0.5473 -0.8179
 8679SOL    HW137499   3.576   1.003   3.158 -0.0324 -1.5079 -0.8762
 8679SOL    HW237500   3.485   0.889   3.128 -1.9936 -0.7567 -0.3610
 8680SOL     OW37501   1.666   2.433   9.223  0.2934  0.3067  0.7962
 8680SOL    HW137502   1.610   2.481   9.162  0.4078 -0.4841  0.0572
 8680SOL    HW237503   1.754   2.436   9.185  0.4468  0.0590  1.1294
 8681SOL     OW37504   2.640   3.882   8.405 -0.1398  0.1946 -0.3588
 8681SOL    HW137505   2.610   3.810   8.349  1.6008  0.4926 -1.6713
 8681SOL    HW237506   2.733   3.858   8.404 -0.2104 -0.1045  0.2338
 8682SOL     OW37507   0.782   0.082   6.965  0.8058  0.1243 -0.5148
 8682SOL    HW137508   0.765   0.021   7.038  2.0295 -0.2685 -0.5446
 8682SOL    HW237509   0.824   0.152   7.016  0.9644 -0.1943 -0.2017
 8683SOL     OW37510   0.666   3.154  10.070  0.9339 -0.2130 -0.0444
 8683SOL    HW137511   0.718   3.205  10.009 -2.3048  3.2467  0.1349
 8683SOL    HW237512   0.646   3.218  10.138  0.4416 -0.5983  0.1693
 8684SOL     OW37513   3.721   4.513  12.122 -0.3973 -0.3833 -0.4584
 8684SOL    HW137514   3.728   4.419  12.105 -0.7332 -0.6213  0.7762
 8684SOL    HW237515   3.796   4.541  12.069 -0.2730  1.0238  0.4793
 8685SOL     OW37516   0.652   3.691   4.922 -0.6740  0.0385 -0.4558
 8685SOL    HW137517   0.721   3.693   4.856  0.3606 -1.0520  0.6154
 8685SOL    HW237518   0.688   3.763   4.974  1.4406 -2.0912  0.9990
 8686SOL     OW37519   4.170   4.683   8.581  0.2708 -0.0988  0.4224
 8686SOL    HW137520   4.178   4.588   8.575 -0.4112 -0.1201 -0.2276
 8686SOL    HW237521   4.260   4.703   8.603 -0.1423  1.7139  0.4429
 8687SOL     OW37522   3.941   3.522   6.874  0.0707 -0.4968 -0.6819
 8687SOL    HW137523   3.869   3.459   6.865  0.5023 -1.6403  3.7151
 8687SOL    HW237524   3.903   3.601   6.836 -0.8517 -0.1573  0.9321
 8688SOL     OW37525   4.610   3.672   3.921  0.3452  0.3443 -0.0034
 8688SOL    HW137526   4.611   3.765   3.899 -2.5737  0.5025  0.4653
 8688SOL    HW237527   4.528   3.665   3.970  0.2212  0.1328 -0.2423
 8689SOL     OW37528   0.669   3.767   5.412  0.5824  0.6123  0.0920
 8689SOL    HW137529   0.687   3.800   5.324 -1.3924 -0.9063 -0.8881
 8689SOL    HW237530   0.600   3.705   5.390  0.4054  0.6930  0.4183
 8690SOL     OW37531   1.642   3.814   6.749 -0.0155 -0.0163 -0.2276
 8690SOL    HW137532   1.603   3.883   6.695 -2.6540 -1.2297  0.1086
 8690SOL    HW237533   1.669   3.874   6.818 -0.1958  0.6735 -0.7519
 8691SOL     OW37534   3.283   1.880   4.322  0.2673  0.4515 -0.3312
 8691SOL    HW137535   3.291   1.942   4.394  4.5304 -0.0410 -0.3585
 8691SOL    HW237536   3.298   1.795   4.364  0.2900  0.5042 -0.2350
 8692SOL     OW37537   0.566   1.618   1.112  0.3024 -0.5195  0.4242
 8692SOL    HW137538   0.539   1.606   1.021  0.6048 -0.1450  0.2891
 8692SOL    HW237539   0.623   1.542   1.123  0.0988 -0.7933 -0.3691
 8693SOL     OW37540   0.747   2.787   9.467 -0.2473  0.1067  0.2294
 8693SOL    HW137541   0.656   2.814   9.461 -0.1646  0.0587 -1.1871
 8693SOL    HW237542   0.728   2.720   9.534  1.5401  0.3351  0.9680
 8694SOL     OW37543   3.864   1.804   5.415  0.4466  0.4744  0.5467
 8694SOL    HW137544   3.773   1.833   5.407  0.2795 -0.1050  0.3530
 8694SOL    HW237545   3.908   1.863   5.354  0.7672 -2.0579 -1.6514
 8695SOL     OW37546   4.547   0.057   4.962 -0.0989 -0.1069 -0.7847
 8695SOL    HW137547   4.463   0.012   4.953 -0.8696  1.4520 -1.3812
 8695SOL    HW237548   4.529   0.134   4.908 -0.0301 -0.1523 -0.8709
 8696SOL     OW37549   3.338   3.942  15.497 -0.0629 -0.4092 -0.1410
 8696SOL    HW137550   3.363   3.977  15.411  1.3505  0.3229  0.5761
 8696SOL    HW237551   3.336   3.847  15.491  0.6562 -0.3884 -0.6722
 8697SOL     OW37552   3.330   0.722  14.593 -0.3368  0.5765  0.3729
 8697SOL    HW137553   3.391   0.718  14.519  0.1069  0.1029  0.7730
 8697SOL    HW237554   3.264   0.668  14.549 -0.0249  0.0040  0.6205
 8698SOL     OW37555   1.573   3.596   4.031  0.1315  0.1139 -0.1351
 8698SOL    HW137556   1.550   3.670   3.976  2.4213 -0.0321 -1.2937
 8698SOL    HW237557   1.513   3.593   4.106  0.3127  0.7876  0.0339
 8699SOL     OW37558   4.605   4.391   0.265  0.1514  0.1733 -0.7529
 8699SOL    HW137559   4.579   4.429   0.181 -0.1610  1.6704  0.0146
 8699SOL    HW237560   4.696   4.374   0.240 -0.0924  1.2940 -2.4213
 8700SOL     OW37561   3.519   4.377  12.414 -0.0382 -0.1594  0.1536
 8700SOL    HW137562   3.589   4.400  12.474 -0.6682  0.9769  0.4449
 8700SOL    HW237563   3.504   4.284  12.433  3.7441 -0.5090  1.5164
 8701SOL     OW37564   1.584   2.695   8.691 -0.3921 -0.0657 -0.4888
 8701SOL    HW137565   1.509   2.709   8.634  1.0967  2.4072 -1.8539
 8701SOL    HW237566   1.599   2.786   8.719 -1.9279 -0.5010  1.7405
 8702SOL     OW37567   3.277   3.586  15.093 -0.4903 -0.5866  0.5737
 8702SOL    HW137568   3.345   3.542  15.042 -2.0983 -0.2635 -1.8482
 8702SOL    HW237569   3.270   3.524  15.166 -0.9358 -0.6948  0.4367
 8703SOL     OW37570   1.752   0.465  16.559  0.0801 -0.2144  0.2760
 8703SOL    HW137571   1.822   0.496  16.617 -0.0854 -2.9107  1.9315
 8703SOL    HW237572   1.786   0.385  16.520  1.0721  0.1245  0.4542
 8704SOL     OW37573   0.815   1.190   7.553 -0.3883  0.0637 -0.1312
 8704SOL    HW137574   0.814   1.100   7.587  0.2605  0.3009  0.5179
 8704SOL    HW237575   0.895   1.179   7.500  0.4697  1.3678  0.9124
 8705SOL     OW37576   2.013   3.686   6.136 -0.2030  0.5655  0.7084
 8705SOL    HW137577   1.938   3.637   6.172  0.6509 -2.3348 -1.4346
 8705SOL    HW237578   2.040   3.629   6.063  0.6857 -0.8321  2.1264
 8706SOL     OW37579   1.778   1.878  17.429  0.0316 -0.2330 -0.2642
 8706SOL    HW137580   1.801   1.870  17.522 -2.5432 -2.4056  0.2010
 8706SOL    HW237581   1.687   1.848  17.425 -0.5847  1.4862  1.2888
 8707SOL     OW37582   1.470   1.414   8.992 -0.4316  0.7565  0.1772
 8707SOL    HW137583   1.448   1.335   9.042  1.1796  1.3431  1.8085
 8707SOL    HW237584   1.419   1.397   8.913  1.0897 -2.3310 -0.1727
 8708SOL     OW37585   0.316   2.316   4.174 -0.3465  0.3183 -0.0447
 8708SOL    HW137586   0.291   2.224   4.171  1.2749 -0.1018 -0.5936
 8708SOL    HW237587   0.353   2.324   4.263 -2.2831  0.1907  0.7635
 8709SOL     OW37588   2.269   3.761   2.769 -0.5568  0.1212  0.0157
 8709SOL    HW137589   2.179   3.793   2.771 -0.1218  1.2564  1.3861
 8709SOL    HW237590   2.245   3.674   2.801 -1.7147 -0.1534 -1.6515
 8710SOL     OW37591   2.358   1.898   8.406  0.8550 -0.0335  0.9308
 8710SOL    HW137592   2.374   1.926   8.496 -0.6991  3.1301  0.2382
 8710SOL    HW237593   2.262   1.904   8.408  0.6579 -2.1412 -2.2779
 8711SOL     OW37594   3.615   2.741  13.493  0.2819 -0.2211  0.5074
 8711SOL    HW137595   3.681   2.763  13.427 -0.4779  0.5648  0.0187
 8711SOL    HW237596   3.542   2.787  13.452  1.1070  0.4461 -0.2209
 8712SOL     OW37597   3.987   4.112   3.252  0.1222 -0.6066  0.3879
 8712SOL    HW137598   4.060   4.133   3.310  1.3103  0.7052 -1.5691
 8712SOL    HW237599   4.004   4.021   3.228  0.2775 -0.8114  1.2873
 8713SOL     OW37600   3.877   0.067   2.778  0.3004 -0.4796 -0.0564
 8713SOL    HW137601   3.952   0.013   2.802  0.3646  0.1019  1.0363
 8713SOL    HW237602   3.902   0.148   2.821 -1.0725  0.7679 -1.6171
 8714SOL     OW37603   1.180   1.595   5.886 -0.0046 -0.0319 -0.0236
 8714SOL    HW137604   1.102   1.592   5.831  0.7259  2.3141 -1.1648
 8714SOL    HW237605   1.216   1.682   5.872  1.7445 -0.3371  2.4281
 8715SOL     OW37606   2.306   0.742  14.589  0.2958  0.4840 -0.1947
 8715SOL    HW137607   2.263   0.776  14.668 -1.6256 -0.7207 -0.7159
 8715SOL    HW237608   2.235   0.697  14.543  0.6798 -0.7836  0.4504
 8716SOL     OW37609   1.737   4.680   4.287 -0.3960 -0.1841 -0.0227
 8716SOL    HW137610   1.710   0.052   4.276  2.9707  0.7884 -0.0573
 8716SOL    HW237611   1.824   4.701   4.319 -0.6318 -0.2863  0.6693
 8717SOL     OW37612   4.042   1.844   7.318 -0.4622 -0.2953 -0.5666
 8717SOL    HW137613   3.973   1.815   7.258 -1.7776  1.6548 -0.0160
 8717SOL    HW237614   4.090   1.913   7.271 -0.9663 -0.8027 -1.8156
 8718SOL     OW37615   2.076   2.341   5.987 -0.5850  0.0763 -0.1947
 8718SOL    HW137616   1.986   2.373   5.996 -0.4543  0.7350 -1.1998
 8718SOL    HW237617   2.054   2.251   5.963  1.3104  0.1427 -2.1360
 8719SOL     OW37618   1.160   1.403   7.167  0.1935 -0.0229  0.1520
 8719SOL    HW137619   1.204   1.405   7.252  1.1356 -0.0115 -0.3392
 8719SOL    HW237620   1.214   1.332   7.133 -0.5393  0.4631 -2.0069
 8720SOL     OW37621   1.895   0.294  11.742  0.0813 -0.3334  0.3112
 8720SOL    HW137622   1.888   0.389  11.740 -0.2040 -0.3773 -1.2767
 8720SOL    HW237623   1.876   0.283  11.835 -0.1429 -1.1039  0.1765
 8721SOL     OW37624   0.164   3.807  17.530 -0.1603 -0.0650 -0.4539
 8721SOL    HW137625   0.228   3.877  17.518  0.1415 -0.2963 -0.1823
 8721SOL    HW237626   0.110   3.837  17.604 -1.2052 -0.5128 -1.0279
 8722SOL     OW37627   1.333   0.497   4.243  0.6049  0.1021 -0.0698
 8722SOL    HW137628   1.412   0.451   4.273  0.9359 -0.8036 -2.3570
 8722SOL    HW237629   1.279   0.492   4.322 -1.0304 -0.7970 -1.2542
 8723SOL     OW37630   2.015   2.942   8.160  0.0104 -0.2426  0.3518
 8723SOL    HW137631   2.002   3.020   8.214 -1.0736 -0.1490 -0.0374
 8723SOL    HW237632   2.028   2.990   8.078 -0.1780  0.3848  0.6879
 8724SOL     OW37633   3.130   2.945   6.240 -0.6750  0.1071 -0.2235
 8724SOL    HW137634   3.142   3.031   6.280 -1.3194 -0.1394  0.4935
 8724SOL    HW237635   3.097   2.890   6.311  0.2691  1.1788  1.0382
 8725SOL     OW37636   2.085   2.321  16.302 -0.0980  0.2416 -0.4857
 8725SOL    HW137637   2.030   2.324  16.225  0.6171  1.1122 -0.9595
 8725SOL    HW237638   2.018   2.338  16.368 -0.8689  2.6857 -1.9494
 8726SOL     OW37639   3.471   3.844   2.734 -0.2610  0.5279  0.2412
 8726SOL    HW137640   3.563   3.860   2.714 -0.8591  2.3469 -0.9749
 8726SOL    HW237641   3.469   3.749   2.747 -0.2096  0.7173  1.6346
 8727SOL     OW37642   4.100   2.973  11.768  0.2369 -0.5563 -0.9457
 8727SOL    HW137643   4.132   2.920  11.695  2.3464  1.9045 -1.8031
 8727SOL    HW237644   4.103   2.913  11.843  0.9009  1.1185  0.3932
 8728SOL     OW37645   2.423   4.320   5.368 -0.3098 -0.8007 -0.0647
 8728SOL    HW137646   2.362   4.332   5.441 -0.3930 -0.6869 -0.1533
 8728SOL    HW237647   2.505   4.337   5.414 -1.1202 -1.7542  1.7346
 8729SOL     OW37648   0.840   1.202   6.421  0.1298  0.4701 -0.6657
 8729SOL    HW137649   0.778   1.250   6.366 -2.6376  0.2461  2.2255
 8729SOL    HW237650   0.805   1.226   6.507 -0.2318 -2.0179 -0.1233
 8730SOL     OW37651   0.469   2.297   9.230  0.3095 -0.0011 -0.2800
 8730SOL    HW137652   0.434   2.334   9.149  1.0169  0.1117 -0.5334
 8730SOL    HW237653   0.552   2.346   9.230  1.4729 -1.9617 -0.7261
 8731SOL     OW37654   1.550   3.178   8.055 -0.2323  0.0783 -0.2891
 8731SOL    HW137655   1.557   3.273   8.064  1.3664 -0.1172  0.5824
 8731SOL    HW237656   1.576   3.158   8.145  1.7069  1.7724 -0.4690
 8732SOL     OW37657   3.154   4.007   3.415  0.3648 -0.0613 -0.1734
 8732SOL    HW137658   3.188   3.979   3.330 -0.0924  1.3398 -0.8078
 8732SOL    HW237659   3.174   4.100   3.409  0.3941  0.0117  1.0433
 8733SOL     OW37660   2.402   0.978   7.371  0.0867 -0.0478  0.4974
 8733SOL    HW137661   2.463   0.904   7.373 -1.4814 -1.3602 -0.3425
 8733SOL    HW237662   2.369   0.989   7.460  0.5019  1.3456  0.4810
 8734SOL     OW37663   3.040   0.663   3.035 -0.1986  0.1514  0.1599
 8734SOL    HW137664   3.040   0.655   2.940  2.0492 -0.3233  0.2090
 8734SOL    HW237665   3.013   0.755   3.037 -1.0898 -0.0836 -1.8656
 8735SOL     OW37666   0.282   2.036   9.798  0.1404 -1.1762 -0.3323
 8735SOL    HW137667   0.354   2.087   9.761 -2.0938  0.9782 -1.6515
 8735SOL    HW237668   0.333   2.007   9.874 -0.5529  1.0945  1.0042
 8736SOL     OW37669   2.070   0.485   2.324 -0.3466 -0.3902 -0.1939
 8736SOL    HW137670   2.068   0.580   2.311  0.5132  0.0141  2.7797
 8736SOL    HW237671   2.035   0.451   2.242 -2.0270  2.0154 -0.4579
 8737SOL     OW37672   2.416   4.301  14.741 -0.1831 -0.5907  0.0641
 8737SOL    HW137673   2.510   4.308  14.727  0.1654  0.9194  3.2716
 8737SOL    HW237674   2.387   4.309  14.650 -0.2948  0.0439  0.1564
 8738SOL     OW37675   3.176   2.939   1.802  0.1691 -0.1709 -0.2515
 8738SOL    HW137676   3.265   2.910   1.784  0.2211 -0.4826  0.4856
 8738SOL    HW237677   3.125   2.862   1.778  2.2872 -1.4238 -0.7696
 8739SOL     OW37678   1.978   2.129   5.830  0.7226 -0.0109  0.3500
 8739SOL    HW137679   1.899   2.179   5.850  0.2951 -0.1552 -1.0106
 8739SOL    HW237680   1.935   2.047   5.806 -0.4122  0.6090  0.3062
 8740SOL     OW37681   4.072   0.973   2.036 -0.1612 -0.3919 -0.2577
 8740SOL    HW137682   4.007   1.019   1.983 -0.5983  0.4207  1.0094
 8740SOL    HW237683   4.136   0.955   1.966 -0.0675  0.7472 -0.4646
 8741SOL     OW37684   4.608   3.494   3.411 -0.1279 -0.4948 -0.1316
 8741SOL    HW137685   4.531   3.474   3.466  0.5457 -0.5321  0.7999
 8741SOL    HW237686   4.659   3.414   3.418 -0.3449 -0.5714  0.6146
 8742SOL     OW37687   3.411   3.818   5.344  0.0728  0.2055 -0.3814
 8742SOL    HW137688   3.505   3.799   5.345  0.5894  2.8545 -1.3756
 8742SOL    HW237689   3.396   3.884   5.411  0.6624  1.0713 -1.1033
 8743SOL     OW37690   2.482   1.592  13.102 -0.3776 -0.0362  1.1968
 8743SOL    HW137691   2.415   1.636  13.155 -0.1515 -1.1999  2.4456
 8743SOL    HW237692   2.540   1.661  13.069 -1.1373 -0.0415 -0.1308
 8744SOL     OW37693   0.839   1.526   5.895  0.5763  0.0739 -0.0153
 8744SOL    HW137694   0.877   1.572   5.821  1.9551 -0.2949  0.4564
 8744SOL    HW237695   0.800   1.587   5.958 -2.8632 -0.3679 -1.7231
 8745SOL     OW37696   1.706   2.471   3.849  0.1141 -0.0182  0.2126
 8745SOL    HW137697   1.659   2.430   3.777 -1.0085  1.2373  0.2326
 8745SOL    HW237698   1.647   2.544   3.869  2.5464  1.8668  0.4453
 8746SOL     OW37699   1.702   0.360   6.155  0.0821  0.0495 -0.2407
 8746SOL    HW137700   1.694   0.326   6.066 -2.9826 -1.0404  0.4804
 8746SOL    HW237701   1.624   0.413   6.169 -0.0120 -0.1004 -0.2102
 8747SOL     OW37702   2.641   3.693  10.380 -0.5294 -0.0841 -0.4453
 8747SOL    HW137703   2.695   3.764  10.414 -0.4115  0.0826 -0.9803
 8747SOL    HW237704   2.580   3.693  10.453 -0.2697  1.4233 -0.2233
 8748SOL     OW37705   2.993   3.175   6.291 -0.0179  0.2144 -0.3647
 8748SOL    HW137706   2.908   3.195   6.253  0.0088 -2.8020 -2.0570
 8748SOL    HW237707   2.974   3.131   6.374  3.6507 -3.0173 -1.1804
 8749SOL     OW37708   3.851   3.415   1.862  0.3695 -0.0949  0.1817
 8749SOL    HW137709   3.792   3.456   1.798  1.1023 -2.0399 -1.7584
 8749SOL    HW237710   3.820   3.324   1.857  1.5462 -0.5527  1.2473
 8750SOL     OW37711   4.684   1.413   6.089 -0.1417  0.2533  0.2153
 8750SOL    HW137712   0.015   1.346   6.043  1.2026  1.1440  0.4254
 8750SOL    HW237713   4.713   1.491   6.042 -1.4364  1.3085  1.1902
 8751SOL     OW37714   3.427   3.756   1.857 -0.5436 -1.3933 -0.0766
 8751SOL    HW137715   3.495   3.823   1.851  0.9747 -3.0222 -0.6845
 8751SOL    HW237716   3.350   3.811   1.842 -0.3551 -1.0016  0.3555
 8752SOL     OW37717   4.016   2.446   4.544 -0.5673  0.2942  0.0970
 8752SOL    HW137718   4.082   2.416   4.606  0.4805  0.9844 -0.6805
 8752SOL    HW237719   3.936   2.406   4.578 -0.3474 -1.2177 -1.1728
 8753SOL     OW37720   3.431   4.689  15.871  0.2004  0.3828  0.1231
 8753SOL    HW137721   3.392   0.041  15.820 -0.9062 -0.7562 -0.6288
 8753SOL    HW237722   3.522   4.713  15.891  0.4337 -0.0189 -0.4552
 8754SOL     OW37723   4.170   1.477   7.785  0.2476  0.1700  0.3890
 8754SOL    HW137724   4.191   1.525   7.865  1.1447  0.8028 -0.2181
 8754SOL    HW237725   4.103   1.539   7.756  1.4847  2.0303  1.5175
 8755SOL     OW37726   4.332   0.347   6.761  0.1451  0.4005  0.2403
 8755SOL    HW137727   4.306   0.261   6.794 -2.7730  0.8665 -0.8107
 8755SOL    HW237728   4.398   0.358   6.830 -1.1042 -0.8295  1.6252
 8756SOL     OW37729   2.570   1.940   5.844 -0.6867  0.1691 -0.6480
 8756SOL    HW137730   2.584   1.881   5.918  0.9769 -0.0299 -1.1230
 8756SOL    HW237731   2.568   1.892   5.761 -2.4366  0.4279 -0.7568
 8757SOL     OW37732   3.484   0.699   6.736 -0.2359 -0.0575  0.1215
 8757SOL    HW137733   3.523   0.660   6.658  1.6523  0.6046  0.7534
 8757SOL    HW237734   3.473   0.626   6.798 -0.2048  1.2152  1.6247
 8758SOL     OW37735   3.346   3.583  13.718 -0.4843  1.0300  0.1664
 8758SOL    HW137736   3.290   3.576  13.641 -0.1045  1.2641 -0.1312
 8758SOL    HW237737   3.429   3.614  13.680 -0.4834  1.0453  0.1809
 8759SOL     OW37738   2.779   4.196   3.838  0.4347 -0.1995 -0.2925
 8759SOL    HW137739   2.790   4.153   3.922 -4.1517  1.2076  0.9997
 8759SOL    HW237740   2.715   4.258   3.872  0.0540 -0.8472  0.1587
 8760SOL     OW37741   3.161   3.027   7.186  0.7922  0.6392  0.7551
 8760SOL    HW137742   3.164   2.931   7.180  1.5162  0.7899 -1.0169
 8760SOL    HW237743   3.252   3.039   7.211  1.3594 -1.7388 -0.1281
 8761SOL     OW37744   3.687   1.136   9.829  0.0794  0.2526  0.1895
 8761SOL    HW137745   3.720   1.048   9.812  0.1541  0.5294 -1.0801
 8761SOL    HW237746   3.719   1.151   9.918 -1.2562 -0.6677  0.8267
 8762SOL     OW37747   3.760   0.653   3.572 -0.0124  0.7788  0.3590
 8762SOL    HW137748   3.774   0.733   3.623  1.3667 -0.3406  1.7300
 8762SOL    HW237749   3.681   0.690   3.532  0.4131 -0.4156 -1.5656
 8763SOL     OW37750   3.903   3.943   1.855 -0.5823 -0.2465 -0.5941
 8763SOL    HW137751   3.862   4.028   1.870  0.9760  0.3274  0.3624
 8763SOL    HW237752   3.824   3.891   1.839  0.3244 -1.5700 -0.7150
 8764SOL     OW37753   2.443   3.901  16.988  0.4673 -0.2878 -0.3358
 8764SOL    HW137754   2.413   3.984  17.023 -0.5037 -0.8398  0.1404
 8764SOL    HW237755   2.394   3.905  16.906 -0.0059  0.1860 -0.0248
 8765SOL     OW37756   3.049   3.609   7.169 -0.0518  0.5392 -0.2139
 8765SOL    HW137757   3.093   3.603   7.084 -0.5127  0.1097 -0.4223
 8765SOL    HW237758   3.112   3.557   7.220 -0.8664  0.2517  0.4899
 8766SOL     OW37759   4.594   4.400  15.438  0.5371 -0.7967 -0.1625
 8766SOL    HW137760   4.626   4.459  15.506  0.3679 -1.5262  0.5494
 8766SOL    HW237761   4.531   4.341  15.480  0.9907  0.8436  2.7983
 8767SOL     OW37762   1.771   1.068   2.876 -0.1974 -0.3420  0.3388
 8767SOL    HW137763   1.854   1.032   2.907  0.3953  0.7345  0.0132
 8767SOL    HW237764   1.813   1.143   2.832 -1.2564 -0.1452 -0.3264
 8768SOL     OW37765   0.553   0.658   9.750  0.3443 -0.2893  0.4154
 8768SOL    HW137766   0.587   0.652   9.839 -1.8383 -0.3378  1.2211
 8768SOL    HW237767   0.630   0.707   9.721 -0.3207 -0.1681 -1.1286
 8769SOL     OW37768   2.922   2.405   2.009  0.5872  0.0769  0.1188
 8769SOL    HW137769   2.969   2.322   2.002 -0.0670 -0.1526 -1.5422
 8769SOL    HW237770   2.847   2.376   2.061  2.2143 -2.8719  0.8050
 8770SOL     OW37771   3.108   3.525   4.014 -0.6179  0.0695 -0.1501
 8770SOL    HW137772   3.118   3.554   3.924  0.9096 -2.0815 -0.6934
 8770SOL    HW237773   3.118   3.430   4.007  2.3632  0.3787  0.0747
 8771SOL     OW37774   0.986   0.753   9.438  0.0353  0.1704  0.0315
 8771SOL    HW137775   1.059   0.721   9.386  0.2015  1.6672 -0.6780
 8771SOL    HW237776   1.014   0.843   9.457  0.0263  0.4654 -1.3874
 8772SOL     OW37777   3.673   2.708  14.207  0.2777 -0.5447  0.0179
 8772SOL    HW137778   3.683   2.700  14.302 -0.8187  1.6158  0.3011
 8772SOL    HW237779   3.736   2.778  14.193 -0.7842 -0.1151 -2.5714
 8773SOL     OW37780   1.019   0.228   9.158  0.6910  0.0478  0.1031
 8773SOL    HW137781   1.034   0.254   9.248 -1.1530  0.9992  0.1410
 8773SOL    HW237782   0.948   0.285   9.128  0.8558 -0.3591 -1.0574
 8774SOL     OW37783   0.351   4.318   1.278  0.4055 -0.1525 -0.3019
 8774SOL    HW137784   0.401   4.272   1.345 -1.0054  0.1309  0.9389
 8774SOL    HW237785   0.356   4.404   1.319  0.7410 -0.7371  0.8770
 8775SOL     OW37786   1.225   4.289   8.201  0.3407 -0.8012 -0.1914
 8775SOL    HW137787   1.133   4.281   8.176 -0.1661 -1.2228  1.8168
 8775SOL    HW237788   1.256   4.373   8.168 -1.0563 -1.0393 -2.1117
 8776SOL     OW37789   3.060   4.650   4.495  0.9587  0.5139 -0.0807
 8776SOL    HW137790   3.055   4.715   4.565 -2.5727  0.5890 -0.3735
 8776SOL    HW237791   3.134   4.602   4.531 -1.2471 -1.6314  1.6151
 8777SOL     OW37792   2.797   3.856   7.280  0.3820 -0.3010 -0.2248
 8777SOL    HW137793   2.889   3.871   7.302  0.0236  0.1082  0.9754
 8777SOL    HW237794   2.804   3.859   7.185 -0.4589  1.8902 -0.2333
 8778SOL     OW37795   1.774   0.139   4.832 -0.2834  0.2234 -0.0155
 8778SOL    HW137796   1.828   0.128   4.753 -0.7162  0.2611 -0.3214
 8778SOL    HW237797   1.689   0.095   4.818 -0.7556 -0.0054  3.7692
 8779SOL     OW37798   2.760   0.116  10.037  0.4451  0.2175  0.1513
 8779SOL    HW137799   2.696   0.151   9.974  0.0498  0.4954  0.7016
 8779SOL    HW237800   2.717   0.039  10.074  0.5524 -0.5255 -1.2969
 8780SOL     OW37801   3.109   1.250   2.251 -0.4108  0.0412  0.0894
 8780SOL    HW137802   3.055   1.291   2.183 -0.5806 -2.1253 -1.1001
 8780SOL    HW237803   3.161   1.192   2.196  1.2963  0.6509  1.0486
 8781SOL     OW37804   3.466   1.166  10.598 -0.1417 -0.8987  0.1960
 8781SOL    HW137805   3.380   1.123  10.603 -0.4004 -0.4277 -0.2796
 8781SOL    HW237806   3.502   1.145  10.684 -1.1110  1.8497  1.2674
 8782SOL     OW37807   3.343   2.657   3.285  0.4500  0.1805 -0.6311
 8782SOL    HW137808   3.425   2.608   3.281 -0.6436 -1.7533  0.7514
 8782SOL    HW237809   3.377   2.740   3.252  2.3911 -0.6056 -0.5904
 8783SOL     OW37810   4.323   3.282  13.869  0.1607  0.4685  0.2014
 8783SOL    HW137811   4.363   3.198  13.847 -3.0871 -0.9362 -0.2708
 8783SOL    HW237812   4.401   3.338  13.872 -1.2658  2.4839 -0.3573
 8784SOL     OW37813   2.940   2.051   4.865 -0.0637 -0.1219 -0.4258
 8784SOL    HW137814   2.855   2.014   4.889 -0.5520  0.9745 -0.4657
 8784SOL    HW237815   2.925   2.146   4.862 -2.5131 -0.4823  0.1413
 8785SOL     OW37816   2.616   1.212   7.593 -0.3978  0.3139 -0.3419
 8785SOL    HW137817   2.653   1.127   7.570  0.8604  0.9677 -0.7368
 8785SOL    HW237818   2.675   1.277   7.555 -2.0898  1.6025 -0.7681
 8786SOL     OW37819   1.340   2.905   5.348  0.3359  0.0246 -0.3455
 8786SOL    HW137820   1.387   2.883   5.268  0.8867 -0.7404  0.1876
 8786SOL    HW237821   1.369   2.994   5.368  1.5992 -0.3054 -0.7176
 8787SOL     OW37822   4.536   4.049   0.471  0.5079 -0.4876 -0.3283
 8787SOL    HW137823   4.562   3.992   0.543  0.8667  0.6431  0.4370
 8787SOL    HW237824   4.506   4.126   0.520  0.8132  0.6338 -1.8924
 8788SOL     OW37825   0.192   1.110   7.861 -0.2054 -0.1427 -0.9176
 8788SOL    HW137826   0.255   1.042   7.883 -1.1427  0.5429  3.8254
 8788SOL    HW237827   0.249   1.187   7.862  0.7177 -0.8156 -1.4434
 8789SOL     OW37828   1.895   2.382   9.705 -0.0895  0.4592  0.3674
 8789SOL    HW137829   1.837   2.331   9.761 -0.6692  0.3903 -0.2915
 8789SOL    HW237830   1.863   2.347   9.622  0.8729 -2.8230  1.3896
 8790SOL     OW37831   2.835   4.086   4.093 -0.0451 -0.1848  0.3126
 8790SOL    HW137832   2.865   3.999   4.118  0.8466 -0.0566 -0.3185
 8790SOL    HW237833   2.911   4.137   4.121 -1.9377  3.2568 -0.7984
 8791SOL     OW37834   3.599   0.980  14.414  0.0172 -0.1189 -0.7299
 8791SOL    HW137835   3.596   1.040  14.489 -0.4751 -1.3885  0.2669
 8791SOL    HW237836   3.692   0.958  14.425  0.3609  1.1631 -0.9774
 8792SOL     OW37837   1.231   0.931  15.349  0.2551  0.3473 -0.3637
 8792SOL    HW137838   1.188   0.899  15.429 -0.7345 -2.4290 -2.0127
 8792SOL    HW237839   1.222   1.025  15.364 -2.8343 -0.0572  0.3054
 8793SOL     OW37840   1.174   0.033   5.344  0.2039  0.0642 -0.3310
 8793SOL    HW137841   1.095   0.003   5.298 -0.3721  2.6447 -1.0225
 8793SOL    HW237842   1.235   4.689   5.307  0.6779  0.1551  0.2917
 8794SOL     OW37843   3.519   0.986   6.625  0.2327  0.3165  0.0618
 8794SOL    HW137844   3.476   0.901   6.633 -1.4966  0.7955 -4.1936
 8794SOL    HW237845   3.584   0.997   6.694 -0.8915 -0.6207  1.2625
 8795SOL     OW37846   2.408   4.343   1.893  0.1174 -0.2290  0.1583
 8795SOL    HW137847   2.502   4.361   1.891  0.1326 -0.5632 -2.0504
 8795SOL    HW237848   2.398   4.292   1.974  0.3417 -0.5334 -0.0049
 8796SOL     OW37849   1.494   3.300   2.507 -0.0757 -0.2789  0.1589
 8796SOL    HW137850   1.551   3.370   2.539  0.4110  0.2259 -1.8118
 8796SOL    HW237851   1.551   3.224   2.518  1.1763  0.6912  0.3899
 8797SOL     OW37852   0.845   2.191  16.552  0.0328  0.4429  0.0133
 8797SOL    HW137853   0.834   2.101  16.583 -1.5390  0.7636  0.4003
 8797SOL    HW237854   0.887   2.219  16.633  0.6681 -2.3656  0.6410
 8798SOL     OW37855   0.912   0.514   8.379  0.2720 -0.0137 -0.0819
 8798SOL    HW137856   0.834   0.552   8.420  1.3400  1.6669  0.4065
 8798SOL    HW237857   0.936   0.590   8.325  0.5572 -0.2873 -0.3413
 8799SOL     OW37858   4.195   0.654   6.890  0.3359  0.5953  0.0053
 8799SOL    HW137859   4.143   0.583   6.927 -0.2100  0.6100 -0.7294
 8799SOL    HW237860   4.199   0.631   6.797 -2.5966 -0.0129  0.0287
 8800SOL     OW37861   2.912   1.774   4.179 -0.3422 -0.5292  0.2535
 8800SOL    HW137862   2.894   1.716   4.253 -0.7136 -3.5846 -2.2390
 8800SOL    HW237863   2.994   1.735   4.148 -1.2786 -1.7348 -0.6748
 8801SOL     OW37864   4.003   3.945  13.728 -0.0442 -0.0049  0.4318
 8801SOL    HW137865   3.976   4.026  13.772  0.0718 -0.2703  1.0009
 8801SOL    HW237866   3.958   3.882  13.786  0.8980  0.2853  1.4737
 8802SOL     OW37867   4.388   0.244   8.705 -0.0129 -0.4148  0.0759
 8802SOL    HW137868   4.317   0.233   8.768 -0.0223  0.6350  0.2502
 8802SOL    HW237869   4.436   0.161   8.699  0.4104 -0.0864 -0.9461
 8803SOL     OW37870   4.335   0.526   1.182  1.2441 -0.1071  0.4861
 8803SOL    HW137871   4.277   0.522   1.106  1.2183  0.6873  0.4674
 8803SOL    HW237872   4.284   0.463   1.233  0.5786  1.1714  1.3881
 8804SOL     OW37873   3.579   3.651   3.791 -0.0997  0.5135  0.0334
 8804SOL    HW137874   3.642   3.640   3.719 -0.2696 -0.4001  0.0178
 8804SOL    HW237875   3.532   3.726   3.756  0.0250  0.9961  0.8968
 8805SOL     OW37876   3.627   2.420   0.616  0.3768 -0.4178 -0.4442
 8805SOL    HW137877   3.588   2.452   0.698 -0.0125  1.2579 -1.2856
 8805SOL    HW237878   3.623   2.327   0.635  1.2021 -0.8031 -2.2191
 8806SOL     OW37879   3.142   1.992   7.215  0.0893  0.4791 -1.0032
 8806SOL    HW137880   3.075   1.938   7.257  1.1934  0.0640  0.2236
 8806SOL    HW237881   3.222   1.952   7.248  0.1885  1.8613  0.4359
 8807SOL     OW37882   4.200   0.330   9.495  0.0584 -0.2502  0.2734
 8807SOL    HW137883   4.202   0.425   9.488 -1.4393 -0.1751  0.8006
 8807SOL    HW237884   4.226   0.305   9.407  0.3015 -2.7636  1.0374
 8808SOL     OW37885   0.642   2.389   7.869  0.7464  0.3570 -0.0100
 8808SOL    HW137886   0.637   2.354   7.958 -0.5959 -0.9106 -0.5855
 8808SOL    HW237887   0.558   2.435   7.870  1.1258  1.0640 -0.7814
 8809SOL     OW37888   4.095   0.559   5.772 -0.6767  0.4512 -0.3728
 8809SOL    HW137889   4.179   0.517   5.753 -1.0961  0.7780 -3.0362
 8809SOL    HW237890   4.034   0.491   5.743 -0.1800 -0.3222  0.4257
 8810SOL     OW37891   0.766   3.167  11.513 -0.2169 -0.0526  0.2585
 8810SOL    HW137892   0.859   3.184  11.503 -0.0229 -1.5184 -0.4240
 8810SOL    HW237893   0.724   3.238  11.465  0.6638  0.0389 -0.3688
 8811SOL     OW37894   2.474   4.464   3.741 -0.0059  0.1329 -0.9543
 8811SOL    HW137895   2.487   4.479   3.647  1.2681 -0.3174 -0.8467
 8811SOL    HW237896   2.401   4.525   3.754 -0.9779 -1.0487 -0.8493
 8812SOL     OW37897   0.988   0.732   2.432 -0.1462  0.0847  0.1521
 8812SOL    HW137898   1.010   0.646   2.468 -0.0364  0.2995  0.6069
 8812SOL    HW237899   0.915   0.722   2.371  1.4561 -2.0698 -1.3946
 8813SOL     OW37900   0.855   3.561   2.933 -0.1193 -0.3645  0.0217
 8813SOL    HW137901   0.903   3.551   2.851 -0.8544 -1.2374 -0.3028
 8813SOL    HW237902   0.823   3.477   2.964 -0.8678  0.3921  1.3370
 8814SOL     OW37903   1.046   2.549  13.304 -0.2585 -0.8241 -0.1524
 8814SOL    HW137904   0.993   2.548  13.384 -0.8995 -1.0113 -0.5775
 8814SOL    HW237905   1.098   2.470  13.319  1.1575  0.4106  1.4875
 8815SOL     OW37906   4.663   3.297  16.391 -1.1502  0.0283  0.3153
 8815SOL    HW137907   0.022   3.343  16.419  0.0303 -0.8317 -1.6121
 8815SOL    HW237908   4.601   3.369  16.387 -0.5752  0.6622  2.5500
 8816SOL     OW37909   0.620   0.701   5.856  0.5671 -0.3372  0.6143
 8816SOL    HW137910   0.714   0.693   5.871  0.1614 -2.7128  1.8835
 8816SOL    HW237911   0.600   0.775   5.914 -0.4202 -0.3959  0.3607
 8817SOL     OW37912   0.610   4.049  12.885  0.6771  0.5076 -0.0184
 8817SOL    HW137913   0.641   4.139  12.879  0.1791  0.8097  2.0786
 8817SOL    HW237914   0.640   4.012  12.801 -0.6612  2.0342 -1.1615
 8818SOL     OW37915   1.790   0.276  12.016  0.1625 -1.3591  0.3180
 8818SOL    HW137916   1.731   0.212  12.056 -1.4256 -1.5392 -2.3055
 8818SOL    HW237917   1.870   0.253  12.063  2.0093  0.8687 -1.7400
 8819SOL     OW37918   4.531   4.250   2.538  0.6215 -0.2848 -0.3053
 8819SOL    HW137919   4.517   4.175   2.481  1.0870 -0.4535 -0.1925
 8819SOL    HW237920   4.538   4.203   2.622 -3.0082  0.6092  0.5278
 8820SOL     OW37921   0.300   0.825   5.310  0.0939 -0.1578  0.3787
 8820SOL    HW137922   0.228   0.874   5.271  0.2553  0.4580  0.8661
 8820SOL    HW237923   0.248   0.777   5.374  1.1843  0.2688  1.5712
 8821SOL     OW37924   3.646   1.322  15.283 -0.2379 -0.5652 -0.0196
 8821SOL    HW137925   3.738   1.345  15.300 -0.7263  0.5040  1.1297
 8821SOL    HW237926   3.606   1.331  15.370 -1.0270 -1.7764 -0.2557
 8822SOL     OW37927   1.536   4.114   1.138 -0.0088 -0.0890 -0.3037
 8822SOL    HW137928   1.491   4.036   1.170 -4.4636  2.6410  0.2315
 8822SOL    HW237929   1.618   4.107   1.187 -0.5032 -2.6982  0.1564
 8823SOL     OW37930   2.828   4.172   6.683  0.2838 -0.2770  0.0704
 8823SOL    HW137931   2.773   4.217   6.619  0.0282 -0.5919  0.0733
 8823SOL    HW237932   2.869   4.103   6.631  3.2240  1.1267  0.4932
 8824SOL     OW37933   2.490   3.597  14.288  0.0410  0.0145  0.1919
 8824SOL    HW137934   2.538   3.627  14.210  1.6094  1.5133  1.7310
 8824SOL    HW237935   2.452   3.515  14.256  2.7807 -1.1826  0.0155
 8825SOL     OW37936   3.372   1.262   1.584 -0.3157  0.0526  0.3957
 8825SOL    HW137937   3.283   1.280   1.553  0.0262 -0.5374 -0.9379
 8825SOL    HW237938   3.380   1.169   1.561  2.0097  0.0310  1.3210
 8826SOL     OW37939   1.283   1.208   4.246  0.1138 -0.3235 -0.2628
 8826SOL    HW137940   1.377   1.206   4.263 -0.0498  0.5196  0.7671
 8826SOL    HW237941   1.259   1.300   4.251 -1.7417 -0.7014 -2.4240
 8827SOL     OW37942   4.219   2.684  14.909 -0.2530  0.3475  0.4455
 8827SOL    HW137943   4.183   2.654  14.992  0.6763 -0.9467  0.3797
 8827SOL    HW237944   4.167   2.760  14.883  0.0781 -0.2013 -1.8460
 8828SOL     OW37945   1.070   3.615  14.081 -0.6352 -0.2979  0.6405
 8828SOL    HW137946   1.082   3.650  14.170  1.7814  1.7938 -0.4854
 8828SOL    HW237947   0.975   3.613  14.076 -0.5394 -0.8498 -1.0542
 8829SOL     OW37948   0.497   4.307  15.248 -0.0337 -0.0671  0.6715
 8829SOL    HW137949   0.580   4.292  15.293  0.3284  1.3903  0.4845
 8829SOL    HW237950   0.527   4.386  15.204  0.6542 -0.5660  0.2511
 8830SOL     OW37951   0.049   4.383   2.420  0.6505  0.1612  0.1770
 8830SOL    HW137952   4.714   4.387   2.499  0.5436 -0.3190  0.1237
 8830SOL    HW237953   0.123   4.429   2.461 -0.8702  1.4952  1.4448
 8831SOL     OW37954   4.070   0.828  16.885  0.4530  0.4303  0.1776
 8831SOL    HW137955   4.053   0.743  16.845 -0.1780  2.2978 -3.5851
 8831SOL    HW237956   4.031   0.819  16.972 -1.2481 -0.0792 -0.6165
 8832SOL     OW37957   0.795   2.164   2.169  0.2025  0.3819 -0.7741
 8832SOL    HW137958   0.742   2.189   2.093  0.9749  1.3448 -0.9883
 8832SOL    HW237959   0.760   2.079   2.197  0.8597  0.3769  0.0270
 8833SOL     OW37960   3.432   4.023   7.428 -0.1320 -0.3446 -0.0928
 8833SOL    HW137961   3.438   4.114   7.399 -2.2934 -1.0064 -2.6721
 8833SOL    HW237962   3.451   3.972   7.349 -0.9143 -1.3541  0.3665
 8834SOL     OW37963   3.113   4.700   6.285  0.3973  0.0643 -0.2716
 8834SOL    HW137964   3.079   4.625   6.335  1.0525 -0.3333 -0.4259
 8834SOL    HW237965   3.149   4.665   6.204  0.7769  0.9593 -0.4924
 8835SOL     OW37966   0.553   1.252   6.308 -0.4077  1.0513 -0.3673
 8835SOL    HW137967   0.556   1.231   6.402  0.4735 -2.8236 -1.2641
 8835SOL    HW237968   0.509   1.178   6.267  0.6642  0.6535 -0.7886
 8836SOL     OW37969   3.853   3.540  17.100 -0.1443  0.2547 -0.4489
 8836SOL    HW137970   3.821   3.533  17.010 -0.5199  0.8743 -0.3636
 8836SOL    HW237971   3.772   3.522  17.147 -0.4585  2.2443 -0.2309
 8837SOL     OW37972   4.595   4.653  11.131 -0.2909  0.3839 -1.1087
 8837SOL    HW137973   4.572   4.584  11.193 -3.1954  0.3572 -2.2212
 8837SOL    HW237974   4.662   4.696  11.185  1.2243 -3.6863  0.2694
 8838SOL     OW37975   2.346   2.464   1.103  0.0603 -0.2217  0.0812
 8838SOL    HW137976   2.258   2.493   1.129 -0.3299 -1.0419 -0.3243
 8838SOL    HW237977   2.344   2.374   1.136  2.0273  0.1036  1.0575
 8839SOL     OW37978   1.213   3.528  17.597  0.3638  0.1138  0.1071
 8839SOL    HW137979   1.287   3.569  17.551  0.8665  0.1966  0.9904
 8839SOL    HW237980   1.148   3.597  17.586  0.4514  0.1547 -0.1579
 8840SOL     OW37981   2.485   4.557   5.659 -0.2125  0.4295  0.2921
 8840SOL    HW137982   2.497   4.525   5.748 -2.9007 -1.5022 -0.0311
 8840SOL    HW237983   2.392   4.571   5.645 -0.3781  1.0414  2.0450
 8841SOL     OW37984   1.214   2.365   3.752  0.0970  0.0835 -0.2325
 8841SOL    HW137985   1.137   2.378   3.696 -0.7136 -0.0399  0.8601
 8841SOL    HW237986   1.192   2.288   3.804  1.6033  0.2420  0.6502
 8842SOL     OW37987   1.248   0.817  13.650  0.0796 -0.6102 -0.2785
 8842SOL    HW137988   1.174   0.872  13.676  0.8591  0.1809  0.2598
 8842SOL    HW237989   1.326   0.870  13.668 -1.0764  1.4570 -1.2596
 8843SOL     OW37990   4.718   4.417   5.390  0.0419 -0.2041 -0.0524
 8843SOL    HW137991   4.660   4.344   5.410  0.3915 -0.0906  1.3909
 8843SOL    HW237992   4.652   4.483   5.413  2.0886  2.0812 -0.6985
 8844SOL     OW37993   0.061   1.167   5.570 -0.1573 -0.0412  0.0533
 8844SOL    HW137994   0.013   1.114   5.507 -1.1641  0.0355  0.7505
 8844SOL    HW237995   0.146   1.127   5.553 -0.9895 -1.7239 -0.1676
 8845SOL     OW37996   1.998   2.760   2.826 -0.6298  0.4000  0.5359
 8845SOL    HW137997   2.093   2.756   2.836 -0.6138  0.8730  0.5695
 8845SOL    HW237998   1.997   2.665   2.834  2.1096  0.3350  0.2133
 8846SOL     OW37999   1.621   0.833  10.824 -0.3163  0.1209 -0.3948
 8846SOL    HW138000   1.584   0.827  10.736  0.5089 -1.1996 -0.6582
 8846SOL    HW238001   1.541   0.872  10.859  1.5018  1.5985  2.1071
 8847SOL     OW38002   0.728   4.494  14.408 -0.0949 -0.8581 -0.0748
 8847SOL    HW138003   0.652   4.510  14.352 -1.1796 -0.1479  1.6021
 8847SOL    HW238004   0.798   4.535  14.357 -0.0080 -0.7812  0.1066
 8848SOL     OW38005   0.983   3.120   1.978 -0.0775  0.8722  0.0522
 8848SOL    HW138006   0.958   3.207   2.008  0.3716  0.3596  1.9472
 8848SOL    HW238007   1.007   3.150   1.890  0.3118  2.8001  0.8147
 8849SOL     OW38008   0.442   0.567  13.693  0.0697  0.5108  1.0416
 8849SOL    HW138009   0.414   0.580  13.603 -1.2917 -2.3014  1.0467
 8849SOL    HW238010   0.535   0.582  13.679  0.7135 -2.9149  1.6076
 8850SOL     OW38011   3.932   1.544  12.026 -0.5040  0.7571 -0.0239
 8850SOL    HW138012   3.902   1.632  12.005 -0.4707  0.6213 -0.6175
 8850SOL    HW238013   3.879   1.515  12.101 -0.3740  0.1325 -0.1733
 8851SOL     OW38014   2.190   2.891   0.312 -0.4370 -0.1775 -0.3802
 8851SOL    HW138015   2.115   2.932   0.270 -0.5595 -0.2623 -0.2454
 8851SOL    HW238016   2.258   2.927   0.254 -0.4502 -1.6942 -1.3381
 8852SOL     OW38017   3.776   3.629   3.606 -0.9360 -0.6010 -0.1203
 8852SOL    HW138018   3.827   3.678   3.541 -2.7072  1.2157 -0.1420
 8852SOL    HW238019   3.794   3.543   3.568  2.6501 -0.0842  0.4225
 8853SOL     OW38020   3.834   2.145   3.879  0.7819 -0.9859 -0.2505
 8853SOL    HW138021   3.922   2.115   3.902  0.8115  0.9515  2.1116
 8853SOL    HW238022   3.828   2.240   3.874 -1.2804 -1.1603 -0.7669
 8854SOL     OW38023   0.934   1.650   8.402  0.3870  0.0576  0.2565
 8854SOL    HW138024   0.848   1.609   8.404  0.2391  0.4562  2.2410
 8854SOL    HW238025   0.906   1.741   8.399  1.5400  0.3687 -1.3629
 8855SOL     OW38026   3.043   2.578   9.826 -0.3943  0.1828 -0.2401
 8855SOL    HW138027   3.076   2.534   9.904 -2.2093  0.4377  0.6684
 8855SOL    HW238028   3.024   2.504   9.769 -0.4069 -0.2749  0.3588
 8856SOL     OW38029   1.515   0.421   0.413 -0.3084  0.4185  0.6337
 8856SOL    HW138030   1.442   0.367   0.443  1.7617 -2.8236 -0.1466
 8856SOL    HW238031   1.567   0.362   0.359  1.3951  1.1592  1.4927
 8857SOL     OW38032   4.395   2.147   7.232 -0.1040  0.1168  0.2198
 8857SOL    HW138033   4.476   2.097   7.224 -0.3532 -0.3377  0.5871
 8857SOL    HW238034   4.427   2.231   7.199 -0.0840  0.3115  0.7341
 8858SOL     OW38035   2.412   3.822   7.111 -0.1882  0.1668  0.4765
 8858SOL    HW138036   2.428   3.762   7.184  0.3198  0.1302  0.3371
 8858SOL    HW238037   2.456   3.767   7.045 -0.6474  2.0908 -1.4357
 8859SOL     OW38038   3.339   3.336  16.575 -0.2735 -0.0779  0.2032
 8859SOL    HW138039   3.393   3.402  16.619  1.3973 -2.0632  1.0969
 8859SOL    HW238040   3.257   3.386  16.583 -0.3900 -0.3724  0.9181
 8860SOL     OW38041   0.235   2.805   5.128  0.3178 -0.5312  0.1891
 8860SOL    HW138042   0.149   2.767   5.146 -0.5509  1.3424 -0.0383
 8860SOL    HW238043   0.268   2.747   5.060 -0.2123  0.3479 -0.8138
 8861SOL     OW38044   1.337   4.143   9.489 -0.0430  0.0903 -0.5548
 8861SOL    HW138045   1.400   4.135   9.418 -0.1174  2.3216 -0.8806
 8861SOL    HW238046   1.280   4.216   9.464  0.8939 -0.1627 -3.3423
 8862SOL     OW38047   1.095   3.418   0.159 -0.9744 -0.5244 -0.0672
 8862SOL    HW138048   1.154   3.458   0.095  1.0601 -1.5332  1.1536
 8862SOL    HW238049   1.095   3.475   0.236 -0.3885 -2.5842  1.4692
 8863SOL     OW38050   4.324   2.880   3.861 -0.3255  0.4107  0.0321
 8863SOL    HW138051   4.262   2.880   3.788 -0.2590 -1.4940 -0.0207
 8863SOL    HW238052   4.326   2.968   3.898 -0.9756 -0.1139  1.3092
 8864SOL     OW38053   1.850   0.364   2.767  0.2871  0.3389  0.2108
 8864SOL    HW138054   1.918   0.371   2.700 -0.1719  1.2537 -0.1503
 8864SOL    HW238055   1.891   0.297   2.822  0.6790  0.9144  0.6099
 8865SOL     OW38056   4.348   4.311   7.609 -0.0470 -0.1527  0.0717
 8865SOL    HW138057   4.286   4.280   7.675  0.6107 -0.8687  0.3539
 8865SOL    HW238058   4.364   4.227   7.565 -1.3227  0.1940 -1.0544
 8866SOL     OW38059   4.045   2.582   8.647 -0.0251  0.4515  0.0648
 8866SOL    HW138060   4.075   2.535   8.568  0.9923  1.2055  0.0042
 8866SOL    HW238061   4.008   2.664   8.615  1.1788  0.4946 -1.2509
 8867SOL     OW38062   4.642   0.366   3.228  0.1558 -0.3149  0.1933
 8867SOL    HW138063   4.626   0.405   3.314  0.7389  3.5634 -1.4780
 8867SOL    HW238064   4.594   0.425   3.171 -0.7084 -0.3801  0.8528
 8868SOL     OW38065   4.411   3.847   6.850 -0.1758 -0.6732 -0.6802
 8868SOL    HW138066   4.383   3.833   6.760  0.8907  1.0283 -1.2802
 8868SOL    HW238067   4.501   3.878   6.840 -0.4695  1.1878  2.4297
 8869SOL     OW38068   1.304   1.553   6.595 -0.4028 -0.4057 -0.0472
 8869SOL    HW138069   1.319   1.476   6.540  2.0192 -0.3944  0.5918
 8869SOL    HW238070   1.365   1.614   6.552  0.5802 -0.9651  0.5527
 8870SOL     OW38071   3.433   0.203  12.390  0.2553 -0.2817  0.5864
 8870SOL    HW138072   3.488   0.129  12.365  1.2783  0.3264  1.0453
 8870SOL    HW238073   3.411   0.167  12.475 -0.3528  0.6751  0.8324
 8871SOL     OW38074   4.184   1.779   3.258  0.1313 -0.0848 -0.8217
 8871SOL    HW138075   4.097   1.820   3.253 -0.2814 -0.9336 -0.6780
 8871SOL    HW238076   4.167   1.705   3.316  1.4419  0.5505  0.3831
 8872SOL     OW38077   0.230   1.602   7.393 -0.0872  0.1006  0.1452
 8872SOL    HW138078   0.184   1.653   7.460 -2.2037 -2.1384  0.4100
 8872SOL    HW238079   0.155   1.544   7.377  0.5318 -0.9550  1.0174
 8873SOL     OW38080   2.229   1.469   3.246 -0.0845 -0.0312 -0.0400
 8873SOL    HW138081   2.292   1.541   3.251  0.2862 -0.3970  0.6344
 8873SOL    HW238082   2.247   1.430   3.160  1.4960  3.0171 -1.1108
 8874SOL     OW38083   1.161   2.882   1.904 -0.2565  0.0406 -0.2037
 8874SOL    HW138084   1.250   2.906   1.930 -0.6552  2.1373 -0.7395
 8874SOL    HW238085   1.119   2.955   1.949  0.6960  0.3724  0.1507
 8875SOL     OW38086   3.810   4.710   6.448 -0.3689 -0.0858  0.3231
 8875SOL    HW138087   3.751   0.037   6.389  0.7601  1.3710  0.3535
 8875SOL    HW238088   3.869   0.062   6.473  0.0781 -0.2331 -0.3250
 8876SOL     OW38089   0.940   2.775   6.003 -0.2946 -0.3542  0.0760
 8876SOL    HW138090   1.003   2.846   5.990 -1.2756  1.1157  3.0837
 8876SOL    HW238091   0.860   2.825   5.988 -1.1388 -0.8991  2.7333
 8877SOL     OW38092   1.447   4.284   4.190 -0.1238 -0.2207  0.9141
 8877SOL    HW138093   1.455   4.374   4.222 -2.5786 -0.5419  2.5281
 8877SOL    HW238094   1.364   4.250   4.224 -1.1010  0.7301 -0.5269
 8878SOL     OW38095   4.288   0.410   0.235  0.7833  0.0530 -0.1025
 8878SOL    HW138096   4.382   0.389   0.236  0.8789  0.5193  0.5508
 8878SOL    HW238097   4.287   0.505   0.222  1.0745 -0.0968 -1.1800
 8879SOL     OW38098   2.647   1.767  12.976  0.3705  0.3056 -0.5785
 8879SOL    HW138099   2.608   1.851  12.950 -0.2146  0.3626  0.4710
 8879SOL    HW238100   2.734   1.793  13.008  1.2703 -0.7907 -2.1198
 8880SOL     OW38101   2.792   1.389   3.588 -0.6780 -0.4861  0.0943
 8880SOL    HW138102   2.743   1.410   3.668  0.7553 -0.0501  0.8588
 8880SOL    HW238103   2.714   1.365   3.539 -0.7591 -0.6147  0.2876
 8881SOL     OW38104   0.028   0.344   6.289 -0.1251  0.4089 -0.7114
 8881SOL    HW138105   4.688   0.409   6.327 -2.6304 -1.6524 -1.1300
 8881SOL    HW238106   0.062   0.298   6.366 -0.6498  0.3978 -0.4834
 8882SOL     OW38107   4.679   4.303   3.146 -0.3677 -0.0414  0.1932
 8882SOL    HW138108   4.698   4.220   3.102  0.6202  0.2641  0.0432
 8882SOL    HW238109   4.606   4.276   3.201 -2.5652 -0.3570 -2.9263
 8883SOL     OW38110   1.203   0.837   5.844  0.0795  1.0746  0.5073
 8883SOL    HW138111   1.248   0.781   5.906 -2.3842 -1.7090 -0.2429
 8883SOL    HW238112   1.146   0.886   5.903  1.1888  0.0899  2.3882
 8884SOL     OW38113   3.509   1.151   7.742  0.0833  0.0826 -0.0258
 8884SOL    HW138114   3.554   1.224   7.784  0.0182  1.3973 -2.2793
 8884SOL    HW238115   3.424   1.191   7.724 -1.3628 -2.3973  1.2355
 8885SOL     OW38116   2.333   4.342   5.874  0.5539 -0.5395 -0.0073
 8885SOL    HW138117   2.300   4.281   5.940  0.5779 -2.7480 -2.0242
 8885SOL    HW238118   2.415   4.377   5.911 -0.0999 -0.9466  1.8294
 8886SOL     OW38119   2.893   4.346   4.502 -0.2189  0.1073 -0.0500
 8886SOL    HW138120   2.849   4.264   4.525 -1.3422  0.8182  0.3080
 8886SOL    HW238121   2.873   4.345   4.408 -0.0795 -0.0286 -0.0801
 8887SOL     OW38122   2.962   0.529   7.548 -0.2545 -0.1652 -0.1659
 8887SOL    HW138123   2.894   0.519   7.615  1.4601 -3.1171  1.1734
 8887SOL    HW238124   2.975   0.435   7.534 -0.7140 -0.2027 -0.3440
 8888SOL     OW38125   1.478   0.272   9.506  0.7312 -0.0596 -0.3802
 8888SOL    HW138126   1.439   0.306   9.426  0.7470  2.5336  0.7256
 8888SOL    HW238127   1.561   0.318   9.514  1.8984 -1.7253 -2.6874
 8889SOL     OW38128   1.901   4.496   7.117 -0.3806 -0.3766 -0.0349
 8889SOL    HW138129   1.963   4.511   7.046  0.3034 -0.1170  0.6142
 8889SOL    HW238130   1.893   4.586   7.149 -0.4131  0.1470 -1.5057
 8890SOL     OW38131   1.122   0.304   2.446  0.1703  0.2439  0.6323
 8890SOL    HW138132   1.206   0.268   2.418  0.5093  0.0771  1.8387
 8890SOL    HW238133   1.135   0.399   2.455 -0.0701  0.4821 -1.6182
 8891SOL     OW38134   2.725   1.545  16.015  0.3697  0.2714  0.2772
 8891SOL    HW138135   2.633   1.569  16.027 -0.0531 -0.5683 -1.2584
 8891SOL    HW238136   2.709   1.464  15.966 -2.2427  0.1520  1.3419
 8892SOL     OW38137   3.051   4.622   4.045 -0.1515 -0.2995  0.2359
 8892SOL    HW138138   3.112   4.692   4.069  0.6798 -1.5486  1.8212
 8892SOL    HW238139   3.054   4.625   3.950  0.6215  0.6706  0.2923
 8893SOL     OW38140   3.315   1.399   1.240 -0.0142 -0.2986 -0.1967
 8893SOL    HW138141   3.325   1.491   1.263  2.0638 -0.3891 -0.7159
 8893SOL    HW238142   3.248   1.370   1.302  0.8577 -0.3097  0.7437
 8894SOL     OW38143   0.400   4.220   4.230  0.5244  0.1091 -0.3122
 8894SOL    HW138144   0.314   4.212   4.189  0.3644 -0.7130  0.1798
 8894SOL    HW238145   0.456   4.157   4.184  0.5955 -0.6266  0.7745
 8895SOL     OW38146   0.199   4.611  15.476 -0.3086 -0.3001  0.6055
 8895SOL    HW138147   0.253   4.602  15.398  1.3352 -2.7131  2.0307
 8895SOL    HW238148   0.215   4.531  15.526 -0.2161 -0.3451  0.5019
 8896SOL     OW38149   0.263   1.041  15.028 -0.7325  0.3221  0.1263
 8896SOL    HW138150   0.272   0.971  14.964  0.7094  1.1716 -0.5879
 8896SOL    HW238151   0.232   1.111  14.971 -1.1225  0.1383  0.1108
 8897SOL     OW38152   1.548   4.434  16.761  0.5339 -0.1161 -0.3721
 8897SOL    HW138153   1.546   4.486  16.680 -0.0548  0.8394  0.2546
 8897SOL    HW238154   1.606   4.363  16.733  1.0417  0.2414 -0.2132
 8898SOL     OW38155   2.944   4.658  12.384  0.0367 -0.1007 -0.1203
 8898SOL    HW138156   3.030   4.629  12.415 -1.3091 -2.4617  1.3830
 8898SOL    HW238157   2.897   4.577  12.401  0.6432 -0.6230 -0.9012
 8899SOL     OW38158   2.501   1.502  16.183  0.0492  0.5946 -0.5607
 8899SOL    HW138159   2.420   1.551  16.199 -0.8459 -0.7841 -0.8141
 8899SOL    HW238160   2.542   1.506  16.269 -0.4594 -0.3609 -0.2717
 8900SOL     OW38161   3.362   4.226   2.543 -0.0798  0.1053  0.4775
 8900SOL    HW138162   3.450   4.197   2.520  0.0307 -0.8072  2.0562
 8900SOL    HW238163   3.381   4.319   2.556  3.5404 -0.4549 -0.6427
 8901SOL     OW38164   4.488   2.695  11.854  0.0609  0.6818  0.2079
 8901SOL    HW138165   4.510   2.780  11.817  0.4439 -0.0944 -1.3546
 8901SOL    HW238166   4.576   2.661  11.873 -1.1665 -1.6568  1.8111
 8902SOL     OW38167   2.851   1.172   2.833 -0.6870 -0.9819  0.0115
 8902SOL    HW138168   2.936   1.215   2.829 -1.0173 -0.5970 -2.6849
 8902SOL    HW238169   2.800   1.251   2.817 -0.4294 -0.9284 -0.5263
 8903SOL     OW38170   1.139   2.182   8.554  0.3061  0.0501 -0.1394
 8903SOL    HW138171   1.074   2.248   8.576 -0.7140 -1.3489  1.0379
 8903SOL    HW238172   1.086   2.102   8.552  1.4288 -0.6277 -2.4208
 8904SOL     OW38173   0.599   2.219   1.965  1.0512 -0.5240 -0.2381
 8904SOL    HW138174   0.541   2.149   1.994  2.0729 -0.3379  2.2778
 8904SOL    HW238175   0.592   2.199   1.872 -0.1072  1.0861 -0.5041
 8905SOL     OW38176   3.006   3.223  15.804 -0.1723  0.0023  0.6159
 8905SOL    HW138177   3.069   3.174  15.751  0.1037  1.9665 -0.8730
 8905SOL    HW238178   3.069   3.283  15.844  0.3432  0.1880 -0.4515
 8906SOL     OW38179   3.221   4.596   2.804 -0.3258  0.4829  0.0704
 8906SOL    HW138180   3.243   4.505   2.824  1.3193  0.7894 -0.4357
 8906SOL    HW238181   3.299   4.644   2.832 -1.2244  1.4962  0.8850
 8907SOL     OW38182   0.352   0.548  15.854 -0.0900 -0.3032 -0.1667
 8907SOL    HW138183   0.303   0.546  15.772  3.5711 -0.1945 -2.3600
 8907SOL    HW238184   0.287   0.536  15.923  0.5747  1.8968  0.8434
 8908SOL     OW38185   0.709   3.486   4.599 -0.1040  0.3082 -0.1337
 8908SOL    HW138186   0.754   3.405   4.576  2.3887  1.6636 -0.0417
 8908SOL    HW238187   0.617   3.459   4.600  0.5560 -1.8544  0.8315
 8909SOL     OW38188   2.483   0.252   7.442 -0.2871 -0.0198  0.2481
 8909SOL    HW138189   2.573   0.227   7.421 -0.4765  1.3026 -2.2200
 8909SOL    HW238190   2.438   0.199   7.376  0.3437  0.4681 -0.5822
 8910SOL     OW38191   4.155   3.489   7.000 -0.0517  0.1832 -0.0423
 8910SOL    HW138192   4.072   3.506   6.956 -0.2923  0.6279  0.5701
 8910SOL    HW238193   4.146   3.399   7.031 -2.1057  0.4743  0.2164
 8911SOL     OW38194   1.533   3.591   1.125 -0.5154  0.3492 -0.7147
 8911SOL    HW138195   1.584   3.617   1.048  1.5995 -0.8455  0.2940
 8911SOL    HW238196   1.539   3.496   1.116 -1.7628  0.2267 -0.2752
 8912SOL     OW38197   0.038   0.814   6.716 -1.0707 -0.0732  0.4011
 8912SOL    HW138198   4.705   0.863   6.653  0.3776  1.5167  0.4106
 8912SOL    HW238199   0.105   0.774   6.661 -0.0221  1.2519  0.6944
 8913SOL     OW38200   3.519   3.848   5.035 -0.2637  0.2445 -0.2025
 8913SOL    HW138201   3.485   3.826   5.122  2.0721  2.5500  1.2973
 8913SOL    HW238202   3.572   3.774   5.003 -1.0346 -0.2868 -0.2484
 8914SOL     OW38203   3.111   0.246   9.197 -0.3419  0.1182  0.2819
 8914SOL    HW138204   3.068   0.198   9.267 -0.2822 -1.6334 -0.8793
 8914SOL    HW238205   3.173   0.296   9.249 -1.4874  1.3790  0.4356
 8915SOL     OW38206   1.887   0.493  10.185  0.1839 -0.4200  0.3817
 8915SOL    HW138207   1.806   0.441  10.181 -0.9688  1.4087  0.2266
 8915SOL    HW238208   1.852   0.556  10.247  1.8419 -0.2605  1.1527
 8916SOL     OW38209   0.023   2.433   8.424 -0.0907  1.0234  0.1685
 8916SOL    HW138210   4.717   2.525   8.433  0.5713  0.9233  2.8643
 8916SOL    HW238211   4.662   2.389   8.399 -0.2710  1.0847  0.6575
 8917SOL     OW38212   4.210   1.263   9.411 -0.7412 -0.6707  0.1952
 8917SOL    HW138213   4.229   1.260   9.505  1.2912  0.6367 -0.1929
 8917SOL    HW238214   4.120   1.231   9.415 -1.2991  0.9008  0.0795
 8918SOL     OW38215   2.168   4.542   9.671  0.3279 -0.1336  0.3942
 8918SOL    HW138216   2.094   4.483   9.658  0.2206  0.5112 -1.8618
 8918SOL    HW238217   2.145   4.556   9.763 -1.9794  0.4104 -0.2732
 8919SOL     OW38218   0.100   2.981   5.771 -0.2108  0.0417  0.3918
 8919SOL    HW138219   0.022   2.996   5.718  0.4351 -0.2205 -0.6235
 8919SOL    HW238220   0.072   3.000   5.861  2.2094 -1.9229  1.5666
 8920SOL     OW38221   0.110   2.450   4.035 -0.4162  0.6073 -0.7393
 8920SOL    HW138222   0.068   2.384   3.980 -0.7628 -1.3088  1.7924
 8920SOL    HW238223   0.170   2.393   4.083 -1.2177  0.8187  0.5276
 8921SOL     OW38224   4.696   4.323   0.688  0.5254  0.4633  0.7752
 8921SOL    HW138225   4.693   4.417   0.706 -0.1066  1.0419 -2.3138
 8921SOL    HW238226   4.638   4.328   0.612  0.6963  0.1633  0.6222
 8922SOL     OW38227   1.862   4.156   7.380  0.6440  0.2553 -0.1311
 8922SOL    HW138228   1.880   4.189   7.468  1.4857  0.9146 -0.5500
 8922SOL    HW238229   1.767   4.151   7.396  0.5709 -0.3446 -0.7875
 8923SOL     OW38230   4.492   2.431   3.945 -0.7273 -0.3474  0.1899
 8923SOL    HW138231   4.443   2.410   3.865 -0.7469  0.7135 -0.0887
 8923SOL    HW238232   4.451   2.515   3.969  0.1072 -0.2078  1.1183
 8924SOL     OW38233   4.354   3.885   6.200  0.1242 -0.0355  0.3289
 8924SOL    HW138234   4.281   3.886   6.261 -1.1713 -2.2435 -1.1896
 8924SOL    HW238235   4.429   3.862   6.255  0.7480  1.4414  0.0882
 8925SOL     OW38236   4.534   2.219   7.775  0.0382  0.0626  0.0054
 8925SOL    HW138237   4.604   2.153   7.769  0.5378  0.4901  1.2397
 8925SOL    HW238238   4.461   2.170   7.738  1.2359 -1.7179 -0.0158
 8926SOL     OW38239   0.482   1.525  15.169  0.1238  0.3013 -0.3546
 8926SOL    HW138240   0.540   1.538  15.244  2.2228  0.5830 -2.0428
 8926SOL    HW238241   0.443   1.611  15.152  1.7805  0.9816 -0.6683
 8927SOL     OW38242   3.194   4.017   5.740 -0.2908  0.3234 -0.7065
 8927SOL    HW138243   3.130   4.041   5.672 -1.9831  1.2639  1.2176
 8927SOL    HW238244   3.147   4.038   5.821  1.3515  1.9609 -0.1925
 8928SOL     OW38245   3.523   2.653   2.566  0.3910  0.1084  0.5392
 8928SOL    HW138246   3.561   2.599   2.635 -0.9615 -0.9612  0.4589
 8928SOL    HW238247   3.558   2.615   2.486 -1.2517 -0.7171  0.2013
 8929SOL     OW38248   1.481   2.851   5.124  0.4496 -0.0113  0.0125
 8929SOL    HW138249   1.486   2.763   5.086 -1.3110 -0.1071  0.0228
 8929SOL    HW238250   1.505   2.910   5.052 -2.0038  1.2921  0.2758
 8930SOL     OW38251   4.618   0.608   6.417  0.2293  0.7563  0.6109
 8930SOL    HW138252   4.655   0.694   6.437 -0.7603  0.8691  1.9133
 8930SOL    HW238253   4.527   0.630   6.436  0.8831  0.9374  3.5026
 8931SOL     OW38254   3.276   3.038   3.203  0.4398 -0.1668  0.0809
 8931SOL    HW138255   3.216   3.017   3.131  0.6052  1.0153 -0.4000
 8931SOL    HW238256   3.344   2.972   3.188  0.5951 -0.3254  1.4572
 8932SOL     OW38257   1.242   0.790   4.363  0.4048 -0.1628 -0.4975
 8932SOL    HW138258   1.180   0.863   4.370 -1.9609 -2.1782 -0.5491
 8932SOL    HW238259   1.239   0.767   4.270 -3.3490 -1.1407 -0.1511
 8933SOL     OW38260   4.301   2.382  16.098 -0.0821 -0.4793 -0.0183
 8933SOL    HW138261   4.269   2.460  16.143 -0.1656 -0.0392 -0.8439
 8933SOL    HW238262   4.245   2.373  16.021 -0.3751 -0.3070  0.1749
 8934SOL     OW38263   4.415   0.581   8.170  0.2325 -0.3144 -0.1545
 8934SOL    HW138264   4.406   0.501   8.119  1.3823 -0.6785  0.2027
 8934SOL    HW238265   4.353   0.644   8.133 -1.1276 -0.9058  1.1202
 8935SOL     OW38266   1.010   3.029   4.288 -0.0540 -0.3052  0.2341
 8935SOL    HW138267   0.954   3.101   4.257  0.6034 -0.2271 -0.7909
 8935SOL    HW238268   1.064   3.073   4.354  0.8039 -0.1796 -0.5462
 8936SOL     OW38269   1.458   0.932   4.041  0.2954  0.0503 -0.3548
 8936SOL    HW138270   1.383   0.910   4.097  0.9711 -1.5789 -0.1158
 8936SOL    HW238271   1.431   0.903   3.954  2.6614  1.1504 -1.4629
 8937SOL     OW38272   2.293   1.654  16.251 -0.0826 -0.9995 -0.0957
 8937SOL    HW138273   2.330   1.732  16.292 -1.2330 -1.2448  1.3859
 8937SOL    HW238274   2.200   1.663  16.270  0.0334 -0.0050 -0.0001
 8938SOL     OW38275   1.847   3.102   6.177 -0.1403  0.0038  0.3623
 8938SOL    HW138276   1.876   3.061   6.259  0.2195 -0.1876  0.1382
 8938SOL    HW238277   1.826   3.192   6.204  2.3809  0.7747 -0.2702
 8939SOL     OW38278   0.873   2.618   4.224 -0.6062 -0.1139 -0.4680
 8939SOL    HW138279   0.910   2.586   4.142  1.3086 -3.9249  1.9106
 8939SOL    HW238280   0.827   2.541   4.256  3.3388 -1.1792  2.7438
 8940SOL     OW38281   3.800   3.674   1.665  0.0268  0.1726  0.2918
 8940SOL    HW138282   3.750   3.605   1.621  0.8225 -0.1712 -0.0728
 8940SOL    HW238283   3.742   3.750   1.653 -0.7036 -0.4062  0.1643
 8941SOL     OW38284   3.908   1.212   7.726  0.1216  0.3777 -0.0791
 8941SOL    HW138285   3.941   1.228   7.638 -2.4803 -0.3129 -1.1585
 8941SOL    HW238286   3.899   1.117   7.728 -1.7777  0.5815  1.8385
 8942SOL     OW38287   1.679   2.020  14.120  0.0670 -0.1355 -0.0306
 8942SOL    HW138288   1.646   2.086  14.059 -1.0114  0.4168  1.1612
 8942SOL    HW238289   1.708   2.069  14.196 -1.2694 -1.6586  1.4507
 8943SOL     OW38290   0.539   0.625   1.943 -0.1967  0.3293 -0.5388
 8943SOL    HW138291   0.547   0.532   1.926  0.0044  0.0497  1.1231
 8943SOL    HW238292   0.504   0.654   1.858 -0.3614 -0.0016 -0.5850
 8944SOL     OW38293   4.435   0.510   7.761  0.2034 -0.2817  0.0218
 8944SOL    HW138294   4.447   0.601   7.789  0.4064  0.1636 -1.5141
 8944SOL    HW238295   4.519   0.473   7.785  0.6458 -0.6401 -2.0610
 8945SOL     OW38296   4.610   2.102   9.494 -0.2148 -0.2048  0.1313
 8945SOL    HW138297   4.543   2.163   9.526  1.0064 -0.3020  2.8784
 8945SOL    HW238298   4.673   2.116   9.565 -0.6747  0.6320  0.3841
 8946SOL     OW38299   1.282   0.047  14.267 -0.1709  0.0439 -0.6133
 8946SOL    HW138300   1.291   4.687  14.217 -1.9931  1.0544 -2.5656
 8946SOL    HW238301   1.218   0.107  14.227  0.7061  1.2555 -0.2185
 8947SOL     OW38302   3.012   3.758   2.349 -0.2977 -0.0890 -0.1201
 8947SOL    HW138303   3.027   3.684   2.408  1.1365 -0.9505 -1.5692
 8947SOL    HW238304   2.987   3.819   2.418  0.3052  0.2761 -0.2305
 8948SOL     OW38305   1.891   0.872   7.847  0.8019 -0.0983 -0.1708
 8948SOL    HW138306   1.839   0.811   7.899 -0.9018 -0.0782 -1.8319
 8948SOL    HW238307   1.825   0.888   7.779 -1.5096  0.7205  2.2787
 8949SOL     OW38308   3.967   4.422   0.375  0.1777 -0.3252  0.2662
 8949SOL    HW138309   3.992   4.441   0.285  0.9451  2.4013  1.0788
 8949SOL    HW238310   3.977   4.513   0.402 -2.2302 -0.0011  0.0458
 8950SOL     OW38311   1.145   1.722   7.468  0.7158  0.2970 -0.3036
 8950SOL    HW138312   1.105   1.658   7.526  0.0405  0.7858 -0.2269
 8950SOL    HW238313   1.178   1.786   7.531  1.1837  0.5825 -0.8333
 8951SOL     OW38314   2.084   1.806   5.650  0.0957 -0.1091 -0.4787
 8951SOL    HW138315   2.068   1.715   5.627 -0.0655 -0.0079 -0.7626
 8951SOL    HW238316   2.112   1.792   5.741  2.4863 -0.3546 -1.2559
 8952SOL     OW38317   3.167   4.403   3.104 -0.7152 -0.0527 -0.0366
 8952SOL    HW138318   3.140   4.493   3.119  0.7575  0.0688  1.7589
 8952SOL    HW238319   3.193   4.403   3.012 -1.0871  0.1328 -0.1419
 8953SOL     OW38320   0.254   1.364   5.611 -0.1178 -0.6929  0.0174
 8953SOL    HW138321   0.217   1.291   5.562 -0.3910 -0.8901  0.5242
 8953SOL    HW238322   0.189   1.434   5.604 -0.5036 -1.0735 -0.1831
 8954SOL     OW38323   2.155   0.764   5.780  0.3875  0.4831  0.4047
 8954SOL    HW138324   2.187   0.803   5.861 -0.3881 -0.5116  1.1946
 8954SOL    HW238325   2.223   0.787   5.717 -0.8544  0.1829 -1.0374
 8955SOL     OW38326   0.798   4.422   5.084 -0.2405 -0.4520 -0.0858
 8955SOL    HW138327   0.768   4.471   5.008  3.4877 -0.6039 -1.6696
 8955SOL    HW238328   0.720   4.408   5.138 -1.6959  0.9574 -1.8318
 8956SOL     OW38329   2.904   3.760  14.276  0.2957  0.1278 -0.2724
 8956SOL    HW138330   2.898   3.813  14.355  0.6390 -0.2806  0.0251
 8956SOL    HW238331   2.999   3.754  14.270  0.2518 -1.8565  1.0412
 8957SOL     OW38332   1.604   1.936   2.532  0.1492 -0.0693  0.3193
 8957SOL    HW138333   1.658   1.860   2.555 -1.1230 -0.6322  1.4226
 8957SOL    HW238334   1.521   1.890   2.542  0.4302 -0.4402  0.9754
 8958SOL     OW38335   0.430   4.330   7.998 -0.1100  0.2290 -0.3040
 8958SOL    HW138336   0.369   4.306   7.928  0.0001 -2.9347  0.6642
 8958SOL    HW238337   0.382   4.315   8.079  1.7223  1.2015  0.9631
 8959SOL     OW38338   2.880   2.320   4.898 -0.7075  0.3140  0.2681
 8959SOL    HW138339   2.954   2.328   4.959  0.8563 -4.1560 -1.0966
 8959SOL    HW238340   2.894   2.390   4.834  2.3220 -1.0711 -0.5743
 8960SOL     OW38341   1.984   2.054   9.347 -0.1117 -0.4397 -0.4733
 8960SOL    HW138342   2.038   2.028   9.273 -0.3250  1.4862 -1.3193
 8960SOL    HW238343   2.021   2.007   9.421 -1.0644  1.1971  1.0702
 8961SOL     OW38344   1.082   0.655  10.636  0.4070  0.2411 -0.2818
 8961SOL    HW138345   1.146   0.612  10.693 -2.0154 -1.7204  0.9416
 8961SOL    HW238346   1.124   0.741  10.638  1.3344 -0.1930 -1.3390
 8962SOL     OW38347   4.275   3.941   7.066  0.5139  0.1372  0.4051
 8962SOL    HW138348   4.321   3.902   6.991  0.7046 -0.4785  0.8388
 8962SOL    HW238349   4.198   3.885   7.061  0.4971  0.2309 -0.4080
 8963SOL     OW38350   3.839   0.784  14.671  0.6127  0.1089 -0.1642
 8963SOL    HW138351   3.904   0.761  14.738 -0.7718 -0.4854  0.9597
 8963SOL    HW238352   3.770   0.805  14.733 -0.4008 -0.8652 -0.9581
 8964SOL     OW38353   3.684   4.529   2.388 -0.1028  0.0552  0.2543
 8964SOL    HW138354   3.688   4.528   2.484 -3.1701 -1.3291  0.3649
 8964SOL    HW238355   3.609   4.469   2.381  0.8107 -1.1519  0.8065
 8965SOL     OW38356   3.933   1.534  16.941  0.3225  0.0624  0.3276
 8965SOL    HW138357   3.990   1.591  16.889  2.4602 -1.0228  1.5082
 8965SOL    HW238358   3.903   1.600  17.003 -0.0317 -0.4254  0.6712
 8966SOL     OW38359   3.418   4.033   5.567 -0.1938 -0.6310  0.0051
 8966SOL    HW138360   3.434   4.127   5.566 -2.4073 -0.2499 -1.5328
 8966SOL    HW238361   3.337   4.037   5.619  0.9178 -0.4424  1.7151
 8967SOL     OW38362   0.840   2.245   2.811  0.0220 -0.3066  0.4448
 8967SOL    HW138363   0.887   2.324   2.786 -0.8987 -0.0147 -0.3597
 8967SOL    HW238364   0.771   2.288   2.862  0.5581  0.4323  0.5469
 8968SOL     OW38365   1.215   0.879   4.801 -0.0421 -0.3695 -1.1138
 8968SOL    HW138366   1.294   0.851   4.848  0.3914  0.7142 -1.2129
 8968SOL    HW238367   1.170   0.937   4.861  0.6684 -0.7775 -0.1878
 8969SOL     OW38368   0.701   1.316  15.404  0.4306  0.6534  0.4951
 8969SOL    HW138369   0.776   1.359  15.362  0.3061 -0.2872 -0.6819
 8969SOL    HW238370   0.665   1.392  15.449 -0.4593  1.3962 -1.4740
 8970SOL     OW38371   1.255   2.274   3.354 -0.9502  0.2436  0.3398
 8970SOL    HW138372   1.244   2.218   3.431  0.8589 -1.6584 -0.7836
 8970SOL    HW238373   1.288   2.352   3.399  0.2947 -0.9491  1.4917
 8971SOL     OW38374   4.417   3.494   5.915  0.2198  0.5152 -0.6983
 8971SOL    HW138375   4.414   3.438   5.838  0.4016  1.2125 -1.2091
 8971SOL    HW238376   4.325   3.505   5.938  0.6662  1.9398  0.3866
 8972SOL     OW38377   2.893   1.196   7.865  0.3813 -0.1734 -0.1635
 8972SOL    HW138378   2.908   1.278   7.819 -1.7452  0.6359  0.5789
 8972SOL    HW238379   2.836   1.149   7.804 -0.1382  0.2922 -0.0406
 8973SOL     OW38380   2.273   1.117   4.286 -0.0777 -0.2079 -0.6969
 8973SOL    HW138381   2.259   1.181   4.216 -3.6341  1.1076  1.1961
 8973SOL    HW238382   2.184   1.084   4.297  0.2339 -0.7888  0.0780
 8974SOL     OW38383   0.657   0.467   5.648  0.2594 -0.0210  0.4262
 8974SOL    HW138384   0.711   0.417   5.709  0.8537 -1.1328 -1.0267
 8974SOL    HW238385   0.574   0.457   5.694  0.3706  1.0961  0.8792
 8975SOL     OW38386   2.269   3.856   5.715  0.6141 -0.6975  0.1484
 8975SOL    HW138387   2.315   3.793   5.769 -0.4263 -0.8257  0.8892
 8975SOL    HW238388   2.235   3.799   5.646  1.8046 -3.1911  1.6532
 8976SOL     OW38389   4.498   0.549   1.728  0.0475  0.3396 -0.0858
 8976SOL    HW138390   4.427   0.607   1.701  0.3665 -0.2921 -2.2178
 8976SOL    HW238391   4.463   0.499   1.802 -0.9781 -0.1417 -0.8965
 8977SOL     OW38392   0.326   1.274   8.792 -0.0415 -0.0706  0.5625
 8977SOL    HW138393   0.255   1.256   8.854 -1.4591  0.5342 -0.8506
 8977SOL    HW238394   0.369   1.191   8.775 -2.3505 -1.1324 -0.1546
 8978SOL     OW38395   4.053   0.468   7.016 -0.5840  0.0971  0.3757
 8978SOL    HW138396   3.995   0.448   6.942  0.9041  1.5154 -1.1714
 8978SOL    HW238397   4.008   0.436   7.094 -0.9566  0.3429  0.2634
 8979SOL     OW38398   2.397   1.393   8.309  0.3085  0.1774 -0.2623
 8979SOL    HW138399   2.484   1.432   8.312  0.7195 -0.7396 -0.5025
 8979SOL    HW238400   2.408   1.357   8.221  0.2489 -0.1385 -0.1383
 8980SOL     OW38401   2.545   0.899  11.139 -1.0394 -0.0069 -0.2127
 8980SOL    HW138402   2.450   0.888  11.142 -0.5866 -3.6568  1.1362
 8980SOL    HW238403   2.554   0.979  11.192 -0.0946 -0.6533  0.5972
 8981SOL     OW38404   3.080   4.159   1.806 -0.0153 -0.0707  0.2915
 8981SOL    HW138405   3.090   4.225   1.875 -0.0944 -1.1581  1.3417
 8981SOL    HW238406   3.052   4.212   1.731 -0.4178  0.0690  0.5402
 8982SOL     OW38407   3.228   1.496   8.258  0.3876 -0.5383 -0.7281
 8982SOL    HW138408   3.265   1.556   8.194 -0.8596  1.6674  0.6362
 8982SOL    HW238409   3.200   1.430   8.193  0.4082 -0.1791 -1.1009
 8983SOL     OW38410   4.362   4.642  14.280  0.7445 -0.3719 -0.3531
 8983SOL    HW138411   4.280   4.593  14.269 -0.3110  1.3381 -0.1702
 8983SOL    HW238412   4.387   4.670  14.192 -0.5970  1.4589 -0.1503
 8984SOL     OW38413   4.171   0.720  10.828  0.2878  0.2293  0.0697
 8984SOL    HW138414   4.178   0.624  10.827  0.7057  0.2498  0.9244
 8984SOL    HW238415   4.110   0.737  10.756  2.2015  0.9072 -1.3829
 8985SOL     OW38416   2.634   1.396   4.068 -0.0295 -0.1901  0.5297
 8985SOL    HW138417   2.712   1.396   4.013  0.4287  1.7959  1.1918
 8985SOL    HW238418   2.620   1.304   4.090  0.3966 -0.8123 -1.7780
 8986SOL     OW38419   2.578   0.849   2.884  0.4441  0.1219  0.4324
 8986SOL    HW138420   2.509   0.915   2.869 -0.1470 -0.5538  0.2068
 8986SOL    HW238421   2.620   0.889   2.961  1.3816 -0.7332  0.3631
 8987SOL     OW38422   1.545   1.944   3.967  0.0199  0.7567 -0.2335
 8987SOL    HW138423   1.526   2.020   3.913 -1.2336 -0.4243 -1.4660
 8987SOL    HW238424   1.506   1.873   3.915  1.2023 -1.1412  1.4554
 8988SOL     OW38425   2.322   0.289   2.804  0.1623  0.0322  0.2003
 8988SOL    HW138426   2.403   0.333   2.779 -0.6239  1.7076  0.6342
 8988SOL    HW238427   2.272   0.318   2.728 -0.7018 -2.5600 -0.2355
 8989SOL     OW38428   1.913   2.445   7.604 -0.7194  0.0677  0.1857
 8989SOL    HW138429   1.919   2.537   7.630  0.6433 -0.0432  0.2183
 8989SOL    HW238430   1.967   2.431   7.526  0.5010  0.0498  1.0386
 8990SOL     OW38431   4.112   2.871   4.409  0.7030  0.3200 -0.4868
 8990SOL    HW138432   4.140   2.956   4.442  1.8342  0.3543 -1.5369
 8990SOL    HW238433   4.107   2.895   4.317 -0.4666 -1.2968 -0.8538
 8991SOL     OW38434   3.718   3.575  16.880  0.1447 -0.3768  0.2345
 8991SOL    HW138435   3.629   3.591  16.910  0.1197 -0.9035  0.4486
 8991SOL    HW238436   3.687   3.552  16.792 -3.0878  1.0962  0.9996
 8992SOL     OW38437   2.855   2.115   5.230 -0.0035  0.2951 -0.3066
 8992SOL    HW138438   2.783   2.068   5.274 -0.8411  1.5560 -0.3221
 8992SOL    HW238439   2.825   2.206   5.233  1.0677  0.7164 -2.5489
 8993SOL     OW38440   1.194   3.373   7.293  0.3641 -0.4308  0.1759
 8993SOL    HW138441   1.189   3.284   7.327 -0.3524 -0.5624 -0.2719
 8993SOL    HW238442   1.105   3.408   7.293  0.5750  0.1073 -0.4244
 8994SOL     OW38443   3.444   0.501   3.508  0.2609 -0.7388 -0.1716
 8994SOL    HW138444   3.475   0.587   3.480 -0.1356  0.0489  1.8438
 8994SOL    HW238445   3.447   0.515   3.603 -0.3392  0.0072 -0.2708
 8995SOL     OW38446   2.076   2.396   2.635  0.3642 -0.8702  0.3152
 8995SOL    HW138447   1.982   2.396   2.615  0.6580  0.5454 -1.1441
 8995SOL    HW238448   2.066   2.428   2.724 -0.7012 -3.2094  1.0323
 8996SOL     OW38449   3.834   4.482   5.611 -0.6911  0.2851 -0.2314
 8996SOL    HW138450   3.810   4.449   5.697 -0.9270  0.7054 -0.1340
 8996SOL    HW238451   3.880   4.408   5.571 -0.6494  1.5492 -2.5375
 8997SOL     OW38452   3.191   3.929   2.603 -0.0403  0.2187  0.3479
 8997SOL    HW138453   3.270   3.980   2.624  0.3632 -0.2343 -0.0538
 8997SOL    HW238454   3.212   3.846   2.644  1.7857  0.5517  0.0900
 8998SOL     OW38455   0.824   0.325  10.725 -0.2974  0.7153 -0.1204
 8998SOL    HW138456   0.734   0.304  10.752  0.0979  0.2373  0.8456
 8998SOL    HW238457   0.820   0.278  10.642  0.7030 -0.3845  0.4512
 8999SOL     OW38458   0.763   3.581   9.177  0.1793 -0.3007  0.0927
 8999SOL    HW138459   0.780   3.663   9.224 -0.8312 -0.0675  0.0715
 8999SOL    HW238460   0.814   3.522   9.231 -0.9083 -1.0351  0.3115
 9000SOL     OW38461   1.219   0.274  17.207  0.7225  0.1784  0.0177
 9000SOL    HW138462   1.251   0.191  17.243  0.1415  1.2463  2.9822
 9000SOL    HW238463   1.183   0.252  17.121  2.5103 -1.5006 -0.3102
 9001SOL     OW38464   3.298   4.506   7.068 -0.1014  0.6591 -0.5688
 9001SOL    HW138465   3.339   4.492   6.983 -0.7844 -2.6053 -0.3453
 9001SOL    HW238466   3.228   4.441   7.059  1.5253 -1.2439  0.4728
 9002SOL     OW38467   1.530   4.384   1.110  0.2686 -0.3368  0.1545
 9002SOL    HW138468   1.527   4.290   1.128 -0.0435 -0.4125 -0.3030
 9002SOL    HW238469   1.440   4.395   1.081  0.0034 -1.4037  0.5721
 9003SOL     OW38470   1.857   3.387   6.464  0.2993 -0.2207  0.2079
 9003SOL    HW138471   1.815   3.305   6.491  0.0182 -0.0788  0.1911
 9003SOL    HW238472   1.805   3.459   6.498  1.8808  0.7608  0.5650
 9004SOL     OW38473   2.407   3.082   6.627  0.3545  0.3881 -0.2786
 9004SOL    HW138474   2.350   3.055   6.699 -1.1034  2.3636 -0.6955
 9004SOL    HW238475   2.439   2.998   6.595 -0.7760  0.7743 -2.3540
 9005SOL     OW38476   4.458   1.389   7.364 -0.1610 -0.1549  0.3736
 9005SOL    HW138477   4.500   1.412   7.447 -2.3226  0.1710  1.3750
 9005SOL    HW238478   4.413   1.308   7.389 -0.7460  0.0937  0.0920
 9006SOL     OW38479   4.135   3.703   9.190 -0.0616 -0.4028  0.3439
 9006SOL    HW138480   4.066   3.762   9.159 -1.7043 -1.5571  1.8400
 9006SOL    HW238481   4.087   3.651   9.254 -1.1347  1.0873  0.7507
 9007SOL     OW38482   1.966   3.586   4.560  0.0226 -0.6051 -0.9190
 9007SOL    HW138483   1.929   3.538   4.486  2.0188 -1.1619 -1.5439
 9007SOL    HW238484   2.039   3.536   4.595 -2.4370 -2.9329  0.8838
 9008SOL     OW38485   3.557   4.108   6.237  0.0267  0.0147  0.5548
 9008SOL    HW138486   3.498   4.181   6.254  1.6723  1.2685  0.9367
 9008SOL    HW238487   3.634   4.148   6.277  0.6720 -1.4634  0.8143
 9009SOL     OW38488   2.242   1.910   3.668  0.3418  0.2206  0.3817
 9009SOL    HW138489   2.186   1.877   3.598  0.7304  0.1858  0.0836
 9009SOL    HW238490   2.324   1.924   3.620  0.4643 -0.8708  0.2596
 9010SOL     OW38491   2.324   1.608   7.662 -0.2293 -0.4179 -0.2468
 9010SOL    HW138492   2.329   1.544   7.734 -0.4994 -0.4367 -0.2473
 9010SOL    HW238493   2.374   1.552   7.602  1.8904  0.1022  1.0210
 9011SOL     OW38494   3.039   2.084   1.676  0.2809  0.2237  0.2355
 9011SOL    HW138495   3.057   2.001   1.631 -2.3257 -1.5657  2.4718
 9011SOL    HW238496   3.126   2.123   1.672  0.0500  0.4992 -2.7924
 9012SOL     OW38497   0.575   3.584   6.539 -0.0358 -0.1097  0.2810
 9012SOL    HW138498   0.549   3.647   6.606 -0.8689 -0.5405  0.3613
 9012SOL    HW238499   0.670   3.585   6.546 -0.1597 -0.6813  2.0523
 9013SOL     OW38500   3.481   3.678  14.176  0.3939  0.3502  0.1516
 9013SOL    HW138501   3.391   3.677  14.145  0.1705  1.0707  0.7652
 9013SOL    HW238502   3.514   3.749  14.121 -1.4956 -1.1687 -2.8941
 9014SOL     OW38503   0.429   3.463   5.165  0.1816  0.2825 -0.1264
 9014SOL    HW138504   0.395   3.405   5.234  1.2534  1.6155  1.5239
 9014SOL    HW238505   0.418   3.543   5.216  0.4086  0.2763 -0.0657
 9015SOL     OW38506   3.971   1.296   0.601  0.5392 -0.2092 -0.2117
 9015SOL    HW138507   4.001   1.308   0.691  1.3675  0.0005 -0.5186
 9015SOL    HW238508   3.966   1.201   0.593  0.4330 -0.1245 -1.1741
 9016SOL     OW38509   0.118   1.008   2.859 -0.2406  0.0181  1.0140
 9016SOL    HW138510   0.029   1.037   2.838 -0.3590 -0.0006  1.4954
 9016SOL    HW238511   0.140   0.961   2.778  0.7700  1.2405  0.5758
 9017SOL     OW38512   0.853   3.453   6.571  0.3402 -0.3266 -0.0694
 9017SOL    HW138513   0.906   3.409   6.638 -1.0053  1.5108  2.2151
 9017SOL    HW238514   0.893   3.539   6.562  0.6571 -0.4045  0.5823
 9018SOL     OW38515   1.338   0.837   2.830  0.0475 -0.5141  0.4041
 9018SOL    HW138516   1.425   0.799   2.821 -0.3949 -1.2853 -0.6347
 9018SOL    HW238517   1.357   0.926   2.803  1.6985 -0.9851  0.0373
 9019SOL     OW38518   2.188   4.251   3.671  0.4964  0.8315 -0.4287
 9019SOL    HW138519   2.199   4.346   3.682  1.6509  0.9663 -2.7917
 9019SOL    HW238520   2.226   4.206   3.747 -2.1856  0.0671  0.4690
 9020SOL     OW38521   4.271   4.661   2.780 -0.3356  0.0649 -0.3252
 9020SOL    HW138522   4.289   4.576   2.741 -0.3954 -0.3677  0.5841
 9020SOL    HW238523   4.232   4.648   2.867 -2.4880  2.1326 -0.9948
 9021SOL     OW38524   0.692   3.073   5.331 -0.5748 -0.3703  0.1512
 9021SOL    HW138525   0.613   3.069   5.385 -0.7542  0.5194 -0.0515
 9021SOL    HW238526   0.661   3.067   5.240 -0.2201 -0.2448  0.0239
 9022SOL     OW38527   1.245   3.939   0.058 -0.1371  0.5448 -0.0601
 9022SOL    HW138528   1.189   3.984   0.122 -1.0258  0.4400 -0.7711
 9022SOL    HW238529   1.329   3.977   0.086 -0.5126  1.6468 -0.4164
 9023SOL     OW38530   0.900   0.060  10.264  0.7079  0.1776 -0.2773
 9023SOL    HW138531   0.922   0.107  10.184  1.0964 -1.3980 -1.1079
 9023SOL    HW238532   0.946   4.696  10.252  1.0474 -0.0022  2.4217
 9024SOL     OW38533   0.590   2.836   3.491 -0.3847 -0.4218  0.2723
 9024SOL    HW138534   0.515   2.782   3.515 -0.9989  0.7517  1.0177
 9024SOL    HW238535   0.564   2.849   3.399 -1.9148  2.1207  1.0565
 9025SOL     OW38536   2.450   3.731   5.121 -0.3317 -0.1248  0.2066
 9025SOL    HW138537   2.438   3.817   5.162  0.0507 -0.1758  0.4265
 9025SOL    HW238538   2.379   3.724   5.058  0.3992  0.7863 -0.7272
 9026SOL     OW38539   3.337   4.159   4.227 -0.3224 -0.6965  0.0567
 9026SOL    HW138540   3.329   4.102   4.150  1.3515 -0.6582 -0.1534
 9026SOL    HW238541   3.423   4.134   4.262 -0.3064  0.5480  0.9044
 9027SOL     OW38542   1.295   2.124   4.972 -0.1419  0.1218 -0.3270
 9027SOL    HW138543   1.351   2.065   4.921 -0.3020 -0.0953 -0.2531
 9027SOL    HW238544   1.340   2.113   5.056  0.8349  2.4498 -0.5389
 9028SOL     OW38545   3.310   0.378   1.978 -0.3041  0.3580  0.3208
 9028SOL    HW138546   3.273   0.308   1.924  0.7942 -1.5336  2.0377
 9028SOL    HW238547   3.253   0.357   2.052 -0.6634  0.6927  0.1423
 9029SOL     OW38548   0.899   2.388   9.093 -0.0982 -0.4890 -0.6969
 9029SOL    HW138549   0.811   2.406   9.060 -1.3945  1.3595  3.6970
 9029SOL    HW238550   0.914   2.463   9.151  0.3167 -1.9971  1.1472
 9030SOL     OW38551   3.441   1.298  12.951 -0.2996 -0.0560  0.5949
 9030SOL    HW138552   3.418   1.277  12.861 -0.8956  1.7478  0.3318
 9030SOL    HW238553   3.455   1.392  12.960 -2.8043  0.3463  0.2447
 9031SOL     OW38554   1.255   0.509  10.819 -0.1810  0.1804 -0.2246
 9031SOL    HW138555   1.337   0.502  10.869  0.6425  1.4101 -1.4205
 9031SOL    HW238556   1.257   0.425  10.773  0.5094 -1.0302  2.0209
 9032SOL     OW38557   2.436   2.826   0.671  0.3071 -0.2008  0.3330
 9032SOL    HW138558   2.436   2.759   0.740 -1.2271  0.2742  0.7987
 9032SOL    HW238559   2.346   2.839   0.641  0.4019 -1.2902 -0.4589
 9033SOL     OW38560   0.618   2.813   5.704 -0.1130  0.3483 -0.0913
 9033SOL    HW138561   0.702   2.804   5.659  0.5183  1.2494  0.9249
 9033SOL    HW238562   0.648   2.853   5.785  2.3266 -0.6919 -0.4879
 9034SOL     OW38563   3.908   1.634   3.750  0.0366 -0.2575  0.8889
 9034SOL    HW138564   3.838   1.685   3.792  0.7865 -1.3434  3.4777
 9034SOL    HW238565   3.941   1.696   3.685 -1.2357 -0.5360 -0.0204
 9035SOL     OW38566   1.970   3.010   7.903  0.2494  0.0884 -0.3622
 9035SOL    HW138567   1.947   3.027   7.812 -1.0110 -0.4849 -0.1622
 9035SOL    HW238568   1.908   3.070   7.944 -0.2897 -0.8115  0.1465
 9036SOL     OW38569   1.762   1.409   7.629  0.0875  0.4322  0.3051
 9036SOL    HW138570   1.830   1.472   7.653 -1.1120  1.6364  0.5369
 9036SOL    HW238571   1.720   1.453   7.555 -0.3799  0.5982  0.6642
 9037SOL     OW38572   3.520   0.399   5.954 -0.4414 -0.4325  0.6011
 9037SOL    HW138573   3.518   0.458   6.030  0.0383 -0.2289  0.4549
 9037SOL    HW238574   3.436   0.355   5.945 -0.5720 -0.3824  1.5510
 9038SOL     OW38575   4.520   0.233   8.357 -0.4347  0.2871 -0.2572
 9038SOL    HW138576   4.432   0.242   8.392 -0.1540 -0.3659  0.6210
 9038SOL    HW238577   4.504   0.181   8.278 -0.7055 -1.1247  0.7345
 9039SOL     OW38578   3.761   2.285   8.901 -0.9355  0.5004  0.5754
 9039SOL    HW138579   3.713   2.356   8.859  0.8607  0.9733 -0.6566
 9039SOL    HW238580   3.847   2.327   8.911 -0.8656  0.7776 -1.3044
 9040SOL     OW38581   1.089   0.226  11.792  0.1035 -0.0145 -0.2876
 9040SOL    HW138582   1.172   0.209  11.748  1.5919  0.0249  2.4814
 9040SOL    HW238583   1.110   0.310  11.833  2.3945 -0.4132 -0.6330
 9041SOL     OW38584   1.838   4.023  12.418 -0.0407 -0.0188 -0.1721
 9041SOL    HW138585   1.761   3.993  12.466  0.6125  1.3889  1.7434
 9041SOL    HW238586   1.869   3.938  12.386  1.9511  0.4594  0.4842
 9042SOL     OW38587   0.383   0.417  16.798  0.5601  0.1801 -0.1687
 9042SOL    HW138588   0.366   0.339  16.852 -0.1769  1.0786  0.8868
 9042SOL    HW238589   0.327   0.481  16.842 -0.9454 -0.6424 -0.8658
 9043SOL     OW38590   2.511   2.825   1.848  0.1241 -0.1812 -0.0369
 9043SOL    HW138591   2.525   2.779   1.766 -0.3257 -0.4386  0.0335
 9043SOL    HW238592   2.444   2.766   1.881  1.8073 -1.0808  1.8438
 9044SOL     OW38593   1.783   3.759   1.699 -0.4041  0.0752  0.0502
 9044SOL    HW138594   1.730   3.795   1.628  1.7263 -1.7569 -2.4428
 9044SOL    HW238595   1.713   3.717   1.749 -0.8100  1.2774  0.4968
 9045SOL     OW38596   1.343   0.380   6.097  0.0998  0.0162 -0.3348
 9045SOL    HW138597   1.305   0.295   6.117  0.5613  0.0064  0.4970
 9045SOL    HW238598   1.392   0.408   6.175 -1.0328  1.8087 -0.2416
 9046SOL     OW38599   0.343   1.700   3.804  0.3101  0.5725 -0.1590
 9046SOL    HW138600   0.368   1.688   3.896 -0.5135 -2.6250 -0.3424
 9046SOL    HW238601   0.420   1.667   3.757 -1.5061  0.0198 -2.7250
 9047SOL     OW38602   0.438   2.079   5.685 -0.0341 -0.6039 -0.0953
 9047SOL    HW138603   0.460   2.171   5.697 -0.7232 -0.3970 -0.4322
 9047SOL    HW238604   0.406   2.058   5.773  3.2027  0.0508  1.2590
 9048SOL     OW38605   2.425   4.092   7.930 -0.3626  0.3353  0.6261
 9048SOL    HW138606   2.398   4.078   8.021  1.1995  0.1531  1.0615
 9048SOL    HW238607   2.520   4.097   7.940 -0.3182  0.7063  0.0308
 9049SOL     OW38608   0.384   1.148   4.964 -0.1615 -0.6217 -0.5359
 9049SOL    HW138609   0.452   1.156   5.031 -0.8303 -0.5569  0.1421
 9049SOL    HW238610   0.353   1.236   4.944 -0.9591 -0.6607  0.5062
 9050SOL     OW38611   3.311   0.046   6.615 -0.0826 -0.0922 -0.4171
 9050SOL    HW138612   3.252   0.053   6.690  0.0519 -0.2311 -0.3004
 9050SOL    HW238613   3.391   0.059   6.665  1.0776 -1.2912 -1.9647
 9051SOL     OW38614   0.646   2.997   7.954 -0.4481 -0.6843  0.5318
 9051SOL    HW138615   0.568   3.043   7.983  0.1439 -1.8325  3.9188
 9051SOL    HW238616   0.623   2.905   7.936 -3.3022 -0.0977  1.1224
 9052SOL     OW38617   4.719   4.627   1.590  0.3023  0.1160  0.1147
 9052SOL    HW138618   4.719   4.634   1.494  1.4201  0.3206  0.1278
 9052SOL    HW238619   4.711   4.716   1.626  1.4124  0.1424  0.2924
 9053SOL     OW38620   4.386   2.526  16.442 -0.3504 -0.3063  0.3767
 9053SOL    HW138621   4.324   2.489  16.505 -0.5314  0.8544  0.8825
 9053SOL    HW238622   4.325   2.529  16.367 -0.8208  1.5248  0.8416
 9054SOL     OW38623   1.250   1.686   5.429 -0.4217  0.0109  0.4922
 9054SOL    HW138624   1.317   1.752   5.444  1.4752 -2.0546  1.1720
 9054SOL    HW238625   1.172   1.739   5.416 -0.8939 -0.3711  1.6966
 9055SOL     OW38626   2.992   4.647   5.296  0.5210  0.3015  0.4072
 9055SOL    HW138627   2.899   4.626   5.295  0.2229  1.6017  0.8920
 9055SOL    HW238628   2.976   0.021   5.310 -2.0935  0.1469 -1.7096
 9056SOL     OW38629   3.364   4.495  16.798 -0.2546 -0.5338  0.2299
 9056SOL    HW138630   3.349   4.446  16.879 -0.0936  0.5319  0.8994
 9056SOL    HW238631   3.293   4.481  16.735 -0.3894  1.7824 -0.1217
 9057SOL     OW38632   3.042   3.579   0.458  0.0973 -0.0801  0.0575
 9057SOL    HW138633   2.980   3.626   0.402  0.7727  0.4633 -0.2357
 9057SOL    HW238634   2.996   3.495   0.462 -1.3289  0.7641  1.5749
 9058SOL     OW38635   0.156   2.031   6.207 -0.1976  0.0372 -0.2038
 9058SOL    HW138636   0.099   2.071   6.141  0.2414  1.5352  0.3213
 9058SOL    HW238637   0.198   2.106   6.249 -0.7549 -0.8088  1.8694
 9059SOL     OW38638   4.404   0.254   2.980 -0.3218 -0.0592 -0.0607
 9059SOL    HW138639   4.348   0.283   2.908 -1.3963 -1.0162  0.4021
 9059SOL    HW238640   4.451   0.177   2.947 -0.9026 -0.4932  0.1150
 9060SOL     OW38641   4.299   4.322   1.158 -0.8268 -0.0074  0.1475
 9060SOL    HW138642   4.307   4.227   1.148  0.6243  0.0067  1.1223
 9060SOL    HW238643   4.267   4.346   1.072  2.3840  0.3082 -0.9588
 9061SOL     OW38644   0.554   1.485  10.906  0.0212 -0.1668 -0.2855
 9061SOL    HW138645   0.649   1.477  10.900 -0.0459 -0.9527 -0.3661
 9061SOL    HW238646   0.529   1.397  10.877 -0.3943  0.3940 -1.5872
 9062SOL     OW38647   1.325   1.650  16.757 -0.2599  0.5096 -0.2181
 9062SOL    HW138648   1.347   1.655  16.850 -2.2272  1.4191  0.2021
 9062SOL    HW238649   1.248   1.707  16.754 -0.4764  0.2321  0.2089
 9063SOL     OW38650   2.878   4.494   8.805  0.3411  0.0565 -0.3006
 9063SOL    HW138651   2.790   4.476   8.773  0.3717  0.4142 -0.5896
 9063SOL    HW238652   2.899   4.406   8.836 -2.0634 -0.3765  0.0470
 9064SOL     OW38653   0.664   3.727   7.649  0.2660  0.2228 -0.1890
 9064SOL    HW138654   0.682   3.820   7.634 -0.6768  0.0083 -2.7217
 9064SOL    HW238655   0.632   3.708   7.560  1.0255 -1.5427 -0.0889
 9065SOL     OW38656   0.334   1.996   4.407 -0.1495  0.3720  0.0872
 9065SOL    HW138657   0.363   2.073   4.358  1.2920  0.3716  0.9349
 9065SOL    HW238658   0.308   2.037   4.489 -1.2117  0.1239 -0.1210
 9066SOL     OW38659   0.095   2.775   8.926 -0.5279  0.7380  0.1237
 9066SOL    HW138660   0.134   2.750   8.843 -3.5251 -0.2715 -0.9613
 9066SOL    HW238661   0.004   2.759   8.899  0.3404 -3.3836 -0.2979
 9067SOL     OW38662   1.990   3.126   2.424  0.2282 -0.4996  0.2452
 9067SOL    HW138663   2.003   3.041   2.468 -2.4079  0.3831  2.7153
 9067SOL    HW238664   1.947   3.098   2.344 -3.1045 -0.0895  1.9250
 9068SOL     OW38665   2.688   4.047   5.553  0.2933 -0.2735 -1.0292
 9068SOL    HW138666   2.661   4.062   5.644 -0.1950 -2.2002 -0.8497
 9068SOL    HW238667   2.601   4.025   5.520  0.9016  0.4983 -3.1166
 9069SOL     OW38668   1.308   0.599   5.968 -0.4572  0.3302  0.0593
 9069SOL    HW138669   1.280   0.593   5.876 -0.8637  1.2865  0.1181
 9069SOL    HW238670   1.315   0.511   6.003 -0.3367 -0.5008 -2.0228
 9070SOL     OW38671   2.623   1.719   4.344 -0.0433 -0.7395  0.3363
 9070SOL    HW138672   2.543   1.670   4.328 -0.1219 -0.0110 -1.5781
 9070SOL    HW238673   2.698   1.664   4.321  0.4740  0.0985  0.0190
 9071SOL     OW38674   3.674   2.791   8.401  0.5135  0.6505  0.1107
 9071SOL    HW138675   3.723   2.713   8.427 -1.0490 -0.0397  1.0293
 9071SOL    HW238676   3.613   2.763   8.333 -0.6845  0.3675  1.2727
 9072SOL     OW38677   3.733   2.815   2.912  0.1022 -0.3675  0.4343
 9072SOL    HW138678   3.782   2.736   2.889 -0.1951 -0.4634  0.1237
 9072SOL    HW238679   3.784   2.845   2.987 -1.3838  0.0041  1.2889
 9073SOL     OW38680   3.963   3.133   0.159 -0.3048 -0.7237  0.5823
 9073SOL    HW138681   3.895   3.120   0.225 -1.2204  2.8203  0.3158
 9073SOL    HW238682   3.995   3.044   0.148 -0.2115 -0.4201 -1.5577
 9074SOL     OW38683   2.279   0.239   8.391  0.5540 -0.4207  0.2383
 9074SOL    HW138684   2.208   0.230   8.328  0.0338 -0.1567  0.7972
 9074SOL    HW238685   2.241   0.203   8.471 -1.0255 -1.5416 -1.0308
 9075SOL     OW38686   2.453   1.662   6.719  0.1205 -0.0245 -0.4400
 9075SOL    HW138687   2.499   1.594   6.670 -1.9137 -1.4272 -0.4122
 9075SOL    HW238688   2.528   1.705   6.760 -0.9577  1.7148 -0.3045
 9076SOL     OW38689   1.183   3.527   4.873  0.4438  0.6397 -0.4275
 9076SOL    HW138690   1.107   3.573   4.837 -0.7283 -0.5664  0.5118
 9076SOL    HW238691   1.248   3.547   4.805  0.3767 -0.8396 -0.9306
 9077SOL     OW38692   4.639   0.795   4.660 -0.2865 -0.0552  0.1737
 9077SOL    HW138693   4.544   0.801   4.649 -0.0269  0.0256 -2.0813
 9077SOL    HW238694   4.650   0.700   4.672  0.1191  0.2592  2.3518
 9078SOL     OW38695   4.125   1.257   9.666 -0.2400 -0.2676  0.0874
 9078SOL    HW138696   4.057   1.248   9.732 -0.0658  1.5026  0.4991
 9078SOL    HW238697   4.152   1.167   9.649 -0.2979 -0.5536  1.6008
 9079SOL     OW38698   1.249   4.126  12.020 -0.4943  0.2223  0.6485
 9079SOL    HW138699   1.284   4.204  12.062  0.9498 -0.5852  0.9439
 9079SOL    HW238700   1.204   4.075  12.088 -0.0496 -3.8404 -2.1021
 9080SOL     OW38701   1.094   1.872   3.864 -0.0380 -0.0872 -0.1708
 9080SOL    HW138702   1.178   1.891   3.906 -1.5188  1.7081  1.9994
 9080SOL    HW238703   1.099   1.777   3.854  0.8037 -0.1423  0.7269
 9081SOL     OW38704   3.607   1.725   4.407 -0.4006  0.3822  0.0678
 9081SOL    HW138705   3.538   1.661   4.424 -0.2383  0.3603  0.6525
 9081SOL    HW238706   3.668   1.684   4.345 -1.4032  2.1686 -2.0879
 9082SOL     OW38707   0.505   2.528   4.119  0.2391 -0.2693 -0.0651
 9082SOL    HW138708   0.430   2.469   4.124 -0.3618  0.6506  1.4308
 9082SOL    HW238709   0.541   2.491   4.038  1.5126  1.2602 -0.1874
 9083SOL     OW38710   0.973   0.797   3.732  0.2296 -0.1888 -0.3779
 9083SOL    HW138711   0.977   0.711   3.772 -1.6262  0.2969  0.8290
 9083SOL    HW238712   0.999   0.779   3.642 -2.7301  1.0227 -1.4735
 9084SOL     OW38713   2.964   2.598  15.454  0.7187 -0.4260  0.9025
 9084SOL    HW138714   3.016   2.572  15.378  2.2118 -0.0687  1.7945
 9084SOL    HW238715   2.878   2.586  15.415  1.6545  2.3859 -1.9502
 9085SOL     OW38716   3.606   2.886   6.857  0.0686 -0.0083 -0.2749
 9085SOL    HW138717   3.651   2.871   6.940 -1.5414 -1.9506  0.2511
 9085SOL    HW238718   3.530   2.933   6.890 -0.3939 -2.6539  2.3878
 9086SOL     OW38719   3.825   2.169   4.217  0.1580 -0.0767 -0.2167
 9086SOL    HW138720   3.910   2.126   4.216 -0.7194 -1.8268  2.0459
 9086SOL    HW238721   3.809   2.169   4.311 -0.0556  0.0837 -0.2538
 9087SOL     OW38722   0.467   4.404   3.675 -0.3437 -0.2304 -0.1682
 9087SOL    HW138723   0.444   4.359   3.594 -3.0555 -1.2339  1.1542
 9087SOL    HW238724   0.385   4.428   3.717 -0.1432 -0.2655  0.2463
 9088SOL     OW38725   4.343   0.652   0.448 -0.4857  0.0839  0.2915
 9088SOL    HW138726   4.277   0.720   0.440  1.0128  1.7145  1.7074
 9088SOL    HW238727   4.362   0.664   0.542  1.2792  1.1227 -0.1932
 9089SOL     OW38728   3.001   3.766   7.988 -0.0675 -0.4215 -0.1233
 9089SOL    HW138729   2.976   3.858   7.981  0.4917 -0.2522  0.1164
 9089SOL    HW238730   2.934   3.725   7.933  1.0600 -1.1607 -0.9379
 9090SOL     OW38731   2.176   2.477   4.855 -0.4117 -0.5551  0.2356
 9090SOL    HW138732   2.221   2.439   4.779 -0.7359  2.4583 -1.4786
 9090SOL    HW238733   2.254   2.518   4.890 -0.8145  1.1975 -0.9189
 9091SOL     OW38734   3.044   1.899  10.631 -0.4028 -0.4780  0.6349
 9091SOL    HW138735   3.099   1.971  10.601  0.9117 -0.6471  2.6718
 9091SOL    HW238736   2.962   1.923  10.587  1.5200  1.1581 -2.0046
 9092SOL     OW38737   0.896   0.711   5.004 -0.1248 -0.0490  0.1013
 9092SOL    HW138738   0.832   0.729   4.935 -1.2939 -3.3145  0.3094
 9092SOL    HW238739   0.936   0.633   4.966  0.1153 -0.2615  0.7794
 9093SOL     OW38740   4.705   3.498   4.920 -0.0456  0.0715 -0.3799
 9093SOL    HW138741   4.610   3.503   4.916 -0.1799 -2.8198 -0.5959
 9093SOL    HW238742   4.718   3.410   4.954  1.3526  0.5643  0.4198
 9094SOL     OW38743   1.390   4.121   1.645 -0.2299  0.1255 -0.2425
 9094SOL    HW138744   1.381   4.031   1.674  0.0279 -0.0644 -0.7534
 9094SOL    HW238745   1.400   4.172   1.725  1.7246 -1.0817  0.2829
 9095SOL     OW38746   2.824   0.615   4.889 -0.0625 -0.2254 -0.0705
 9095SOL    HW138747   2.833   0.594   4.796  2.0192  0.2634  0.0303
 9095SOL    HW238748   2.745   0.564   4.908  0.2803 -0.2995  1.1570
 9096SOL     OW38749   1.817   0.709   6.210  0.4723 -0.4257  0.0057
 9096SOL    HW138750   1.844   0.800   6.203  0.7211 -0.5350 -0.4202
 9096SOL    HW238751   1.735   0.703   6.160  0.3467 -1.2753  0.3147
 9097SOL     OW38752   3.846   2.720   5.032  0.3614  0.0954  0.0861
 9097SOL    HW138753   3.882   2.637   5.062 -0.7863 -0.9649 -1.4772
 9097SOL    HW238754   3.822   2.692   4.944  1.1480  2.2459 -0.8145
 9098SOL     OW38755   3.093   0.896   2.576  0.3181 -0.6745  0.5225
 9098SOL    HW138756   3.047   0.974   2.610  0.9487  0.3046 -0.9001
 9098SOL    HW238757   3.114   0.857   2.661  1.7801 -1.9976 -0.4556
 9099SOL     OW38758   0.134   3.471   1.611  0.5411 -0.0660  0.2505
 9099SOL    HW138759   0.104   3.550   1.567 -0.4365 -0.6141 -0.0605
 9099SOL    HW238760   0.154   3.417   1.535 -1.1499 -0.9843  0.4611
 9100SOL     OW38761   0.564   0.447  15.594  0.0562  0.2843  0.5529
 9100SOL    HW138762   0.646   0.435  15.545  0.2382 -3.0983  1.6489
 9100SOL    HW238763   0.589   0.475  15.682  1.2853 -1.8770  0.9048
 9101SOL     OW38764   2.499   2.809  17.591  0.4420  0.1101  0.7840
 9101SOL    HW138765   2.475   2.886  17.538 -2.5481 -0.2253  1.6266
 9101SOL    HW238766   2.499   2.743  17.521  0.0331  0.8090  0.1211
 9102SOL     OW38767   1.654   3.194   5.912  0.4953 -0.0982 -0.0951
 9102SOL    HW138768   1.631   3.222   6.001  1.3316 -1.0841  0.4368
 9102SOL    HW238769   1.610   3.109   5.903  1.5415 -0.3485 -2.8602
 9103SOL     OW38770   2.231   1.805   3.283  0.5666 -0.6201 -0.1564
 9103SOL    HW138771   2.165   1.789   3.350 -0.5575 -2.4485 -1.7112
 9103SOL    HW238772   2.241   1.900   3.293 -2.0336 -0.6153  2.1434
 9104SOL     OW38773   2.023   2.500  14.885 -0.2365 -0.1795 -0.3815
 9104SOL    HW138774   1.998   2.429  14.944  0.8593  0.3429  0.7115
 9104SOL    HW238775   1.968   2.473  14.811  0.9878  0.1772 -1.4402
 9105SOL     OW38776   3.226   3.022   3.874 -0.0277  0.0629  0.0638
 9105SOL    HW138777   3.164   2.953   3.899  1.0976 -2.0422 -2.9139
 9105SOL    HW238778   3.167   3.094   3.853 -1.7199 -0.8069  1.8334
 9106SOL     OW38779   3.998   4.062   2.678 -0.5174 -0.1998  0.7347
 9106SOL    HW138780   4.085   4.100   2.680  0.6186 -2.7691 -0.4448
 9106SOL    HW238781   3.995   4.033   2.587  2.8741 -0.0349  0.5793
 9107SOL     OW38782   3.642   0.766  11.136  0.3331  0.7844  0.1851
 9107SOL    HW138783   3.701   0.758  11.211 -0.4836 -1.9179  0.5591
 9107SOL    HW238784   3.575   0.820  11.177 -0.5363 -0.2040  0.0808
 9108SOL     OW38785   1.014   0.919   3.259  0.1244  0.3362  0.6070
 9108SOL    HW138786   1.030   0.875   3.175 -1.7689  1.2510 -0.2204
 9108SOL    HW238787   1.039   1.009   3.241  0.7280  0.1943  0.7274
 9109SOL     OW38788   4.412   2.663   3.164 -0.0644  0.0814 -0.2084
 9109SOL    HW138789   4.467   2.645   3.087  0.2111  0.9348 -0.2076
 9109SOL    HW238790   4.453   2.621   3.239 -0.3951 -1.3288 -0.8135
 9110SOL     OW38791   1.328   1.331   0.607  0.2005  0.3805  0.2523
 9110SOL    HW138792   1.312   1.280   0.687  2.6574  0.4815  0.7955
 9110SOL    HW238793   1.422   1.345   0.618  0.4866 -0.9801 -0.5044
 9111SOL     OW38794   3.381   4.197   2.037  0.1444 -0.3494 -0.1048
 9111SOL    HW138795   3.419   4.182   1.951  3.4073  1.2374  1.0867
 9111SOL    HW238796   3.465   4.205   2.081  1.5810  0.6471 -3.0866
 9112SOL     OW38797   4.028   1.670   4.534  0.3127  0.7991  0.2455
 9112SOL    HW138798   4.036   1.596   4.474  0.8074  1.5476 -0.6108
 9112SOL    HW238799   4.120   1.689   4.552  0.3698 -1.2628  2.0402
 9113SOL     OW38800   2.900   0.911   3.014  0.6874 -0.2780  0.1274
 9113SOL    HW138801   2.820   0.952   3.048  0.9080  0.0883  0.2126
 9113SOL    HW238802   2.937   0.987   2.968  0.4389 -0.0189  0.3597
 9114SOL     OW38803   1.240   3.724   7.547 -0.1931  0.5610  0.0940
 9114SOL    HW138804   1.188   3.696   7.621 -2.6833  0.6026 -1.6414
 9114SOL    HW238805   1.271   3.638   7.517  0.4495  0.6174  0.5989
 9115SOL     OW38806   1.198   1.034   7.150 -0.4264 -0.4276 -0.1632
 9115SOL    HW138807   1.259   1.103   7.123 -1.2854  1.1402  1.8711
 9115SOL    HW238808   1.116   1.056   7.105 -0.9691 -1.0363  0.5221
 9116SOL     OW38809   1.543   3.676  10.933 -0.1745  0.8331 -0.3724
 9116SOL    HW138810   1.460   3.693  10.888  0.2222  0.9204 -1.0737
 9116SOL    HW238811   1.527   3.730  11.010  1.0694 -0.1326  0.5476
 9117SOL     OW38812   2.262   0.108   7.742  0.0465  0.6957 -0.7231
 9117SOL    HW138813   2.170   0.086   7.751  0.4884  0.1967  2.7198
 9117SOL    HW238814   2.301   0.072   7.822 -2.8308  0.2703  0.4968
 9118SOL     OW38815   2.902   0.030  11.686 -0.5209  0.6976 -0.0201
 9118SOL    HW138816   2.858   4.707  11.759  0.2059  0.8141  0.4895
 9118SOL    HW238817   2.886   4.687  11.616  2.0388  1.4427 -1.2620
 9119SOL     OW38818   2.874   3.340   2.148 -0.2527  0.1109  0.3578
 9119SOL    HW138819   2.813   3.332   2.074 -0.9520  2.3461  0.7094
 9119SOL    HW238820   2.869   3.434   2.164 -1.0436 -0.1433  1.6033
 9120SOL     OW38821   2.632   3.983   3.415  0.2608  0.1175  0.4699
 9120SOL    HW138822   2.723   3.996   3.441 -0.3083  2.0358  1.5335
 9120SOL    HW238823   2.589   4.044   3.475 -1.4205  1.0531 -1.6459
 9121SOL     OW38824   1.911   2.370  16.057  0.3812 -0.7986  0.2017
 9121SOL    HW138825   1.817   2.384  16.069  0.4310  0.6699 -1.2030
 9121SOL    HW238826   1.916   2.287  16.010  1.5405 -0.8962  0.5133
 9122SOL     OW38827   0.040   0.983  11.688  0.0112  0.1748  0.5308
 9122SOL    HW138828   0.085   1.005  11.770 -1.1082 -1.0872  1.4908
 9122SOL    HW238829   0.067   0.893  11.668  1.1599  0.2500  1.7841
 9123SOL     OW38830   2.287   2.100   4.680  0.2007 -0.1836 -0.5872
 9123SOL    HW138831   2.306   2.030   4.617  2.0777 -1.1168  1.0270
 9123SOL    HW238832   2.362   2.159   4.672 -0.8359  1.2793  0.2871
 9124SOL     OW38833   0.258   3.732   3.336 -0.4989 -0.0898  0.3343
 9124SOL    HW138834   0.309   3.672   3.391  0.8758  0.0156 -0.8195
 9124SOL    HW238835   0.217   3.668   3.277 -1.8926  1.4195 -0.3236
 9125SOL     OW38836   2.130   2.194   0.823  0.1676 -0.0956  0.3124
 9125SOL    HW138837   2.207   2.139   0.839  1.0224  0.9791 -0.1195
 9125SOL    HW238838   2.113   2.236   0.908  2.0284  1.2974 -0.0061
 9126SOL     OW38839   2.089   1.232   0.733  0.3222  0.1623  0.2628
 9126SOL    HW138840   2.166   1.184   0.702 -0.5258  0.1312 -1.8298
 9126SOL    HW238841   2.094   1.306   0.671 -3.4767 -0.8111 -1.1496
 9127SOL     OW38842   4.474   1.496   5.697  0.3656  0.4554 -0.2919
 9127SOL    HW138843   4.547   1.474   5.638 -1.2157 -0.1438 -2.0115
 9127SOL    HW238844   4.498   1.587   5.715 -1.3370  0.7587  0.3867
 9128SOL     OW38845   4.640   2.060   8.382 -0.5438 -0.1823  0.2796
 9128SOL    HW138846   4.642   1.965   8.371 -0.0251 -0.4084  2.4170
 9128SOL    HW238847   4.653   2.063   8.477  0.3966  1.1084  0.1149
 9129SOL     OW38848   2.468   3.277  14.658 -0.0847 -0.0434  0.1597
 9129SOL    HW138849   2.484   3.285  14.752 -1.0468  0.3356  0.2884
 9129SOL    HW238850   2.544   3.326  14.625  0.4153 -2.6330 -2.5138
 9130SOL     OW38851   3.033   0.539   7.868 -0.2058 -0.4264 -0.0311
 9130SOL    HW138852   3.069   0.551   7.780  0.4208 -1.1681  0.1192
 9130SOL    HW238853   2.939   0.524   7.855  0.0621 -0.4892 -1.9178
 9131SOL     OW38854   2.639   2.038  11.475  0.3861 -0.2653  0.6449
 9131SOL    HW138855   2.689   2.036  11.393 -1.9654 -0.7791 -0.7525
 9131SOL    HW238856   2.647   2.129  11.504  0.7807  0.5056 -1.9052
 9132SOL     OW38857   1.257   2.299   4.251 -0.0755 -0.6506  0.2623
 9132SOL    HW138858   1.326   2.318   4.187 -2.9700 -2.8849 -3.5024
 9132SOL    HW238859   1.184   2.286   4.191  0.2339  0.6671 -0.4147
 9133SOL     OW38860   1.191   1.902   4.449 -0.0923  0.6101 -0.3039
 9133SOL    HW138861   1.207   1.993   4.471 -1.3533  0.1398  2.5996
 9133SOL    HW238862   1.154   1.870   4.531 -0.5270  1.5756 -0.1351
 9134SOL     OW38863   2.032   3.531   0.490 -0.4813  0.0348 -0.0360
 9134SOL    HW138864   2.074   3.445   0.491 -0.8165 -0.1429 -0.8747
 9134SOL    HW238865   2.017   3.553   0.397 -0.7662  1.2716  0.3010
 9135SOL     OW38866   2.010   1.316  15.118 -0.0122  0.5877  0.3393
 9135SOL    HW138867   1.937   1.375  15.097  0.0198 -0.4677 -2.7476
 9135SOL    HW238868   2.018   1.274  15.032  0.1015 -1.0837  1.1741
 9136SOL     OW38869   0.159   0.655  10.323 -0.5922 -0.1553 -0.4444
 9136SOL    HW138870   0.138   0.562  10.335  4.5788 -1.0887  1.3865
 9136SOL    HW238871   0.194   0.658  10.234 -1.8934 -1.3241 -0.9980
 9137SOL     OW38872   0.140   3.756   4.701 -0.4430  0.2924  0.1752
 9137SOL    HW138873   0.212   3.751   4.764  0.9905 -1.6560 -1.6232
 9137SOL    HW238874   0.189   3.770   4.620 -0.3634 -0.6873  0.0586
 9138SOL     OW38875   2.542   1.097  13.172  0.0805  0.0160 -0.0087
 9138SOL    HW138876   2.525   1.121  13.081 -1.1813 -0.8244 -0.0062
 9138SOL    HW238877   2.546   1.003  13.157 -2.4265 -0.5021  2.4903
 9139SOL     OW38878   0.857   4.531   3.089 -0.3305 -0.1402 -0.1827
 9139SOL    HW138879   0.773   4.535   3.136 -1.4570  1.9618 -2.4042
 9139SOL    HW238880   0.821   4.542   3.001  3.1821 -1.3646 -1.7824
 9140SOL     OW38881   3.432   3.387   4.339  0.2639 -0.2142  0.1054
 9140SOL    HW138882   3.524   3.371   4.362 -0.4129 -1.8514  1.6628
 9140SOL    HW238883   3.411   3.473   4.374 -2.9640 -0.8614 -0.2753
 9141SOL     OW38884   0.454   3.165   8.077  0.3066  0.3791  0.4013
 9141SOL    HW138885   0.363   3.186   8.097  0.1705 -0.1687  0.3396
 9141SOL    HW238886   0.489   3.252   8.096  0.7333 -0.0087  1.3711
 9142SOL     OW38887   4.675   0.975   7.092 -0.4609 -0.1741  0.5807
 9142SOL    HW138888   4.604   0.989   7.154 -1.6176  2.3879 -1.2878
 9142SOL    HW238889   4.708   0.900   7.141 -1.0191 -1.2850 -0.7620
 9143SOL     OW38890   3.707   3.238   3.806  0.3570  0.2532  0.0685
 9143SOL    HW138891   3.672   3.167   3.860 -0.2167 -1.4537 -2.5549
 9143SOL    HW238892   3.717   3.314   3.863 -0.1920 -0.5105  1.1662
 9144SOL     OW38893   2.063   0.075   4.050 -0.3589 -0.2923  0.4165
 9144SOL    HW138894   2.008   0.138   4.097  1.5601  0.4135  1.7023
 9144SOL    HW238895   2.024   4.717   4.088 -2.1424  1.7628  2.7755
 9145SOL     OW38896   0.556   1.283  10.536  0.3344 -0.6489  0.5428
 9145SOL    HW138897   0.626   1.268  10.472 -1.8779  0.7482 -2.1760
 9145SOL    HW238898   0.483   1.231  10.502 -1.2196  0.7849  1.6960
 9146SOL     OW38899   3.953   1.316   5.162  0.4698 -0.2538  0.2202
 9146SOL    HW138900   3.898   1.394   5.171  0.1130 -0.7884  2.5294
 9146SOL    HW238901   4.016   1.344   5.096  1.4172  1.2538  1.7587
 9147SOL     OW38902   0.427   0.314   8.696 -0.4012  0.3533  0.0152
 9147SOL    HW138903   0.383   0.392   8.729 -1.2342 -0.8967  1.8383
 9147SOL    HW238904   0.505   0.353   8.656  1.1323 -2.1692  0.5579
 9148SOL     OW38905   1.907   1.826  11.609 -0.4470 -0.0859 -0.3207
 9148SOL    HW138906   1.823   1.832  11.564  0.6862 -1.4075 -2.6116
 9148SOL    HW238907   1.884   1.761  11.676  1.3700  0.7280  1.1143
 9149SOL     OW38908   1.971   1.720  15.945 -0.0056 -0.1782  0.7740
 9149SOL    HW138909   1.944   1.630  15.958  0.9517 -0.9131 -2.3766
 9149SOL    HW238910   2.066   1.714  15.940 -0.1519 -1.9895  0.3191
 9150SOL     OW38911   2.257   0.524  13.224 -0.2533 -0.3190 -0.5056
 9150SOL    HW138912   2.198   0.585  13.268 -1.0205  0.2978 -2.3589
 9150SOL    HW238913   2.315   0.591  13.186 -0.4329  0.4823  0.6304
 9151SOL     OW38914   3.180   1.052  15.038  0.8292  0.1443 -0.3953
 9151SOL    HW138915   3.171   1.025  14.946  0.1632 -0.3402 -0.1947
 9151SOL    HW238916   3.133   0.975  15.071  0.4206  0.9962  1.0116
 9152SOL     OW38917   4.090   3.136   8.045 -0.4766 -0.7981 -0.7174
 9152SOL    HW138918   4.080   3.074   8.117 -0.2208  0.8843  0.7673
 9152SOL    HW238919   4.009   3.187   8.054 -0.2348 -0.5019 -0.1812
 9153SOL     OW38920   2.133   1.936  16.079 -0.0404  0.2612  0.0431
 9153SOL    HW138921   2.196   1.994  16.120 -0.0553 -0.4678  1.1169
 9153SOL    HW238922   2.188   1.900  16.010  1.1988 -0.7953  1.5637
 9154SOL     OW38923   4.445   2.308   9.540  0.5757  0.2171  0.2083
 9154SOL    HW138924   4.486   2.384   9.500 -2.3784  1.7216  0.0642
 9154SOL    HW238925   4.398   2.345   9.615 -0.8776  0.1658 -0.6806
 9155SOL     OW38926   3.169   2.766   7.242 -0.5790  0.3694 -0.0465
 9155SOL    HW138927   3.226   2.790   7.315  0.1737 -1.4684 -0.0366
 9155SOL    HW238928   3.232   2.706   7.202 -0.7491  1.9076 -2.6799
 9156SOL     OW38929   1.866   0.484   5.867  0.4036  0.0370 -0.4080
 9156SOL    HW138930   1.875   0.560   5.924  0.6133 -1.1186  1.0998
 9156SOL    HW238931   1.783   0.444   5.893  0.2430  0.0189 -0.9302
 9157SOL     OW38932   3.516   1.855  16.592 -0.5486  0.1965  0.1101
 9157SOL    HW138933   3.437   1.859  16.646  0.9891  1.2680  2.2837
 9157SOL    HW238934   3.583   1.820  16.650 -0.5267 -0.0337 -0.0511
 9158SOL     OW38935   3.638   1.145  13.818 -0.2693  0.4191  0.3281
 9158SOL    HW138936   3.707   1.080  13.801  0.9951  1.3327  1.9717
 9158SOL    HW238937   3.555   1.097  13.826  0.8048 -1.4818  0.2114
 9159SOL     OW38938   2.457   0.571  14.096  0.1320  0.5232  0.4037
 9159SOL    HW138939   2.370   0.569  14.135  1.3207 -1.9326  2.9063
 9159SOL    HW238940   2.444   0.620  14.015  0.7169 -0.3060 -0.1930
 9160SOL     OW38941   3.433   0.979   6.262 -0.3527  0.2875 -0.8301
 9160SOL    HW138942   3.354   0.971   6.316 -0.1840  1.3722 -0.4090
 9160SOL    HW238943   3.409   0.942   6.177 -2.4018  1.0959 -0.6112
 9161SOL     OW38944   4.452   1.950   6.964  0.5361 -0.3342 -0.6671
 9161SOL    HW138945   4.532   1.965   7.014  0.5529  0.1149 -0.8307
 9161SOL    HW238946   4.426   2.042   6.965 -0.0877 -0.5214  1.6203
 9162SOL     OW38947   1.676   0.810   1.821  0.4343 -0.4644  0.3713
 9162SOL    HW138948   1.711   0.721   1.809  1.6377  0.2289 -1.1748
 9162SOL    HW238949   1.584   0.792   1.801  0.0781  1.0319  0.7165
 9163SOL     OW38950   3.156   2.994  13.452  0.5610 -0.6515 -0.7887
 9163SOL    HW138951   3.092   2.946  13.503  0.9768 -0.5187 -0.1476
 9163SOL    HW238952   3.148   3.085  13.479  1.9130 -0.6745 -0.3193
 9164SOL     OW38953   2.040   1.736   9.180 -0.3334  0.1773 -0.0297
 9164SOL    HW138954   2.025   1.692   9.263  2.3293 -0.1280  0.2751
 9164SOL    HW238955   2.038   1.659   9.122 -1.0296  0.7009 -0.6985
 9165SOL     OW38956   1.906   0.916  16.384  0.3828  0.2076  0.3206
 9165SOL    HW138957   1.916   0.914  16.289  1.8882 -1.0151  0.5195
 9165SOL    HW238958   1.835   0.980  16.391  1.1932  1.0177  1.1560
 9166SOL     OW38959   2.739   4.319   9.453  0.8388 -0.8456 -0.1421
 9166SOL    HW138960   2.761   4.227   9.442 -2.7255 -1.5829 -1.2304
 9166SOL    HW238961   2.760   4.354   9.366 -1.6250  0.8806 -0.0621
 9167SOL     OW38962   2.475   3.010  14.009 -0.3726  0.6297  0.3509
 9167SOL    HW138963   2.436   3.047  14.088  0.8270  2.1388  0.2564
 9167SOL    HW238964   2.439   2.924  14.031  2.1588 -0.1856  1.3312
 9168SOL     OW38965   0.170   2.539   8.192  0.3074 -0.4414  0.0479
 9168SOL    HW138966   0.117   2.609   8.154  1.8128  0.2823 -0.7349
 9168SOL    HW238967   0.120   2.519   8.271 -1.0336  0.7576 -0.5212
 9169SOL     OW38968   2.240   2.791  16.296 -0.0338 -0.2895 -0.4082
 9169SOL    HW138969   2.258   2.697  16.291  0.1417 -0.3083  0.7426
 9169SOL    HW238970   2.157   2.791  16.344 -1.1286  0.5144 -2.2958
 9170SOL     OW38971   3.532   3.231   8.760 -0.1017 -0.1529 -0.3145
 9170SOL    HW138972   3.570   3.258   8.844  1.2629 -2.4166 -0.2051
 9170SOL    HW238973   3.607   3.177   8.734 -1.0823 -0.9406 -1.5036
 9171SOL     OW38974   3.316   4.620  17.101  0.3287  0.1699  0.4919
 9171SOL    HW138975   3.221   4.626  17.097  0.4597  1.6124 -0.4147
 9171SOL    HW238976   3.328   4.584  17.189  1.1776  1.4326  0.8999
 9172SOL     OW38977   4.536   1.353   2.048 -0.3751  0.1224 -0.1534
 9172SOL    HW138978   4.587   1.425   2.011  0.5331 -1.4936 -2.0296
 9172SOL    HW238979   4.460   1.350   1.990  0.9634  0.2520 -1.9082
 9173SOL     OW38980   1.748   3.115   9.899 -0.6214  0.2398  0.4575
 9173SOL    HW138981   1.706   3.191   9.937  0.5844  1.0719  0.1206
 9173SOL    HW238982   1.753   3.051   9.970  1.5682  1.2573  1.2147
 9174SOL     OW38983   4.084   1.222   2.416 -0.2240  0.4079  0.1601
 9174SOL    HW138984   4.139   1.197   2.490 -0.9604 -0.5862  0.3754
 9174SOL    HW238985   4.020   1.276   2.461 -1.0237 -0.1216 -0.3327
 9175SOL     OW38986   4.482   2.019   7.507  0.1420  0.0710  0.3941
 9175SOL    HW138987   4.541   2.017   7.432  0.7383  1.7413  0.8026
 9175SOL    HW238988   4.537   1.987   7.578  0.0956  0.3798  0.5738
 9176SOL     OW38989   2.118   2.593   3.446 -0.0247 -0.2914 -0.4069
 9176SOL    HW138990   2.045   2.628   3.395  0.0088  0.2120 -0.1050
 9176SOL    HW238991   2.131   2.503   3.418 -1.0641 -0.4265 -0.4281
 9177SOL     OW38992   1.279   4.453   0.998  0.1889 -0.5946  0.1502
 9177SOL    HW138993   1.189   4.436   1.025  0.0879  0.0398  0.2253
 9177SOL    HW238994   1.274   4.548   0.990 -1.7316 -0.6067  1.3815
 9178SOL     OW38995   1.857   2.713   3.534  0.2311  0.0080  0.1757
 9178SOL    HW138996   1.907   2.651   3.587  3.9774  0.6715 -2.5778
 9178SOL    HW238997   1.798   2.748   3.600  1.7455  3.1359 -0.1417
 9179SOL     OW38998   3.279   1.418  15.783 -0.0707 -0.0973  0.0344
 9179SOL    HW138999   3.227   1.485  15.738  4.7089  1.5392 -3.0501
 9179SOL    HW239000   3.306   1.364  15.708 -1.2070 -0.0984 -0.3741
 9180SOL     OW39001   3.264   1.958   4.785  0.3447  0.0733  0.5492
 9180SOL    HW139002   3.308   1.889   4.834  1.5304  0.3007 -0.1851
 9180SOL    HW239003   3.181   1.963   4.831 -0.7618  2.5720 -1.6915
 9181SOL     OW39004   0.172   0.515   5.952  0.6018 -0.1003 -0.2560
 9181SOL    HW139005   0.200   0.477   5.869 -1.1719 -0.3125 -0.7556
 9181SOL    HW239006   0.216   0.600   5.956 -1.4292  0.9685 -0.5306
 9182SOL     OW39007   4.384   2.928   0.582 -0.1074  0.5095  0.4956
 9182SOL    HW139008   4.421   3.013   0.607  0.2835  1.2002 -2.4065
 9182SOL    HW239009   4.401   2.879   0.662  2.4922  2.0592  0.8840
 9183SOL     OW39010   1.693   0.870   3.779 -0.1274 -0.1911  0.4967
 9183SOL    HW139011   1.668   0.958   3.749  0.0981  0.3249  1.7886
 9183SOL    HW239012   1.643   0.814   3.719 -0.1376  1.7905 -1.3738
 9184SOL     OW39013   1.194   2.868   8.656 -0.0659  0.0113 -0.1716
 9184SOL    HW139014   1.167   2.855   8.565  1.0074  0.1933 -0.5189
 9184SOL    HW239015   1.185   2.779   8.690  1.6927 -0.4041 -0.7553
 9185SOL     OW39016   2.702   4.359   1.875 -0.1416 -0.2500 -0.3675
 9185SOL    HW139017   2.780   4.314   1.908  0.7726  0.0362 -2.1164
 9185SOL    HW239018   2.710   4.350   1.780 -0.6158  1.9256 -0.6188
 9186SOL     OW39019   4.127   1.991   4.990 -0.1234  0.0153 -0.2702
 9186SOL    HW139020   4.104   2.002   4.898 -2.5012 -0.9250  0.2273
 9186SOL    HW239021   4.218   2.019   4.979  0.2925 -1.0648  0.4576
 9187SOL     OW39022   0.680   0.097  17.328 -0.0041  0.2838  0.0297
 9187SOL    HW139023   0.642   0.092  17.416  0.6892  1.7907  0.4090
 9187SOL    HW239024   0.766   0.127  17.354  0.0040  0.2272  0.0693
 9188SOL     OW39025   2.988   3.389   6.829 -0.5241  0.3508  0.3268
 9188SOL    HW139026   3.054   3.372   6.762  0.8913  3.1252  1.0201
 9188SOL    HW239027   3.026   3.344   6.904 -0.0425 -0.1214 -0.2021
 9189SOL     OW39028   2.879   3.726   8.255  0.2321 -0.4172  0.0715
 9189SOL    HW139029   2.912   3.736   8.166 -0.5492  1.0585 -0.0427
 9189SOL    HW239030   2.957   3.753   8.304  1.1316 -0.7990 -1.1516
 9190SOL     OW39031   3.924   1.681   5.686 -0.4832  0.3537 -0.1228
 9190SOL    HW139032   3.884   1.726   5.612 -2.1554  0.7794  1.0280
 9190SOL    HW239033   3.985   1.742   5.728 -1.3396 -0.0483  1.7135
 9191SOL     OW39034   0.951   3.327   0.608 -0.6324 -0.0607 -0.4305
 9191SOL    HW139035   0.980   3.266   0.539  0.2547 -0.3352  0.1759
 9191SOL    HW239036   0.890   3.385   0.563  0.0742  1.9406  1.1749
 9192SOL     OW39037   1.142   4.368   4.175 -0.2133  0.2873  0.1429
 9192SOL    HW139038   1.177   4.281   4.196 -1.4042 -0.0410  0.8065
 9192SOL    HW239039   1.075   4.348   4.109 -0.6906 -1.1384  1.0400
 9193SOL     OW39040   1.123   0.690   6.628 -0.1971  0.1053  0.7287
 9193SOL    HW139041   1.172   0.770   6.647  0.6785 -0.6577  1.6467
 9193SOL    HW239042   1.191   0.637   6.588 -0.0829 -0.6484  1.9373
 9194SOL     OW39043   3.972   1.208   4.113  0.2123  0.1124 -0.1071
 9194SOL    HW139044   4.063   1.216   4.140  1.2351 -1.4468 -3.0673
 9194SOL    HW239045   3.935   1.164   4.190 -1.4272  2.2288  0.3189
 9195SOL     OW39046   1.626   1.871   1.853 -0.1288  0.1952  0.7992
 9195SOL    HW139047   1.652   1.791   1.898  0.7439 -0.1483 -0.3142
 9195SOL    HW239048   1.640   1.929   1.928 -0.1041 -2.7122  3.0355
 9196SOL     OW39049   2.467   3.748   0.788 -0.0583  0.5059 -0.2436
 9196SOL    HW139050   2.497   3.724   0.701 -0.1505  1.0691 -0.4320
 9196SOL    HW239051   2.506   3.680   0.844  0.8368 -0.5907 -2.2048
 9197SOL     OW39052   4.195   3.088   5.362 -0.7154  0.1304 -0.4429
 9197SOL    HW139053   4.130   3.096   5.292  0.1001 -0.3116 -1.2467
 9197SOL    HW239054   4.153   3.137   5.433  1.2985  1.8853 -0.4824
 9198SOL     OW39055   3.045   2.011  11.335 -0.3481 -0.1001 -0.0224
 9198SOL    HW139056   3.061   1.939  11.396  1.2338  1.6274  1.5802
 9198SOL    HW239057   3.014   1.956  11.262 -0.6603  0.3119 -0.1992
 9199SOL     OW39058   1.877   1.624   0.867 -0.4574  0.1457 -0.2496
 9199SOL    HW139059   1.909   1.709   0.895  0.1410 -0.8330  2.0922
 9199SOL    HW239060   1.946   1.570   0.906 -0.9598 -0.6778 -0.4855
 9200SOL     OW39061   2.343   1.077   7.117  0.2305 -0.3156 -0.1204
 9200SOL    HW139062   2.273   1.140   7.135  0.1892 -0.5606  0.5838
 9200SOL    HW239063   2.368   1.055   7.207  0.7296 -0.6975 -0.3548
 9201SOL     OW39064   0.598   1.413   5.992 -0.7046 -0.1373 -0.7042
 9201SOL    HW139065   0.633   1.352   5.927 -1.5305 -1.2598 -0.1049
 9201SOL    HW239066   0.518   1.445   5.950 -0.3861  1.1255 -0.3570
 9202SOL     OW39067   0.014   2.473   4.979 -0.1359 -0.1047  0.2550
 9202SOL    HW139068   0.047   2.520   5.056  0.0506  0.1883 -0.0023
 9202SOL    HW239069   4.657   2.527   4.959 -0.5593 -1.7715 -2.5089
 9203SOL     OW39070   1.871   2.169   4.970  0.0503  0.1031 -0.2824
 9203SOL    HW139071   1.936   2.133   5.030 -0.8210  1.0384  1.2031
 9203SOL    HW239072   1.929   2.184   4.895  0.6039  1.5083  0.4364
 9204SOL     OW39073   0.712   0.990   4.825  0.3207  0.7330 -0.0036
 9204SOL    HW139074   0.702   1.061   4.888  0.1074 -0.1253  0.9329
 9204SOL    HW239075   0.768   1.033   4.760 -0.6121 -0.2681 -1.4817
 9205SOL     OW39076   2.666   0.784   1.256  0.0155  0.1137  0.0446
 9205SOL    HW139077   2.745   0.757   1.303 -0.7896 -2.2156  0.0659
 9205SOL    HW239078   2.645   0.694   1.230  1.6744  0.2964 -1.8698
 9206SOL     OW39079   3.851   1.966   5.037 -0.1425  0.3357 -0.1608
 9206SOL    HW139080   3.946   1.977   5.037 -0.0796 -0.2468 -0.8868
 9206SOL    HW239081   3.837   1.950   5.131  2.3618 -1.7756 -0.1230
 9207SOL     OW39082   4.460   1.963   0.062  0.4292 -0.2088 -0.3533
 9207SOL    HW139083   4.376   1.973   0.108 -0.1584  0.8920 -1.6502
 9207SOL    HW239084   4.443   1.986  17.652  1.0762  0.9471 -0.1833
 9208SOL     OW39085   0.232   1.495  10.368  0.1449  0.1236  0.6518
 9208SOL    HW139086   0.253   1.481  10.460 -1.6286 -1.4967  0.8068
 9208SOL    HW239087   0.147   1.451  10.361  0.3950 -0.3943  0.8193
 9209SOL     OW39088   2.503   2.183  11.830 -0.2797  0.7400 -0.3238
 9209SOL    HW139089   2.461   2.237  11.764 -1.0288  0.6853  0.1081
 9209SOL    HW239090   2.582   2.232  11.853 -0.5835  1.0928 -0.0318
 9210SOL     OW39091   2.219   3.295  17.661  0.3964 -0.4713  0.4892
 9210SOL    HW139092   2.130   3.262  17.646  0.3775 -0.2943  0.2129
 9210SOL    HW239093   2.244   3.341  17.580 -3.1864  0.5229 -0.0384
 9211SOL     OW39094   2.674   1.452   0.466  0.2505  0.5108  0.0691
 9211SOL    HW139095   2.755   1.490   0.500  0.3538  0.4384 -0.0940
 9211SOL    HW239096   2.672   1.383   0.532  3.1605 -0.1659 -0.5749
 9212SOL     OW39097   4.694   4.719   8.568  0.1301  0.2637 -0.4074
 9212SOL    HW139098   4.708   0.074   8.627  1.4822 -0.5233  0.2564
 9212SOL    HW239099   0.061   4.709   8.530  0.4703 -0.1660  0.4892
 9213SOL     OW39100   1.509   3.793   3.849  0.0744  0.2270 -0.3137
 9213SOL    HW139101   1.509   3.885   3.822 -0.9628  0.8116  1.6689
 9213SOL    HW239102   1.415   3.776   3.850  0.4425 -1.7437  1.4683
 9214SOL     OW39103   2.087   0.221   8.166 -0.2132 -0.0500 -0.2050
 9214SOL    HW139104   2.138   0.263   8.096 -2.1828 -1.2720 -2.3809
 9214SOL    HW239105   2.007   0.273   8.159  0.8184  1.4333 -1.0674
 9215SOL     OW39106   3.493   0.843   3.745 -0.0332  0.4868  0.6128
 9215SOL    HW139107   3.434   0.897   3.693  1.2043  0.3458 -0.9449
 9215SOL    HW239108   3.544   0.913   3.784  2.0915 -1.1527  0.7961
 9216SOL     OW39109   0.507   4.056   6.194  0.1033  0.7022  0.2306
 9216SOL    HW139110   0.598   4.072   6.172  0.5588  2.0509  2.9908
 9216SOL    HW239111   0.484   3.974   6.150  0.5627  0.7236 -0.0431
 9217SOL     OW39112   1.485   4.381   2.266  0.0781  0.5308 -0.5622
 9217SOL    HW139113   1.451   4.416   2.349 -3.9164 -2.6110 -0.8287
 9217SOL    HW239114   1.527   4.297   2.285 -0.2941  0.0255 -1.9141
 9218SOL     OW39115   4.230   3.874   1.856  0.0328  0.2505  0.1762
 9218SOL    HW139116   4.303   3.845   1.911  0.2318 -2.4669 -1.5499
 9218SOL    HW239117   4.162   3.855   1.920 -0.7689 -1.8026 -1.3032
 9219SOL     OW39118   0.182   1.902   2.970  0.4456  0.2644  0.1147
 9219SOL    HW139119   0.149   1.822   3.010  0.2527  0.2747 -0.0228
 9219SOL    HW239120   0.109   1.922   2.912  1.8643  3.1852 -0.6788
 9220SOL     OW39121   3.866   4.381   4.986  0.0137 -0.1160 -0.5221
 9220SOL    HW139122   3.788   4.336   5.020 -0.1384  0.9189  0.5146
 9220SOL    HW239123   3.931   4.317   5.014 -0.4414 -0.4929 -0.3310
 9221SOL     OW39124   4.581   3.291   3.714 -0.1302  0.6923 -0.6257
 9221SOL    HW139125   4.610   3.382   3.704 -1.0259  1.0366 -0.1164
 9221SOL    HW239126   4.536   3.298   3.798 -1.1007 -1.3963 -0.9816
 9222SOL     OW39127   3.465   1.498   6.965 -0.4580 -0.2009 -0.1908
 9222SOL    HW139128   3.496   1.437   7.032 -1.0099 -0.1066  0.1439
 9222SOL    HW239129   3.453   1.572   7.024  2.5951 -1.2991  1.7880
 9223SOL     OW39130   2.690   0.236   1.594  0.1208  0.4510  0.0753
 9223SOL    HW139131   2.730   0.158   1.632  3.2710  1.4409 -1.2031
 9223SOL    HW239132   2.631   0.204   1.525 -0.2378  2.0697 -0.3709
 9224SOL     OW39133   2.936   0.020   0.654  0.2946  0.4115 -0.3905
 9224SOL    HW139134   2.997   4.698   0.593 -0.7585 -2.7754  0.7522
 9224SOL    HW239135   3.005   0.041   0.717 -0.0529  1.6759 -0.4437
 9225SOL     OW39136   1.356   1.406   2.891  0.1389  0.5313  0.0895
 9225SOL    HW139137   1.379   1.471   2.825 -0.0059 -0.4444 -0.9235
 9225SOL    HW239138   1.433   1.352   2.908 -0.7448 -0.5762  0.5843
 9226SOL     OW39139   3.285   1.738  14.386  0.1677  0.0326  0.7413
 9226SOL    HW139140   3.247   1.825  14.399  0.5776  0.2458  0.5109
 9226SOL    HW239141   3.345   1.757  14.313 -3.1228 -0.0502 -1.9751
 9227SOL     OW39142   1.846   3.124   3.998  0.0455 -0.2687 -0.4411
 9227SOL    HW139143   1.902   3.195   4.028  0.0068  0.2158 -1.5082
 9227SOL    HW239144   1.841   3.068   4.075  0.5571 -0.9710 -0.9209
 9228SOL     OW39145   4.056   1.956   5.725 -0.2317 -0.3590  0.4291
 9228SOL    HW139146   4.085   1.941   5.815 -0.3142 -2.0505  0.1754
 9228SOL    HW239147   4.134   1.996   5.688 -0.6202 -0.2050 -0.2278
 9229SOL     OW39148   1.120   2.773   2.206 -0.0735 -0.0138  0.4021
 9229SOL    HW139149   1.042   2.822   2.232 -0.9614 -0.5327 -1.2804
 9229SOL    HW239150   1.079   2.695   2.170  1.0724  0.6775 -2.4315
 9230SOL     OW39151   3.112   1.311   1.462  0.0042 -0.4282 -0.2276
 9230SOL    HW139152   3.079   1.249   1.527  0.4905 -1.7183 -1.2135
 9230SOL    HW239153   3.047   1.290   1.395 -0.3403  0.9908 -0.3179
 9231SOL     OW39154   3.830   1.938   9.087  0.1384 -0.1805  0.6053
 9231SOL    HW139155   3.889   1.968   9.156 -1.2993  0.4067  1.5711
 9231SOL    HW239156   3.742   1.954   9.121 -0.0937 -0.4068  0.1194
 9232SOL     OW39157   1.897   3.481  17.270 -0.5845  0.7253 -0.4201
 9232SOL    HW139158   1.842   3.511  17.197 -0.6822 -0.1119 -0.6964
 9232SOL    HW239159   1.981   3.468  17.225 -1.4468  0.5214 -1.9608
 9233SOL     OW39160   1.058   1.391  13.135  0.4191 -0.0883  0.2962
 9233SOL    HW139161   1.106   1.309  13.141  1.2896  0.5022  1.3464
 9233SOL    HW239162   0.977   1.354  13.100 -0.6246  3.1480 -0.7138
 9234SOL     OW39163   2.459   2.945   2.875  0.0953 -0.1781  0.2911
 9234SOL    HW139164   2.420   2.990   2.800 -0.1705  1.8174  1.6048
 9234SOL    HW239165   2.537   2.911   2.832 -0.1891 -0.5043  0.0303
 9235SOL     OW39166   2.935   0.825   3.445 -0.4331  0.6374 -0.1893
 9235SOL    HW139167   3.022   0.788   3.461 -0.6568 -0.1500 -0.8311
 9235SOL    HW239168   2.887   0.754   3.402  1.6760 -1.6820  1.3068
 9236SOL     OW39169   1.769   2.489   2.363  0.0860  0.0997 -0.2215
 9236SOL    HW139170   1.705   2.422   2.340  0.9385  0.0241 -2.3436
 9236SOL    HW239171   1.790   2.454   2.450  1.3952 -1.0619 -1.0033
 9237SOL     OW39172   3.535   2.531   7.520  0.0592  0.6943 -0.3457
 9237SOL    HW139173   3.509   2.531   7.612 -0.1753 -0.0198 -0.4100
 9237SOL    HW239174   3.624   2.566   7.517  0.0275  0.7104 -1.4308
 9238SOL     OW39175   1.954   0.986   6.791  0.0049  0.6289 -0.4667
 9238SOL    HW139176   1.961   1.040   6.870  1.4917 -0.2374 -0.0042
 9238SOL    HW239177   1.861   0.966   6.786  0.0197  0.8817 -1.8029
 9239SOL     OW39178   1.028   1.985  15.344 -0.3726 -0.7297  0.0070
 9239SOL    HW139179   1.093   2.055  15.350 -0.0162 -0.7728 -3.1893
 9239SOL    HW239180   0.957   2.014  15.402  0.9655  1.0792  0.7183
 9240SOL     OW39181   1.627   1.552  12.665 -0.1081 -0.1883 -0.0727
 9240SOL    HW139182   1.717   1.585  12.668  0.0722 -0.7719  0.7534
 9240SOL    HW239183   1.589   1.611  12.730  1.1265  0.5824 -0.0603
 9241SOL     OW39184   3.715   2.117   7.183 -0.4847 -0.8139 -0.5083
 9241SOL    HW139185   3.776   2.056   7.142 -1.6623 -1.5142 -1.2193
 9241SOL    HW239186   3.685   2.069   7.260  2.2644  0.5462  1.4364
 9242SOL     OW39187   2.269   1.036  13.226  0.2374 -0.5911  0.6485
 9242SOL    HW139188   2.357   1.067  13.205  0.2109 -0.5854  0.5416
 9242SOL    HW239189   2.307   0.969  13.281  0.3616 -0.3296  0.8790
 9243SOL     OW39190   4.285   0.216   0.853 -0.1325  0.3240  0.0312
 9243SOL    HW139191   4.202   0.192   0.813  1.2488 -1.1801 -1.9416
 9243SOL    HW239192   4.321   0.269   0.782  2.2999 -0.2215  0.8629
 9244SOL     OW39193   4.183   4.104   0.024 -0.1208  0.1180  0.0816
 9244SOL    HW139194   4.167   4.013   0.051  1.3026  0.4273  1.9461
 9244SOL    HW239195   4.185   4.089  17.611 -0.1578 -1.8327  0.3824
 9245SOL     OW39196   3.679   0.845   4.820  0.1709  0.0747  0.5423
 9245SOL    HW139197   3.646   0.933   4.801 -1.3868 -0.7297 -0.4489
 9245SOL    HW239198   3.623   0.808   4.888  0.3637 -0.3807  0.4535
 9246SOL     OW39199   3.168   4.123   7.924  0.5157  0.3161 -0.2822
 9246SOL    HW139200   3.125   4.136   8.009  0.8245  0.8872 -0.2133
 9246SOL    HW239201   3.261   4.125   7.947  0.5790 -0.3190 -0.4961
 9247SOL     OW39202   2.792   3.917  13.229 -0.6914 -0.0048  0.0320
 9247SOL    HW139203   2.732   3.922  13.304 -1.2062 -2.1490 -0.2269
 9247SOL    HW239204   2.741   3.880  13.157  0.2072  1.3262 -1.2842
 9248SOL     OW39205   3.953   1.692   5.110  0.0550  0.3652  0.1462
 9248SOL    HW139206   4.048   1.690   5.096 -0.2361 -0.1299 -1.8150
 9248SOL    HW239207   3.946   1.750   5.186 -0.6519  1.2493 -0.5994
 9249SOL     OW39208   2.868   3.443   7.252  0.3141  0.2308  0.0033
 9249SOL    HW139209   2.836   3.454   7.342 -2.8911 -1.2069 -0.9594
 9249SOL    HW239210   2.924   3.519   7.240 -1.4509  1.2420 -1.7528
 9250SOL     OW39211   2.238   3.004  11.189 -0.2524  0.1633 -0.2279
 9250SOL    HW139212   2.279   3.037  11.269  0.8676  0.7275 -1.0353
 9250SOL    HW239213   2.249   2.909  11.198  1.2848  0.3045 -0.6454
 9251SOL     OW39214   1.500   1.020   6.355  0.0728 -0.2549  0.2872
 9251SOL    HW139215   1.556   1.086   6.396  1.8948 -2.4943  1.3357
 9251SOL    HW239216   1.555   0.948   6.325 -1.5898 -0.6737 -1.8355
 9252SOL     OW39217   4.625   3.849   5.284  0.7256  0.2885 -0.3375
 9252SOL    HW139218   4.664   3.798   5.213  3.0655  0.8601  0.5220
 9252SOL    HW239219   4.688   3.921   5.293 -0.7766  1.1385  3.2292
 9253SOL     OW39220   3.871   0.354   3.510 -0.0888  0.6881 -0.0446
 9253SOL    HW139221   3.873   0.353   3.414 -2.8198  0.5969 -0.1061
 9253SOL    HW239222   3.832   0.434   3.544 -1.7476 -0.0615 -0.1678
 9254SOL     OW39223   4.212   4.541  15.356 -0.0226  0.1859 -0.1796
 9254SOL    HW139224   4.143   4.538  15.422 -1.7292 -2.5889 -2.1149
 9254SOL    HW239225   4.283   4.587  15.400  2.6044 -3.3216 -0.7851
 9255SOL     OW39226   3.011   0.266   7.519  0.1998  0.5289  0.0751
 9255SOL    HW139227   3.010   0.236   7.610  0.6546 -2.4214 -0.8942
 9255SOL    HW239228   3.069   0.195   7.492 -1.8525 -1.9738  2.1654
 9256SOL     OW39229   0.355   0.562   8.493  0.1359  0.0090  0.4584
 9256SOL    HW139230   0.417   0.582   8.563 -0.3007 -1.0199  1.1378
 9256SOL    HW239231   0.276   0.588   8.540  0.2758  3.3307 -1.1902
 9257SOL     OW39232   3.466   1.770   7.060 -0.7119 -0.4006  0.4034
 9257SOL    HW139233   3.465   1.807   6.971  0.4459 -2.5295 -0.5005
 9257SOL    HW239234   3.424   1.838   7.112  0.4082 -0.7231  1.7134
 9258SOL     OW39235   1.342   3.317  17.492 -0.3040 -0.6331 -0.0772
 9258SOL    HW139236   1.265   3.366  17.522 -1.7387 -0.1935 -4.3688
 9258SOL    HW239237   1.370   3.289  17.579  2.8463  1.1230 -0.5380
 9259SOL     OW39238   1.983   1.609   0.471  0.0976  0.6529 -0.5323
 9259SOL    HW139239   2.026   1.524   0.477 -2.6264 -0.6311  0.5483
 9259SOL    HW239240   2.051   1.665   0.510  1.1257 -1.9990  1.4600
 9260SOL     OW39241   1.862   4.027   6.487 -0.2861  0.7071  0.5066
 9260SOL    HW139242   1.767   4.028   6.503 -0.7746 -0.3471 -2.3641
 9260SOL    HW239243   1.867   3.959   6.421  0.0792  0.5745  0.6719
 9261SOL     OW39244   3.607   1.649   9.675  0.3245 -0.3232 -0.0777
 9261SOL    HW139245   3.548   1.579   9.701 -1.3534  1.2564  0.3597
 9261SOL    HW239246   3.589   1.713   9.744  0.3002  0.3728 -0.7190
 9262SOL     OW39247   0.900   3.273   6.318  0.2157 -0.0590  0.4275
 9262SOL    HW139248   0.904   3.314   6.405  1.4187  1.7028 -0.4639
 9262SOL    HW239249   0.938   3.345   6.267 -0.9563  1.0241  1.0797
 9263SOL     OW39250   0.907   1.197   2.047  0.3621  0.4223 -0.5729
 9263SOL    HW139251   0.957   1.239   2.117  0.8801  1.8613 -1.8093
 9263SOL    HW239252   0.848   1.140   2.097  0.3677  2.1534  1.4216
 9264SOL     OW39253   4.371   2.521   5.545  0.1587 -0.4755 -0.0877
 9264SOL    HW139254   4.302   2.584   5.525 -2.2024 -2.2987  2.4115
 9264SOL    HW239255   4.314   2.461   5.592  2.1899 -0.6467  2.1562
 9265SOL     OW39256   3.565   2.718   0.480  0.1128 -1.0533  0.6306
 9265SOL    HW139257   3.530   2.750   0.397  2.7924  0.5526  0.1080
 9265SOL    HW239258   3.495   2.734   0.544  1.0979 -0.0983  1.4799
 9266SOL     OW39259   2.265   3.516   9.069  0.4935 -0.0512 -0.4656
 9266SOL    HW139260   2.229   3.558   8.991 -3.0568 -0.4299  0.9766
 9266SOL    HW239261   2.326   3.584   9.097  0.1695 -0.9641  2.4278
 9267SOL     OW39262   0.032   1.737   6.711 -0.3170  0.0447  0.3907
 9267SOL    HW139263   4.658   1.759   6.708 -0.0949  0.9681  0.2729
 9267SOL    HW239264   0.063   1.804   6.772  1.5651  0.1686 -0.7342
 9268SOL     OW39265   3.873   1.006  13.215  0.2478  0.2015 -0.1842
 9268SOL    HW139266   3.803   1.060  13.176  0.4941 -0.7380 -1.9246
 9268SOL    HW239267   3.862   1.028  13.307 -1.3433 -2.1926  0.1935
 9269SOL     OW39268   2.824   0.752  14.172  0.1506 -0.2122 -0.6556
 9269SOL    HW139269   2.917   0.741  14.154  0.3975 -0.3027  0.6955
 9269SOL    HW239270   2.823   0.765  14.266  0.2406 -1.9017 -0.4247
 9270SOL     OW39271   4.217   0.158  10.056  0.1844  0.1824 -0.3497
 9270SOL    HW139272   4.307   0.176  10.083  0.5065 -1.7809 -0.1823
 9270SOL    HW239273   4.213   0.194   9.968 -1.5385 -1.2276 -0.8412
 9271SOL     OW39274   1.779   4.446  17.027  0.5991  0.3671  0.3138
 9271SOL    HW139275   1.825   4.527  17.004  0.2052  0.6498  0.5297
 9271SOL    HW239276   1.688   4.474  17.033  0.3412 -0.1272 -1.4163
 9272SOL     OW39277   3.592   2.450   1.393  0.0668 -0.1553  0.1949
 9272SOL    HW139278   3.580   2.394   1.316 -2.3002 -0.7073  0.9418
 9272SOL    HW239279   3.677   2.422   1.426  1.2610  0.4042 -2.4482
 9273SOL     OW39280   1.895   4.020   9.475 -0.5986  0.4707 -0.4077
 9273SOL    HW139281   1.833   4.091   9.492 -2.1527 -0.7541 -0.9977
 9273SOL    HW239282   1.933   4.052   9.393  1.3859  0.9170  0.6842
 9274SOL     OW39283   1.558   3.774  11.178  0.0587  0.1020 -0.3156
 9274SOL    HW139284   1.490   3.839  11.195 -1.0515 -0.6813 -1.7746
 9274SOL    HW239285   1.577   3.744  11.266  1.5993  0.4622 -0.5200
 9275SOL     OW39286   2.806   3.549   4.018 -0.1198 -0.0577  0.6938
 9275SOL    HW139287   2.786   3.572   3.927  0.2043 -0.1356  0.6015
 9275SOL    HW239288   2.901   3.551   4.033 -0.1147 -0.7109  0.7503
 9276SOL     OW39289   0.129   0.063   4.180 -0.0221  0.3210 -0.9008
 9276SOL    HW139290   0.208   0.011   4.193 -0.2009  0.0375 -0.9366
 9276SOL    HW239291   0.153   0.155   4.192 -0.7400  0.5529 -1.2128
 9277SOL     OW39292   2.789   1.290   5.264 -0.3757  0.2860  0.4318
 9277SOL    HW139293   2.847   1.265   5.336 -2.9843 -3.1357  1.3714
 9277SOL    HW239294   2.772   1.379   5.295  3.0078  0.1928  2.5233
 9278SOL     OW39295   1.223   1.158   9.752  0.2515  0.1945  0.3450
 9278SOL    HW139296   1.160   1.219   9.791 -2.6392 -2.5907  0.0207
 9278SOL    HW239297   1.210   1.080   9.806 -1.2867  1.0024  1.1466
 9279SOL     OW39298   1.364   1.022   2.367  0.0892 -0.4863 -0.6572
 9279SOL    HW139299   1.445   1.002   2.413  0.8236 -0.3758 -1.9255
 9279SOL    HW239300   1.297   0.989   2.428  0.8276 -0.8888 -0.0751
 9280SOL     OW39301   1.734   1.477   1.763  0.2879 -0.0945  0.5416
 9280SOL    HW139302   1.783   1.441   1.689 -0.7170 -1.9316  0.7598
 9280SOL    HW239303   1.791   1.449   1.835  0.5476  1.0270  0.7637
 9281SOL     OW39304   4.460   2.337   4.741 -0.1084  0.2943  0.1928
 9281SOL    HW139305   4.417   2.255   4.717 -1.2262  1.3195 -1.3292
 9281SOL    HW239306   4.547   2.336   4.703 -0.6253 -0.0405 -0.9637
 9282SOL     OW39307   4.067   2.142  17.436  0.3839 -0.1203  0.2583
 9282SOL    HW139308   4.015   2.170  17.360 -0.5223 -0.5192  0.7372
 9282SOL    HW239309   4.032   2.054  17.453  1.1257 -0.1313  1.6908
 9283SOL     OW39310   3.174   0.858   4.595  0.6563  0.0576  0.1499
 9283SOL    HW139311   3.202   0.775   4.556 -0.8635 -0.7777  0.8305
 9283SOL    HW239312   3.244   0.920   4.575  0.2953  0.7172  0.9329
 9284SOL     OW39313   1.247   4.363   6.435 -0.2387  0.2967  0.1725
 9284SOL    HW139314   1.251   4.458   6.423  3.4429  0.1047 -0.0405
 9284SOL    HW239315   1.232   4.341   6.343  0.4443 -1.5122  0.5052
 9285SOL     OW39316   0.273   3.357   7.373  0.1506 -0.2643 -0.1612
 9285SOL    HW139317   0.202   3.421   7.371  0.4627  0.0490 -1.8163
 9285SOL    HW239318   0.344   3.394   7.321  1.1038 -0.2591  1.1638
 9286SOL     OW39319   4.163   2.232   1.794  0.8033 -0.0020  0.1229
 9286SOL    HW139320   4.079   2.225   1.838  0.7068  1.5725  0.1960
 9286SOL    HW239321   4.155   2.170   1.722  2.1169  2.4876 -2.1552
 9287SOL     OW39322   0.201   2.861   0.969 -0.7155  0.3761 -0.4884
 9287SOL    HW139323   0.146   2.820   1.035 -2.8217  2.5365 -0.8922
 9287SOL    HW239324   0.256   2.921   1.019 -1.0978 -0.2087  0.6279
 9288SOL     OW39325   0.211   4.390  16.248  0.1099  0.1746  0.1946
 9288SOL    HW139326   0.170   4.432  16.172  0.8113  2.5905  1.1534
 9288SOL    HW239327   0.189   4.454  16.316 -1.8774 -0.5241  0.2100
 9289SOL     OW39328   1.784   4.222   3.012  0.1023  0.1705  0.7350
 9289SOL    HW139329   1.804   4.316   3.016  0.4625  0.1030  0.4074
 9289SOL    HW239330   1.835   4.174   3.077  0.8721 -0.5299 -0.3915
 9290SOL     OW39331   1.369   1.695   4.369 -0.5086 -0.2385  0.5999
 9290SOL    HW139332   1.328   1.778   4.394  0.8107  1.2067 -2.0044
 9290SOL    HW239333   1.422   1.718   4.292 -0.8549  2.0035  1.0200
 9291SOL     OW39334   1.608   2.656   6.794 -0.1643 -0.6481 -0.0655
 9291SOL    HW139335   1.677   2.709   6.834 -0.1680 -0.8328  0.1907
 9291SOL    HW239336   1.609   2.673   6.700 -0.3081 -2.4268 -0.3863
 9292SOL     OW39337   2.379   2.567   9.497  0.1485 -0.4721  0.2065
 9292SOL    HW139338   2.419   2.491   9.453  0.7974  1.5301 -2.6537
 9292SOL    HW239339   2.289   2.563   9.463  1.5681  1.1099 -3.6991
 9293SOL     OW39340   3.221   2.271   1.673 -0.2436  0.4989 -0.2069
 9293SOL    HW139341   3.261   2.325   1.741 -2.6928  0.7027  1.0678
 9293SOL    HW239342   3.275   2.299   1.598  1.1488 -0.2793  0.5078
 9294SOL     OW39343   2.623   3.769  10.115  0.5484 -0.1786  0.0601
 9294SOL    HW139344   2.632   3.752  10.209  2.4211 -1.0729 -0.2918
 9294SOL    HW239345   2.561   3.700  10.090 -1.1208  2.3965 -2.8640
 9295SOL     OW39346   3.087   2.212   2.793  0.3236  0.2438 -0.2004
 9295SOL    HW139347   3.077   2.171   2.707 -2.3086  0.8258 -0.1707
 9295SOL    HW239348   3.154   2.275   2.768  0.1409  1.9269  3.4742
 9296SOL     OW39349   2.433   3.463   1.645  0.3156  0.2105 -0.0823
 9296SOL    HW139350   2.409   3.555   1.659  1.1565  0.3627  0.3630
 9296SOL    HW239351   2.528   3.466   1.642  0.2862  1.4807  0.2131
 9297SOL     OW39352   3.288   4.249   1.497 -0.3816 -0.6380 -0.0524
 9297SOL    HW139353   3.322   4.284   1.415  0.6024 -2.0009 -0.2329
 9297SOL    HW239354   3.365   4.217   1.544 -1.8844 -0.5697  2.4681
 9298SOL     OW39355   2.523   1.246   6.920  1.0730 -0.2727 -0.2489
 9298SOL    HW139356   2.458   1.221   6.986  2.5087 -0.8100  0.9578
 9298SOL    HW239357   2.572   1.163   6.914  0.7955 -0.6221  2.2494
 9299SOL     OW39358   2.975   3.644   8.789 -0.1042  0.0132  0.0705
 9299SOL    HW139359   3.017   3.559   8.777 -0.3184  0.1708 -1.7654
 9299SOL    HW239360   2.895   3.633   8.738  0.2125  0.4469 -0.5165
 9300SOL     OW39361   4.064   0.828  13.801  0.2934 -0.5162 -0.0902
 9300SOL    HW139362   4.148   0.786  13.821  1.3557  0.9632 -1.4333
 9300SOL    HW239363   4.052   0.787  13.716 -0.8116  3.2861 -1.7739
 9301SOL     OW39364   4.716   0.025   1.014  0.3438 -0.3082 -0.0490
 9301SOL    HW139365   0.067   4.688   1.046 -0.3082 -1.6643 -0.9954
 9301SOL    HW239366   0.018   0.111   1.048  2.6327 -0.3040 -1.4924
 9302SOL     OW39367   0.128   2.638  12.726  0.3180 -0.1009  0.8009
 9302SOL    HW139368   0.149   2.625  12.633 -0.2017  0.1410  0.6483
 9302SOL    HW239369   0.158   2.562  12.776 -4.2475 -1.2628  1.7097
 9303SOL     OW39370   0.758   2.711   3.022  0.4077 -0.0461 -0.2687
 9303SOL    HW139371   0.726   2.632   2.978  0.1058  0.5014 -1.0374
 9303SOL    HW239372   0.853   2.706   3.011  0.3732  1.6208 -1.2754
 9304SOL     OW39373   0.952   2.767  10.062 -0.8176 -0.0237 -0.2439
 9304SOL    HW139374   0.927   2.675  10.054 -0.5135 -0.0278 -1.1662
 9304SOL    HW239375   0.978   2.776   9.970  1.6643 -0.4010  0.4282
 9305SOL     OW39376   0.861   0.478   9.173 -0.3370 -0.0716  0.4406
 9305SOL    HW139377   0.821   0.564   9.188 -0.0803  0.2154 -0.4540
 9305SOL    HW239378   0.938   0.490   9.116 -0.7364 -0.5123 -0.1971
 9306SOL     OW39379   0.282   2.242   5.329 -0.3680  0.4089  0.3344
 9306SOL    HW139380   0.357   2.195   5.293 -2.1719 -0.7660 -1.9078
 9306SOL    HW239381   0.223   2.260   5.255 -1.2359 -2.5268  0.2993
 9307SOL     OW39382   2.749   4.518  11.299  0.2832  0.7660 -0.0661
 9307SOL    HW139383   2.826   4.483  11.344  1.7481  2.2324 -1.4481
 9307SOL    HW239384   2.700   4.440  11.274  0.0967  0.6702  0.5950
 9308SOL     OW39385   0.897   4.705   3.381 -0.5760 -0.3627  0.1221
 9308SOL    HW139386   0.956   4.688   3.307  1.0939  0.2625  1.3222
 9308SOL    HW239387   0.846   0.054   3.338 -1.1482 -1.6472 -1.2459
 9309SOL     OW39388   3.048   3.748   8.476  0.1688 -0.4086  0.2192
 9309SOL    HW139389   3.105   3.673   8.496  0.1345 -0.9503 -1.7821
 9309SOL    HW239390   3.099   3.829   8.466 -0.4827 -0.4983 -3.6884
 9310SOL     OW39391   0.192   0.311   3.910  0.0631 -0.3294  0.5023
 9310SOL    HW139392   0.286   0.324   3.895 -0.4503  3.1856  0.3844
 9310SOL    HW239393   0.198   0.297   4.005 -1.9527  0.5204  0.7672
 9311SOL     OW39394   4.525   4.442   3.794  0.4904  0.0261  0.4991
 9311SOL    HW139395   4.538   4.358   3.751 -3.0463 -0.6699  0.7709
 9311SOL    HW239396   4.513   4.495   3.716 -1.7436 -1.7165 -0.3325
 9312SOL     OW39397   0.337   4.410   5.434  0.1674  0.1496  0.6868
 9312SOL    HW139398   0.336   4.503   5.457 -0.0574  0.2703  0.1838
 9312SOL    HW239399   0.243   4.394   5.442 -0.2616  2.2444 -0.1276
 9313SOL     OW39400   4.420   3.465  16.436  0.4607 -0.8157  0.0522
 9313SOL    HW139401   4.480   3.491  16.506  0.9498  0.2298 -0.7733
 9313SOL    HW239402   4.356   3.421  16.492 -0.3130 -0.5505 -0.6378
 9314SOL     OW39403   1.874   0.136   5.455 -0.0197  0.1842 -0.6519
 9314SOL    HW139404   1.912   0.193   5.387  2.0275 -1.2193 -0.6736
 9314SOL    HW239405   1.871   0.202   5.524  0.8788 -0.6394  0.1591
 9315SOL     OW39406   3.010   1.450   6.360 -0.0692  0.6751  0.2141
 9315SOL    HW139407   3.099   1.415   6.358 -0.3883 -0.0430 -1.4451
 9315SOL    HW239408   2.961   1.413   6.286 -1.3431 -0.8721  1.8260
 9316SOL     OW39409   0.736   2.058   8.619 -0.0443  0.0585  0.2645
 9316SOL    HW139410   0.666   2.042   8.555 -1.0375  1.3054  1.0322
 9316SOL    HW239411   0.674   2.079   8.688  1.1733 -1.6055  1.8630
 9317SOL     OW39412   1.263   3.133  10.276  0.8722 -0.2893  0.3290
 9317SOL    HW139413   1.216   3.216  10.271  1.1515 -0.1070  0.7318
 9317SOL    HW239414   1.279   3.134  10.371 -0.7823 -1.3018  0.6324
 9318SOL     OW39415   3.415   2.998   2.095  0.2134 -0.4925  0.1165
 9318SOL    HW139416   3.443   3.034   2.011  2.1298  1.6065  1.6734
 9318SOL    HW239417   3.504   2.977   2.123  1.2129  2.2544 -0.9270
 9319SOL     OW39418   3.741   3.326   6.826 -0.1494  0.2151  0.0371
 9319SOL    HW139419   3.705   3.322   6.915  1.4422 -3.1812  0.5071
 9319SOL    HW239420   3.805   3.256   6.836 -0.2973 -0.4584 -4.1456
 9320SOL     OW39421   3.495   1.914   8.911 -0.6852  0.3454 -0.6938
 9320SOL    HW139422   3.498   1.900   8.816  0.5638 -1.4664 -0.3875
 9320SOL    HW239423   3.554   1.843   8.937 -0.9664  0.4854  0.3139
 9321SOL     OW39424   4.392   0.979   5.589  0.1358 -0.1885  0.0420
 9321SOL    HW139425   4.431   1.056   5.631  0.8349 -0.2251 -0.5414
 9321SOL    HW239426   4.374   0.935   5.672  2.4982 -1.0087  0.1242
 9322SOL     OW39427   0.799   1.053  12.251 -0.2481  0.0282  0.3603
 9322SOL    HW139428   0.883   1.039  12.294  0.7558 -0.5614 -1.7772
 9322SOL    HW239429   0.822   1.139  12.216 -0.9709 -0.1580 -0.5966
 9323SOL     OW39430   4.703   2.989  11.096 -0.2219  0.5122 -0.1024
 9323SOL    HW139431   4.607   2.987  11.092 -0.2642  0.7969  0.8137
 9323SOL    HW239432   0.007   3.037  11.016  0.9969 -0.6027 -0.4006
 9324SOL     OW39433   2.682   3.887  16.659  0.0698 -0.0635  0.1814
 9324SOL    HW139434   2.747   3.817  16.658 -2.6226 -2.5922  0.9152
 9324SOL    HW239435   2.652   3.888  16.569 -0.6433 -3.1852  0.3760
 9325SOL     OW39436   3.251   3.415   7.269  0.3133  0.2982  0.3945
 9325SOL    HW139437   3.316   3.346   7.280  1.2853  1.0085 -0.9798
 9325SOL    HW239438   3.248   3.429   7.364 -0.0874  2.8422  0.0155
 9326SOL     OW39439   0.013   4.465  13.622  0.8804  0.6813  0.0915
 9326SOL    HW139440   0.006   4.529  13.552 -0.6492  0.0487 -0.3384
 9326SOL    HW239441   4.694   4.510  13.697  1.5187 -0.4716  1.1253
 9327SOL     OW39442   3.374   2.251   7.726  0.1300 -0.4875 -0.1702
 9327SOL    HW139443   3.408   2.340   7.731  0.0058 -0.5008  0.7792
 9327SOL    HW239444   3.356   2.222   7.815  0.4374  0.3434  0.1679
 9328SOL     OW39445   2.648   3.645  15.622 -0.1425 -0.2129 -0.2991
 9328SOL    HW139446   2.581   3.597  15.573  0.0288  0.2226 -0.9673
 9328SOL    HW239447   2.610   3.730  15.646 -0.8369  0.0183 -2.2355
 9329SOL     OW39448   4.503   2.821  13.354 -0.0215  0.3330 -0.3467
 9329SOL    HW139449   4.418   2.788  13.329  1.4428 -1.3323 -3.0302
 9329SOL    HW239450   4.530   2.756  13.419 -2.2121  0.4831  0.6923
 9330SOL     OW39451   1.355   3.952   6.514  0.2068  0.5436 -0.1849
 9330SOL    HW139452   1.282   4.002   6.477 -0.4659 -0.0184  0.3683
 9330SOL    HW239453   1.324   3.869   6.476  1.2960 -0.6402  1.5074
 9331SOL     OW39454   4.563   2.284   1.699  0.1394 -0.2063  0.1451
 9331SOL    HW139455   4.505   2.286   1.623  0.7687  3.2720 -0.2331
 9331SOL    HW239456   4.508   2.232   1.757  2.3937 -1.0201  1.5366
 9332SOL     OW39457   1.211   0.753   3.116 -0.6092  0.4329  0.4239
 9332SOL    HW139458   1.250   0.761   3.029  1.5085  0.6067  1.3796
 9332SOL    HW239459   1.175   0.664   3.108  2.3701 -0.5893 -1.5949
 9333SOL     OW39460   0.110   3.823   0.861  0.6703 -0.0105  0.1809
 9333SOL    HW139461   0.139   3.911   0.836  2.3671 -0.8598 -0.8967
 9333SOL    HW239462   0.163   3.761   0.811  1.7951  1.7217 -0.7931
 9334SOL     OW39463   4.009   2.856   8.064 -0.1805 -0.1326  0.3771
 9334SOL    HW139464   3.966   2.774   8.089  1.1659 -0.9219  0.1049
 9334SOL    HW239465   4.098   2.825   8.079  0.2396  1.0627  0.3565
 9335SOL     OW39466   3.981   4.433   6.312 -0.7915  0.0460  0.6871
 9335SOL    HW139467   4.001   4.478   6.230 -2.1051 -2.4144 -0.9873
 9335SOL    HW239468   4.021   4.497   6.371  0.6248 -1.1777  1.0642
 9336SOL     OW39469   2.136   1.047   3.938 -0.3481 -0.4045  0.0391
 9336SOL    HW139470   2.068   1.032   4.004 -0.8107  0.9075 -0.1371
 9336SOL    HW239471   2.089   1.059   3.856 -0.9103 -0.2347  0.3851
 9337SOL     OW39472   2.289   1.071   0.659 -0.2441  0.3521  0.1356
 9337SOL    HW139473   2.304   0.977   0.646  0.2030  0.4759 -0.2294
 9337SOL    HW239474   2.374   1.108   0.637 -0.6775  1.7657  0.8633
 9338SOL     OW39475   2.495   4.388  16.907 -0.2301 -0.6590  0.5367
 9338SOL    HW139476   2.510   4.443  16.984 -2.9368 -0.8891  1.2419
 9338SOL    HW239477   2.493   4.463  16.848  0.6482  0.4215  1.8713
 9339SOL     OW39478   2.686   4.348  15.379  0.0828  0.0995  0.3097
 9339SOL    HW139479   2.697   4.257  15.350  1.0818 -0.0312  1.0811
 9339SOL    HW239480   2.776   4.367  15.404  0.1250 -0.9334  0.9363
 9340SOL     OW39481   4.590   3.942   8.205  0.3109  1.2747 -0.2476
 9340SOL    HW139482   4.518   4.002   8.187 -0.5096  1.6727  4.3504
 9340SOL    HW239483   4.648   4.005   8.248  1.2036 -1.0191  1.9133
 9341SOL     OW39484   2.001   0.206  15.003 -0.3431 -0.0424  0.2193
 9341SOL    HW139485   1.976   0.222  15.094 -0.5098 -1.0748  0.3471
 9341SOL    HW239486   2.025   0.114  15.007  0.4090  0.1493  0.2010
 9342SOL     OW39487   4.101   4.649   6.098 -0.9617  0.5168  0.3240
 9342SOL    HW139488   4.115   0.022   6.084  3.4944 -0.4137 -1.1539
 9342SOL    HW239489   4.194   4.626   6.094 -0.6776  2.0260 -1.4678
 9343SOL     OW39490   2.599   2.144   4.990  0.0324  0.6890  0.0540
 9343SOL    HW139491   2.687   2.157   5.027  0.4873  0.3451 -0.9060
 9343SOL    HW239492   2.540   2.161   5.063  1.4859  0.1398  1.3641
 9344SOL     OW39493   1.003   2.666   3.771  0.1903 -0.1924  0.4725
 9344SOL    HW139494   0.957   2.590   3.735 -1.3518  1.3521 -0.8231
 9344SOL    HW239495   0.948   2.735   3.735  0.7797  0.2538  0.4369
 9345SOL     OW39496   3.905   0.784   3.997  0.2706 -0.0047  0.2510
 9345SOL    HW139497   3.854   0.703   3.989 -0.5484  0.5457 -0.1045
 9345SOL    HW239498   3.895   0.820   3.909  0.8091 -0.3703  0.0415
 9346SOL     OW39499   4.645   1.375   0.352  0.0912  0.1810  0.1296
 9346SOL    HW139500   4.610   1.438   0.416  1.9023  0.8992  0.4240
 9346SOL    HW239501   4.597   1.300   0.386  0.0973  0.8130  1.5258
 9347SOL     OW39502   4.322   3.837   8.263  0.3219  0.4417 -0.8895
 9347SOL    HW139503   4.278   3.899   8.320 -0.8328 -0.6301 -0.6134
 9347SOL    HW239504   4.257   3.824   8.194 -0.5879 -0.4574  0.1502
 9348SOL     OW39505   0.717   1.379   4.853  0.8378  0.0718 -0.5849
 9348SOL    HW139506   0.760   1.308   4.902 -0.3456  0.3504  0.8370
 9348SOL    HW239507   0.664   1.333   4.788 -1.3970  0.9372  0.6225
 9349SOL     OW39508   2.521   4.716   5.235 -0.3627  0.5457  0.3640
 9349SOL    HW139509   2.473   4.648   5.188  0.1050 -0.6041  1.5502
 9349SOL    HW239510   2.467   0.028   5.308 -0.0121  1.4159  0.2479
 9350SOL     OW39511   1.189   0.344   8.702  0.1085 -0.5219  0.8429
 9350SOL    HW139512   1.283   0.351   8.685 -0.2031  1.0275 -0.3499
 9350SOL    HW239513   1.181   0.347   8.797  1.1853  2.3553  0.8475
 9351SOL     OW39514   1.864   4.332   8.996  0.2091  0.6527 -0.3564
 9351SOL    HW139515   1.873   4.285   9.079 -1.2621  0.5129 -0.2741
 9351SOL    HW239516   1.828   4.271   8.932  1.2252 -0.8167  0.4752
 9352SOL     OW39517   1.755   4.518   6.104 -0.0533 -0.1454  0.4193
 9352SOL    HW139518   1.800   4.448   6.058 -1.1995 -0.5898 -0.0414
 9352SOL    HW239519   1.822   4.576   6.140  0.6650 -0.3465 -0.6070
 9353SOL     OW39520   0.527   3.254   8.739 -0.2110  0.2890 -0.6975
 9353SOL    HW139521   0.556   3.270   8.828  0.9435 -0.5458 -0.9264
 9353SOL    HW239522   0.458   3.320   8.733  1.2906  1.8168 -1.1434
 9354SOL     OW39523   1.503   2.444   0.034  0.5446  0.2402 -0.2606
 9354SOL    HW139524   1.479   2.537   0.028  1.3529  0.5270  1.0589
 9354SOL    HW239525   1.597   2.458   0.024  0.6213  0.4868  0.7722
 9355SOL     OW39526   4.565   4.259   4.307 -0.0556 -0.0964  0.0197
 9355SOL    HW139527   4.492   4.258   4.245 -0.6153  1.7572  0.6737
 9355SOL    HW239528   4.620   4.324   4.263 -0.5724 -0.5197 -1.2453
 9356SOL     OW39529   4.064   1.534   3.479  0.3649  0.5578 -0.6500
 9356SOL    HW139530   4.149   1.513   3.516  1.0735  0.5946 -2.2554
 9356SOL    HW239531   4.049   1.616   3.527  0.5213  0.1490  0.0951
 9357SOL     OW39532   1.159   2.996   6.442  0.1167  0.2652  0.1295
 9357SOL    HW139533   1.182   2.996   6.349  0.9695 -1.8776  0.3282
 9357SOL    HW239534   1.234   2.944   6.471 -0.2504 -0.5032 -0.2952
 9358SOL     OW39535   2.467   2.396   3.821 -0.1294 -0.4975 -0.5802
 9358SOL    HW139536   2.532   2.444   3.873  0.1435 -0.9921 -0.4655
 9358SOL    HW239537   2.389   2.388   3.876  0.5170 -1.6001  0.1934
 9359SOL     OW39538   2.970   0.773   9.872  0.5195  0.5183  0.1759
 9359SOL    HW139539   2.929   0.758   9.957 -2.0269 -0.4300 -1.2181
 9359SOL    HW239540   2.912   0.838   9.831  1.1023  1.5457  0.9727
 9360SOL     OW39541   2.231   2.116   2.211  0.1420 -0.6644 -0.8007
 9360SOL    HW139542   2.306   2.165   2.244 -1.0355 -1.4521  3.0407
 9360SOL    HW239543   2.176   2.192   2.192  1.2884  0.8644  1.9906
 9361SOL     OW39544   3.724   3.887   2.733  0.0284  0.1804 -0.0979
 9361SOL    HW139545   3.758   3.864   2.647  0.7128  0.7980  0.0047
 9361SOL    HW239546   3.796   3.880   2.796 -0.3687  2.3919  0.6236
 9362SOL     OW39547   1.140   0.215   6.621 -0.3926 -0.1920 -0.0510
 9362SOL    HW139548   1.154   0.153   6.693 -1.8520 -0.6430 -0.1738
 9362SOL    HW239549   1.108   0.160   6.550 -0.1308 -1.4026  0.7694
 9363SOL     OW39550   2.123   2.906   4.676  0.0043  0.3030  0.6984
 9363SOL    HW139551   2.157   2.911   4.766 -1.1958 -1.6669  1.2632
 9363SOL    HW239552   2.195   2.948   4.629 -1.6138  1.4344 -0.7476
 9364SOL     OW39553   4.525   3.106  13.699 -0.3976  0.4171  0.0335
 9364SOL    HW139554   4.491   3.022  13.730  2.0860 -0.0436  1.5194
 9364SOL    HW239555   4.594   3.067  13.644 -0.5042 -1.0676  0.9419
 9365SOL     OW39556   1.479   2.313  13.051  0.7438  0.0392  0.0994
 9365SOL    HW139557   1.397   2.264  13.061  0.6143 -0.1996 -2.1232
 9365SOL    HW239558   1.440   2.392  13.013  0.0694  0.4469  1.5940
 9366SOL     OW39559   3.260   3.912   8.414 -0.1485 -0.0262 -0.2890
 9366SOL    HW139560   3.337   3.875   8.371 -0.5120  0.8287 -1.6735
 9366SOL    HW239561   3.199   3.902   8.341  1.4373 -0.1509 -1.5727
 9367SOL     OW39562   4.182   1.101   1.074 -0.4272  0.9195 -0.5702
 9367SOL    HW139563   4.193   1.122   1.167 -0.4754  2.2525 -0.8656
 9367SOL    HW239564   4.177   1.186   1.031  3.0211  1.0315 -0.8113
 9368SOL     OW39565   4.151   0.232   4.755  0.3964 -0.5481 -0.4089
 9368SOL    HW139566   4.081   0.296   4.748  1.5396  0.6999 -0.4101
 9368SOL    HW239567   4.156   0.203   4.846 -0.5262 -1.1954 -0.5725
 9369SOL     OW39568   0.208   4.176   4.498  0.2812  0.0292  0.0986
 9369SOL    HW139569   0.192   4.269   4.482 -1.3801 -0.5308 -1.5057
 9369SOL    HW239570   0.126   4.138   4.528 -0.2208  0.2397 -1.0174
 9370SOL     OW39571   3.337   3.674  16.689  0.0276  0.0788 -0.7642
 9370SOL    HW139572   3.295   3.726  16.620 -0.1791  0.3536 -0.4357
 9370SOL    HW239573   3.269   3.606  16.695 -0.0845  0.3247  0.9760
 9371SOL     OW39574   2.633   3.672   2.790 -0.3352  0.5626  0.1942
 9371SOL    HW139575   2.666   3.762   2.789 -2.2693  1.2355 -1.5010
 9371SOL    HW239576   2.711   3.620   2.773 -0.9781  0.3124 -1.9534
 9372SOL     OW39577   1.679   3.760   4.667 -0.2669  0.5098 -0.2655
 9372SOL    HW139578   1.705   3.711   4.744 -0.2743 -0.5917 -0.9707
 9372SOL    HW239579   1.611   3.815   4.707  1.2250  2.5648 -0.5381
 9373SOL     OW39580   4.408   2.738   1.824  0.2737  0.1067  0.8485
 9373SOL    HW139581   4.458   2.660   1.850  2.4617  1.3887  0.4594
 9373SOL    HW239582   4.357   2.737   1.905  0.8756 -2.0730  1.2253
 9374SOL     OW39583   0.273   3.544   8.005 -0.0726  0.6535 -0.4001
 9374SOL    HW139584   0.343   3.548   7.941 -1.2201  1.4096 -1.5934
 9374SOL    HW239585   0.311   3.495   8.078 -0.0667  1.9394  0.4541
 9375SOL     OW39586   1.581   2.193   4.399  0.5481 -0.6219  0.2846
 9375SOL    HW139587   1.565   2.252   4.325 -4.2762 -0.8361  1.1739
 9375SOL    HW239588   1.666   2.227   4.428  0.1188  1.8708 -1.3324
 9376SOL     OW39589   1.615   1.265  16.094  0.6330  0.6296 -0.3775
 9376SOL    HW139590   1.581   1.272  16.005  0.6835  1.0250 -0.3636
 9376SOL    HW239591   1.556   1.326  16.139 -0.7048 -1.4708  0.7282
 9377SOL     OW39592   0.287   2.499   7.364 -0.2063 -0.4273  0.0442
 9377SOL    HW139593   0.379   2.483   7.384  0.4336  2.2417 -0.6740
 9377SOL    HW239594   0.295   2.566   7.296 -0.7502  0.9299  1.3089
 9378SOL     OW39595   2.092   4.507   2.927 -0.2574  0.3230  0.4589
 9378SOL    HW139596   2.169   4.478   2.878 -0.1705  0.0104  0.7780
 9378SOL    HW239597   2.116   4.599   2.936 -1.0020  0.6509 -0.9734
 9379SOL     OW39598   3.568   3.011  11.442  0.9641 -0.0670 -0.1550
 9379SOL    HW139599   3.646   3.048  11.483  0.2087  0.1554  1.0710
 9379SOL    HW239600   3.589   3.027  11.350  1.7800 -0.2894 -0.0031
 9380SOL     OW39601   1.633   2.163   7.218 -0.0122  0.0642 -0.1926
 9380SOL    HW139602   1.680   2.211   7.286  1.7061  0.7261 -1.8330
 9380SOL    HW239603   1.669   2.076   7.237 -1.0554 -0.9894 -3.0129
 9381SOL     OW39604   4.635   0.549   3.452 -0.7241  0.1345  0.1366
 9381SOL    HW139605   4.595   0.618   3.398  0.6766  0.6192 -0.2791
 9381SOL    HW239606   4.566   0.561   3.517  2.5051 -1.1262  3.7643
 9382SOL     OW39607   2.519   3.434   1.983  0.0380  0.1076 -0.5148
 9382SOL    HW139608   2.541   3.393   2.066  0.9495 -0.0427 -0.8287
 9382SOL    HW239609   2.484   3.515   2.020 -1.8548 -0.7741 -0.3476
 9383SOL     OW39610   2.125   2.379   5.206  0.4632 -0.3116 -0.2512
 9383SOL    HW139611   2.189   2.349   5.270 -0.6459  1.8100  1.8279
 9383SOL    HW239612   2.137   2.319   5.132 -1.4600  0.1461 -0.9437
 9384SOL     OW39613   1.043   0.867   0.589 -0.3575 -0.5875  0.0723
 9384SOL    HW139614   0.969   0.927   0.583 -1.4616 -2.0113 -0.5177
 9384SOL    HW239615   1.093   0.901   0.663 -2.8977  0.4628  1.2857
 9385SOL     OW39616   0.714   0.952   2.424 -0.1255 -0.2174  0.8173
 9385SOL    HW139617   0.733   0.863   2.395 -0.9390  0.4280 -1.7133
 9385SOL    HW239618   0.640   0.943   2.484 -1.0934  0.9563 -0.2092
 9386SOL     OW39619   0.632   1.733   2.806 -0.4123  0.1602  0.0996
 9386SOL    HW139620   0.590   1.677   2.741 -0.1334 -0.4390  0.4391
 9386SOL    HW239621   0.570   1.727   2.879  0.7437 -0.8810  0.9994
 9387SOL     OW39622   2.154   3.770  13.948  0.2505 -0.0831 -0.8062
 9387SOL    HW139623   2.243   3.736  13.956  0.2725  0.0604 -0.4759
 9387SOL    HW239624   2.109   3.699  13.900 -1.7925 -0.8358  2.2156
 9388SOL     OW39625   1.958   0.895   8.121  0.2187  0.9026 -0.1520
 9388SOL    HW139626   2.052   0.906   8.135  0.3009  0.2930 -0.2400
 9388SOL    HW239627   1.953   0.874   8.027 -3.4070  0.3670  0.1634
 9389SOL     OW39628   2.157   2.024   6.129  0.1771  0.0305 -0.7050
 9389SOL    HW139629   2.163   2.037   6.034  0.6814  0.0796 -0.6669
 9389SOL    HW239630   2.246   1.993   6.144  0.6384  0.8686 -1.7454
 9390SOL     OW39631   0.704   4.365   8.565 -0.4766 -0.0315  0.3726
 9390SOL    HW139632   0.735   4.323   8.485  0.1597  1.2673 -0.0591
 9390SOL    HW239633   0.739   4.306   8.632  1.0644 -0.2585 -0.6391
 9391SOL     OW39634   4.462   2.652  11.013  0.0855  0.3528  0.2323
 9391SOL    HW139635   4.493   2.720  10.954 -0.8804 -0.5689 -1.3264
 9391SOL    HW239636   4.489   2.693  11.095 -0.3865 -0.6649  0.9016
 9392SOL     OW39637   2.766   2.808   2.291 -0.5921  0.1352  0.5112
 9392SOL    HW139638   2.831   2.873   2.264  0.2230 -0.5887  0.7268
 9392SOL    HW239639   2.768   2.751   2.215 -0.4169  1.9216 -0.8299
 9393SOL     OW39640   1.049   2.624  17.111 -0.1792 -0.3479  0.1801
 9393SOL    HW139641   0.987   2.606  17.181  0.6870  1.0847  1.3186
 9393SOL    HW239642   1.014   2.710  17.087 -1.0718  0.0782  3.0751
 9394SOL     OW39643   1.614   3.324  10.023 -0.0930  0.0449  0.3747
 9394SOL    HW139644   1.528   3.365  10.012  1.3605  2.7749 -0.6763
 9394SOL    HW239645   1.669   3.398  10.000  0.7766 -1.4790 -2.5253
 9395SOL     OW39646   4.336   1.001   0.699  0.2992  0.2044  0.2172
 9395SOL    HW139647   4.279   0.958   0.762  1.3706  0.8231  1.5996
 9395SOL    HW239648   4.414   1.021   0.750 -0.1020  2.3574 -0.0052
 9396SOL     OW39649   3.008   1.995   4.399  0.2388  0.5383  0.2886
 9396SOL    HW139650   3.099   2.005   4.428  0.7810 -2.4188 -0.3525
 9396SOL    HW239651   2.998   1.902   4.419  0.8899  0.8550  2.0662
 9397SOL     OW39652   3.172   0.772   3.615  0.2397  0.4386  0.0101
 9397SOL    HW139653   3.181   0.784   3.709 -2.1482  1.8156  0.0573
 9397SOL    HW239654   3.225   0.842   3.578 -0.3162  1.0933  0.4581
 9398SOL     OW39655   4.565   3.579   1.128  0.6505 -0.1501  0.3227
 9398SOL    HW139656   4.653   3.541   1.132 -0.4312 -3.0689 -3.7008
 9398SOL    HW239657   4.569   3.585   1.033 -1.0894 -0.2517  0.2532
 9399SOL     OW39658   2.501   0.529   6.320  0.1691 -0.4776  0.9631
 9399SOL    HW139659   2.438   0.585   6.274  0.2206  0.6798  2.3180
 9399SOL    HW239660   2.525   0.471   6.248 -0.8819  0.3969 -0.0854
 9400SOL     OW39661   3.835   3.096   7.243 -0.1637  0.0710  0.0708
 9400SOL    HW139662   3.761   3.090   7.304 -0.4280  0.5625 -0.1985
 9400SOL    HW239663   3.843   3.188   7.219 -1.0669  0.1376  0.0190
 9401SOL     OW39664   1.608   4.245   3.392 -0.1359 -0.2873  0.2619
 9401SOL    HW139665   1.548   4.311   3.426  0.5899  0.9139 -0.8079
 9401SOL    HW239666   1.648   4.295   3.321 -0.4840  2.0971  1.7547
 9402SOL     OW39667   2.641   2.524   3.995  0.1964 -0.0146 -0.0893
 9402SOL    HW139668   2.648   2.538   4.090  0.3663 -2.1160  0.2037
 9402SOL    HW239669   2.593   2.605   3.980  0.2399 -0.5300 -2.9102
 9403SOL     OW39670   1.983   0.111   7.713 -0.3501 -0.2178 -0.2022
 9403SOL    HW139671   1.892   0.124   7.689 -0.2208 -0.3513 -0.7571
 9403SOL    HW239672   2.006   0.204   7.719 -0.4904 -0.3403  2.3251
 9404SOL     OW39673   1.102   3.846  11.446 -0.4708  0.3572 -0.4432
 9404SOL    HW139674   1.035   3.914  11.447  1.0410  1.8396  0.6396
 9404SOL    HW239675   1.054   3.764  11.450  3.7156 -2.1049  0.1517
 9405SOL     OW39676   3.619   3.475  17.229  0.6694 -0.1260  0.4312
 9405SOL    HW139677   3.537   3.426  17.239 -0.8931  2.3112 -0.3336
 9405SOL    HW239678   3.600   3.551  17.284 -0.5826 -0.9441  1.1399
 9406SOL     OW39679   2.113   3.152  14.279 -0.3066  0.2700 -0.6460
 9406SOL    HW139680   2.198   3.180  14.313 -0.9866  0.2421  1.0893
 9406SOL    HW239681   2.065   3.234  14.288  1.5735  1.2470  0.3900
 9407SOL     OW39682   4.494   1.841   3.776 -0.2057  0.0042  0.5350
 9407SOL    HW139683   4.524   1.751   3.786  1.4719  0.4054 -0.7225
 9407SOL    HW239684   4.558   1.895   3.823  1.1255 -0.6450 -0.5149
 9408SOL     OW39685   0.007   2.728   8.055  0.5538  0.1076 -0.1369
 9408SOL    HW139686   4.668   2.803   8.048  2.4186  1.5703  0.1227
 9408SOL    HW239687   4.661   2.670   8.094  1.5251 -0.8676  0.0616
 9409SOL     OW39688   4.132   1.929   9.075 -0.4701 -0.5116  0.0874
 9409SOL    HW139689   4.159   1.878   9.151 -0.1950 -2.7183 -1.5002
 9409SOL    HW239690   4.045   1.892   9.064 -1.4627  1.2309  1.9283
 9410SOL     OW39691   0.682   2.678   8.198 -0.1292 -0.3202  0.0396
 9410SOL    HW139692   0.742   2.687   8.273 -0.6372 -0.6074  0.4827
 9410SOL    HW239693   0.616   2.615   8.227 -0.7001 -0.0576 -0.7046
 9411SOL     OW39694   2.463   2.529  11.768  0.3286  0.3135 -0.0692
 9411SOL    HW139695   2.375   2.545  11.735 -0.3455 -1.5800  0.7931
 9411SOL    HW239696   2.491   2.620  11.771 -2.0659  1.0306  0.8440
 9412SOL     OW39697   1.193   0.460   4.481 -0.4325 -0.3162  0.2810
 9412SOL    HW139698   1.124   0.395   4.489 -1.5374  0.7250 -0.7581
 9412SOL    HW239699   1.161   0.532   4.536 -1.5485  0.0774 -0.8872
 9413SOL     OW39700   3.293   4.508   1.533  0.3079 -0.5340 -0.0880
 9413SOL    HW139701   3.269   4.420   1.564  3.6313 -1.8104 -1.1135
 9413SOL    HW239702   3.382   4.514   1.568  0.9222 -0.5231 -1.6424
 9414SOL     OW39703   2.917   2.413  16.184  0.2943 -0.0011 -0.4440
 9414SOL    HW139704   3.010   2.401  16.200  0.1442 -1.9956 -0.9747
 9414SOL    HW239705   2.898   2.497  16.225 -1.8075  0.0068 -1.4111
 9415SOL     OW39706   1.779   2.940   1.255  0.1201 -0.9718  0.2574
 9415SOL    HW139707   1.800   3.033   1.248 -1.6013 -0.6833 -1.0763
 9415SOL    HW239708   1.861   2.900   1.282 -1.2036 -3.4464  0.6400
 9416SOL     OW39709   2.151   3.482  14.367 -0.3444 -0.8065 -1.0259
 9416SOL    HW139710   2.193   3.465  14.283  0.2123  0.6824 -1.0329
 9416SOL    HW239711   2.060   3.457  14.350 -0.7577 -1.0642  1.5380
 9417SOL     OW39712   2.937   3.399   4.433  0.0195  0.0837 -0.0920
 9417SOL    HW139713   2.950   3.394   4.528  0.7493  0.4815 -0.1717
 9417SOL    HW239714   3.020   3.370   4.394 -0.2782 -1.7652  0.6519
 9418SOL     OW39715   2.475   3.600   0.121  0.7618 -0.0417  0.3971
 9418SOL    HW139716   2.486   3.667   0.189 -1.9529 -0.8036  1.5645
 9418SOL    HW239717   2.410   3.630   0.059 -0.1343  2.6619  2.6157
 9419SOL     OW39718   1.188   2.259  15.360  0.0697 -0.1995 -0.2750
 9419SOL    HW139719   1.221   2.289  15.275 -0.1638  0.6983 -0.0545
 9419SOL    HW239720   1.187   2.344  15.406 -1.0979 -0.6688  0.5660
 9420SOL     OW39721   2.531   2.124  15.267  0.1836 -0.2533 -0.0013
 9420SOL    HW139722   2.566   2.041  15.235  1.6319  0.1942  0.4529
 9420SOL    HW239723   2.457   2.098  15.322 -0.4845  0.7456 -0.4348
 9421SOL     OW39724   2.285   3.917  14.174  0.1551 -0.2537  0.3373
 9421SOL    HW139725   2.345   3.874  14.113 -0.7924  1.7312 -1.9464
 9421SOL    HW239726   2.202   3.872  14.158 -1.0727  2.1099  0.1478
 9422SOL     OW39727   2.468   2.550   4.573  0.4133 -0.5041 -0.1551
 9422SOL    HW139728   2.483   2.467   4.620  0.9885 -0.5817 -0.4889
 9422SOL    HW239729   2.374   2.531   4.566  0.3177  0.9881 -2.5752
 9423SOL     OW39730   2.059   1.703   6.254  0.0772 -0.2444  0.7028
 9423SOL    HW139731   2.027   1.784   6.294 -1.2879 -0.1003 -0.7144
 9423SOL    HW239732   1.977   1.672   6.217  0.0013  2.9256 -1.7392
 9424SOL     OW39733   1.952   1.436   2.983  0.2997 -0.0152  0.3720
 9424SOL    HW139734   2.027   1.377   2.992 -0.2596 -1.0267 -1.5146
 9424SOL    HW239735   1.982   1.519   2.947 -2.4626  1.0418  0.4871
 9425SOL     OW39736   0.434   3.655   4.719  0.0863 -0.4325  0.0825
 9425SOL    HW139737   0.383   3.657   4.800  0.9185 -1.9281  0.6413
 9425SOL    HW239738   0.523   3.658   4.752  0.8327 -2.8120 -1.6982
 9426SOL     OW39739   2.227   0.199  17.129 -0.1953  0.1437  0.4859
 9426SOL    HW139740   2.176   0.132  17.173 -1.7672  0.1561 -1.3095
 9426SOL    HW239741   2.277   0.235  17.202 -0.6959  4.2720 -1.1871
 9427SOL     OW39742   4.052   2.863  13.455  0.0243  0.1435  0.2292
 9427SOL    HW139743   4.093   2.913  13.525  0.2699 -0.2406  0.3598
 9427SOL    HW239744   3.968   2.909  13.447  1.3312  2.5062 -0.0748
 9428SOL     OW39745   0.402   2.485   8.694  0.0299  0.4321  0.4192
 9428SOL    HW139746   0.329   2.424   8.705 -1.0903  1.7574  0.4671
 9428SOL    HW239747   0.461   2.435   8.638 -2.2962 -0.1526 -1.5073
 9429SOL     OW39748   4.217   2.246  13.104  0.2732 -0.7202  0.1049
 9429SOL    HW139749   4.180   2.158  13.100 -1.1075 -0.1409 -0.0206
 9429SOL    HW239750   4.297   2.242  13.053  1.1804  1.7864  1.3187
 9430SOL     OW39751   0.796   0.646   2.641 -0.5453 -0.1923  0.1394
 9430SOL    HW139752   0.778   0.605   2.556  1.5906  0.3305 -0.5585
 9430SOL    HW239753   0.722   0.616   2.694  0.8835 -0.4168  2.0185
 9431SOL     OW39754   3.403   0.875  12.883  0.5015  0.1064 -0.1054
 9431SOL    HW139755   3.392   0.783  12.907  2.5240  0.0075  0.4316
 9431SOL    HW239756   3.459   0.904  12.954 -0.6011 -1.5198  1.4373
 9432SOL     OW39757   1.133   2.688  15.034  0.2832  0.5537  0.0632
 9432SOL    HW139758   1.037   2.692  15.025  0.1707  1.2341  1.5595
 9432SOL    HW239759   1.158   2.767  14.985  3.2462 -0.3244  0.1685
 9433SOL     OW39760   1.499   3.555   8.639  0.2566  0.6885  0.3557
 9433SOL    HW139761   1.527   3.512   8.719  2.2771 -1.9157 -1.7431
 9433SOL    HW239762   1.578   3.602   8.613 -0.0813  0.2179 -1.5457
 9434SOL     OW39763   3.311   4.016  13.328 -0.6519  0.6939  0.1809
 9434SOL    HW139764   3.232   3.974  13.293 -0.6723  3.5024 -3.1095
 9434SOL    HW239765   3.326   4.075  13.254 -0.4386 -1.3942 -1.4552
 9435SOL     OW39766   1.954   2.565   1.701  0.0642 -0.1712 -0.4031
 9435SOL    HW139767   2.040   2.554   1.661 -0.4236 -1.3949 -1.1378
 9435SOL    HW239768   1.975   2.626   1.771  0.2384 -0.3016 -0.3396
 9436SOL     OW39769   0.710   1.215  16.762 -0.4645 -0.0877 -0.1328
 9436SOL    HW139770   0.625   1.251  16.787  0.2611  0.4851  1.5330
 9436SOL    HW239771   0.767   1.247  16.833  1.1531 -0.7203 -1.1476
 9437SOL     OW39772   1.592   3.884  14.178 -0.1198 -0.0830 -0.4888
 9437SOL    HW139773   1.584   3.823  14.106 -5.3386  0.1375 -0.1354
 9437SOL    HW239774   1.591   3.970  14.136  0.0107  1.1244  1.9198
 9438SOL     OW39775   4.521   0.539   6.163 -0.6693 -0.1557 -0.2706
 9438SOL    HW139776   4.575   0.564   6.238 -1.5672  1.5157 -0.1879
 9438SOL    HW239777   4.457   0.611   6.166  1.7937  2.1217 -1.6855
 9439SOL     OW39778   2.477   4.404   7.830 -0.2355 -0.0684  0.0411
 9439SOL    HW139779   2.421   4.334   7.796  0.5676 -0.2150 -0.9925
 9439SOL    HW239780   2.553   4.355   7.860 -0.6704  0.8213  2.5567
 9440SOL     OW39781   2.641   3.914   1.545  0.1985 -0.0495  0.3884
 9440SOL    HW139782   2.637   3.821   1.522 -0.3211  0.1528 -0.3544
 9440SOL    HW239783   2.734   3.926   1.564  0.5149 -0.1832 -1.0219
 9441SOL     OW39784   3.932   1.283   6.699  0.0140 -0.2046 -0.1728
 9441SOL    HW139785   3.970   1.294   6.786  0.4279  0.6831 -0.4679
 9441SOL    HW239786   3.840   1.300   6.718  0.2779  2.5075 -1.3258
 9442SOL     OW39787   0.939   2.694  13.114  0.3660  0.5796  0.3776
 9442SOL    HW139788   0.888   2.748  13.174 -1.4510  0.4739 -1.0983
 9442SOL    HW239789   0.995   2.639  13.169 -0.0115 -0.1077  0.0786
 9443SOL     OW39790   0.374   2.360   3.795  0.1099  0.0653  0.1173
 9443SOL    HW139791   0.293   2.404   3.822 -0.9086 -0.0879 -2.6690
 9443SOL    HW239792   0.335   2.310   3.724 -1.4870 -0.7585  1.5794
 9444SOL     OW39793   0.144   1.446  13.053  0.7872  0.4074  0.0075
 9444SOL    HW139794   0.172   1.490  12.973  1.7068 -0.0726  0.0564
 9444SOL    HW239795   0.058   1.484  13.066  0.8834  1.5155 -2.5991
 9445SOL     OW39796   0.472   0.559   4.743 -0.0931 -0.8527  0.4960
 9445SOL    HW139797   0.519   0.583   4.822  0.9676 -0.7521 -0.1687
 9445SOL    HW239798   0.412   0.634   4.743  0.1148 -0.6902  2.8476
 9446SOL     OW39799   0.545   0.048   0.924 -0.4873 -0.1741 -0.1942
 9446SOL    HW139800   0.470   0.088   0.880 -0.7314 -1.9742 -1.4318
 9446SOL    HW239801   0.574   4.716   0.849 -0.0627  0.2166 -0.2976
 9447SOL     OW39802   3.399   2.517   5.684  0.2921 -0.0201 -0.1082
 9447SOL    HW139803   3.392   2.515   5.588 -0.8045  0.1255 -0.0274
 9447SOL    HW239804   3.489   2.547   5.698 -0.4007  2.7470 -1.6658
 9448SOL     OW39805   2.363   0.724  11.442  0.4393  0.5165  0.2051
 9448SOL    HW139806   2.364   0.697  11.534 -0.5511 -1.6908 -0.4375
 9448SOL    HW239807   2.454   0.753  11.439 -0.3116  3.2157  2.3266
 9449SOL     OW39808   4.352   0.361   4.524 -0.3206  0.4046  0.1357
 9449SOL    HW139809   4.344   0.451   4.493 -1.6742 -0.9362 -3.3988
 9449SOL    HW239810   4.398   0.330   4.446  0.1386  0.5737  0.3409
 9450SOL     OW39811   2.650   1.857   5.572  0.5280  0.1521  0.0791
 9450SOL    HW139812   2.737   1.832   5.539  0.1975  0.2386 -0.8354
 9450SOL    HW239813   2.608   1.897   5.496 -0.8487 -2.6875 -0.6371
 9451SOL     OW39814   2.746   0.020   7.610  0.2264  0.0326  0.3742
 9451SOL    HW139815   2.661   4.707   7.637  0.6249 -0.1181  1.4410
 9451SOL    HW239816   2.803   4.675   7.652 -1.1626 -1.0639  0.5620
 9452SOL     OW39817   0.579   3.534   4.269  0.0453 -0.0266 -0.2314
 9452SOL    HW139818   0.520   3.472   4.227 -0.8440 -0.3935  1.5952
 9452SOL    HW239819   0.662   3.494   4.241 -1.1047 -0.8903 -2.4668
 9453SOL     OW39820   3.993   0.391   6.220  0.2412  0.4833 -0.2311
 9453SOL    HW139821   3.955   0.393   6.308  0.1518 -1.0345 -0.2427
 9453SOL    HW239822   3.995   0.480   6.186 -0.0626  1.1704  1.5444
 9454SOL     OW39823   3.182   3.296   4.408  0.0478 -0.0358  0.3043
 9454SOL    HW139824   3.178   3.245   4.328 -0.3454 -3.1015  2.2663
 9454SOL    HW239825   3.259   3.346   4.381 -0.8382  1.9052  1.3565
 9455SOL     OW39826   2.950   2.566   4.251  0.2949 -0.3406 -0.1661
 9455SOL    HW139827   3.041   2.583   4.226  0.2668  0.6457  0.3647
 9455SOL    HW239828   2.962   2.564   4.346  0.5325  0.0554 -0.1869
 9456SOL     OW39829   0.585   4.695   4.713 -0.5738 -0.1465 -0.7176
 9456SOL    HW139830   0.593   0.068   4.733  0.6509 -0.1454 -1.2016
 9456SOL    HW239831   0.648   4.681   4.642 -2.3036 -1.5238 -1.9978
 9457SOL     OW39832   2.845   3.697   0.625 -0.1040  0.2065 -1.0401
 9457SOL    HW139833   2.759   3.665   0.652  0.7974 -0.4680  1.0484
 9457SOL    HW239834   2.903   3.638   0.674  1.7096  3.5537  0.8147
 9458SOL     OW39835   3.318   2.432   5.954  0.2402  0.2740 -0.3141
 9458SOL    HW139836   3.229   2.397   5.964  0.2659 -0.1449 -1.4906
 9458SOL    HW239837   3.322   2.466   5.865 -0.6106  0.3539 -0.3303
 9459SOL     OW39838   4.150   1.460   9.919 -0.0700 -0.3991 -0.5386
 9459SOL    HW139839   4.106   1.381   9.951  0.9851 -1.1360 -0.9001
 9459SOL    HW239840   4.224   1.429   9.866  0.2584  0.1249 -0.3874
 9460SOL     OW39841   4.111   3.122   3.336  0.1160 -0.1623  0.6088
 9460SOL    HW139842   4.076   3.069   3.265  2.4691 -0.1653 -0.5461
 9460SOL    HW239843   4.188   3.071   3.362  0.7691  0.7677  0.5024
 9461SOL     OW39844   3.192   0.377   5.796  0.0339 -0.3246 -0.1609
 9461SOL    HW139845   3.199   0.472   5.789 -0.9948 -0.2500 -0.1304
 9461SOL    HW239846   3.152   0.366   5.882 -0.8968 -1.8958 -0.7764
 9462SOL     OW39847   1.282   1.891   9.293 -0.0671  0.8205  0.2027
 9462SOL    HW139848   1.212   1.931   9.343  0.5554 -1.1557  2.6711
 9462SOL    HW239849   1.230   1.843   9.229 -0.1086 -0.8582  1.4887
 9463SOL     OW39850   1.028   1.718   4.987  0.1740 -0.1648  0.1098
 9463SOL    HW139851   1.037   1.812   4.972 -1.2275 -0.0631 -0.0602
 9463SOL    HW239852   0.934   1.706   5.001 -0.5430  1.6952 -3.0886
 9464SOL     OW39853   0.874   3.334   2.577  0.2586  0.5890 -0.7804
 9464SOL    HW139854   0.836   3.331   2.489  0.9683 -0.2078 -1.0597
 9464SOL    HW239855   0.852   3.248   2.612 -1.4833  0.6514 -1.7211
 9465SOL     OW39856   0.851   3.524   4.272  0.3312 -0.2103  0.0973
 9465SOL    HW139857   0.892   3.553   4.191 -0.2154 -0.4882 -0.2812
 9465SOL    HW239858   0.907   3.569   4.335  2.5159  0.0416 -2.0334
 9466SOL     OW39859   4.686   3.218   6.638  0.1693 -0.6979 -0.2046
 9466SOL    HW139860   4.649   3.300   6.671 -3.1104 -2.1269 -0.3652
 9466SOL    HW239861   4.673   3.162   6.715 -1.7034  0.6517  0.4579
 9467SOL     OW39862   1.492   3.260  15.299  0.0987  0.0265 -0.2753
 9467SOL    HW139863   1.425   3.192  15.306 -0.4738  0.8901  2.4229
 9467SOL    HW239864   1.570   3.217  15.333  0.8141 -0.5313 -2.6063
 9468SOL     OW39865   0.127   2.303   3.571  0.3203  0.2445 -0.2415
 9468SOL    HW139866   0.092   2.214   3.567  0.5229  0.2164 -1.3634
 9468SOL    HW239867   0.146   2.316   3.478 -0.6877 -1.3918 -0.6869
 9469SOL     OW39868   3.217   0.072   2.597  0.0771  0.1100  0.6259
 9469SOL    HW139869   3.135   0.045   2.556 -0.1779  1.1474  0.4473
 9469SOL    HW239870   3.220   0.010   2.670 -0.4916 -2.1213 -1.2402
 9470SOL     OW39871   4.560   3.259   7.851  0.1438  0.0208 -0.0461
 9470SOL    HW139872   4.465   3.258   7.840  0.2578 -2.5564 -0.7493
 9470SOL    HW239873   4.569   3.164   7.862  0.3539  0.1562  0.9531
 9471SOL     OW39874   4.313   3.821   8.869 -0.3790 -0.4609 -0.2722
 9471SOL    HW139875   4.408   3.821   8.860 -0.5473  1.7614 -1.8390
 9471SOL    HW239876   4.291   3.785   8.783 -2.3002 -1.3867  0.5852
 9472SOL     OW39877   2.316   2.743   3.878 -0.1166 -0.6969  0.2846
 9472SOL    HW139878   2.317   2.831   3.840  0.6745  0.0116  1.9665
 9472SOL    HW239879   2.410   2.730   3.887 -0.1668 -1.4839 -0.3043
 9473SOL     OW39880   3.112   2.986  15.951  0.6173 -0.0112  0.1362
 9473SOL    HW139881   3.152   2.958  15.868  0.5368 -2.6344  1.0028
 9473SOL    HW239882   3.172   3.056  15.977  1.8833 -0.8515 -0.5043
 9474SOL     OW39883   1.883   1.504   5.263 -0.0086  0.1737 -0.7177
 9474SOL    HW139884   1.845   1.485   5.349  0.1183 -1.1400 -0.9477
 9474SOL    HW239885   1.936   1.582   5.278  1.2361 -1.0241  1.1673
 9475SOL     OW39886   2.451   2.444  11.006 -0.0210  0.1335  0.2706
 9475SOL    HW139887   2.509   2.465  10.934 -0.5805 -1.4405 -0.6267
 9475SOL    HW239888   2.453   2.529  11.050 -3.1413  0.8532 -0.9682
 9476SOL     OW39889   1.493   4.054  15.666 -0.3207  0.0327  0.6163
 9476SOL    HW139890   1.560   4.006  15.618 -0.1946  0.6871  0.1424
 9476SOL    HW239891   1.420   4.049  15.604 -1.4944  1.8964  1.8402
 9477SOL     OW39892   4.697   3.523   3.717 -0.3596 -0.4659 -0.1105
 9477SOL    HW139893   4.658   3.570   3.790  2.9046  0.3251  1.1491
 9477SOL    HW239894   4.712   3.601   3.662  1.1904  0.0032  0.9836
 9478SOL     OW39895   3.302   0.179  13.633 -0.6535 -0.1510  0.3012
 9478SOL    HW139896   3.223   0.170  13.686  0.4557 -1.2135  1.7781
 9478SOL    HW239897   3.312   0.088  13.606  0.5167  1.3039 -4.2415
 9479SOL     OW39898   1.411   0.198   4.913 -0.3367 -0.5852 -0.2773
 9479SOL    HW139899   1.318   0.205   4.933 -0.2448  0.0090 -0.0867
 9479SOL    HW239900   1.428   0.264   4.846  0.7811 -1.1155 -0.5149
 9480SOL     OW39901   2.429   0.104   8.089  0.1728 -0.7085 -0.0746
 9480SOL    HW139902   2.468   0.170   8.032  1.4317 -0.9307  0.5279
 9480SOL    HW239903   2.446   0.134   8.179  1.1063 -0.3479 -0.3703
 9481SOL     OW39904   0.451   1.845   0.156  0.2526 -0.7985 -0.0078
 9481SOL    HW139905   0.367   1.877   0.121 -0.6449 -2.1175  0.9283
 9481SOL    HW239906   0.439   1.750   0.163  1.4563 -0.9696 -0.4028
 9482SOL     OW39907   3.972   1.119  14.356 -0.1456  0.4724 -0.9932
 9482SOL    HW139908   3.935   1.035  14.385  1.0469  0.0609 -0.6637
 9482SOL    HW239909   3.931   1.119  14.269 -0.3946  0.5194 -0.8748
 9483SOL     OW39910   4.301   0.460   7.491  0.0324  0.3777  0.1726
 9483SOL    HW139911   4.370   0.445   7.556 -1.2941 -0.2231  1.4281
 9483SOL    HW239912   4.243   0.527   7.525  1.1787  1.0280  0.8147
 9484SOL     OW39913   0.542   3.812   8.851 -1.0592 -0.3442  0.0289
 9484SOL    HW139914   0.474   3.744   8.850 -0.8695 -0.5147 -2.9912
 9484SOL    HW239915   0.527   3.851   8.937 -2.7551  1.7335 -1.2073
 9485SOL     OW39916   2.718   0.566  13.996 -0.1285  0.0768  0.4768
 9485SOL    HW139917   2.642   0.534  14.044 -0.9313  1.3761  0.0868
 9485SOL    HW239918   2.745   0.636  14.056  0.3654  1.9453 -1.9042
 9486SOL     OW39919   2.364   1.852  12.136 -0.1367  0.1746  0.0092
 9486SOL    HW139920   2.286   1.806  12.166 -0.5473  0.3479 -0.8044
 9486SOL    HW239921   2.397   1.788  12.073  0.6887  0.8074 -0.2024
 9487SOL     OW39922   1.033   4.518  13.361  0.0312  0.2090  0.3511
 9487SOL    HW139923   1.002   4.601  13.396  0.2043  0.3143  0.2536
 9487SOL    HW239924   1.127   4.536  13.360  0.4464 -1.9202  0.8880
 9488SOL     OW39925   1.929   3.380  14.054 -0.6185 -0.2286  0.1487
 9488SOL    HW139926   1.938   3.369  14.149 -0.5015  0.6293  0.2348
 9488SOL    HW239927   1.864   3.311  14.043  0.7945 -1.7086  1.0539
 9489SOL     OW39928   3.551   0.328  15.332  0.0547  0.3359 -0.3049
 9489SOL    HW139929   3.572   0.271  15.258 -1.0428  0.7882 -0.9607
 9489SOL    HW239930   3.636   0.327  15.376  0.4550  1.1299 -1.0736
 9490SOL     OW39931   1.974   0.853   1.571 -0.0965 -0.3153  0.0838
 9490SOL    HW139932   1.892   0.869   1.523  0.5086  0.0533 -0.8247
 9490SOL    HW239933   2.013   0.801   1.501  0.1855 -0.8181  0.6146
 9491SOL     OW39934   0.112   3.250   5.470  0.0841  0.1109  0.2060
 9491SOL    HW139935   0.069   3.210   5.395  3.0332 -1.4129 -0.6769
 9491SOL    HW239936   0.035   3.260   5.525 -0.3977  2.1792 -0.8683
 9492SOL     OW39937   0.161   4.302  10.273 -0.4189  0.1937  0.1235
 9492SOL    HW139938   0.152   4.237  10.204 -0.6755 -0.1428  0.4714
 9492SOL    HW239939   0.238   4.265  10.317 -3.2089 -3.9383  1.4733
 9493SOL     OW39940   1.076   4.558   6.217 -0.0679 -0.0210  0.6761
 9493SOL    HW139941   1.146   4.531   6.157 -0.1169  1.1993  0.0677
 9493SOL    HW239942   1.130   4.603   6.282  1.2230 -0.9016  0.2148
 9494SOL     OW39943   2.009   3.405   5.114 -0.5909  0.6059  0.1813
 9494SOL    HW139944   2.016   3.323   5.066  0.5084 -0.3811  2.0256
 9494SOL    HW239945   2.043   3.464   5.047  2.2428  0.7540  1.7531
 9495SOL     OW39946   2.208   4.670  13.945  0.4626 -0.1819 -0.0654
 9495SOL    HW139947   2.180   0.042  13.940 -2.2232 -0.9551  0.6617
 9495SOL    HW239948   2.144   4.615  13.902  1.9514 -0.1624 -2.2770
 9496SOL     OW39949   1.506   1.797   7.977 -0.1231  0.0744 -0.1782
 9496SOL    HW139950   1.444   1.869   7.973 -1.7840 -1.4314 -1.3203
 9496SOL    HW239951   1.452   1.718   7.966 -1.6157  0.6389  3.0560
 9497SOL     OW39952   4.356   1.735   5.844  0.0803  0.0318 -0.0066
 9497SOL    HW139953   4.272   1.776   5.866 -0.3635 -1.3110  0.7586
 9497SOL    HW239954   4.392   1.807   5.793  0.9242 -0.1522  0.3337
 9498SOL     OW39955   4.542   1.592   5.147  0.2034 -0.2348 -0.2036
 9498SOL    HW139956   4.461   1.543   5.163 -0.0138 -0.0659 -0.7827
 9498SOL    HW239957   4.589   1.530   5.091  0.9203  1.5372 -1.5358
 9499SOL     OW39958   4.324   1.500   3.536  0.0788 -0.2337  0.1300
 9499SOL    HW139959   4.369   1.439   3.477  1.1386  2.8494 -2.2255
 9499SOL    HW239960   4.349   1.588   3.509 -0.2875 -0.0298  0.4462
 9500SOL     OW39961   1.227   0.722  12.570 -0.4430  0.4538  0.3952
 9500SOL    HW139962   1.193   0.660  12.506  2.2615 -1.3971  0.7269
 9500SOL    HW239963   1.154   0.782  12.582 -2.5445 -1.9607 -0.1606
 9501SOL     OW39964   2.524   2.544   3.580  0.1084  0.1751 -0.0561
 9501SOL    HW139965   2.500   2.516   3.669  1.9697 -0.5815  0.2227
 9501SOL    HW239966   2.469   2.622   3.572  1.3332  0.9970 -0.4692
 9502SOL     OW39967   4.111   3.655   6.693 -0.2982 -0.2534 -0.5081
 9502SOL    HW139968   4.061   3.591   6.744  0.0004 -1.2040 -1.4187
 9502SOL    HW239969   4.050   3.729   6.694  1.3303  1.0826  1.1173
 9503SOL     OW39970   1.311   2.453  15.163 -0.1100 -0.1214  0.2163
 9503SOL    HW139971   1.238   2.484  15.110 -0.2553  2.7577  2.1205
 9503SOL    HW239972   1.319   2.528  15.222 -2.2075  0.0113  0.3546
 9504SOL     OW39973   4.706   4.431   5.753  0.6133 -0.3131  0.5770
 9504SOL    HW139974   4.623   4.456   5.713  0.7664 -1.2076 -0.2926
 9504SOL    HW239975   0.053   4.482   5.707  0.6417 -1.1773 -0.3087
 9505SOL     OW39976   3.368   2.781   1.192 -0.6219 -0.1285 -0.4456
 9505SOL    HW139977   3.444   2.722   1.190 -1.3291 -1.0436  0.1305
 9505SOL    HW239978   3.390   2.849   1.256  0.5245 -0.5009 -0.4345
 9506SOL     OW39979   1.140   4.601   2.707  0.4606 -0.0886 -0.8352
 9506SOL    HW139980   1.092   4.639   2.780  0.1766 -0.8790 -0.6095
 9506SOL    HW239981   1.068   4.618   2.646  3.6830 -0.4694 -4.7900
 9507SOL     OW39982   3.812   3.345   3.117 -0.1478 -0.0392  0.4837
 9507SOL    HW139983   3.787   3.356   3.209  1.6609  1.6391  0.7680
 9507SOL    HW239984   3.905   3.366   3.121  0.5908 -3.0201 -1.5164
 9508SOL     OW39985   2.171   1.911   9.508 -0.1383 -0.8218  0.6510
 9508SOL    HW139986   2.219   1.829   9.497 -0.1885 -0.6438 -0.8273
 9508SOL    HW239987   2.189   1.926   9.601  3.1359  1.0879 -0.3135
 9509SOL     OW39988   0.876   4.010   6.372  0.3121  0.0682 -0.2945
 9509SOL    HW139989   0.860   4.081   6.310 -2.0524  0.2594  0.5281
 9509SOL    HW239990   0.844   4.044   6.455 -1.1008 -1.2992 -0.2687
 9510SOL     OW39991   1.728   3.964   7.161 -0.3341 -0.3774 -0.2526
 9510SOL    HW139992   1.807   4.018   7.172  0.4396 -1.2686 -1.4417
 9510SOL    HW239993   1.682   4.012   7.093 -1.9161 -1.7938 -0.1568
 9511SOL     OW39994   2.730   4.584   4.502  0.0058  0.0080 -0.2774
 9511SOL    HW139995   2.812   4.614   4.539 -0.3172 -0.8172  1.0917
 9511SOL    HW239996   2.752   4.494   4.481  0.0961  0.6280 -2.8455
 9512SOL     OW39997   3.450   0.800   4.192  0.2101  0.5608  0.5710
 9512SOL    HW139998   3.491   0.845   4.266  0.3781  3.2694 -1.1981
 9512SOL    HW239999   3.436   0.861   4.121  1.0639 -0.0481 -0.1163
 9513SOL     OW40000   2.078   1.618  12.147  0.3704 -0.4592  0.7673
 9513SOL    HW140001   2.004   1.568  12.182  0.8650 -1.2934  0.5947
 9513SOL    HW240002   2.147   1.552  12.146 -0.5298 -1.3754 -1.9070
 9514SOL     OW40003   3.967   2.868  14.524 -0.4579  0.4343  0.2095
 9514SOL    HW140004   3.890   2.917  14.554 -1.6813 -2.3895  1.6667
 9514SOL    HW240005   3.947   2.781  14.558  0.3599  0.9426  1.9945
 9515SOL     OW40006   0.725   0.028  16.964  0.0594 -0.4632  0.7872
 9515SOL    HW140007   0.737   0.119  16.991 -2.4344  0.2301 -0.4584
 9515SOL    HW240008   0.817   0.004  16.952 -0.1085 -1.0133  0.5962
 9516SOL     OW40009   4.336   3.179   6.574 -0.8081  0.0691  0.0420
 9516SOL    HW140010   4.394   3.165   6.648 -1.3818 -0.3848  0.4038
 9516SOL    HW240011   4.338   3.274   6.561 -1.4754  0.2187  1.0778
 9517SOL     OW40012   3.544   2.540   2.274  0.4374  0.3237  0.2144
 9517SOL    HW140013   3.620   2.596   2.285  1.7394 -1.6894  1.4661
 9517SOL    HW240014   3.499   2.575   2.197 -0.8372 -0.0532  0.7769
 9518SOL     OW40015   1.136   1.029   4.398 -0.4600  0.2776  0.1491
 9518SOL    HW140016   1.194   1.096   4.363  0.2437 -0.4076 -0.0108
 9518SOL    HW240017   1.155   1.045   4.490 -1.2210  1.9835  0.0089
 9519SOL     OW40018   4.400   0.666   0.726  0.5106  0.3505 -0.4746
 9519SOL    HW140019   4.460   0.728   0.767  0.4390  0.9910 -1.3269
 9519SOL    HW240020   4.316   0.710   0.739  0.6275  0.3578  0.2695
 9520SOL     OW40021   0.370   0.348   0.333  0.1293  0.3094 -0.3469
 9520SOL    HW140022   0.313   0.422   0.316  0.1908  0.5772  0.6023
 9520SOL    HW240023   0.312   0.302   0.393  1.9050 -0.3544  0.8772
 9521SOL     OW40024   0.356   1.433   9.291 -0.3355 -0.5237  0.2523
 9521SOL    HW140025   0.304   1.480   9.225 -1.1479 -0.3179  1.0440
 9521SOL    HW240026   0.395   1.501   9.345 -1.1146 -0.3576  0.6068
 9522SOL     OW40027   3.486   2.632   2.970 -0.4989  0.5075  0.1887
 9522SOL    HW140028   3.423   2.561   2.954 -0.7055  0.4606  1.2244
 9522SOL    HW240029   3.567   2.580   2.964 -0.3018  0.6585  1.4058
 9523SOL     OW40030   0.794   1.412  14.576 -0.3391 -0.2469 -0.3225
 9523SOL    HW140031   0.770   1.448  14.490 -0.1090  1.1315  0.1808
 9523SOL    HW240032   0.749   1.470  14.638  0.8383  2.2071 -1.7242
 9524SOL     OW40033   2.559   3.047   5.511  0.4389  0.2964  0.7962
 9524SOL    HW140034   2.535   3.022   5.421  0.8665  1.6554  0.3138
 9524SOL    HW240035   2.634   2.991   5.532 -0.7238 -0.4824  2.8346
 9525SOL     OW40036   4.301   0.587   9.372  0.0867  0.0293 -0.2916
 9525SOL    HW140037   4.358   0.555   9.302  1.3736  0.7448  0.4291
 9525SOL    HW240038   4.364   0.563   9.440  1.0837  1.3535 -0.7690
 9526SOL     OW40039   4.012   3.377   5.124 -0.2658 -0.7009 -0.1556
 9526SOL    HW140040   4.105   3.359   5.110 -0.1586 -0.2209 -0.0675
 9526SOL    HW240041   3.990   3.305   5.184 -0.1643 -0.2086  0.4679
 9527SOL     OW40042   4.267   4.538   7.087  0.1399  0.3364 -0.4012
 9527SOL    HW140043   4.251   4.445   7.068 -2.1280  0.4555  0.9305
 9527SOL    HW240044   4.236   4.545   7.177 -1.0957  0.2019 -0.8220
 9528SOL     OW40045   3.983   3.422  15.361 -0.7737  0.8560  0.9865
 9528SOL    HW140046   3.896   3.401  15.327 -0.5155  1.3924 -0.0100
 9528SOL    HW240047   4.004   3.485  15.292  0.5001 -1.1465 -0.4733
 9529SOL     OW40048   0.916   2.692  13.507  0.1107 -0.3989 -0.4848
 9529SOL    HW140049   0.856   2.669  13.577 -0.0601  0.6597 -0.2895
 9529SOL    HW240050   0.864   2.745  13.448  1.1445 -2.0345 -2.8897
 9530SOL     OW40051   4.573   0.876   5.380  0.0566 -0.0609 -0.3610
 9530SOL    HW140052   4.523   0.891   5.461 -0.5785 -0.8290 -0.6043
 9530SOL    HW240053   4.520   0.923   5.316 -1.2498 -0.3863  0.4630
 9531SOL     OW40054   4.275   0.370   3.736  0.0844 -0.0773  0.3035
 9531SOL    HW140055   4.321   0.319   3.803  1.1602  1.1742  0.5051
 9531SOL    HW240056   4.350   0.422   3.708  0.2750 -0.3041  0.3914
 9532SOL     OW40057   0.122   1.345   3.355 -0.2811  0.2170  0.7787
 9532SOL    HW140058   0.165   1.265   3.383  0.9081  1.2215  1.8457
 9532SOL    HW240059   0.058   1.310   3.293  1.4873 -1.0164 -0.3237
 9533SOL     OW40060   1.820   2.877   3.138  0.3264 -0.3776 -0.5850
 9533SOL    HW140061   1.739   2.888   3.088  1.1504 -1.5081 -2.1537
 9533SOL    HW240062   1.851   2.966   3.153  0.3784 -0.4067 -0.5166
 9534SOL     OW40063   0.387   3.472   6.042  0.5731 -0.3102 -0.3377
 9534SOL    HW140064   0.457   3.522   6.000  1.4038 -1.4737 -0.3566
 9534SOL    HW240065   0.422   3.467   6.131 -0.9776 -0.3212  0.2676
 9535SOL     OW40066   2.985   2.735   1.611 -0.4898 -0.2774  0.3879
 9535SOL    HW140067   2.963   2.749   1.703 -1.6443 -2.0429  0.3898
 9535SOL    HW240068   3.005   2.642   1.616 -0.2738 -0.2331  0.3191
 9536SOL     OW40069   3.019   0.526   6.344  0.2017 -0.0884  0.2333
 9536SOL    HW140070   3.054   0.509   6.432 -1.2795  2.7630  1.3947
 9536SOL    HW240071   2.978   0.445   6.317 -2.5880  0.4598  2.8162
 9537SOL     OW40072   4.060   3.388   3.228  0.0517  0.6528 -0.1058
 9537SOL    HW140073   4.102   3.307   3.258  0.7471  0.0728 -2.6757
 9537SOL    HW240074   4.068   3.441   3.308  0.5679  1.9988 -1.0579
 9538SOL     OW40075   3.787   2.900   5.970 -0.2580 -0.1384  0.2780
 9538SOL    HW140076   3.810   2.981   6.015  0.3797  0.1697 -0.5879
 9538SOL    HW240077   3.752   2.934   5.888 -0.3425 -1.4157 -0.2274
 9539SOL     OW40078   3.631   4.444  13.645  0.3226 -0.4871 -0.6976
 9539SOL    HW140079   3.649   4.517  13.705  0.3054 -0.7154 -0.4128
 9539SOL    HW240080   3.684   4.460  13.567  2.9813  0.3457  1.2986
 9540SOL     OW40081   3.700   0.601  14.847  1.0173 -0.1288  0.3488
 9540SOL    HW140082   3.624   0.657  14.867  1.3834  1.1125 -1.7185
 9540SOL    HW240083   3.672   0.550  14.772  2.5842 -1.6308  0.7858
 9541SOL     OW40084   1.708   3.714   2.308 -0.0605  0.0396 -0.1487
 9541SOL    HW140085   1.676   3.791   2.262  1.7543 -0.0641 -1.5832
 9541SOL    HW240086   1.794   3.705   2.267  0.9104 -1.3585  2.1770
 9542SOL     OW40087   3.444   4.036  12.119 -0.0233  0.0778 -0.0547
 9542SOL    HW140088   3.489   4.013  12.038 -1.9903 -0.2758 -1.0554
 9542SOL    HW240089   3.419   4.128  12.111  0.0978  0.2132  1.0709
 9543SOL     OW40090   2.073   2.922   1.203  0.0227  0.0058  0.2789
 9543SOL    HW140091   2.064   2.994   1.140  0.9854 -0.5626 -0.4971
 9543SOL    HW240092   2.059   2.965   1.288 -2.1999 -2.6938  1.2780
 9544SOL     OW40093   3.113   0.952   9.579  0.6697 -0.0941  0.0983
 9544SOL    HW140094   3.193   0.924   9.535  1.9812  0.7054  1.9721
 9544SOL    HW240095   3.065   0.870   9.566 -0.0709 -0.0067  2.2168
 9545SOL     OW40096   0.569   4.662   5.742 -0.0820  0.1146  0.7438
 9545SOL    HW140097   0.613   4.700   5.818 -2.0290 -0.7266  2.2910
 9545SOL    HW240098   0.615   4.581   5.723 -3.2152 -1.3037 -0.7832
 9546SOL     OW40099   1.839   4.178   7.695  0.2474 -0.2817 -0.0811
 9546SOL    HW140100   1.857   4.242   7.764  1.6917  0.1404 -0.8437
 9546SOL    HW240101   1.777   4.113   7.728 -0.9231 -0.3547 -2.4391
 9547SOL     OW40102   0.295   3.893   1.978  0.6597  0.1578  0.1985
 9547SOL    HW140103   0.357   3.901   2.051 -1.0296  2.5417  1.3414
 9547SOL    HW240104   0.358   3.855   1.916  0.2270  1.6841 -1.1622
 9548SOL     OW40105   4.412   2.353   1.479 -0.2711  0.2897 -1.0020
 9548SOL    HW140106   4.477   2.411   1.441 -0.8032  0.9691 -0.8778
 9548SOL    HW240107   4.356   2.417   1.523  1.4230  1.7024 -0.9587
 9549SOL     OW40108   2.328   3.612   7.336 -0.0186  0.5379 -0.1128
 9549SOL    HW140109   2.319   3.572   7.249 -1.3641  0.1167  0.2172
 9549SOL    HW240110   2.397   3.562   7.380  0.5600  0.6878 -0.8473
 9550SOL     OW40111   3.002   1.473   1.082 -0.1188  0.4194  0.5601
 9550SOL    HW140112   2.962   1.557   1.104 -2.5759 -0.0409 -2.1098
 9550SOL    HW240113   2.967   1.469   0.994  0.6253  0.8898  0.2415
 9551SOL     OW40114   3.311   0.811  14.244 -0.9205  0.3477  0.2834
 9551SOL    HW140115   3.355   0.745  14.297 -1.2849 -1.7531 -2.0277
 9551SOL    HW240116   3.217   0.800  14.259 -0.3528 -1.4648  2.4657
 9552SOL     OW40117   3.008   4.027  15.432 -0.0002  0.2386  0.4478
 9552SOL    HW140118   3.094   4.067  15.419 -0.2807  0.2252 -1.4723
 9552SOL    HW240119   2.978   4.003  15.344  0.7713  0.8287  0.0249
 9553SOL     OW40120   0.977   3.287  10.216 -0.2151  0.0966 -0.0179
 9553SOL    HW140121   0.975   3.250  10.128  0.7561  0.2085 -0.0891
 9553SOL    HW240122   1.054   3.343  10.203 -1.3769  1.3302 -1.4823
 9554SOL     OW40123   1.786   0.036   9.527 -0.0826 -0.1025 -0.4428
 9554SOL    HW140124   1.878   0.045   9.504 -0.0326  2.3755  0.6942
 9554SOL    HW240125   1.776   4.661   9.520 -0.4910  0.0375 -1.7011
 9555SOL     OW40126   1.301   3.098   7.958 -0.7655 -0.3320 -0.5335
 9555SOL    HW140127   1.244   3.175   7.966  0.0540  0.2492 -0.2228
 9555SOL    HW240128   1.378   3.128   8.008 -1.1936  0.5050 -0.3642
 9556SOL     OW40129   4.348   0.236   5.787 -0.3662  0.4789  1.0148
 9556SOL    HW140130   4.394   0.295   5.846  2.6580 -0.1892 -0.6662
 9556SOL    HW240131   4.393   0.152   5.787 -0.3934  0.4649  2.4591
 9557SOL     OW40132   3.581   1.998   3.599  0.0864  0.2732  0.3605
 9557SOL    HW140133   3.516   2.027   3.535 -2.8434 -0.4666  2.9853
 9557SOL    HW240134   3.550   1.911   3.623  1.2771 -0.4439 -0.7674
 9558SOL     OW40135   0.069   2.822   5.444  0.0464  0.0894  0.1234
 9558SOL    HW140136   0.027   2.772   5.514 -0.4117  1.0597  0.5462
 9558SOL    HW240137   0.160   2.827   5.476  0.2167  1.9437 -0.6293
 9559SOL     OW40138   1.319   3.706  10.784  0.0622  0.1492  0.1724
 9559SOL    HW140139   1.311   3.801  10.775  2.5552  0.2759 -0.6855
 9559SOL    HW240140   1.309   3.691  10.690  0.0286  0.8041  0.0732
 9560SOL     OW40141   1.624   3.291   1.792 -0.1131 -0.2240  0.0848
 9560SOL    HW140142   1.597   3.283   1.883  0.1988 -0.3179  0.1712
 9560SOL    HW240143   1.718   3.304   1.807 -0.2474 -0.6938  1.3313
 9561SOL     OW40144   3.152   2.267   9.895  0.3523 -0.7576 -0.8868
 9561SOL    HW140145   3.057   2.264   9.897  0.2937  1.5954 -0.7294
 9561SOL    HW240146   3.177   2.187   9.847 -1.7000 -1.9988  0.1002
 9562SOL     OW40147   0.864   4.692   6.706 -0.5523  0.0758 -0.4963
 9562SOL    HW140148   0.773   4.694   6.737 -0.4050 -0.6353 -0.0034
 9562SOL    HW240149   0.911   4.714   6.787  0.3928 -0.4427 -0.9047
 9563SOL     OW40150   3.015   2.756   2.582  0.1056  0.8269 -0.0430
 9563SOL    HW140151   2.983   2.844   2.563  0.8595  0.6028 -2.2612
 9563SOL    HW240152   3.103   2.752   2.546  0.6317 -1.4403  1.4619
 9564SOL     OW40153   3.990   0.836   5.752  0.3427 -0.1780 -0.5611
 9564SOL    HW140154   3.954   0.779   5.820  1.0747  1.2694  1.0496
 9564SOL    HW240155   4.052   0.770   5.723  0.2150 -0.5166 -0.0736
 9565SOL     OW40156   1.356   2.478   3.525  0.3932  0.2538  0.4516
 9565SOL    HW140157   1.315   2.515   3.603 -0.2566 -0.4514  0.4511
 9565SOL    HW240158   1.392   2.561   3.493 -1.4371 -0.3327 -3.1276
 9566SOL     OW40159   1.592   1.634   6.041 -0.2584 -0.0274  0.1506
 9566SOL    HW140160   1.513   1.683   6.063 -1.2621 -0.9219 -1.4900
 9566SOL    HW240161   1.557   1.550   6.071 -1.1847 -0.4354 -2.1216
 9567SOL     OW40162   4.540   2.368  13.739 -0.4813  0.4665  0.6030
 9567SOL    HW140163   4.515   2.379  13.648  3.9359 -2.3152 -0.9634
 9567SOL    HW240164   4.487   2.301  13.784 -0.5996  0.2163  0.0865
 9568SOL     OW40165   1.577   3.284   1.136  0.3032 -0.4770  0.3524
 9568SOL    HW140166   1.600   3.218   1.070 -1.5658 -1.1848  0.4237
 9568SOL    HW240167   1.501   3.243   1.176  0.5683 -1.3349 -0.0229
   4.71979   4.71979  17.68188
