Membrane in water
40167
    1TCq1    O1    1   3.891   0.994  11.054  0.6669 -0.4789  0.2525
    1TCq1    C1    2   3.931   0.937  10.935  0.1404 -0.2828  0.0504
    1TCq1    O2    3   3.877   0.952  10.827 -0.0038  0.0755  0.4065
    1TCq1    C2    4   4.068   0.899  10.937  0.3127 -0.3503 -0.1637
    1TCq1    C3    5   4.131   0.897  10.814  0.3957 -0.4535  0.2117
    1TCq1    C4    6   4.262   0.878  10.807  0.7483 -0.3136  0.5624
    1TCq1    C5    7   4.335   0.894  10.920  0.1583 -0.6829  0.0425
    1TCq1    C6    8   4.265   0.875  11.042 -0.3383  0.1277  0.4701
    1TCq1    C7    9   4.134   0.878  11.050 -0.1018  0.2300 -0.1853
    1TCq1    C8   10   4.336   0.853  11.166  0.5893 -0.1000  0.7550
    1TCq1    O4   11   4.279   0.888  11.268  0.2509 -0.0288 -0.5309
    1TCq1    C9   12   4.332   0.894  10.686 -0.6104  0.0415  0.1225
    1TCq1    O5   13   4.461   0.904  10.687  0.3688 -0.5434  0.4586
    1TCq1    O6   14   4.265   0.900  10.576 -0.8929 -0.3068  0.2445
    1TCq1    H1   15   3.953   0.984  11.129  1.2092  1.5043  0.0483
    1TCq1    H2   16   4.074   0.911  10.724  2.3922  0.6700 -0.8842
    1TCq1    H3   17   4.443   0.886  10.919  0.0948 -1.5871  0.2378
    1TCq1    H4   18   4.082   0.863  11.144 -0.5269  0.1416 -0.4322
    2MPD2     C   19   0.040   0.704  11.413  0.3099 -0.8145 -0.1510
    2MPD2    C1   20   4.655   0.769  11.464 -1.0579  0.2463  0.2456
    2MPD2    C2   21   4.550   0.804  11.375  0.0707 -0.2218 -0.3394
    2MPD2    C3   22   4.558   0.756  11.246  0.4661  0.3994  0.1980
    2MPD2    C4   23   4.667   0.690  11.201  0.1842 -0.4978 -0.1772
    2MPD2    C5   24   0.050   0.666  11.285 -0.2836  0.0996  0.6629
    2MPD2     H   25   4.455   0.846  11.406  0.5047 -1.7912  3.1689
    2MPD2    H1   26   4.662   0.640  11.105  0.9858 -0.6879 -0.1205
    2MPD2    H2   27   0.129   0.686  11.473 -0.2290 -2.9699 -0.0128
    2MPD2    H3   28   0.132   0.602  11.255 -0.8608 -0.2681 -0.1253
    2MPD2     N   29   4.456   0.784  11.149 -0.2625  0.2443  0.3645
    2MPD2    H5   30   4.486   0.760  11.055 -1.3983 -1.1374  0.3562
    2MPD2    N1   31   4.645   0.814  11.598 -0.0597  0.5590  0.5705
    2MPD2    H7   32   4.558   0.860  11.623 -2.0430 -2.4527 -0.6636
    3TCq1    O1   33   3.362   1.534  10.764 -0.4130 -0.7111 -0.1385
    3TCq1    C1   34   3.477   1.504  10.698 -1.1723  0.5838  0.2053
    3TCq1    O2   35   3.480   1.477  10.581  0.3674 -0.6089 -0.3032
    3TCq1    C2   36   3.579   1.593  10.749 -0.2734  0.3288 -0.3955
    3TCq1    C3   37   3.655   1.662  10.661  0.0694  0.0028 -0.7108
    3TCq1    C4   38   3.745   1.745  10.715 -0.4056 -0.1149  0.6538
    3TCq1    C5   39   3.759   1.760  10.848 -0.0609  0.1311 -0.5036
    3TCq1    C6   40   3.686   1.686  10.935  0.0901 -0.0091  0.6273
    3TCq1    C7   41   3.589   1.608  10.884 -0.3110 -0.1768 -0.3006
    3TCq1    C8   42   3.684   1.710  11.074 -0.1432 -0.6475  0.0843
    3TCq1    O4   43   3.623   1.625  11.140 -0.2153 -0.0351 -0.0323
    3TCq1    C9   44   3.820   1.830  10.627 -0.4786 -0.8225 -0.2499
    3TCq1    O5   45   3.922   1.893  10.672 -0.5072 -0.1554 -0.0560
    3TCq1    O6   46   3.782   1.830  10.507  0.3505 -0.0126  0.2313
    3TCq1    H1   47   3.360   1.552  10.860 -1.6167  1.9909 -0.6784
    3TCq1    H2   48   3.658   1.642  10.555  0.0764 -1.1079 -0.5055
    3TCq1    H3   49   3.826   1.838  10.880 -0.9184  1.1844 -1.2882
    3TCq1    H4   50   3.541   1.532  10.945  1.7066 -2.2408 -1.2622
    4MPD2     C   51   3.796   1.978  11.499  0.1248  0.1480  0.0290
    4MPD2    C1   52   3.812   2.063  11.385  0.4056  0.3813  0.1333
    4MPD2    C2   53   3.804   2.002  11.259  0.4210  0.0436 -0.0980
    4MPD2    C3   54   3.754   1.879  11.244  0.4809  0.4912 -0.3939
    4MPD2    C4   55   3.717   1.811  11.356 -0.4869  0.6513 -0.0228
    4MPD2    C5   56   3.747   1.855  11.484 -0.9322  0.3381  0.2555
    4MPD2     H   57   3.832   2.059  11.171 -2.4262 -2.3464 -2.5596
    4MPD2    H1   58   3.665   1.716  11.356  3.2394 -1.3789 -0.1842
    4MPD2    H2   59   3.799   2.015  11.601 -0.7973 -0.0199  0.1215
    4MPD2    H3   60   3.722   1.791  11.568  0.3685  1.7110  1.6952
    4MPD2     N   61   3.740   1.830  11.110  0.1171 -0.0275 -0.2377
    4MPD2    H5   62   3.764   1.892  11.033  0.5320 -0.0765 -0.1476
    4MPD2    N1   63   3.847   2.198  11.401 -0.0844  0.1406  0.7727
    4MPD2    H7   64   3.849   2.254  11.316  1.8071 -2.8241 -1.1497
    5TCq1    O1   65   0.075   4.109  12.065  0.4172 -0.3507 -0.5669
    5TCq1    C1   66   0.018   4.048  12.168  0.7823  0.2994 -0.4747
    5TCq1    O2   67   0.059   4.029  12.280 -0.3638  0.1238 -0.4883
    5TCq1    C2   68   4.612   3.996  12.108  0.1280 -0.6519 -0.9419
    5TCq1    C3   69   4.513   3.959  12.189  0.1288  0.4200  0.5802
    5TCq1    C4   70   4.416   3.863  12.155 -0.4816 -0.5110 -0.1124
    5TCq1    C5   71   4.432   3.805  12.028 -0.0616 -0.3803 -0.0637
    5TCq1    C6   72   4.535   3.851  11.948  0.4670  0.0364 -0.1585
    5TCq1    C7   73   4.627   3.940  11.985 -0.6803 -0.6990 -0.5728
    5TCq1    C8   74   4.539   3.803  11.809 -0.1489  0.0123  0.4148
    5TCq1    O4   75   4.626   3.845  11.728 -0.9184  0.1414  0.5056
    5TCq1    C9   76   4.319   3.825  12.252 -0.1052 -0.4868 -0.9197
    5TCq1    O5   77   4.260   3.711  12.232 -0.3986 -0.1667  0.1736
    5TCq1    O6   78   4.283   3.913  12.337 -0.5908 -0.3137 -0.4435
    5TCq1    H1   79   0.009   4.135  11.996 -1.9049  2.2623  2.6228
    5TCq1    H2   80   4.503   4.001  12.288  0.3344  0.1312  0.7246
    5TCq1    H3   81   4.362   3.730  11.993 -0.8323  0.0702  0.5219
    5TCq1    H4   82   4.702   3.964  11.910  1.1646 -1.8138  0.9208
    6MPD2     C   83   4.348   3.521  11.671  0.2001  0.5241 -0.5133
    6MPD2    C1   84   4.456   3.604  11.688 -0.1972 -0.7533 -0.6251
    6MPD2    C2   85   4.576   3.572  11.616 -0.1236  0.8104  0.1395
    6MPD2    C3   86   4.585   3.460  11.535  0.2648  0.5435  0.3401
    6MPD2    C4   87   4.473   3.381  11.519  0.1023  0.0448  0.0475
    6MPD2    C5   88   4.362   3.410  11.591 -0.2931  0.8695 -0.2167
    6MPD2     H   89   4.669   3.628  11.625 -0.0906  0.8123 -0.2232
    6MPD2    H1   90   4.469   3.295  11.454 -0.4788  1.0492 -1.2682
    6MPD2    H2   91   4.253   3.549  11.715  0.2689  1.3610 -0.8919
    6MPD2    H3   92   4.277   3.347  11.569 -0.5826 -0.0041  3.4659
    6MPD2     N   93   4.709   3.425  11.466 -0.0020  0.1065 -0.1944
    6MPD2    H5   94   0.062   3.494  11.469 -1.3956  1.5024  1.5937
    6MPD2    N1   95   4.443   3.712  11.778 -0.0737  0.2148  0.4504
    6MPD2    H7   96   4.357   3.721  11.831 -0.5898  2.1196 -0.7177
    7TCq1    O1   97   0.959   2.470  12.891  0.0438 -0.8063  0.1908
    7TCq1    C1   98   1.095   2.475  12.911  0.2308  0.6365 -1.4490
    7TCq1    O2   99   1.172   2.424  12.834 -0.5109  0.3126 -0.0612
    7TCq1    C2  100   1.118   2.482  13.054 -0.7527 -0.3517  0.3534
    7TCq1    C3  101   1.024   2.543  13.132 -0.0626  0.1388  0.6837
    7TCq1    C4  102   1.052   2.552  13.273 -0.0070 -0.0082  0.1401
    7TCq1    C5  103   1.166   2.512  13.331 -0.9243  0.8119  0.2433
    7TCq1    C6  104   1.248   2.448  13.240  0.2784  0.4867 -0.2248
    7TCq1    C7  105   1.226   2.427  13.102  0.2122  0.1880 -0.2581
    7TCq1    C8  106   1.371   2.411  13.294 -0.1718 -0.6751 -0.4926
    7TCq1    O4  107   1.409   2.304  13.253 -0.2711  0.6391  0.2026
    7TCq1    C9  108   0.957   2.612  13.367 -0.9748  0.0446 -0.1934
    7TCq1    O5  109   0.975   2.586  13.489 -0.3379 -0.6429 -0.3819
    7TCq1    O6  110   0.861   2.663  13.307  0.1639  0.7077 -0.4265
    7TCq1    H1  111   0.895   2.456  12.964 -0.0101  1.8421  0.6392
    7TCq1    H2  112   0.927   2.578  13.100  0.6054  2.0872  0.7952
    7TCq1    H3  113   1.185   2.527  13.437  1.8987  0.2131 -0.1939
    7TCq1    H4  114   1.299   2.383  13.035 -1.5573 -2.0974 -0.6801
    8MPD2     C  115   1.741   2.408  13.649 -1.2828 -0.5437 -0.2769
    8MPD2    C1  116   1.723   2.329  13.541 -0.0363  0.1184 -0.0326
    8MPD2    C2  117   1.615   2.349  13.459 -1.5371 -0.3792 -0.0823
    8MPD2    C3  118   1.538   2.462  13.469  0.3620 -0.3849 -0.7798
    8MPD2    C4  119   1.560   2.536  13.578 -0.2932  0.3227  0.1265
    8MPD2    C5  120   1.658   2.513  13.673 -0.3799  0.3388  0.3040
    8MPD2     H  121   1.594   2.276  13.381 -1.0447  0.4165 -0.9604
    8MPD2    H1  122   1.496   2.622  13.596 -1.6402 -1.0639  1.9232
    8MPD2    H2  123   1.820   2.389  13.721 -0.0479 -0.5184 -1.6268
    8MPD2    H3  124   1.668   2.574  13.761  0.3895 -0.5869  0.8610
    8MPD2     N  125   1.418   2.493  13.396 -0.2886  0.0397 -0.0228
    8MPD2    H5  126   1.369   2.581  13.410  0.6678  0.6018 -0.1866
    8MPD2    N1  127   1.796   2.213  13.526 -0.2500 -0.2784 -0.2986
    8MPD2    H7  128   1.763   2.153  13.452 -0.3140 -1.2145  0.4922
    9TCq1    O1  129   4.028   1.961  10.912 -0.6430  0.0805 -0.1539
    9TCq1    C1  130   4.153   1.960  10.962 -0.6185 -0.0575  0.5076
    9TCq1    O2  131   4.180   1.989  11.081 -0.6459 -0.2739  0.7079
    9TCq1    C2  132   4.254   1.946  10.857  0.2574  0.2250  0.8136
    9TCq1    C3  133   4.220   1.954  10.719  0.1201 -0.8121  0.1794
    9TCq1    C4  134   4.323   1.939  10.626 -0.2441  0.4724 -0.2652
    9TCq1    C5  135   4.451   1.897  10.662  0.4896  0.1592  0.5617
    9TCq1    C6  136   4.469   1.892  10.797 -0.4268 -0.3777 -0.1877
    9TCq1    C7  137   4.378   1.915  10.894  0.4412  0.0590 -0.4052
    9TCq1    C8  138   4.603   1.839  10.833 -0.7571 -0.1919  0.3672
    9TCq1    O4  139   4.686   1.796  10.748 -0.4101  0.1888 -0.4260
    9TCq1    C9  140   4.297   1.937  10.489  0.3170  0.1257  0.3400
    9TCq1    O5  141   4.396   1.910  10.414 -0.0637  0.2843  0.5804
    9TCq1    O6  142   4.177   1.958  10.456 -0.2148 -0.5716 -0.2268
    9TCq1    H1  143   4.020   1.946  10.815 -1.3677 -1.1517  0.0842
    9TCq1    H2  144   4.132   2.006  10.683  0.2476  0.1672  1.2943
    9TCq1    H3  145   4.526   1.871  10.588 -1.0997 -2.2451 -0.1985
    9TCq1    H4  146   4.403   1.893  10.997 -1.6822  1.2134  0.3620
   10MPD2     C  147   0.140   1.795  10.983 -0.2812  0.3671  0.5075
   10MPD2    C1  148   0.026   1.854  11.032 -0.4998 -0.1675  0.4098
   10MPD2    C2  149   0.024   1.888  11.167  0.8999 -0.1462 -0.1183
   10MPD2    C3  150   0.135   1.866  11.253 -0.1562  0.5625  0.3518
   10MPD2    C4  151   0.254   1.833  11.199  0.4256 -0.5609  0.5502
   10MPD2    C5  152   0.250   1.786  11.066 -0.5713  0.1676 -0.4696
   10MPD2     H  153   4.649   1.909  11.214 -1.1916 -2.2244 -3.4304
   10MPD2    H1  154   0.341   1.822  11.263  0.4461  1.0195  0.7971
   10MPD2    H2  155   0.138   1.755  10.883 -1.0780  1.7469 -0.0205
   10MPD2    H3  156   0.337   1.742  11.018 -0.4750 -0.7310  0.5376
   10MPD2     N  157   0.129   1.881  11.394  0.1805 -0.2828 -0.5132
   10MPD2    H5  158   0.215   1.874  11.448 -1.3484 -0.7719  1.8821
   10MPD2    N1  159   4.628   1.861  10.964  0.6784 -0.5342  0.1961
   10MPD2    H7  160   4.556   1.912  11.014  0.5054 -1.3970  0.8188
   11TCq1    O1  161   0.963   1.364  14.704  0.0145 -0.1716  0.2924
   11TCq1    C1  162   0.879   1.466  14.743 -0.1962 -0.7398 -0.0944
   11TCq1    O2  163   0.794   1.470  14.826 -0.1184 -0.4077  0.0737
   11TCq1    C2  164   0.887   1.572  14.642  0.6577  0.3838 -0.3648
   11TCq1    C3  165   1.009   1.623  14.615 -0.2340  0.8195  0.4127
   11TCq1    C4  166   1.017   1.728  14.525  0.0859  0.1934  0.2394
   11TCq1    C5  167   0.906   1.771  14.455 -0.5466  0.5660  0.1309
   11TCq1    C6  168   0.788   1.715  14.496 -0.5526 -0.3399 -0.4132
   11TCq1    C7  169   0.771   1.611  14.582  0.2269 -0.2422  0.2261
   11TCq1    C8  170   0.681   1.746  14.400 -0.3145 -0.7771  0.3930
   11TCq1    O4  171   0.681   1.842  14.324  0.3303  0.3452 -0.4371
   11TCq1    C9  172   1.145   1.778  14.486 -0.4799 -0.4129 -0.1202
   11TCq1    O5  173   1.156   1.816  14.368 -0.3420  0.4784 -0.5645
   11TCq1    O6  174   1.235   1.783  14.575 -0.0194  0.0470  0.0070
   11TCq1    H1  175   1.021   1.377  14.627  1.7327  0.0322  1.6335
   11TCq1    H2  176   1.100   1.591  14.665  0.0748  1.6947  0.4146
   11TCq1    H3  177   0.905   1.852  14.383 -0.7878  0.2282 -0.2446
   11TCq1    H4  178   0.680   1.565  14.616  0.8692 -0.7413  1.2798
   12MPD2     C  179   0.418   1.771  14.267 -0.3131  0.0324  0.3039
   12MPD2    C1  180   0.490   1.652  14.280 -0.7297  0.3035  0.9048
   12MPD2    C2  181   0.444   1.540  14.220  0.3866 -0.0550 -0.0931
   12MPD2    C3  182   0.336   1.544  14.133 -0.5113 -0.0501  1.0893
   12MPD2    C4  183   0.275   1.667  14.108 -0.1038 -0.3168  0.5510
   12MPD2    C5  184   0.316   1.776  14.177 -0.0363 -0.3700  0.5173
   12MPD2     H  185   0.490   1.442  14.234 -0.8906 -0.6703 -0.2574
   12MPD2    H1  186   0.200   1.677  14.030  0.2810  2.1307  0.4854
   12MPD2    H2  187   0.448   1.868  14.305 -0.0645 -0.4050  1.2166
   12MPD2    H3  188   0.260   1.868  14.161  0.4464  0.1746  1.9793
   12MPD2     N  189   0.302   1.419  14.070 -0.0302 -0.8016  0.4762
   12MPD2    H5  190   0.360   1.337  14.085 -0.1174 -0.7417  1.1253
   12MPD2    N1  191   0.600   1.639  14.371 -0.4544  0.0933 -0.4343
   12MPD2    H7  192   0.609   1.542  14.399 -1.8498  0.1606  0.2839
   13TCq1    O1  193   0.436   1.496  10.720 -0.7913  0.0736  0.3217
   13TCq1    C1  194   0.350   1.477  10.823  0.0340  0.3519  0.9037
   13TCq1    O2  195   0.367   1.507  10.940  0.2232 -0.1281  0.1195
   13TCq1    C2  196   0.227   1.440  10.769  0.4330  0.1504  1.1045
   13TCq1    C3  197   0.216   1.357  10.656 -0.3840 -0.2103 -0.0254
   13TCq1    C4  198   0.084   1.336  10.610  0.9269 -0.6571 -0.4651
   13TCq1    C5  199   4.696   1.385  10.679 -0.0988 -0.3602  0.5148
   13TCq1    C6  200   4.715   1.462  10.789  0.2434 -0.4892 -0.2501
   13TCq1    C7  201   0.121   1.493  10.836 -0.1533 -0.7446 -1.2443
   13TCq1    C8  202   4.602   1.487  10.880 -0.1414 -0.2683  0.1820
   13TCq1    O4  203   4.633   1.495  11.000  0.2459  0.3791 -0.8221
   13TCq1    C9  204   0.063   1.228  10.513  0.2844  0.1923 -0.4024
   13TCq1    O5  205   0.159   1.199  10.441 -0.6838  0.2012 -0.1941
   13TCq1    O6  206   4.664   1.193  10.507  0.1997  0.3437  0.8618
   13TCq1    H1  207   0.396   1.483  10.631  0.0654  2.0995 -0.3554
   13TCq1    H2  208   0.297   1.294  10.620  0.8178 -0.2533  2.7825
   13TCq1    H3  209   4.596   1.366  10.643 -0.2376 -2.3808  1.8992
   13TCq1    H4  210   0.136   1.544  10.930  1.3895 -2.1362 -0.7434
   14MPD2     C  211   4.267   1.579  10.769  0.0765 -0.4359 -0.4484
   14MPD2    C1  212   4.361   1.554  10.861  0.6154 -0.5380 -0.0780
   14MPD2    C2  213   4.337   1.569  10.998  0.9773  0.0090  0.2431
   14MPD2    C3  214   4.205   1.597  11.037  0.7041  0.3065  0.1870
   14MPD2    C4  215   4.104   1.604  10.943  0.0295 -0.0992 -0.0500
   14MPD2    C5  216   4.137   1.610  10.813  0.3597 -0.6279  0.2159
   14MPD2     H  217   4.417   1.572  11.070  0.6212 -0.1601  0.6440
   14MPD2    H1  218   3.998   1.620  10.959 -0.5802 -2.0487 -2.1225
   14MPD2    H2  219   4.291   1.582  10.663  1.2814 -0.4324 -0.1672
   14MPD2    H3  220   4.074   1.649  10.734 -1.8754 -0.2605  2.2131
   14MPD2     N  221   4.180   1.629  11.170 -0.4450 -0.3879  0.0103
   14MPD2    H5  222   4.264   1.634  11.227  0.6044  1.1730 -1.6663
   14MPD2    N1  223   4.485   1.511  10.810  0.3699  0.5281  0.1972
   14MPD2    H7  224   4.488   1.499  10.709 -2.6146 -0.9208  0.2807
   15TCq1    O1  225   3.256   1.230   1.721 -0.1542  0.3314  0.4085
   15TCq1    C1  226   3.137   1.259   1.666  0.0285  1.2280 -1.0641
   15TCq1    O2  227   3.111   1.240   1.547 -0.7259  0.0671  0.5816
   15TCq1    C2  228   3.038   1.244   1.770  0.1356 -0.8493 -0.0217
   15TCq1    C3  229   3.050   1.298   1.898 -0.7848 -0.8580 -0.2530
   15TCq1    C4  230   2.951   1.278   1.989 -0.4662  0.4976 -0.1225
   15TCq1    C5  231   2.846   1.200   1.962 -0.5992 -0.1116 -0.3717
   15TCq1    C6  232   2.841   1.140   1.836  0.1637  0.4423  1.1464
   15TCq1    C7  233   2.932   1.167   1.738 -0.3017  0.2473  0.6736
   15TCq1    C8  234   2.755   1.023   1.822 -0.0917  0.1725 -0.0158
   15TCq1    O4  235   2.788   0.939   1.740  0.5518 -0.0051 -0.2078
   15TCq1    C9  236   2.963   1.338   2.113  0.2866 -0.4144 -0.7684
   15TCq1    O5  237   3.072   1.388   2.143  0.7258 -0.7078  0.0279
   15TCq1    O6  238   2.868   1.329   2.191  0.2290 -0.1140 -0.0145
   15TCq1    H1  239   3.268   1.228   1.818 -3.0184  1.2666  0.7981
   15TCq1    H2  240   3.133   1.363   1.924 -0.4627 -1.4320  0.1375
   15TCq1    H3  241   2.773   1.195   2.042  0.2933  2.3145  0.5694
   15TCq1    H4  242   2.926   1.107   1.648 -1.7295 -2.8226  2.8005
   16MPD2     C  243   2.448   0.932   2.004  0.3655  0.3998 -0.3593
   16MPD2    C1  244   2.554   0.923   1.918 -0.4468 -0.6188 -0.4990
   16MPD2    C2  245   2.575   0.801   1.856 -0.1067  0.1933  0.3698
   16MPD2    C3  246   2.484   0.699   1.861  0.8712 -0.5892 -0.9254
   16MPD2    C4  247   2.366   0.717   1.932  0.0907 -0.0641 -0.3064
   16MPD2    C5  248   2.348   0.835   2.003  0.1706  0.7974 -0.0754
   16MPD2     H  249   2.660   0.764   1.799 -0.1040 -1.7781  1.6588
   16MPD2    H1  250   2.286   0.644   1.930  0.5384 -0.5825  0.9236
   16MPD2    H2  251   2.423   1.017   2.067  0.4800 -0.4230  0.7928
   16MPD2    H3  252   2.266   0.845   2.074 -0.6058 -2.0640 -0.5942
   16MPD2     N  253   2.516   0.579   1.810  0.1128  0.9822 -0.3519
   16MPD2    H5  254   2.613   0.561   1.785 -0.4612  1.8126 -3.1116
   16MPD2    N1  255   2.650   1.025   1.908 -0.6326 -0.5098  0.0250
   16MPD2    H7  256   2.636   1.106   1.968  0.4586 -1.0011  0.9441
   17TCq1    O1  257   3.839   1.350  10.723 -0.4044  0.4263  0.0558
   17TCq1    C1  258   3.867   1.335  10.857 -0.7520 -0.3997  0.3385
   17TCq1    O2  259   3.839   1.418  10.941  0.1133 -0.5133 -0.5081
   17TCq1    C2  260   3.997   1.267  10.865  0.2904 -0.7507  0.0007
   17TCq1    C3  261   4.070   1.250  10.756  0.5095 -0.3435  0.9306
   17TCq1    C4  262   4.209   1.241  10.764  0.0170 -0.3508 -1.2589
   17TCq1    C5  263   4.264   1.223  10.886  0.1603  0.2198  0.2549
   17TCq1    C6  264   4.190   1.255  11.002  1.1205  0.0520  0.4858
   17TCq1    C7  265   4.056   1.276  10.992  0.2158  0.2571  0.5376
   17TCq1    C8  266   4.248   1.263  11.138 -0.6362  0.4883 -0.6723
   17TCq1    O4  267   4.177   1.273  11.235 -0.1764  0.3367  0.0186
   17TCq1    C9  268   4.283   1.249  10.643 -0.3592  0.4299  0.2687
   17TCq1    O5  269   4.404   1.234  10.657  0.1012 -0.2079  0.1926
   17TCq1    O6  270   4.221   1.259  10.535  0.0604 -0.1513 -0.6592
   17TCq1    H1  271   3.843   1.270  10.666 -0.9717 -0.3611  1.1191
   17TCq1    H2  272   4.035   1.255  10.654  1.4609 -0.4544  0.6022
   17TCq1    H3  273   4.370   1.200  10.883  0.3753  0.9938  2.2078
   17TCq1    H4  274   4.010   1.318  11.080  0.3176  2.2032 -0.3343
   18MPD2     C  275   4.435   1.202  11.374  0.0574  0.0113  0.0795
   18MPD2    C1  276   4.472   1.213  11.242 -0.6298 -0.4900  0.5065
   18MPD2    C2  277   4.609   1.199  11.221  0.0785  0.2535 -0.3596
   18MPD2    C3  278   4.694   1.151  11.314 -0.2233  0.8227 -0.3349
   18MPD2    C4  279   4.654   1.146  11.444 -0.8171 -0.2955 -0.1050
   18MPD2    C5  280   4.524   1.176  11.474  0.1937 -0.3870  0.2985
   18MPD2     H  281   4.643   1.210  11.119 -1.6926 -3.4032 -1.3366
   18MPD2    H1  282   0.012   1.125  11.515  0.2187 -1.0449 -1.4739
   18MPD2    H2  283   4.332   1.212  11.406  0.7601 -0.4047  2.4374
   18MPD2    H3  284   4.489   1.183  11.577  0.9409 -2.3443  0.6729
   18MPD2     N  285   0.106   1.113  11.274  0.1206 -0.7023  0.6976
   18MPD2    H5  286   0.159   1.053  11.336  2.3346  1.9374  1.3801
   18MPD2    N1  287   4.385   1.245  11.134  0.0464 -0.0418 -0.5488
   18MPD2    H7  288   4.424   1.240  11.041 -0.6240 -1.0146 -0.7826
   19TMC2    C1  289   1.349   1.413  14.101  0.0413 -0.2621 -0.4523
   19TMC2    C2  290   1.261   1.497  14.039  0.6493  0.3919  0.1231
   19TMC2    C3  291   1.173   1.442  13.944 -0.1869  0.0403  0.1666
   19TMC2    C4  292   1.367   1.279  14.076 -0.2851  0.3720  0.1024
   19TMC2    C5  293   1.288   1.238  13.968 -0.4402 -0.3328  0.0180
   19TMC2    C6  294   1.198   1.317  13.903  0.0901  0.4669 -0.6238
   19TMC2     C  295   1.439   1.483  14.197 -0.3380 -0.3194  0.0810
   19TMC2     O  296   1.444   1.603  14.196  0.1772 -0.2822  0.6557
   19TMC2     H  297   1.249   1.599  14.074 -0.8644 -0.1029  1.0813
   19TMC2    H1  298   1.431   1.212  14.133  2.3183  0.2915 -2.9603
   19TMC2    H2  299   1.137   1.266  13.830  0.9607  0.7469 -1.5644
   19TMC2    C7  300   1.290   1.096  13.941  0.1017  0.0909 -0.7643
   19TMC2    C8  301   1.119   1.525  13.841  0.0307 -0.1786  0.4898
   19TMC2    O1  302   1.327   1.023  14.032  0.1558 -0.0844  0.1692
   19TMC2    O2  303   1.100   1.472  13.728 -0.2943 -1.3031  0.3330
   19TMC2    O5  304   1.077   1.651  13.871  0.4273  0.2745 -0.2258
   19TMC2    H5  305   1.076   1.677  13.965 -0.4996  0.8270 -0.3926
   20MPD2     C  306   1.685   1.522  14.348  0.4384 -0.6004 -0.1307
   20MPD2    C1  307   1.599   1.419  14.368  0.1544 -0.3424  0.3946
   20MPD2    C2  308   1.637   1.330  14.462 -0.6301  0.0898  0.7190
   20MPD2    C3  309   1.737   1.344  14.556  0.2790  0.2788  0.3962
   20MPD2    C4  310   1.812   1.457  14.537  0.2613  0.0524  0.4647
   20MPD2    C5  311   1.792   1.537  14.432  0.0988  0.1092  0.2114
   20MPD2     H  312   1.574   1.242  14.461  1.4289 -1.3687  0.1215
   20MPD2    H1  313   1.890   1.487  14.607  0.2242  0.2696  0.4116
   20MPD2    H2  314   1.669   1.593  14.268 -2.0053 -2.5317 -1.3642
   20MPD2    H3  315   1.857   1.623  14.421  1.2565 -0.7733  0.1677
   20MPD2     N  316   1.767   1.246  14.661  0.4628 -0.0729 -0.3494
   20MPD2    H5  317   1.841   1.274  14.724 -0.8176  0.2394  1.0241
   20MPD2    N1  318   1.486   1.392  14.290 -0.1859 -0.1400 -1.3172
   20MPD2    H7  319   1.447   1.298  14.292  1.0569 -0.6372 -0.2785
   21MPD2     C  320   4.412   1.861  14.504 -0.0980  0.9211  0.4674
   21MPD2    C1  321   4.432   1.723  14.509 -0.6555  0.5912  0.7856
   21MPD2    C2  322   4.324   1.641  14.541  0.3932 -0.0035  0.1921
   21MPD2    C3  323   4.195   1.687  14.561  0.0670  0.4675  1.1985
   21MPD2    C4  324   4.179   1.824  14.541 -0.3953 -0.5966 -0.4536
   21MPD2    C5  325   4.285   1.909  14.519  0.2652 -0.8942  0.0240
   21MPD2     H  326   4.350   1.539  14.567  0.6893 -0.0746 -0.3849
   21MPD2    H1  327   4.086   1.877  14.553 -1.5392 -2.5986 -0.4879
   21MPD2    H2  328   4.495   1.927  14.479 -0.0359 -0.1576 -2.1710
   21MPD2    H3  329   4.273   2.016  14.512  2.0469 -0.6235  1.0969
   21MPD2     N  330   4.090   1.608  14.618  0.7584 -0.0510 -0.1419
   21MPD2    H5  331   4.006   1.656  14.649 -0.6913 -1.8038 -1.3568
   21MPD2    N1  332   4.557   1.664  14.497 -0.7378  0.0597 -0.2529
   21MPD2    H7  333   4.559   1.562  14.494 -2.1558 -0.0121  1.1542
   22TCq2    C1  334   4.089   1.475  14.630 -0.1317 -0.1354 -0.2818
   22TCq2    O2  335   4.176   1.395  14.599 -0.3044  0.7746  0.3031
   22TCq2    C2  336   3.979   1.420  14.715 -0.0159 -0.2690  0.6437
   22TCq2    C3  337   4.008   1.300  14.777 -0.1146 -0.3475  0.0261
   22TCq2    C4  338   3.980   1.282  14.909  0.0455  0.7994  1.2450
   22TCq2    C5  339   3.907   1.376  14.981  0.4823  0.0153 -0.1088
   22TCq2    C6  340   3.873   1.492  14.914 -0.0238  0.5185 -0.0566
   22TCq2    C7  341   3.900   1.515  14.781  0.2780 -0.0736 -0.5712
   22TCq2    C8  342   3.822   1.597  15.002 -0.0320 -1.2353  0.7809
   22TCq2    O4  343   3.837   1.600  15.121 -0.2398 -0.1795 -0.2761
   22TCq2    C9  344   4.030   1.175  14.987 -0.4072 -0.0695  0.2066
   22TCq2    O5  345   4.083   1.084  14.924 -0.4144  0.2985 -0.2359
   22TCq2    O6  346   3.992   1.153  15.107  0.0815  0.1380 -0.1641
   22TCq2    H2  347   4.064   1.230  14.716 -2.2516 -1.0522 -1.1611
   22TCq2    H3  348   3.902   1.381  15.089 -0.7039  3.3582 -0.3138
   22TCq2    H4  349   3.869   1.602  14.725  1.6090  0.7712  0.0052
   23MPD2     C  350   1.301   2.291  14.681  0.0198 -0.5561 -0.0939
   23MPD2    C1  351   1.190   2.324  14.760  0.4531  0.9186  0.1992
   23MPD2    C2  352   1.096   2.404  14.712 -0.7696  0.3178 -0.0346
   23MPD2    C3  353   1.106   2.458  14.589  0.7582  0.5399  0.6105
   23MPD2    C4  354   1.208   2.409  14.505 -0.0822  0.3929  0.0588
   23MPD2    C5  355   1.310   2.326  14.553 -0.0808  0.4208 -0.1668
   23MPD2     H  356   1.002   2.422  14.763 -1.2853  1.2842 -1.3239
   23MPD2    H1  357   1.214   2.448  14.405  1.3131 -0.3297 -0.1371
   23MPD2    H2  358   1.388   2.242  14.723 -0.0342 -1.3077 -0.8754
   23MPD2    H3  359   1.387   2.291  14.486  0.4327  5.1739 -2.0502
   23MPD2     N  360   1.015   2.551  14.535  0.0620 -0.4679 -0.1360
   23MPD2    H5  361   1.017   2.559  14.434 -0.8572  0.5783 -0.0722
   23MPD2    N1  362   1.158   2.259  14.877 -0.4737  0.1196  0.1601
   23MPD2    H7  363   1.065   2.277  14.915  0.2260 -0.0838  2.0041
   24TCq2    C1  364   0.900   2.598  14.596 -0.5245  0.3731  0.2500
   24TCq2    O2  365   0.873   2.603  14.717 -0.4506 -0.4036  0.1521
   24TCq2    C2  366   0.832   2.693  14.506  0.5005  0.8758 -0.9483
   24TCq2    C3  367   0.805   2.819  14.552  0.2495  0.1532 -0.3730
   24TCq2    C4  368   0.751   2.905  14.460 -0.3722 -0.2244 -0.2329
   24TCq2    C5  369   0.694   2.858  14.342  0.0939  0.3602 -0.0024
   24TCq2    C6  370   0.723   2.729  14.301 -0.0671 -0.4440 -0.7670
   24TCq2    C7  371   0.797   2.644  14.379 -0.0669  0.2903 -1.4564
   24TCq2    C8  372   0.613   2.667  14.227 -0.5617  0.1324 -0.4154
   24TCq2    O4  373   0.651   2.567  14.169  0.4253  0.6884  0.2875
   24TCq2    C9  374   0.719   3.039  14.507  0.0569 -0.1661  0.4155
   24TCq2    O5  375   0.664   3.117  14.433 -0.0025  0.9160 -0.3929
   24TCq2    O6  376   0.726   3.053  14.633  0.5625 -0.2696 -0.3951
   24TCq2    H2  377   0.854   2.856  14.641 -2.4483 -0.2280  1.2541
   24TCq2    H3  378   0.636   2.919  14.273  0.2879 -1.7900 -2.1031
   24TCq2    H4  379   0.808   2.538  14.358  0.1482  0.4614 -2.1812
   25TMC2    C1  380   0.048   0.326  11.492  0.7040  0.0438  0.8547
   25TMC2    C2  381   0.172   0.324  11.548  0.4010  0.3774  0.4912
   25TMC2    C3  382   0.170   0.330  11.683  0.6989 -1.4264  0.2769
   25TMC2    C4  383   4.656   0.347  11.562  0.1354  0.3941 -0.0196
   25TMC2    C5  384   4.662   0.361  11.695 -0.2846  0.4756  0.4217
   25TMC2    C6  385   0.065   0.354  11.763 -0.3611  0.0473 -0.2030
   25TMC2     C  386   0.045   0.321  11.341 -0.2883 -0.0452 -0.2650
   25TMC2     O  387   0.153   0.316  11.287  0.2999  0.0382 -0.3574
   25TMC2     H  388   0.258   0.298  11.488 -0.1495  0.8829 -0.5008
   25TMC2    H1  389   4.560   0.319  11.519  0.5945 -0.4184 -0.5175
   25TMC2    H2  390   0.072   0.380  11.868  0.5524  0.8776 -0.4731
   25TMC2    C7  391   4.546   0.406  11.779 -0.5103  0.1780 -0.1897
   25TMC2    C8  392   0.290   0.374  11.745  0.4838 -0.5511  0.4776
   25TMC2    O1  393   4.543   0.377  11.895 -0.0185  0.6262  0.3966
   25TMC2    O2  394   0.314   0.352  11.863  0.2816  0.5013 -0.4533
   25TMC2    O5  395   0.360   0.458  11.663  0.2247  0.1334 -0.0387
   25TMC2    H5  396   0.331   0.481  11.573 -1.0140 -3.0410 -0.4451
   26MPD2     C  397   4.559   0.203  10.897  0.2603 -0.6394  0.7319
   26MPD2    C1  398   4.475   0.164  10.994  0.2954  0.7358 -0.0611
   26MPD2    C2  399   4.515   0.180  11.127 -0.4139 -0.3716 -0.7134
   26MPD2    C3  400   4.622   0.261  11.155 -0.1259 -0.2977  0.0203
   26MPD2    C4  401   4.694   0.312  11.055  0.1870 -0.2758 -0.0398
   26MPD2    C5  402   4.664   0.280  10.921  0.4656  0.4273 -1.3781
   26MPD2     H  403   4.455   0.152  11.212 -2.8482  2.8747 -1.3396
   26MPD2    H1  404   0.063   0.366  11.082 -0.8412  1.2017  0.4298
   26MPD2    H2  405   4.542   0.181  10.792  0.0922 -0.8991  0.8139
   26MPD2    H3  406   0.011   0.317  10.845  1.9017  1.5738  0.4806
   26MPD2     N  407   4.646   0.284  11.291  0.2462  0.4133 -0.0899
   26MPD2    H5  408   4.571   0.259  11.354  0.3626 -1.4055 -0.6686
   26MPD2    N1  409   4.353   0.108  10.963  0.6611  0.6205  0.0303
   26MPD2    H7  410   4.329   0.084  10.868  1.3902  0.6623 -0.1637
   27TMC2    C1  411   3.146   2.038  12.298 -0.0109  0.3077  0.4892
   27TMC2    C2  412   3.199   1.979  12.185  0.1806  0.4317  0.0686
   27TMC2    C3  413   3.188   2.051  12.070  0.1291  0.5077 -0.4013
   27TMC2    C4  414   3.083   2.157  12.297  0.7964 -0.5694  0.1726
   27TMC2    C5  415   3.078   2.229  12.179 -0.0749 -0.0225  0.1605
   27TMC2    C6  416   3.127   2.177  12.060 -0.0724 -0.0853  0.2503
   27TMC2     C  417   3.124   1.949  12.404 -0.2727 -0.0259 -0.1405
   27TMC2     O  418   3.201   1.859  12.421 -0.8294 -0.1556 -0.0620
   27TMC2     H  419   3.256   1.887  12.182  1.5318  1.3174 -1.0605
   27TMC2    H1  420   3.044   2.206  12.386 -1.8508 -1.5495 -0.4621
   27TMC2    H2  421   3.122   2.231  11.966  0.4228 -1.5394 -0.6116
   27TMC2    C7  422   2.999   2.353  12.170 -0.2090 -0.4956  0.6051
   27TMC2    C8  423   3.229   1.991  11.944 -0.1430  0.7396  0.2381
   27TMC2    O1  424   3.029   2.442  12.090 -0.2876 -0.3136  0.3602
   27TMC2    O2  425   3.324   1.918  11.928  0.4948 -0.4534 -0.3053
   27TMC2    O5  426   3.123   1.994  11.861 -0.2361 -0.4853 -0.2259
   27TMC2    H5  427   3.050   2.040  11.908  0.1333  0.9267 -0.9994
   28MPD2     C  428   2.916   1.863  12.867 -0.3777 -0.2422  0.6231
   28MPD2    C1  429   2.829   1.943  12.795  0.7644  0.0030  0.1079
   28MPD2    C2  430   2.868   1.979  12.667 -0.2879 -0.3122 -0.4866
   28MPD2    C3  431   2.979   1.939  12.604 -0.4714 -0.2255  1.0185
   28MPD2    C4  432   3.051   1.841  12.672  0.1896  0.3853 -0.2278
   28MPD2    C5  433   3.022   1.810  12.798 -0.3353  0.0024  0.4410
   28MPD2     H  434   2.805   2.046  12.611  1.6493  1.4153 -0.6239
   28MPD2    H1  435   3.141   1.791  12.637  1.7269  1.3456  2.3503
   28MPD2    H2  436   2.906   1.843  12.973 -0.7107 -0.6761  0.5079
   28MPD2    H3  437   3.095   1.746  12.846 -0.6744 -0.0393  0.9087
   28MPD2     N  438   3.011   1.985  12.476 -1.0167 -0.6436  0.2175
   28MPD2    H5  439   2.946   2.050  12.434 -2.6153 -1.8334  0.8465
   28MPD2    N1  440   2.710   1.979  12.857  0.0961 -0.0763  0.2751
   28MPD2    H7  441   2.680   1.921  12.935  0.9649  1.3479  1.6696
   29MPD2     C  442   2.673   4.087  13.692 -0.2082 -0.3673  0.0123
   29MPD2    C1  443   2.793   4.093  13.762 -0.4210  0.1600  0.2501
   29MPD2    C2  444   2.829   4.221  13.817 -0.7076  0.2037  0.0851
   29MPD2    C3  445   2.753   4.331  13.788  0.2462 -0.5080  0.3588
   29MPD2    C4  446   2.634   4.317  13.716  0.2747  0.4657 -0.2608
   29MPD2    C5  447   2.589   4.192  13.684  0.0565  0.7423 -0.1530
   29MPD2     H  448   2.908   4.223  13.891 -1.3297 -0.3208  0.7653
   29MPD2    H1  449   2.564   4.397  13.695 -1.3387 -0.9898 -0.4200
   29MPD2    H2  450   2.632   3.994  13.655 -1.2007 -0.5657  1.5807
   29MPD2    H3  451   2.487   4.173  13.655  0.1774  0.9010 -0.6744
   29MPD2     N  452   2.795   4.457  13.828  0.2408  0.0521 -0.1070
   29MPD2    H5  453   2.732   4.531  13.796  0.3743 -0.2306 -1.0146
   29MPD2    N1  454   2.870   3.976  13.791 -0.2635  0.8991 -0.1211
   29MPD2    H7  455   2.950   3.983  13.853 -0.3578  0.4994  0.0441
   30TCq2    C1  456   2.905   4.499  13.905  0.2192 -0.1264  0.3225
   30TCq2    O2  457   2.996   4.433  13.948 -0.2450 -0.2254  0.2845
   30TCq2    C2  458   2.907   4.646  13.910  0.0117 -0.0615 -0.0465
   30TCq2    C3  459   2.796   4.706  13.947  0.4734 -0.2823 -0.7537
   30TCq2    C4  460   2.790   0.122  13.961  0.1181  0.0733  1.0513
   30TCq2    C5  461   2.903   0.193  13.953 -0.1882  0.3084 -0.0006
   30TCq2    C6  462   3.016   0.128  13.934  0.2601  0.0522 -0.3055
   30TCq2    C7  463   3.028   4.713  13.913 -0.3941 -0.1567 -0.3056
   30TCq2    C8  464   3.134   0.201  13.891  0.4551  0.1368 -0.2423
   30TCq2    O4  465   3.210   0.155  13.805  0.2771 -0.1611  0.4268
   30TCq2    C9  466   2.664   0.197  13.968  0.7925  0.1066  0.1986
   30TCq2    O5  467   2.567   0.116  13.954  0.3753 -0.3960 -0.4956
   30TCq2    O6  468   2.657   0.322  13.981 -0.3051  0.2980  0.5557
   30TCq2    H2  469   2.706   4.649  13.965 -0.7012  1.2149 -1.8904
   30TCq2    H3  470   2.905   0.301  13.956  0.1774  0.3063 -0.1530
   30TCq2    H4  471   3.116   4.651  13.918 -0.8108 -0.6847  0.6515
   31MPD2     C  472   0.947   3.472  14.815 -0.2369  0.0135  0.2793
   31MPD2    C1  473   0.821   3.462  14.757  0.0397  0.2155  0.1080
   31MPD2    C2  474   0.720   3.398  14.831 -0.1154 -0.0375 -0.0479
   31MPD2    C3  475   0.748   3.334  14.946  0.5599 -0.3845 -0.2444
   31MPD2    C4  476   0.870   3.355  15.006 -0.8525 -0.1016  0.3390
   31MPD2    C5  477   0.962   3.435  14.947  0.1280  0.6320  0.0028
   31MPD2     H  478   0.619   3.412  14.795 -0.5368  1.0700  1.5653
   31MPD2    H1  479   0.897   3.308  15.100 -2.9712  2.2037  2.1224
   31MPD2    H2  480   1.020   3.526  14.756  0.2243 -1.8143 -0.8172
   31MPD2    H3  481   1.059   3.453  14.991  0.2874 -0.8258  0.2249
   31MPD2     N  482   0.653   3.247  15.009 -0.3685 -0.3731 -0.3221
   31MPD2    H5  483   0.666   3.220  15.106 -0.0941  1.1981  0.0772
   31MPD2    N1  484   0.811   3.519  14.625  0.0834  0.9043 -0.0519
   31MPD2    H7  485   0.892   3.561  14.580  1.3766 -1.4475  0.0194
   32TCq2    C1  486   0.534   3.214  14.951 -0.6916  0.3815 -0.0121
   32TCq2    O2  487   0.492   3.229  14.837 -0.1542 -0.3406  0.0716
   32TCq2    C2  488   0.451   3.142  15.041  0.2449  0.5272  0.6887
   32TCq2    C3  489   0.323   3.169  15.023  1.1761 -0.4434 -0.6091
   32TCq2    C4  490   0.241   3.183  15.130 -0.0272  0.1855 -0.0186
   32TCq2    C5  491   0.275   3.153  15.252  0.7711  0.4641  0.0480
   32TCq2    C6  492   0.404   3.097  15.266  0.1618  0.6676  0.4198
   32TCq2    C7  493   0.494   3.121  15.170  0.3468  0.2832 -0.3446
   32TCq2    C8  494   0.460   3.073  15.400 -0.3811  0.3993  0.6179
   32TCq2    O4  495   0.554   2.995  15.405  0.1110 -0.3158 -0.4037
   32TCq2    C9  496   0.110   3.248  15.108 -0.0859 -0.0092  0.3027
   32TCq2    O5  497   0.028   3.261  15.204 -0.0037 -0.4294 -0.2127
   32TCq2    O6  498   0.085   3.291  14.991 -0.0200  0.8598  0.0045
   32TCq2    H2  499   0.288   3.187  14.922  0.2442  2.6086  0.2609
   32TCq2    H3  500   0.210   3.162  15.338  1.0962  0.2562  0.3151
   32TCq2    H4  501   0.597   3.089  15.183 -0.3302 -1.6915  0.2269
   33MPD2     C  502   0.769   1.402  10.829  0.0817 -0.3227 -0.6343
   33MPD2    C1  503   0.682   1.300  10.810  0.0319  0.1407  0.2091
   33MPD2    C2  504   0.650   1.257  10.683  0.2791  0.4675  0.0636
   33MPD2    C3  505   0.694   1.335  10.573  0.0187  0.8033 -0.0673
   33MPD2    C4  506   0.776   1.446  10.594 -0.3268  0.1015  0.0375
   33MPD2    C5  507   0.817   1.473  10.723 -0.0282  0.0821  0.2643
   33MPD2     H  508   0.593   1.166  10.669 -0.6474  1.1180 -0.3808
   33MPD2    H1  509   0.797   1.515  10.513 -0.1855 -0.4816 -0.4252
   33MPD2    H2  510   0.798   1.432  10.929 -1.4027  0.0868 -0.3248
   33MPD2    H3  511   0.884   1.556  10.740  1.3161 -0.7258 -1.0760
   33MPD2     N  512   0.652   1.308  10.442  0.8059 -0.7250 -0.2113
   33MPD2    H5  513   0.699   1.372  10.379  1.3869 -0.4792  0.4717
   33MPD2    N1  514   0.640   1.234  10.930  0.5676  0.0966 -0.2433
   33MPD2    H7  515   0.641   1.290  11.014 -1.3378  1.9371 -1.4159
   34TCq2    C1  516   0.559   1.215  10.403  0.1444 -0.9001  0.6308
   34TCq2    O2  517   0.503   1.132  10.468  0.0081 -0.1288 -0.2285
   34TCq2    C2  518   0.531   1.216  10.264  0.0920 -0.7316 -0.2523
   34TCq2    C3  519   0.456   1.113  10.214 -0.2618  0.1753  0.8665
   34TCq2    C4  520   0.415   1.127  10.084 -0.5208 -0.4362  0.1831
   34TCq2    C5  521   0.445   1.237  10.010 -0.7637  0.3837  0.4578
   34TCq2    C6  522   0.531   1.331  10.058  0.1496  0.4442  0.8384
   34TCq2    C7  523   0.575   1.321  10.190 -0.4198 -0.1660 -0.5085
   34TCq2    C8  524   0.600   1.430   9.976 -0.2587  0.0878  0.5500
   34TCq2    O4  525   0.672   1.509  10.040  0.4066  0.4045 -0.6954
   34TCq2    C9  526   0.317   1.033  10.027 -0.3258 -0.0645 -0.2114
   34TCq2    O5  527   0.270   0.950  10.113 -0.5879  0.0320 -0.0549
   34TCq2    O6  528   0.268   1.055   9.914  0.1446  0.2920  0.7132
   34TCq2    H2  529   0.433   1.025  10.272  1.0661  0.0702  1.2279
   34TCq2    H3  530   0.402   1.243   9.911 -0.3651  0.7750  0.3071
   34TCq2    H4  531   0.664   1.375  10.222 -2.1536  0.2741  3.5879
   35MPD2     C  532   2.445   2.700  12.055 -0.4883  0.3104 -0.3929
   35MPD2    C1  533   2.418   2.565  12.064  0.1860 -0.2483 -0.3487
   35MPD2    C2  534   2.353   2.507  11.960  0.2378  0.3489 -0.1786
   35MPD2    C3  535   2.297   2.584  11.851 -0.0863  0.7615  0.0611
   35MPD2    C4  536   2.318   2.723  11.852 -0.0585 -0.1734 -0.2215
   35MPD2    C5  537   2.389   2.784  11.954 -0.2426  0.0122  0.2553
   35MPD2     H  538   2.342   2.400  11.973 -1.6938  0.5776  0.0801
   35MPD2    H1  539   2.269   2.791  11.783  0.2144 -0.3009 -0.5403
   35MPD2    H2  540   2.502   2.737  12.140  0.4230 -0.3608 -0.7120
   35MPD2    H3  541   2.394   2.893  11.953 -1.7760  0.0823 -0.3258
   35MPD2     N  542   2.222   2.522  11.743  0.2371 -0.9360  0.1930
   35MPD2    H5  543   2.207   2.424  11.763 -0.7199 -0.8696 -0.2022
   35MPD2    N1  544   2.452   2.506  12.190  0.0375 -0.0153 -0.0919
   35MPD2    H7  545   2.491   2.568  12.260  0.5252  0.5205 -0.8325
   36TCq2    C1  546   2.172   2.593  11.632 -0.2992 -0.0171 -0.3674
   36TCq2    O2  547   2.199   2.705  11.594  0.1230  0.0231 -0.1759
   36TCq2    C2  548   2.068   2.516  11.555 -0.0571  0.0524  0.2279
   36TCq2    C3  549   2.034   2.576  11.437 -0.6168 -0.7354  0.6951
   36TCq2    C4  550   1.926   2.539  11.372 -0.2906  0.6430 -0.1080
   36TCq2    C5  551   1.860   2.428  11.417 -0.6530  0.1915  0.3972
   36TCq2    C6  552   1.906   2.365  11.530  0.2127 -0.6148  0.3346
   36TCq2    C7  553   2.003   2.405  11.606  0.2624 -0.4184  0.0777
   36TCq2    C8  554   1.843   2.240  11.554  0.2171 -0.1017  0.6842
   36TCq2    O4  555   1.730   2.220  11.517 -0.5256  0.1961  0.5403
   36TCq2    C9  556   1.888   2.598  11.245 -0.0475 -0.1205 -0.1433
   36TCq2    O5  557   1.955   2.702  11.215 -0.4432 -0.3639 -0.2142
   36TCq2    O6  558   1.790   2.548  11.185  0.8487  0.2885  0.6355
   36TCq2    H2  559   2.088   2.664  11.405  0.2752 -1.2955  0.6511
   36TCq2    H3  560   1.786   2.379  11.355 -0.5585 -0.3723  0.7288
   36TCq2    H4  561   2.023   2.374  11.708  2.5230 -0.1968 -0.3000
   37TMC2    C1  562   3.930   2.985  11.746  0.0545  0.0711 -0.0497
   37TMC2    C2  563   3.901   3.071  11.646  0.1403  0.3572  0.0374
   37TMC2    C3  564   4.002   3.122  11.564  0.1413  0.2720 -0.0640
   37TMC2    C4  565   4.059   2.963  11.773 -0.3387  1.3213  0.6854
   37TMC2    C5  566   4.163   3.020  11.697  0.8472 -0.2410  0.3263
   37TMC2    C6  567   4.136   3.101  11.596 -0.5249 -0.2505 -0.2451
   37TMC2     C  568   3.824   2.974  11.856 -0.5277  0.1339 -0.0484
   37TMC2     O  569   3.709   2.998  11.829  0.5896 -0.3840  0.2259
   37TMC2     H  570   3.806   3.122  11.648 -0.5630 -0.7900 -2.9220
   37TMC2    H1  571   4.083   2.890  11.849  0.6523 -1.4354 -2.2840
   37TMC2    H2  572   4.208   3.142  11.526 -0.2816  0.3280  0.3466
   37TMC2    C7  573   4.292   3.025  11.759  0.3239 -0.0145 -0.0481
   37TMC2    C8  574   3.971   3.178  11.428  0.4371 -0.1843 -0.2883
   37TMC2    O1  575   4.288   2.991  11.878  0.3604 -0.1054 -0.1274
   37TMC2    O2  576   4.060   3.221  11.354 -0.0399 -0.1135  0.5104
   37TMC2    O5  577   3.841   3.155  11.392 -0.3409 -0.3931 -0.4062
   37TMC2    H5  578   3.780   3.135  11.465 -0.9267  1.8841 -0.2858
   38MPD2     C  579   3.689   2.793  12.323 -0.1162  0.6084 -0.5548
   38MPD2    C1  580   3.826   2.812  12.320  0.1909 -0.3986 -0.2014
   38MPD2    C2  581   3.883   2.856  12.202 -0.1592  0.0205  0.2379
   38MPD2    C3  582   3.811   2.882  12.081  0.1655 -0.1472  0.1796
   38MPD2    C4  583   3.674   2.848  12.078  0.0237  0.5460 -0.2582
   38MPD2    C5  584   3.623   2.808  12.200 -0.2556 -0.3813 -0.5841
   38MPD2     H  585   3.991   2.867  12.201 -0.2787  1.0276 -1.7438
   38MPD2    H1  586   3.614   2.853  11.988  0.1853 -1.4552 -0.4931
   38MPD2    H2  587   3.638   2.781  12.418  0.8563  0.4521 -0.0508
   38MPD2    H3  588   3.516   2.791  12.199 -0.3280 -0.0933  1.4213
   38MPD2     N  589   3.885   2.932  11.971  0.2470 -0.7474 -0.0387
   38MPD2    H5  590   3.986   2.932  11.982  0.1268  1.2010  1.0928
   38MPD2    N1  591   3.913   2.805  12.433 -0.0120  0.4777  0.2750
   38MPD2    H7  592   4.009   2.824  12.407 -0.2002 -0.7224 -1.3188
   39MPD2     C  593   2.447   4.438   1.533  0.7558 -0.6340  0.2689
   39MPD2    C1  594   2.348   4.501   1.613 -0.4730  0.0220  0.1156
   39MPD2    C2  595   2.221   4.501   1.567 -0.5485  0.4029 -0.1078
   39MPD2    C3  596   2.176   4.433   1.455  0.6716  0.5534 -0.5037
   39MPD2    C4  597   2.277   4.358   1.385 -1.4074  0.1175  0.6217
   39MPD2    C5  598   2.409   4.364   1.420 -0.4797  0.2365 -0.6357
   39MPD2     H  599   2.146   4.545   1.632 -2.0460  0.8428 -2.1442
   39MPD2    H1  600   2.249   4.322   1.287  0.6812  0.5443 -0.1378
   39MPD2    H2  601   2.547   4.451   1.573  0.5370  0.2761  0.5282
   39MPD2    H3  602   2.484   4.311   1.363  2.2490  1.7594  1.4943
   39MPD2     N  603   2.041   4.419   1.416 -0.4395 -0.0094 -0.0662
   39MPD2    H5  604   2.017   4.356   1.340 -1.1800  1.1481 -0.7805
   39MPD2    N1  605   2.400   4.573   1.726 -0.0196 -0.4459 -0.5367
   39MPD2    H7  606   2.495   4.550   1.753 -1.2879 -2.1119  2.5006
   40TCq2    C1  607   2.319   4.630   1.823 -0.3736  0.7787 -0.5112
   40TCq2    O2  608   2.205   4.672   1.817 -0.3490 -0.2057 -0.3922
   40TCq2    C2  609   2.395   4.661   1.941 -0.0697  0.1302  0.0751
   40TCq2    C3  610   2.521   4.605   1.953  1.1290  0.4518 -0.3637
   40TCq2    C4  611   2.611   4.648   2.042 -0.0836  0.9858 -0.3417
   40TCq2    C5  612   2.575   0.027   2.125  0.3281  0.2502  0.1448
   40TCq2    C6  613   2.459   0.090   2.102 -0.1943  0.4930  0.8013
   40TCq2    C7  614   2.369   0.054   2.009 -0.0855  0.3128 -0.5443
   40TCq2    C8  615   2.453   0.226   2.154 -0.5747 -1.0677  0.3432
   40TCq2    O4  616   2.344   0.262   2.195  0.4251  0.4543 -0.0231
   40TCq2    C9  617   2.737   4.585   2.054  0.5903 -0.2193  1.2784
   40TCq2    O5  618   2.758   4.496   1.965  0.5976  0.5670 -0.1459
   40TCq2    O6  619   2.796   4.608   2.163 -0.1530  0.8638 -0.0017
   40TCq2    H2  620   2.545   4.510   1.906  0.4080  0.4294 -0.6976
   40TCq2    H3  621   2.634   0.053   2.213  0.6034 -2.2378  0.6935
   40TCq2    H4  622   2.279   0.110   1.988  0.2484  0.4127 -1.7343
   41TMC2    C1  623   1.439   2.169  13.743  1.0506  0.6315 -0.0047
   41TMC2    C2  624   1.373   2.272  13.803 -0.4425 -0.1505 -0.1820
   41TMC2    C3  625   1.260   2.305  13.735 -0.3808  0.2444 -0.0570
   41TMC2    C4  626   1.401   2.095  13.636  0.5118 -0.2996 -0.1546
   41TMC2    C5  627   1.281   2.130  13.585  0.3867 -0.0160  0.4654
   41TMC2    C6  628   1.208   2.239  13.631 -0.0306  0.2884  0.3258
   41TMC2     C  629   1.576   2.134  13.782  0.2239 -0.2526 -0.5487
   41TMC2     O  630   1.640   2.051  13.716 -0.0401  0.0442 -0.0093
   41TMC2     H  631   1.424   2.330  13.879 -0.7444 -0.5844  0.3501
   41TMC2    H1  632   1.458   2.011  13.598  2.5692  0.5029  1.1657
   41TMC2    H2  633   1.111   2.269  13.593 -0.6255 -0.1256  1.5326
   41TMC2    C7  634   1.206   2.055  13.475  0.2726 -0.2623 -0.0330
   41TMC2    C8  635   1.185   2.419  13.789  0.1587 -0.5160  0.4625
   41TMC2    O1  636   1.087   2.044  13.490  0.3757 -0.2768 -0.1875
   41TMC2    O2  637   1.160   2.502  13.703 -0.0911  0.0917 -0.3288
   41TMC2    O5  638   1.219   2.449  13.920  0.1225  0.1300  0.1423
   41TMC2    H5  639   1.194   2.372  13.975 -0.9476  1.7502  1.9003
   42MPD2     C  640   1.846   2.120  13.924  0.5207  0.1785 -0.4101
   42MPD2    C1  641   1.732   2.170  13.980  0.4083 -0.1174 -0.2529
   42MPD2    C2  642   1.733   2.208  14.117  0.1008  0.4632 -0.3222
   42MPD2    C3  643   1.848   2.193  14.191 -0.2940  0.0439  0.0792
   42MPD2    C4  644   1.959   2.140  14.127 -0.3242  0.3022 -0.0213
   42MPD2    C5  645   1.963   2.114  13.993  0.0578 -0.1802  0.2344
   42MPD2     H  646   1.640   2.241  14.161  0.3358 -0.4851  0.9121
   42MPD2    H1  647   2.055   2.136  14.177 -0.0006 -3.1215 -0.8831
   42MPD2    H2  648   1.842   2.100  13.818  0.4212 -1.9020 -0.0155
   42MPD2    H3  649   2.056   2.092  13.943 -0.1601 -2.5751  0.8787
   42MPD2     N  650   1.858   2.237  14.329  0.2442  0.4131  0.7500
   42MPD2    H5  651   1.951   2.234  14.371  1.4370 -0.1074 -1.8904
   42MPD2    N1  652   1.608   2.182  13.910 -0.1252  0.1000 -0.2490
   42MPD2    H7  653   1.527   2.219  13.958  0.5748  0.4484  0.6568
   43MPD2     C  654   2.728   0.404   1.194  0.4322  0.0280 -0.1238
   43MPD2    C1  655   2.764   0.465   1.076  0.9740 -1.2010  0.0958
   43MPD2    C2  656   2.749   0.605   1.077 -0.5279 -0.1487  1.2422
   43MPD2    C3  657   2.692   0.672   1.178  0.1492  0.7051  0.7353
   43MPD2    C4  658   2.644   0.607   1.289 -0.3463  0.8223  0.3478
   43MPD2    C5  659   2.666   0.467   1.297  0.5477 -0.4760 -0.1122
   43MPD2     H  660   2.785   0.664   0.993  2.5758 -0.0542  2.6575
   43MPD2    H1  661   2.610   0.659   1.378 -0.2518  0.8355  0.3768
   43MPD2    H2  662   2.745   0.297   1.192  0.8764  0.1139 -0.8640
   43MPD2    H3  663   2.632   0.409   1.383  1.4589 -0.2409  0.4107
   43MPD2     N  664   2.701   0.813   1.184 -0.2765  0.1066  0.5812
   43MPD2    H5  665   2.685   0.840   1.281  1.5316  1.1908  0.5819
   43MPD2    N1  666   2.831   0.391   0.975 -0.1825  0.4833  0.4804
   43MPD2    H7  667   2.852   0.295   1.001  0.7014  0.4585 -0.3372
   44TCq2    C1  668   2.696   1.225   1.448  0.1451  0.5668 -0.1448
   44TCq2    O2  669   2.629   1.147   1.516 -0.1246  0.7760  0.2291
   44TCq2    C2  670   2.773   1.174   1.336  0.2117  0.1632  0.2538
   44TCq2    C3  671   2.858   1.257   1.271  0.0430  0.4300  0.1476
   44TCq2    C4  672   2.882   1.235   1.138  0.1136 -0.2771  0.2204
   44TCq2    C5  673   2.830   1.129   1.075  0.3359  0.4863  0.1336
   44TCq2    C6  674   2.767   1.039   1.150  0.1292  0.2379  0.1708
   44TCq2    C7  675   2.735   1.051   1.281  0.6139  0.3694  0.4008
   44TCq2    C8  676   2.741   0.905   1.092  0.6792  0.5176 -0.0756
   44TCq2    O4  677   2.756   0.894   0.971  0.6461  0.1854 -0.0319
   44TCq2    C9  678   2.965   1.321   1.058 -0.6305  0.0680 -0.1919
   44TCq2    O5  679   2.961   1.303   0.930  0.2788  0.3571 -0.1824
   44TCq2    O6  680   3.018   1.418   1.121  0.1170 -0.3974 -0.1273
   44TCq2    H2  681   2.901   1.348   1.310  0.9499 -0.2066  0.6335
   44TCq2    H3  682   2.837   1.118   0.968  0.7956 -0.2439  0.2341
   44TCq2    H4  683   2.674   0.985   1.342 -0.1290  1.1590  0.5102
   45TMC2    C1  684   3.473   3.015   9.543 -0.1861 -0.3050  0.0654
   45TMC2    C2  685   3.374   2.994   9.448  0.3014 -0.4136  0.2763
   45TMC2    C3  686   3.322   3.107   9.391  0.0252  0.0783 -0.0747
   45TMC2    C4  687   3.510   3.147   9.582  0.4409  0.2847 -0.0460
   45TMC2    C5  688   3.451   3.253   9.520  0.0545  0.5829 -0.2228
   45TMC2    C6  689   3.357   3.234   9.420 -0.6019 -0.2691  0.6014
   45TMC2     C  690   3.512   2.912   9.641  0.2626  0.7935 -0.1833
   45TMC2     O  691   3.576   2.953   9.736 -0.5157  0.3154  0.7251
   45TMC2     H  692   3.339   2.898   9.410 -0.0108  0.4179 -1.5475
   45TMC2    H1  693   3.579   3.165   9.664  0.3119  2.6538 -0.4429
   45TMC2    H2  694   3.318   3.305   9.348 -0.8356 -0.6977  0.3067
   45TMC2    C7  695   3.484   3.385   9.561 -0.1909  0.2254  0.0647
   45TMC2    C8  696   3.204   3.088   9.303  0.2060  0.2142  0.6204
   45TMC2    O1  697   3.578   3.397   9.636 -0.1209  0.1301 -0.1169
   45TMC2    O2  698   3.165   2.979   9.270  0.0151 -0.3643  0.1021
   45TMC2    O5  699   3.120   3.194   9.308 -0.1560  0.4105  0.5913
   45TMC2    H5  700   3.158   3.282   9.326  0.3401  0.1994  0.5791
   46MPD2     C  701   3.507   2.677   9.831 -0.1582  0.0717 -0.5907
   46MPD2    C1  702   3.430   2.692   9.713  0.2363 -0.1544  0.4840
   46MPD2    C2  703   3.332   2.596   9.695  0.2484  0.5264  0.1150
   46MPD2    C3  704   3.317   2.484   9.781  0.0934 -0.4617  0.2784
   46MPD2    C4  705   3.405   2.463   9.888  0.1158 -0.0034  0.0855
   46MPD2    C5  706   3.498   2.564   9.910 -0.7917 -0.0431  0.4459
   46MPD2     H  707   3.263   2.616   9.613 -1.3827 -1.9793  0.8588
   46MPD2    H1  708   3.412   2.375   9.951  3.1920  0.1880  0.0054
   46MPD2    H2  709   3.577   2.748   9.871 -0.0714  0.4627 -1.4462
   46MPD2    H3  710   3.569   2.543   9.989  1.7668  0.1605 -1.8018
   46MPD2     N  711   3.200   2.408   9.751 -0.2350 -0.2942 -0.4206
   46MPD2    H5  712   3.139   2.446   9.679 -0.6643 -0.3974 -0.1134
   46MPD2    N1  713   3.429   2.802   9.624  0.3014  0.3248 -0.2839
   46MPD2    H7  714   3.372   2.791   9.541  1.9099 -2.4439 -1.0262
   47TMC2    C1  715   0.191   2.798   9.481  0.4665  0.0399 -0.1415
   47TMC2    C2  716   0.254   2.840   9.361  0.6068 -0.2189  0.8428
   47TMC2    C3  717   0.177   2.857   9.254 -0.0518 -0.9261 -0.0218
   47TMC2    C4  718   0.060   2.766   9.487 -0.1147  0.3114  0.0471
   47TMC2    C5  719   4.712   2.773   9.369 -1.2353  0.5262 -0.5798
   47TMC2    C6  720   0.047   2.813   9.257 -0.1077 -1.7378  0.2503
   47TMC2     C  721   0.249   2.829   9.608 -0.6037  0.1254  0.8934
   47TMC2     O  722   0.185   2.835   9.713 -0.1326 -0.0298  0.5285
   47TMC2     H  723   0.361   2.855   9.351  0.4145  1.1102  0.7687
   47TMC2    H1  724   0.013   2.749   9.584 -1.2696  0.6317 -0.4554
   47TMC2    H2  725   4.707   2.823   9.168  0.4785 -0.5137 -0.0284
   47TMC2    C7  726   4.567   2.762   9.370  0.0620 -0.5419  0.2065
   47TMC2    C8  727   0.240   2.865   9.131  0.5030  0.1698  0.3226
   47TMC2    O1  728   4.502   2.794   9.273 -0.2535  0.0807 -0.0135
   47TMC2    O2  729   0.209   2.794   9.035  0.1853 -0.0151 -0.3109
   47TMC2    O5  730   0.325   2.971   9.128 -0.2228 -0.7132  0.2014
   47TMC2    H5  731   0.321   3.026   9.210 -0.4794 -1.7304  0.8713
   48MPD2     C  732   0.423   2.988   9.800  0.4103  0.2693  0.3620
   48MPD2    C1  733   0.465   2.929   9.682  0.5042  0.3480 -0.2970
   48MPD2    C2  734   0.598   2.942   9.655  0.1382  0.2308  0.7852
   48MPD2    C3  735   0.686   3.008   9.746 -0.5838 -0.1001 -0.9016
   48MPD2    C4  736   0.636   3.057   9.863  0.0221 -0.4501 -0.3862
   48MPD2    C5  737   0.502   3.054   9.885 -0.2940 -0.1611  0.6033
   48MPD2     H  738   0.637   2.914   9.558 -0.9743  0.8468  0.1668
   48MPD2    H1  739   0.708   3.107   9.928 -2.0355  1.4343  0.4464
   48MPD2    H2  740   0.316   2.998   9.813  0.1519 -1.2043 -0.6751
   48MPD2    H3  741   0.471   3.111   9.971  1.2300  1.3106  0.1751
   48MPD2     N  742   0.825   3.021   9.703 -0.5999 -1.0797 -0.5976
   48MPD2    H5  743   0.843   2.997   9.606 -1.9639 -0.6473 -0.9735
   48MPD2    N1  744   0.377   2.867   9.585 -0.4046  0.0186 -0.0479
   48MPD2    H7  745   0.414   2.846   9.493  0.0614 -1.7869  0.5452
   49MPD2     C  746   4.059   0.227  10.068  0.0502 -0.3628 -0.0222
   49MPD2    C1  747   4.123   0.144  10.164  0.5297  0.6876 -0.1483
   49MPD2    C2  748   4.141   0.193  10.292 -0.3780 -0.5955 -0.6908
   49MPD2    C3  749   4.112   0.325  10.324 -0.6276 -0.0664  0.5830
   49MPD2    C4  750   4.045   0.402  10.236  0.5789 -0.2252 -0.3143
   49MPD2    C5  751   4.015   0.351  10.111 -0.4036 -0.4695 -0.6277
   49MPD2     H  752   4.189   0.132  10.367  0.1944  1.3349  0.5220
   49MPD2    H1  753   4.010   0.503  10.255 -0.6243 -0.8755  0.9089
   49MPD2    H2  754   4.045   0.200   9.964  1.1543 -1.5650  0.1303
   49MPD2    H3  755   3.961   0.421  10.049  3.2979  1.3523 -1.8000
   49MPD2     N  756   4.138   0.374  10.451 -0.5514  0.3786  0.4944
   49MPD2    H5  757   4.095   0.465  10.466 -1.8751  0.0868 -1.4594
   49MPD2    N1  758   4.167   0.010  10.136  0.5410 -0.6430 -0.2631
   49MPD2    H7  759   4.205   4.684  10.217  1.6115 -0.9868 -0.9590
   50TCq2    C1  760   4.141   4.663  10.019  0.4178 -0.2227 -0.2578
   50TCq2    O2  761   4.092   4.701   9.912  0.1719 -0.3536 -0.2594
   50TCq2    C2  762   4.169   4.521  10.030 -0.0037 -0.4520  0.0381
   50TCq2    C3  763   4.227   4.473  10.141  0.7563 -0.1442 -0.5543
   50TCq2    C4  764   4.246   4.343  10.151  0.1641  0.3994 -0.6817
   50TCq2    C5  765   4.223   4.255  10.041  0.0253  0.6812 -0.1398
   50TCq2    C6  766   4.164   4.307   9.933 -0.4278 -0.3079  0.3624
   50TCq2    C7  767   4.125   4.440   9.926  0.7186 -0.4103  0.5211
   50TCq2    C8  768   4.127   4.221   9.824 -0.0188 -0.2982 -0.2206
   50TCq2    O4  769   4.082   4.265   9.720 -0.3987  0.1403  0.5361
   50TCq2    C9  770   4.320   4.294  10.265 -0.4010 -0.0994 -0.4964
   50TCq2    O5  771   4.342   4.375  10.361  0.5846 -0.7221  0.1121
   50TCq2    O6  772   4.335   4.170  10.266 -0.0217  0.2969  0.2513
   50TCq2    H2  773   4.279   4.532  10.215 -1.1625  0.6466  0.1516
   50TCq2    H3  774   4.262   4.154  10.047  1.0661  1.1171  0.5070
   50TCq2    H4  775   4.070   4.476   9.840  2.2799  1.1817  0.1693
   51MPD2     C  776   4.641   3.997   1.655 -0.1235  0.3109  0.6593
   51MPD2    C1  777   4.683   3.978   1.523 -0.5281 -0.8752 -0.2913
   51MPD2    C2  778   4.612   4.033   1.425  0.0555  0.2001 -0.8837
   51MPD2    C3  779   4.496   4.111   1.451  0.1036 -0.1888  0.4199
   51MPD2    C4  780   4.447   4.118   1.584 -0.1231  0.6771 -0.4874
   51MPD2    C5  781   4.523   4.062   1.684  0.2099  0.5346  0.0699
   51MPD2     H  782   4.642   4.023   1.322  4.6674  3.7049  0.1606
   51MPD2    H1  783   4.360   4.180   1.601  1.6182  3.2052 -0.8745
   51MPD2    H2  784   4.700   3.955   1.736 -1.5877 -0.2438  1.4404
   51MPD2    H3  785   4.491   4.076   1.787  0.8947  1.4850  0.1502
   51MPD2     N  786   4.420   4.179   1.349 -0.5860  0.2194 -0.3441
   51MPD2    H5  787   4.344   4.237   1.386  0.6374  1.7094 -0.1643
   51MPD2    N1  788   0.068   3.896   1.481  0.3871  0.0315  0.3002
   51MPD2    H7  789   0.095   3.902   1.383 -2.1380 -0.9497 -0.4701
   52TCq2    C1  790   4.482   4.232   1.240 -0.5419  0.7653  0.1352
   52TCq2    O2  791   4.598   4.233   1.205  0.9757  0.2998  0.3786
   52TCq2    C2  792   4.394   4.316   1.161 -0.1766  0.5263  0.1672
   52TCq2    C3  793   4.256   4.296   1.156 -0.3741 -0.3790  0.2601
   52TCq2    C4  794   4.189   4.364   1.064  0.2071 -0.6963 -0.0249
   52TCq2    C5  795   4.238   4.463   0.990  0.0759  0.2576  0.3238
   52TCq2    C6  796   4.374   4.487   1.000  0.3665  0.2504 -0.1416
   52TCq2    C7  797   4.456   4.409   1.083 -1.1548  0.1392 -0.1890
   52TCq2    C8  798   4.421   4.622   0.957  0.0386 -0.2235  0.4135
   52TCq2    O4  799   4.520   4.667   1.018  0.1845  0.3592 -0.9886
   52TCq2    C9  800   4.041   4.344   1.072  0.0212  0.0000 -0.8130
   52TCq2    O5  801   4.000   4.299   1.182  0.1123  0.6031  0.1859
   52TCq2    O6  802   3.978   4.367   0.969 -0.3039  0.1977  0.0825
   52TCq2    H2  803   4.222   4.222   1.228 -0.5838 -0.5020  0.0343
   52TCq2    H3  804   4.172   4.518   0.924  0.7191  0.7562  0.0932
   52TCq2    H4  805   4.563   4.428   1.079 -0.8094 -1.5635  1.2315
   53TMC2    C1  806   0.092   3.194  12.262  0.5262  0.3595  0.2727
   53TMC2    C2  807   0.198   3.247  12.334  0.3997 -0.5628  0.1528
   53TMC2    C3  808   0.198   3.238  12.473  0.1778 -0.2549  0.5207
   53TMC2    C4  809   4.704   3.135  12.322  0.9591  0.2782 -0.3459
   53TMC2    C5  810   4.701   3.145  12.462  0.3966  0.3926 -0.9123
   53TMC2    C6  811   0.083   3.196  12.541 -0.0898 -0.0528 -0.3163
   53TMC2     C  812   0.103   3.182  12.122  0.5330 -0.5599 -0.5702
   53TMC2     O  813   0.212   3.218  12.076  0.1622 -0.0086  0.3335
   53TMC2     H  814   0.282   3.284  12.278 -0.7613  2.7690  0.6349
   53TMC2    H1  815   4.633   3.071  12.270  1.5327 -0.6763  0.0488
   53TMC2    H2  816   0.078   3.196  12.650 -0.8834  0.6011 -0.3516
   53TMC2    C7  817   4.576   3.115  12.519 -0.0512  0.0143  0.1303
   53TMC2    C8  818   0.288   3.315  12.541  0.0817 -0.2138  0.4283
   53TMC2    O1  819   4.483   3.127  12.440  0.1198 -0.4147 -0.6751
   53TMC2    O2  820   0.268   3.357  12.651 -0.1218  0.0212  0.2312
   53TMC2    O5  821   0.406   3.271  12.495  0.6423  0.5738  0.1582
   53TMC2    H5  822   0.392   3.189  12.442  1.1649  0.8588 -0.4243
   54MPD2     C  823   0.064   3.162  11.826 -0.0317 -0.1068  0.2481
   54MPD2    C1  824   4.683   3.140  11.915 -0.1172 -0.1688 -0.4660
   54MPD2    C2  825   4.559   3.109  11.866 -0.3834  0.2593  0.0627
   54MPD2    C3  826   4.531   3.097  11.730  0.4998  0.1016  0.8455
   54MPD2    C4  827   4.635   3.125  11.647  0.1176  0.1362 -0.1714
   54MPD2    C5  828   0.041   3.158  11.692  0.0155  0.4535  0.8722
   54MPD2     H  829   4.484   3.090  11.941 -1.6533  0.5359 -1.1259
   54MPD2    H1  830   4.624   3.133  11.539  2.4281 -0.7766 -0.4760
   54MPD2    H2  831   0.166   3.184  11.856 -0.5476  0.0227  1.9446
   54MPD2    H3  832   0.120   3.181  11.621 -0.3798  0.1116  0.3203
   54MPD2     N  833   4.399   3.067  11.678 -0.2201 -0.3870 -0.1450
   54MPD2    H5  834   4.374   3.084  11.581  2.7605  1.5694 -0.5748
   54MPD2    N1  835   4.700   3.155  12.059 -0.3121  0.4357 -0.3910
   54MPD2    H7  836   4.612   3.157  12.111  0.0166 -2.8048  0.2423
   55MPD2     C  837   0.781   0.391   0.125 -0.6709 -0.3974  0.0670
   55MPD2    C1  838   0.705   0.360   0.239  0.1373  0.3696  0.0991
   55MPD2    C2  839   0.612   0.455   0.283 -0.3585  0.5093  0.8190
   55MPD2    C3  840   0.589   0.572   0.223 -0.1825  0.2661 -0.7133
   55MPD2    C4  841   0.658   0.592   0.106 -0.1302  0.3849 -0.4593
   55MPD2    C5  842   0.753   0.504   0.065 -0.1956 -0.2340 -0.4469
   55MPD2     H  843   0.547   0.425   0.364  0.6432  0.0167  1.4470
   55MPD2    H1  844   0.652   0.674   0.035  0.8410  0.9508  0.1137
   55MPD2    H2  845   0.871   0.337   0.097  1.0729  1.5699  1.9185
   55MPD2    H3  846   0.798   0.538  17.660 -3.7100  2.5325 -1.1410
   55MPD2     N  847   0.492   0.654   0.273 -0.3973  0.6435 -0.3567
   55MPD2    H5  848   0.459   0.626   0.365  0.8654  0.0181 -0.0938
   55MPD2    N1  849   0.744   0.249   0.315 -0.5856 -0.0557 -0.7448
   55MPD2    H7  850   0.814   0.189   0.273 -0.0544 -0.2580  0.4329
   56TCq2    C1  851   0.694   0.219   0.444  0.1128  0.6249 -0.6126
   56TCq2    O2  852   0.623   0.290   0.520  0.4051 -0.0256 -0.3742
   56TCq2    C2  853   0.758   0.105   0.505  0.6833 -0.4796 -0.2149
   56TCq2    C3  854   0.805   4.721   0.429 -0.2949 -0.4249  0.2240
   56TCq2    C4  855   0.875   4.623   0.489  0.3226 -0.3784 -0.2041
   56TCq2    C5  856   0.913   4.632   0.624 -0.3813  0.1981 -0.1722
   56TCq2    C6  857   0.865   0.017   0.697  0.0129 -0.0683  0.4219
   56TCq2    C7  858   0.790   0.113   0.639 -0.0823 -0.0156 -0.0396
   56TCq2    C8  859   0.893   0.019   0.838 -0.8389 -0.2237  0.6671
   56TCq2    O4  860   0.966   4.655   0.887 -0.9152 -0.9167 -0.2529
   56TCq2    C9  861   0.921   4.507   0.409 -0.3085  0.1435  0.4085
   56TCq2    O5  862   0.895   4.509   0.287  0.6088  0.5016 -0.6334
   56TCq2    O6  863   1.000   4.426   0.473 -0.2608  0.1807  0.2919
   56TCq2    H2  864   0.775   4.715   0.325  1.1690  4.6680 -0.4630
   56TCq2    H3  865   0.979   4.565   0.678  3.0568  1.7870 -2.4613
   56TCq2    H4  866   0.759   0.201   0.692  0.7063  0.2493 -0.0176
   57TMC2    C1  867   4.219   0.933  13.355  0.7528 -0.6729  0.2422
   57TMC2    C2  868   4.164   1.029  13.279  0.6356  0.4053  0.4092
   57TMC2    C3  869   4.200   1.038  13.146 -0.3025  0.7220 -0.1132
   57TMC2    C4  870   4.278   0.825  13.290 -0.0129  0.6464 -0.1270
   57TMC2    C5  871   4.294   0.827  13.151 -0.7312  0.3610  0.2302
   57TMC2    C6  872   4.266   0.935  13.079  0.2583 -0.2683 -0.4231
   57TMC2     C  873   4.214   0.930  13.500  0.1984  0.3115  1.1817
   57TMC2     O  874   4.246   0.822  13.550  0.3279  0.2473 -0.0423
   57TMC2     H  875   4.115   1.115  13.324 -1.0794 -0.7321  0.7474
   57TMC2    H1  876   4.312   0.736  13.340  1.2322  0.6387 -0.9944
   57TMC2    H2  877   4.278   0.947  12.972  0.5645  1.1543 -0.2363
   57TMC2    C7  878   4.351   0.712  13.083 -0.3181 -0.3622  0.2296
   57TMC2    C8  879   4.170   1.167  13.077 -0.1679 -0.9803 -0.6354
   57TMC2    O1  880   4.335   0.596  13.129 -0.4071 -0.7053  0.1218
   57TMC2    O2  881   4.082   1.247  13.119  0.4352 -0.5837 -0.1512
   57TMC2    O5  882   4.298   1.199  13.037  0.0554  0.1558  0.0525
   57TMC2    H5  883   4.363   1.126  13.043  2.0515  1.7988 -1.2081
   58MPD2     C  884   4.126   1.120  13.971  0.6078  0.2108  0.5732
   58MPD2    C1  885   4.132   1.225  13.881  0.0432 -0.0875  0.1477
   58MPD2    C2  886   4.141   1.200  13.739  0.1428  1.1171 -0.5469
   58MPD2    C3  887   4.151   1.073  13.695  0.6067  0.0410 -0.7153
   58MPD2    C4  888   4.164   0.972  13.786 -0.5270 -0.2678  0.1245
   58MPD2    C5  889   4.162   0.997  13.922  0.1939 -0.4891  0.0027
   58MPD2     H  890   4.157   1.283  13.672  0.4578  0.9248 -0.7114
   58MPD2    H1  891   4.175   0.867  13.762 -0.4259 -0.6987  2.0007
   58MPD2    H2  892   4.119   1.134  14.078 -0.1948 -2.4875  0.8764
   58MPD2    H3  893   4.176   0.922  13.999 -1.4167  0.0673  0.8324
   58MPD2     N  894   4.161   1.048  13.555  0.2631 -0.9169  0.2641
   58MPD2    H5  895   4.181   1.135  13.507 -2.5154 -0.5987 -0.3453
   58MPD2    N1  896   4.109   1.359  13.916 -1.0187 -0.5898  0.1997
   58MPD2    H7  897   4.112   1.421  13.836 -1.3270 -0.1245  0.5498
   59MPD2     C  898   2.270   1.949  13.307 -0.1792 -0.2985  0.7391
   59MPD2    C1  899   2.384   1.876  13.311  0.3538 -0.1165  0.2999
   59MPD2    C2  900   2.501   1.925  13.360  0.0188 -0.3188 -0.2508
   59MPD2    C3  901   2.502   2.054  13.416  0.1012 -0.5200  0.9832
   59MPD2    C4  902   2.393   2.137  13.398  0.5119 -0.3684 -0.0021
   59MPD2    C5  903   2.275   2.082  13.352 -0.7750 -0.5714  0.7774
   59MPD2     H  904   2.589   1.861  13.365 -0.0242 -0.2006  1.8606
   59MPD2    H1  905   2.400   2.244  13.409 -2.0817 -0.4211  2.1217
   59MPD2    H2  906   2.176   1.901  13.281 -0.2753 -0.7637  1.9374
   59MPD2    H3  907   2.184   2.140  13.355 -0.6100 -0.0551 -3.4334
   59MPD2     N  908   2.614   2.125  13.469 -0.6939  0.0037  0.6563
   59MPD2    H5  909   2.604   2.225  13.480  1.3806  0.4415 -1.4024
   59MPD2    N1  910   2.390   1.737  13.275  0.3375 -0.2772  0.0433
   59MPD2    H7  911   2.481   1.695  13.261 -0.2185 -0.8641 -1.8228
   60TCq2    C1  912   2.282   1.654  13.250  0.5502  0.2887  0.5224
   60TCq2    O2  913   2.167   1.675  13.291  0.1715 -0.4833 -0.3479
   60TCq2    C2  914   2.330   1.539  13.182  0.0973  0.6339  0.5508
   60TCq2    C3  915   2.268   1.420  13.208  0.1865 -0.2464  0.0290
   60TCq2    C4  916   2.310   1.315  13.134  0.3438 -0.5395 -0.9227
   60TCq2    C5  917   2.393   1.324  13.021  0.6083  0.0731 -0.3362
   60TCq2    C6  918   2.438   1.455  12.989  0.6025  0.0023  0.2688
   60TCq2    C7  919   2.424   1.559  13.080 -0.3540 -0.1740 -0.2606
   60TCq2    C8  920   2.534   1.485  12.883 -0.0686 -0.5057  0.0939
   60TCq2    O4  921   2.622   1.403  12.859 -0.2401 -0.2402  0.0102
   60TCq2    C9  922   2.275   1.184  13.176  0.4889 -0.7570 -0.6997
   60TCq2    O5  923   2.226   1.170  13.291  0.2567 -0.1978 -0.4050
   60TCq2    O6  924   2.293   1.094  13.088 -0.0681  0.2439 -0.5536
   60TCq2    H2  925   2.205   1.405  13.294  1.8970  0.2676  1.3734
   60TCq2    H3  926   2.398   1.245  12.947 -2.5500  0.3820 -0.9142
   60TCq2    H4  927   2.459   1.659  13.054 -1.1842  0.3359  0.5884
   61MPD2     C  928   2.166   2.709  14.562  0.3121 -0.0778  0.1155
   61MPD2    C1  929   2.206   2.841  14.598  0.1784  0.1798 -0.2369
   61MPD2    C2  930   2.214   2.934  14.498 -0.0229 -0.0404  0.7489
   61MPD2    C3  931   2.201   2.910  14.369 -0.6179 -0.2483 -1.0418
   61MPD2    C4  932   2.162   2.782  14.336  0.0378 -0.1518  0.0018
   61MPD2    C5  933   2.140   2.684  14.431  0.5754 -0.2955  0.2862
   61MPD2     H  934   2.223   3.036  14.533 -1.1863  0.1739  0.4044
   61MPD2    H1  935   2.152   2.749  14.234 -0.2115 -0.7032  0.2059
   61MPD2    H2  936   2.146   2.632  14.635  0.6263 -1.6081 -1.4250
   61MPD2    H3  937   2.110   2.582  14.407 -1.6368  0.5937 -0.6889
   61MPD2     N  938   2.206   3.012  14.274 -0.4304  0.4033 -0.1594
   61MPD2    H5  939   2.171   2.992  14.181 -0.3933 -1.3214  0.2070
   61MPD2    N1  940   2.223   2.883  14.735  0.6402 -0.1853  0.5054
   61MPD2    H7  941   2.241   2.982  14.744 -1.6399  0.0455  2.5164
   62TCq2    C1  942   2.198   2.811  14.854 -0.1954  0.4146  0.3057
   62TCq2    O2  943   2.175   2.688  14.862  0.3596 -0.2773 -0.0214
   62TCq2    C2  944   2.209   2.891  14.977 -0.0596 -0.0429  0.1570
   62TCq2    C3  945   2.192   2.819  15.093 -0.3702  0.2848 -0.1717
   62TCq2    C4  946   2.181   2.891  15.214  0.6276  0.0046 -0.8796
   62TCq2    C5  947   2.182   3.023  15.217 -0.5981 -0.5317  0.4761
   62TCq2    C6  948   2.187   3.095  15.104  0.2505 -0.5664  0.0501
   62TCq2    C7  949   2.202   3.024  14.982  0.6784 -0.2873  0.4102
   62TCq2    C8  950   2.151   3.240  15.094  0.6309 -0.2505 -0.0718
   62TCq2    O4  951   2.112   3.274  14.983  0.2608  0.5426 -0.6605
   62TCq2    C9  952   2.149   2.815  15.335 -0.3420  0.4984 -0.0075
   62TCq2    O5  953   2.133   2.695  15.310  0.4583  0.4935 -0.1775
   62TCq2    O6  954   2.104   2.875  15.437 -0.1648 -0.6183  0.4592
   62TCq2    H2  955   2.185   2.710  15.096  0.2500  0.2263 -1.3049
   62TCq2    H3  956   2.174   3.073  15.313 -3.5354  0.7389 -0.4134
   62TCq2    H4  957   2.195   3.077  14.888 -1.1654  1.9226  1.7866
   63TMC2    C1  958   1.444   3.176  10.948  0.1583  0.5439 -0.4295
   63TMC2    C2  959   1.546   3.148  11.035 -0.3308  0.4903  0.2053
   63TMC2    C3  960   1.647   3.237  11.040 -0.3167  0.3009  0.2601
   63TMC2    C4  961   1.449   3.282  10.865  0.6549 -0.6448  0.4896
   63TMC2    C5  962   1.562   3.358  10.873 -0.1457  0.2674 -0.6120
   63TMC2    C6  963   1.653   3.357  10.972  1.0651  0.2724  0.2379
   63TMC2     C  964   1.327   3.090  10.957 -0.8427 -0.0691 -0.5718
   63TMC2     O  965   1.315   2.993  11.033  0.2333  0.1825  0.6863
   63TMC2     H  966   1.548   3.059  11.096  2.1416  0.5628  0.2321
   63TMC2    H1  967   1.360   3.314  10.812  0.1246  0.3954  1.9714
   63TMC2    H2  968   1.742   3.419  10.971  1.1301  0.1325 -2.6496
   63TMC2    C7  969   1.581   3.472  10.784  0.3738  0.2151 -0.4227
   63TMC2    C8  970   1.763   3.198  11.115 -0.3101  0.3065 -0.0372
   63TMC2    O1  971   1.662   3.560  10.815  0.3435 -0.0139  0.2227
   63TMC2    O2  972   1.756   3.090  11.179 -0.6415 -0.2255 -0.2185
   63TMC2    O5  973   1.807   3.308  11.183 -0.8744 -0.2619 -0.0826
   63TMC2    H5  974   1.788   3.392  11.135 -0.2815  0.1680  0.4285
   64MPD2     C  975   0.871   2.910  10.830  0.7334 -0.8308 -0.5083
   64MPD2    C1  976   0.991   2.841  10.847 -0.1638 -0.2101 -0.4969
   64MPD2    C2  977   1.106   2.916  10.861 -0.6745 -0.3816  0.3942
   64MPD2    C3  978   1.099   3.050  10.871 -0.6326 -0.1446 -0.6415
   64MPD2    C4  979   0.975   3.117  10.855 -0.0955  0.2336 -0.9322
   64MPD2    C5  980   0.860   3.046  10.842 -0.6614 -0.1541 -0.6978
   64MPD2     H  981   1.198   2.858  10.866 -0.6323 -0.5268 -1.9852
   64MPD2    H1  982   0.965   3.225  10.861 -0.6895 -0.0133  2.6120
   64MPD2    H2  983   0.776   2.865  10.802 -0.4923 -0.3658  2.8790
   64MPD2    H3  984   0.766   3.100  10.840  0.1711  1.3759  1.1135
   64MPD2     N  985   1.210   3.138  10.897 -0.6629 -0.6160  0.6298
   64MPD2    H5  986   1.209   3.235  10.869  0.1644 -1.4317 -2.2133
   64MPD2    N1  987   0.996   2.702  10.842 -0.2206 -0.6466 -0.2339
   64MPD2    H7  988   1.086   2.655  10.838  0.0710 -0.3283  2.2106
   65MPD2     C  989   2.852   2.719  15.861  0.2866  0.4904  0.0349
   65MPD2    C1  990   2.829   2.661  15.740 -0.0544 -0.1957 -0.3973
   65MPD2    C2  991   2.764   2.541  15.735  0.0929  0.2860  0.2414
   65MPD2    C3  992   2.721   2.474  15.851 -0.0856 -0.0991 -0.3725
   65MPD2    C4  993   2.733   2.539  15.973  0.1275  0.3242  0.0967
   65MPD2    C5  994   2.801   2.659  15.970  0.5788 -0.5226  0.0086
   65MPD2     H  995   2.766   2.484  15.644  0.0714 -0.9292  0.9995
   65MPD2    H1  996   2.684   2.491  16.056  0.8021 -0.1612  0.2195
   65MPD2    H2  997   2.900   2.815  15.876  0.4470  0.3531  0.3931
   65MPD2    H3  998   2.793   2.722  16.059 -1.5704  0.0002 -0.5573
   65MPD2     N  999   2.638   2.358  15.840  0.0089  0.1532 -0.1929
   65MPD2    H5 1000   2.584   2.337  15.924 -1.2158  0.0951 -0.9905
   65MPD2    N1 1001   2.867   2.717  15.614  0.0668  0.2642 -0.2073
   65MPD2    H7 1002   2.837   2.670  15.529  0.4283  0.8299 -0.6433
   66TCq2    C1 1003   2.925   2.840  15.598 -0.1361 -0.8313 -0.1273
   66TCq2    O2 1004   2.960   2.927  15.677  0.3480  0.7128 -0.4198
   66TCq2    C2 1005   2.918   2.886  15.469  0.7205  0.6211 -0.8468
   66TCq2    C3 1006   2.888   2.795  15.367 -0.1825  0.1711  0.6959
   66TCq2    C4 1007   2.861   2.846  15.244 -0.7953  0.2926  0.2880
   66TCq2    C5 1008   2.851   2.978  15.222 -0.3498  0.4586  0.1755
   66TCq2    C6 1009   2.860   3.062  15.329  0.0810 -0.4740  0.0296
   66TCq2    C7 1010   2.889   3.020  15.457 -0.7527 -0.3556  0.6310
   66TCq2    C8 1011   2.851   3.205  15.308  0.1953 -0.4296 -0.5894
   66TCq2    O4 1012   2.876   3.237  15.194 -0.2055 -0.2515  0.6446
   66TCq2    C9 1013   2.850   2.757  15.134 -0.4153 -0.4883 -0.5227
   66TCq2    O5 1014   2.884   2.634  15.151  0.0021 -0.0577 -0.0588
   66TCq2    O6 1015   2.836   2.809  15.022 -0.1112 -0.1291  0.3071
   66TCq2    H2 1016   2.915   2.690  15.366  0.7398  0.4338 -2.0433
   66TCq2    H3 1017   2.847   3.013  15.119  0.1775 -1.6294 -0.5498
   66TCq2    H4 1018   2.921   3.089  15.534  0.8768 -0.4375  0.0212
   67MPD2     C 1019   2.660   1.613  14.234  0.4568 -0.3454 -0.4399
   67MPD2    C1 1020   2.625   1.746  14.256  0.3989  0.4231  0.4052
   67MPD2    C2 1021   2.501   1.796  14.220  0.1954 -0.0388  0.1442
   67MPD2    C3 1022   2.405   1.707  14.181  0.5174  0.4325  0.9085
   67MPD2    C4 1023   2.443   1.581  14.159 -0.2406  0.2853 -0.3486
   67MPD2    C5 1024   2.572   1.533  14.184 -0.0328 -0.2776 -0.1241
   67MPD2     H 1025   2.483   1.901  14.240 -1.3124 -0.4189  0.7790
   67MPD2    H1 1026   2.374   1.510  14.114  1.0671 -0.1558 -1.6552
   67MPD2    H2 1027   2.758   1.573  14.257  0.3829 -0.9430 -1.1613
   67MPD2    H3 1028   2.612   1.441  14.144 -1.9093  0.8824 -4.5614
   67MPD2     N 1029   2.268   1.739  14.174  0.1032 -0.1206  0.2035
   67MPD2    H5 1030   2.202   1.665  14.153 -2.2198  2.0147 -0.1048
   67MPD2    N1 1031   2.708   1.835  14.327 -0.4878  0.0173 -0.1925
   67MPD2    H7 1032   2.684   1.933  14.319  1.8595  0.6865  0.8642
   68TCq2    C1 1033   2.804   1.812  14.420 -0.1825 -0.2739 -0.0182
   68TCq2    O2 1034   2.861   1.707  14.444  0.5934  0.4475 -0.0313
   68TCq2    C2 1035   2.818   1.932  14.515 -0.0202 -0.6373 -0.4851
   68TCq2    C3 1036   2.711   2.003  14.562 -0.0791  0.3839 -0.8561
   68TCq2    C4 1037   2.717   2.059  14.690 -0.1091 -0.4639  0.1882
   68TCq2    C5 1038   2.837   2.072  14.758 -0.9152  0.7003  0.4531
   68TCq2    C6 1039   2.943   1.999  14.715  0.7319 -0.1594 -0.2921
   68TCq2    C7 1040   2.933   1.925  14.596 -0.8491 -0.1829  0.5998
   68TCq2    C8 1041   3.041   1.946  14.811 -0.2766 -0.0401  0.1289
   68TCq2    O4 1042   3.126   1.867  14.770 -0.0918  0.0209 -0.2423
   68TCq2    C9 1043   2.601   2.126  14.737 -0.3369  0.2000  0.5379
   68TCq2    O5 1044   2.505   2.134  14.658  0.0621  0.2465 -0.1321
   68TCq2    O6 1045   2.614   2.192  14.843  0.3601  0.4175 -0.2464
   68TCq2    H2 1046   2.615   2.013  14.512  0.9344  1.7183 -2.5598
   68TCq2    H3 1047   2.836   2.131  14.849 -0.5095  0.3982  0.6543
   68TCq2    H4 1048   3.023   1.872  14.568 -0.8560 -1.0136  2.1903
   69TMC2    C1 1049   4.419   3.430  12.685 -0.6032  0.0713  0.4652
   69TMC2    C2 1050   4.293   3.429  12.627 -0.2939  0.1789  0.3139
   69TMC2    C3 1051   4.281   3.458  12.497  0.8593 -0.0459  0.3948
   69TMC2    C4 1052   4.536   3.442  12.606 -0.1103 -0.0810  0.4869
   69TMC2    C5 1053   4.516   3.481  12.474  0.2300 -0.8678 -0.0628
   69TMC2    C6 1054   4.389   3.484  12.418 -0.0212 -0.0660  0.0858
   69TMC2     C 1055   4.425   3.374  12.818  1.0399 -0.2001  0.3864
   69TMC2     O 1056   4.323   3.319  12.858  0.3282 -0.2452 -0.4490
   69TMC2     H 1057   4.207   3.398  12.686  0.5762 -0.3249  1.3240
   69TMC2    H1 1058   4.638   3.436  12.643  0.5627  1.5609 -1.1599
   69TMC2    H2 1059   4.376   3.518  12.316  0.1272  1.4086  0.5462
   69TMC2    C7 1060   4.634   3.524  12.396  0.5784  0.0438 -0.6333
   69TMC2    C8 1061   4.147   3.433  12.439 -0.5580  0.0590 -0.2920
   69TMC2    O1 1062   0.005   3.572  12.460  0.7156  0.5183  0.4879
   69TMC2    O2 1063   4.058   3.359  12.481 -0.3406 -0.4161  0.0651
   69TMC2    O5 1064   4.151   3.480  12.314 -0.0196  0.3417  0.4392
   69TMC2    H5 1065   4.203   3.563  12.311 -0.9917  0.9668  0.6076
   70MPD2     C 1066   4.708   3.209  12.948  0.6326  0.0570 -0.4347
   70MPD2    C1 1067   4.584   3.257  12.957 -0.2545 -0.4242 -0.9181
   70MPD2    C2 1068   4.489   3.205  13.046 -0.0927 -0.3289  0.2669
   70MPD2    C3 1069   4.542   3.113  13.138  0.2403  0.4902  0.0848
   70MPD2    C4 1070   4.671   3.072  13.140 -0.0764 -0.3957 -0.0146
   70MPD2    C5 1071   0.040   3.131  13.048  0.4487  0.1961 -0.7143
   70MPD2     H 1072   4.393   3.254  13.055 -0.6516 -1.1744 -1.1892
   70MPD2    H1 1073   4.704   2.990  13.203 -0.4443 -1.1856 -0.8500
   70MPD2    H2 1074   0.057   3.259  12.883  0.7183 -2.0775 -1.9640
   70MPD2    H3 1075   0.145   3.103  13.047  0.2760 -0.4004 -2.1887
   70MPD2     N 1076   4.457   3.040  13.228 -0.2147 -0.9351 -0.1140
   70MPD2    H5 1077   4.503   2.991  13.304 -1.1875 -1.2888  0.2371
   70MPD2    N1 1078   4.552   3.352  12.860 -0.0113 -0.4096  0.2695
   70MPD2    H7 1079   4.627   3.397  12.808 -0.8697  1.8530  0.9783
   71TMC2    C1 1080   3.401   3.767   0.868 -0.7528 -0.2944  0.6331
   71TMC2    C2 1081   3.535   3.783   0.844 -0.3473  0.5439 -0.0516
   71TMC2    C3 1082   3.618   3.747   0.945  0.0031 -0.3024  0.7270
   71TMC2    C4 1083   3.349   3.707   0.976  0.2618  0.4470  0.0228
   71TMC2    C5 1084   3.436   3.677   1.069 -0.0622  0.0118 -0.5267
   71TMC2    C6 1085   3.572   3.693   1.058  0.0609  0.0834 -0.1707
   71TMC2     C 1086   3.304   3.860   0.808  0.1593 -0.0991  0.0698
   71TMC2     O 1087   3.187   3.823   0.824 -0.0120 -0.2391 -0.5845
   71TMC2     H 1088   3.573   3.836   0.758  0.2448  0.3246  0.0703
   71TMC2    H1 1089   3.243   3.687   0.983  0.7428 -2.2100 -0.4142
   71TMC2    H2 1090   3.633   3.695   1.148  0.8958  0.0890 -0.7350
   71TMC2    C7 1091   3.382   3.648   1.199 -0.4772 -0.3215  0.5315
   71TMC2    C8 1092   3.729   3.844   0.946  0.3456  0.6449  0.0026
   71TMC2    O1 1093   3.456   3.619   1.291 -0.4801  0.3483 -0.4301
   71TMC2    O2 1094   3.720   3.959   0.908  0.1626  0.2717 -0.3219
   71TMC2    O5 1095   3.847   3.791   0.985  0.2462 -0.0369 -0.3222
   71TMC2    H5 1096   3.845   3.694   0.998  0.8011  0.3194  2.4136
   72MPD2     C 1097   3.139   4.310   0.656 -0.0350  0.0049  0.1367
   72MPD2    C1 1098   3.064   4.210   0.715 -0.1224  0.4749 -0.3672
   72MPD2    C2 1099   3.134   4.091   0.736  0.1572  0.1892 -0.0240
   72MPD2    C3 1100   3.275   4.084   0.708 -0.5150 -0.8612  0.2635
   72MPD2    C4 1101   3.342   4.190   0.649  0.1756  0.7078 -0.3626
   72MPD2    C5 1102   3.272   4.303   0.621  0.3266  0.0802 -0.0391
   72MPD2     H 1103   3.077   4.005   0.767 -0.4526  0.7798  0.4909
   72MPD2    H1 1104   3.445   4.173   0.620  0.4921 -0.4907  1.4824
   72MPD2    H2 1105   3.076   4.396   0.638  0.7070  1.0126  2.2906
   72MPD2    H3 1106   3.324   4.388   0.577  0.2392 -0.0953 -0.4759
   72MPD2     N 1107   3.352   3.973   0.738 -0.3396  0.3110  0.4500
   72MPD2    H5 1108   3.453   3.977   0.736 -0.4119  1.8478  0.0012
   72MPD2    N1 1109   2.922   4.221   0.751 -0.0440 -0.3671  0.7522
   72MPD2    H7 1110   2.876   4.132   0.769 -1.8066  0.2636 -0.6350
   73TMC2    C1 1111   1.572   0.677  13.800 -0.3848 -0.7892 -0.1929
   73TMC2    C2 1112   1.642   0.573  13.839 -0.3879 -0.2988  0.6497
   73TMC2    C3 1113   1.676   0.550  13.968  0.0510  0.1162 -0.1810
   73TMC2    C4 1114   1.522   0.759  13.904 -0.4991 -0.0154 -0.2096
   73TMC2    C5 1115   1.547   0.730  14.036  0.3601  0.1573  0.0781
   73TMC2    C6 1116   1.619   0.620  14.069  0.4931 -0.8491 -0.4070
   73TMC2     C 1117   1.652   0.767  13.714 -0.9044 -0.3097  0.8194
   73TMC2     O 1118   1.662   0.878  13.763 -0.2151  0.2225 -0.0846
   73TMC2     H 1119   1.680   0.503  13.766  0.8073 -1.6703  2.5699
   73TMC2    H1 1120   1.470   0.852  13.885  0.3743  0.6600  0.7559
   73TMC2    H2 1121   1.651   0.603  14.171 -0.5418 -1.2098 -0.1316
   73TMC2    C7 1122   1.588   0.847  14.114 -0.2381  0.7830  0.1475
   73TMC2    C8 1123   1.743   0.425  13.994  0.0745  0.3649 -0.4639
   73TMC2    O1 1124   1.613   0.835  14.232  0.3513  0.1069  0.5949
   73TMC2    O2 1125   1.704   0.348  14.082  0.3548  0.3368  0.2433
   73TMC2    O5 1126   1.858   0.409  13.937  0.0117 -0.2091  0.1642
   73TMC2    H5 1127   1.882   0.494  13.896 -1.4779  0.0493 -0.1812
   74MPD2     C 1128   1.984   0.908  13.344 -0.1696 -0.6670  0.4636
   74MPD2    C1 1129   1.951   0.965  13.466 -0.2157 -1.2543 -0.0327
   74MPD2    C2 1130   1.865   0.907  13.555 -0.3669 -0.0593 -0.8334
   74MPD2    C3 1131   1.818   0.776  13.529 -0.2630 -0.8701 -0.2853
   74MPD2    C4 1132   1.852   0.719  13.404 -0.0538 -0.0089  0.0781
   74MPD2    C5 1133   1.928   0.785  13.315 -0.1856 -0.3523  0.0156
   74MPD2     H 1134   1.828   0.961  13.642 -0.3053  0.3862 -1.0863
   74MPD2    H1 1135   1.816   0.625  13.363 -0.3204  0.4218 -0.6750
   74MPD2    H2 1136   2.060   0.942  13.275 -0.3170 -1.3517 -0.0388
   74MPD2    H3 1137   1.956   0.725  13.230  0.9405 -1.4723  1.1850
   74MPD2     N 1138   1.723   0.709  13.614  0.2742 -0.0718 -0.7496
   74MPD2    H5 1139   1.690   0.618  13.585  0.4795 -0.2538 -0.4108
   74MPD2    N1 1140   2.014   1.094  13.489 -0.5988  0.5644  0.1686
   74MPD2    H7 1141   2.075   1.123  13.413  0.4390  0.9408  1.1438
   75TCq2    C1 1142   2.212   1.855  14.228  0.3899  0.2169  0.6191
   75TCq2    O2 1143   2.262   1.947  14.291  0.3822 -0.1324 -0.3730
   75TCq2    C2 1144   2.068   1.827  14.255  0.2192 -0.2121  0.0530
   75TCq2    C3 1145   2.016   1.886  14.368  0.6174 -0.4457  0.0757
   75TCq2    C4 1146   1.881   1.895  14.374  0.4470  0.2593 -1.0372
   75TCq2    C5 1147   1.803   1.845  14.274  0.0160  0.5682 -0.6639
   75TCq2    C6 1148   1.859   1.782  14.160  0.1251  0.0269 -0.2059
   75TCq2    C7 1149   1.990   1.770  14.153  0.0099  0.5862 -0.0931
   75TCq2    C8 1150   1.778   1.770  14.041 -0.3138  0.0560 -0.4661
   75TCq2    O4 1151   1.809   1.682  13.960  0.5097 -0.5245 -0.0805
   75TCq2    C9 1152   1.824   1.945  14.495  0.1173  1.4911 -0.3871
   75TCq2    O5 1153   1.904   1.993  14.576  0.4376  0.0653 -0.2545
   75TCq2    O6 1154   1.699   1.940  14.506  0.8088 -0.3776  1.2227
   75TCq2    H2 1155   2.077   1.931  14.445 -1.1449 -0.0194  1.2452
   75TCq2    H3 1156   1.695   1.853  14.286 -0.3030 -0.0785 -2.9500
   75TCq2    H4 1157   2.025   1.741  14.054 -1.4037 -2.4915  0.3387
   76MPD2     C 1158   0.706   2.933  12.351  1.0280 -0.3625 -0.0298
   76MPD2    C1 1159   0.746   2.983  12.232 -0.3155 -0.3153  1.5230
   76MPD2    C2 1160   0.793   2.894  12.136  0.4739 -0.1183 -0.5896
   76MPD2    C3 1161   0.826   2.759  12.169 -0.3923  0.3050  0.4024
   76MPD2    C4 1162   0.796   2.720  12.292 -0.0974 -0.1186 -0.0313
   76MPD2    C5 1163   0.742   2.808  12.385  0.2493 -0.6533  0.0874
   76MPD2     H 1164   0.829   2.932  12.041  2.1524 -1.1763 -0.3785
   76MPD2    H1 1165   0.811   2.619  12.330  0.7400 -0.6953 -1.8992
   76MPD2    H2 1166   0.658   2.992  12.429 -0.1920 -1.3913 -0.0061
   76MPD2    H3 1167   0.706   2.774  12.481  1.8708  0.0932  0.9412
   76MPD2     N 1168   0.885   2.663  12.084  0.2496 -0.0392 -0.0608
   76MPD2    H5 1169   0.877   2.567  12.115 -0.7625  0.0690  0.0029
   76MPD2    N1 1170   0.733   3.117  12.202  0.6646  0.0750 -0.1478
   76MPD2    H7 1171   0.745   3.150  12.107 -0.0761  2.4427  0.5781
   77TCq2    C1 1172   0.948   2.694  11.966 -0.5514  0.6169  0.0490
   77TCq2    O2 1173   0.963   2.806  11.919  0.4780  0.7092 -0.0147
   77TCq2    C2 1174   1.019   2.579  11.911 -0.5920  0.3294  0.3875
   77TCq2    C3 1175   1.017   2.550  11.772 -0.1557  0.1879 -0.0289
   77TCq2    C4 1176   1.108   2.464  11.726  0.0361 -0.1189 -0.1019
   77TCq2    C5 1177   1.203   2.409  11.810  0.0688  0.6504  0.0608
   77TCq2    C6 1178   1.208   2.445  11.939  0.0483  0.5687 -0.5215
   77TCq2    C7 1179   1.109   2.525  11.997 -0.0497 -0.5304  0.0438
   77TCq2    C8 1180   1.295   2.370  12.032 -0.1980 -0.4949  0.8136
   77TCq2    O4 1181   1.262   2.346  12.147 -0.3887  0.7462  0.3381
   77TCq2    C9 1182   1.099   2.419  11.592  0.2979 -0.1338  0.4234
   77TCq2    O5 1183   1.205   2.360  11.550 -0.7585 -0.6210  0.0202
   77TCq2    O6 1184   1.014   2.470  11.514  0.0481  0.6002 -0.2401
   77TCq2    H2 1185   0.955   2.607  11.703 -1.7554 -2.7677 -1.0197
   77TCq2    H3 1186   1.271   2.335  11.769 -1.9144  1.0022 -3.8489
   77TCq2    H4 1187   1.128   2.565  12.096  3.2155 -0.0887 -0.7779
   78MPD1     C 1188   3.338   4.097   1.126  0.7544  0.1126  0.0071
   78MPD1    C1 1189   3.216   4.155   1.157 -0.1532  0.0801 -0.0637
   78MPD1    C2 1190   3.154   4.099   1.271 -0.3408  0.3911 -0.4958
   78MPD1    C3 1191   3.233   4.031   1.368 -1.2729  0.4955  0.1313
   78MPD1    C4 1192   3.365   3.995   1.338  0.0003 -0.4978  0.7986
   78MPD1    C5 1193   3.417   4.028   1.220 -0.1194 -0.0606  0.0124
   78MPD1     H 1194   3.049   4.115   1.290 -0.1042 -1.1576  2.1028
   78MPD1    H1 1195   3.436   3.951   1.406  0.4808 -2.3691 -0.8847
   78MPD1    H2 1196   3.381   4.109   1.027  3.3014  2.5161  1.3996
   78MPD1    H3 1197   3.520   4.003   1.196 -0.5402  0.8561 -2.7398
   78MPD1     N 1198   3.180   3.983   1.489 -0.4633 -0.2125 -0.1594
   78MPD1    H5 1199   3.257   3.950   1.546  0.5901  0.4268 -1.1908
   78MPD1    N1 1200   3.143   4.215   1.053  0.3236 -0.2533 -0.0255
   78MPD1    H6 1201   3.202   4.283   1.005  0.0407  0.7771  1.0938
   78MPD1    H7 1202   3.058   4.261   1.086  1.2394  0.4373  1.3406
   79TCq2    C1 1203   3.061   4.008   1.552 -0.1340  0.0834  0.2643
   79TCq2    O2 1204   2.966   4.075   1.519  0.0439  0.2275 -0.4950
   79TCq2    C2 1205   3.045   3.944   1.675  0.0852 -0.5437  0.3598
   79TCq2    C3 1206   2.928   3.979   1.752  0.0994 -0.0420 -0.6095
   79TCq2    C4 1207   2.927   3.936   1.879  0.1873  0.1490 -0.1119
   79TCq2    C5 1208   3.029   3.863   1.935 -0.0815 -0.4461  0.0354
   79TCq2    C6 1209   3.134   3.826   1.855  0.7805 -0.8538  0.2860
   79TCq2    C7 1210   3.142   3.859   1.718  0.3089 -0.2417 -0.0946
   79TCq2    C8 1211   3.239   3.732   1.892  0.8732 -0.4770  0.6499
   79TCq2    O4 1212   3.330   3.694   1.818 -0.3169 -0.7998 -0.3122
   79TCq2    C9 1213   2.835   3.994   1.973  0.1564  0.3979  0.2186
   79TCq2    O5 1214   2.779   4.104   1.943  0.1687 -0.2474  0.0999
   79TCq2    O6 1215   2.813   3.925   2.075 -0.5300  0.7509 -0.0687
   79TCq2    H2 1216   2.845   4.040   1.718  0.9515 -0.2314 -3.0284
   79TCq2    H3 1217   3.030   3.834   2.040  0.9854  1.3397  0.5194
   79TCq2    H4 1218   3.224   3.817   1.660 -1.4326 -0.8100 -2.1449
   80MPD2     C 1219   0.115   2.713  12.451  1.5692  0.7552  0.1389
   80MPD2    C1 1220   0.018   2.743  12.361 -0.6682 -0.4731  0.8507
   80MPD2    C2 1221   4.602   2.735  12.394 -0.5729  0.3865  0.1964
   80MPD2    C3 1222   4.572   2.709  12.532  0.5169  0.1024  0.0323
   80MPD2    C4 1223   4.672   2.683  12.624  0.2085 -0.3280  0.1686
   80MPD2    C5 1224   0.086   2.691  12.583 -0.2383  0.4938 -0.1559
   80MPD2     H 1225   4.526   2.739  12.317  0.0344 -0.0147 -0.4185
   80MPD2    H1 1226   4.643   2.651  12.723 -0.2089 -2.9219 -0.7972
   80MPD2    H2 1227   0.219   2.713  12.419  2.0229  1.8212  1.6252
   80MPD2    H3 1228   0.168   2.656  12.645 -0.7005 -1.0333 -0.4108
   80MPD2     N 1229   4.444   2.685  12.585 -0.3176  0.3319 -0.0529
   80MPD2    H5 1230   4.439   2.640  12.676 -1.2567  0.1928 -0.1753
   80MPD2    N1 1231   0.045   2.774  12.231  0.5191  0.3690 -0.5198
   80MPD2    H7 1232   4.687   2.770  12.167 -0.2822  1.7824  0.3992
   81TCq2    C1 1233   0.162   2.799  12.175  1.5413 -0.2507  0.2392
   81TCq2    O2 1234   0.270   2.821  12.227 -0.3081 -0.6368 -0.1906
   81TCq2    C2 1235   0.155   2.783  12.031  0.0224 -0.4030 -0.2351
   81TCq2    C3 1236   0.227   2.857  11.947  0.9786  0.0013 -1.0320
   81TCq2    C4 1237   0.250   2.816  11.819 -0.4657 -0.7541 -0.2983
   81TCq2    C5 1238   0.205   2.692  11.784  0.2201  0.2808 -0.6490
   81TCq2    C6 1239   0.140   2.608  11.874 -0.2557  0.9090  0.3036
   81TCq2    C7 1240   0.112   2.657  11.998 -0.2931 -0.1772 -0.2110
   81TCq2    C8 1241   0.189   2.471  11.863  0.3742  1.0926 -0.2086
   81TCq2    O4 1242   0.284   2.448  11.798 -0.6193  0.4523 -0.1337
   81TCq2    C9 1243   0.334   2.892  11.729  0.5377 -0.6879 -0.4341
   81TCq2    O5 1244   0.311   2.882  11.605 -0.4701 -0.3711  0.2419
   81TCq2    O6 1245   0.412   2.975  11.779  0.0254  0.0067 -0.3641
   81TCq2    H2 1246   0.258   2.958  11.973 -2.1171  0.7845 -0.4423
   81TCq2    H3 1247   0.246   2.662  11.688  2.7519 -2.1169  1.1760
   81TCq2    H4 1248   0.081   2.591  12.079 -0.2778  0.0681 -0.0061
   82MPD2     C 1249   2.943   2.255  10.985  0.4845 -0.4485 -0.0188
   82MPD2    C1 1250   2.845   2.181  11.047  0.1615 -0.2297  0.5020
   82MPD2    C2 1251   2.883   2.086  11.139 -0.3435 -0.1699 -0.2880
   82MPD2    C3 1252   3.017   2.070  11.164 -0.4217 -0.4650  0.0153
   82MPD2    C4 1253   3.113   2.147  11.100  0.1706  0.0395 -0.0231
   82MPD2    C5 1254   3.073   2.243  11.008 -0.8202  0.5602 -0.0096
   82MPD2     H 1255   2.808   2.020  11.182 -0.4742 -0.3389 -0.7759
   82MPD2    H1 1256   3.217   2.129  11.126  0.3963  0.0321 -0.9486
   82MPD2    H2 1257   2.913   2.337  10.921  2.5384  0.4385  0.1574
   82MPD2    H3 1258   3.144   2.304  10.954 -0.6868 -0.2753 -0.7772
   82MPD2     N 1259   3.066   1.954  11.226 -0.5460  0.0857  0.1862
   82MPD2    H5 1260   3.164   1.944  11.199 -0.9230 -1.6021 -0.5409
   82MPD2    N1 1261   2.712   2.200  11.005 -0.8233 -0.3895  0.3839
   82MPD2    H7 1262   2.696   2.285  10.953 -1.6354  0.1583  1.5272
   83TCq2    C1 1263   3.003   1.864  11.305  0.3242  0.5028 -0.1852
   83TCq2    O2 1264   2.899   1.884  11.365  0.1981 -0.0042 -0.2215
   83TCq2    C2 1265   3.066   1.739  11.315  0.2724 -0.3984  0.4975
   83TCq2    C3 1266   3.158   1.703  11.217  0.0617  0.6750  0.4260
   83TCq2    C4 1267   3.187   1.569  11.204  0.3253 -0.3882  0.4695
   83TCq2    C5 1268   3.129   1.480  11.289  0.1365  0.4146  0.5324
   83TCq2    C6 1269   3.040   1.517  11.384  0.0801 -0.2963 -0.4870
   83TCq2    C7 1270   3.005   1.645  11.402  0.0206  0.5528 -0.5716
   83TCq2    C8 1271   2.977   1.414  11.467  0.2076  0.2464  0.2163
   83TCq2    O4 1272   2.895   1.458  11.544  0.4030  0.0106  0.5860
   83TCq2    C9 1273   3.268   1.528  11.093 -0.5134 -0.4286 -0.0247
   83TCq2    O5 1274   3.300   1.607  11.005 -0.4034  0.8920  0.2277
   83TCq2    O6 1275   3.286   1.403  11.086  0.2027 -0.1354  0.4277
   83TCq2    H2 1276   3.200   1.771  11.143 -0.3291  2.1353  1.5459
   83TCq2    H3 1277   3.151   1.377  11.264 -1.3467 -0.1696  1.6560
   83TCq2    H4 1278   2.928   1.668  11.475  0.1792 -1.5807  0.2840
   84TCq2    C1 1279   4.237   0.334  10.537  0.4516  0.6343 -0.4811
   84TCq2    O2 1280   4.327   0.259  10.505  0.2239  0.0336 -0.2717
   84TCq2    C2 1281   4.254   0.413  10.663 -0.9306  0.0785  0.0592
   84TCq2    C3 1282   4.383   0.428  10.708 -0.8862  0.1121  0.5593
   84TCq2    C4 1283   4.401   0.520  10.806  0.6663 -0.9279 -0.5256
   84TCq2    C5 1284   4.293   0.568  10.875 -0.0071  0.7491  0.8851
   84TCq2    C6 1285   4.164   0.534  10.835 -0.1114  0.0627 -0.2170
   84TCq2    C7 1286   4.142   0.462  10.719 -0.5321  0.9051  0.4108
   84TCq2    C8 1287   4.050   0.549  10.924 -0.0427  0.3660  0.3755
   84TCq2    O4 1288   3.938   0.559  10.879  0.2382 -0.6165  0.2526
   84TCq2    C9 1289   4.532   0.577  10.827  0.3139  0.1356  0.0087
   84TCq2    O5 1290   4.612   0.566  10.735  0.1424  0.3644  0.0986
   84TCq2    O6 1291   4.537   0.669  10.911 -0.6478  0.8234 -0.0402
   84TCq2    H2 1292   4.456   0.401  10.633 -0.6249  0.7376  0.5854
   84TCq2    H3 1293   4.313   0.638  10.955  0.5751  2.7518 -1.0147
   84TCq2    H4 1294   4.044   0.424  10.695 -0.8490  2.5068 -0.8697
   85MPD2     C 1295   0.133   3.153  16.320  0.1580 -0.3136 -0.0718
   85MPD2    C1 1296   0.045   3.205  16.231  0.7503 -0.3314 -0.2868
   85MPD2    C2 1297   0.081   3.313  16.150 -0.6221 -0.0614 -0.5142
   85MPD2    C3 1298   0.210   3.368  16.156 -0.6876 -0.9861 -0.2541
   85MPD2    C4 1299   0.300   3.308  16.235  0.4493 -0.0486  0.2838
   85MPD2    C5 1300   0.255   3.205  16.319 -0.6129 -0.7083 -0.2415
   85MPD2     H 1301   0.005   3.369  16.096 -0.9957  1.4749  1.5846
   85MPD2    H1 1302   0.404   3.337  16.247  0.7390 -1.6248  1.5319
   85MPD2    H2 1303   0.110   3.066  16.380  3.5248 -1.5590 -0.5880
   85MPD2    H3 1304   0.323   3.168  16.395 -0.5123  0.3377  0.1776
   85MPD2     N 1305   0.232   3.475  16.072 -0.4150  0.0719  0.2232
   85MPD2    H5 1306   0.147   3.502  16.024 -0.2783 -1.6622 -0.9702
   85MPD2    N1 1307   4.638   3.144  16.213 -0.7222  0.0858 -0.8138
   85MPD2    H7 1308   4.580   3.180  16.138  1.0313  1.7149 -1.3794
   86TCq2    C1 1309   0.346   3.550  16.065  0.1722  0.9262 -0.1776
   86TCq2    O2 1310   0.446   3.537  16.131 -0.4703  0.0288 -0.0053
   86TCq2    C2 1311   0.332   3.678  16.007  0.3865  0.7908 -0.7614
   86TCq2    C3 1312   0.212   3.746  16.038  0.0167 -0.0909 -0.0099
   86TCq2    C4 1313   0.206   3.881  16.016 -0.2459 -0.6207 -0.1402
   86TCq2    C5 1314   0.298   3.946  15.941  0.1261 -0.2768  0.3635
   86TCq2    C6 1315   0.415   3.875  15.914  0.0770  0.3441 -0.1056
   86TCq2    C7 1316   0.429   3.742  15.944 -0.1303 -0.4671 -0.4378
   86TCq2    C8 1317   0.523   3.934  15.839 -0.3151 -0.0110  0.5053
   86TCq2    O4 1318   0.617   3.862  15.811  0.2983  0.2148  0.0201
   86TCq2    C9 1319   0.096   3.959  16.078  0.3038 -0.0496  0.2765
   86TCq2    O5 1320   0.112   4.088  16.070  0.4547 -0.1587 -0.4245
   86TCq2    O6 1321   0.020   3.896  16.154 -0.0476 -0.1215  0.0438
   86TCq2    H2 1322   0.134   3.703  16.100 -0.4468  0.7382 -0.0202
   86TCq2    H3 1323   0.295   4.052  15.921  1.7638 -0.2903  0.0467
   86TCq2    H4 1324   0.518   3.686  15.917 -0.8131 -1.3837 -0.7400
   87MPD2     C 1325   3.390   2.841   2.009 -0.0831  0.1746 -0.0931
   87MPD2    C1 1326   3.373   2.796   1.883 -0.1946 -0.4626  0.1717
   87MPD2    C2 1327   3.314   2.874   1.783 -0.0151 -0.3015  0.4477
   87MPD2    C3 1328   3.270   2.999   1.817  0.2854  0.6926  0.4745
   87MPD2    C4 1329   3.307   3.055   1.937 -0.2986  0.2707  0.5025
   87MPD2    C5 1330   3.363   2.973   2.033 -0.0329 -0.0476  0.1249
   87MPD2     H 1331   3.299   2.821   1.689  1.6488  0.4177 -0.2358
   87MPD2    H1 1332   3.272   3.151   1.971  2.1268  1.5946 -0.7792
   87MPD2    H2 1333   3.432   2.777   2.086  1.4916 -0.0388 -1.1324
   87MPD2    H3 1334   3.372   3.020   2.130 -1.9922 -0.7675  0.6470
   87MPD2     N 1335   3.188   3.068   1.723  0.5705  0.1407  0.1919
   87MPD2    H5 1336   3.164   3.162   1.754  0.3524  0.3157 -0.5059
   87MPD2    N1 1337   3.421   2.665   1.852  0.1616 -0.0417 -0.2293
   87MPD2    H7 1338   3.490   2.638   1.921  0.1202 -3.2806 -1.4415
   88TCq2    C1 1339   3.390   2.583   1.745 -0.0444  0.0575 -0.1285
   88TCq2    O2 1340   3.297   2.597   1.669  0.4658 -0.4655  0.2070
   88TCq2    C2 1341   3.487   2.481   1.726 -0.5992  0.5450  0.7670
   88TCq2    C3 1342   3.594   2.471   1.810 -0.3586  0.2770 -0.3351
   88TCq2    C4 1343   3.693   2.377   1.783 -0.4637 -0.2410  0.1407
   88TCq2    C5 1344   3.688   2.312   1.667 -0.5848 -0.6286  0.1523
   88TCq2    C6 1345   3.577   2.317   1.591 -0.5749  0.2179  0.5122
   88TCq2    C7 1346   3.472   2.408   1.610  0.1465  0.6188  0.5031
   88TCq2    C8 1347   3.571   2.231   1.474 -0.2861 -0.2495 -0.6867
   88TCq2    O4 1348   3.676   2.177   1.445 -0.0736  0.1319 -0.1504
   88TCq2    C9 1349   3.796   2.356   1.882  0.3342  0.2791  0.2243
   88TCq2    O5 1350   3.910   2.314   1.845  0.1548 -0.9746  0.1243
   88TCq2    O6 1351   3.772   2.386   2.003 -0.3102 -0.4641  0.1900
   88TCq2    H2 1352   3.601   2.506   1.913 -2.9923 -0.4289  0.0802
   88TCq2    H3 1353   3.767   2.239   1.649 -0.1423 -0.3157  0.8419
   88TCq2    H4 1354   3.385   2.423   1.547  1.2588 -0.9537 -1.4114
   89MPD2     C 1355   2.497   0.514   2.221  0.0271  0.0857 -0.2612
   89MPD2    C1 1356   2.600   0.428   2.180 -0.4553  0.0652  0.0407
   89MPD2    C2 1357   2.718   0.488   2.139  0.1380  0.1117 -0.3149
   89MPD2    C3 1358   2.737   0.623   2.141  0.5274 -0.4283  0.4621
   89MPD2    C4 1359   2.639   0.705   2.175 -0.1422  0.4184 -0.2898
   89MPD2    C5 1360   2.521   0.654   2.225 -0.4516 -0.2217 -0.2374
   89MPD2     H 1361   2.802   0.425   2.110 -0.1811  0.7737 -2.6784
   89MPD2    H1 1362   2.658   0.812   2.173 -1.9781  0.7785  2.1603
   89MPD2    H2 1363   2.400   0.481   2.256  0.0934 -0.4280 -0.5641
   89MPD2    H3 1364   2.436   0.720   2.240  0.0929  0.5962 -0.7777
   89MPD2     N 1365   2.865   0.679   2.101  0.1716 -0.1716 -0.1949
   89MPD2    H5 1366   2.923   0.604   2.063 -1.1201 -1.2117 -0.0995
   89MPD2    N1 1367   2.573   0.289   2.155  0.7252  0.1615  0.6646
   89MPD2    H7 1368   2.642   0.225   2.118  1.7655  1.0317  1.1061
   90TCq2    C1 1369   2.905   0.809   2.105  0.2627  0.1240  0.0743
   90TCq2    O2 1370   2.854   0.904   2.163  0.3430  0.6715  0.5244
   90TCq2    C2 1371   3.037   0.828   2.035 -0.1518 -0.0421 -0.1238
   90TCq2    C3 1372   3.106   0.940   2.072 -0.3950  0.6666 -0.8175
   90TCq2    C4 1373   3.205   0.990   1.987  0.2141 -0.8018 -0.0442
   90TCq2    C5 1374   3.214   0.944   1.859  1.2063 -0.4953 -0.5194
   90TCq2    C6 1375   3.128   0.852   1.818  0.3850 -0.1961 -0.2790
   90TCq2    C7 1376   3.046   0.783   1.909 -0.1069 -0.2230 -0.5540
   90TCq2    C8 1377   3.102   0.823   1.673  0.4192 -0.2501  0.1776
   90TCq2    O4 1378   3.037   0.722   1.648 -0.3316  0.2731  0.2849
   90TCq2    C9 1379   3.285   1.094   2.033 -0.7685  0.0933 -0.0852
   90TCq2    O5 1380   3.347   1.160   1.950 -0.7460  0.0587 -0.2160
   90TCq2    O6 1381   3.281   1.124   2.154 -0.0363  0.1063 -0.2972
   90TCq2    H2 1382   3.097   0.980   2.172  0.3076  1.0404 -0.8960
   90TCq2    H3 1383   3.283   0.993   1.791  0.1681 -0.4368 -1.5232
   90TCq2    H4 1384   2.956   0.731   1.878  0.5882 -2.0840  0.5343
   91TMC2    C1 1385   0.198   4.456  16.784 -0.0825 -0.3398 -0.1294
   91TMC2    C2 1386   0.265   4.513  16.895 -0.1234  0.3985  0.1225
   91TMC2    C3 1387   0.192   4.526  17.005 -1.0452 -0.2362  0.5932
   91TMC2    C4 1388   0.059   4.434  16.781 -0.0864  0.4460  0.1326
   91TMC2    C5 1389   4.713   4.464  16.896 -0.6527  0.3695 -0.3651
   91TMC2    C6 1390   0.058   4.504  17.010  0.2435  1.0454 -0.1455
   91TMC2     C 1391   0.276   4.364  16.711  0.0779 -0.5265  0.0311
   91TMC2     O 1392   0.224   4.269  16.650 -0.3050  0.4376 -0.4181
   91TMC2     H 1393   0.372   4.513  16.909 -0.2930 -0.8075  1.3694
   91TMC2    H1 1394   0.012   4.380  16.700  2.7364 -0.5031 -0.8716
   91TMC2    H2 1395   0.006   4.500  17.105  0.2866 -2.0321 -0.2733
   91TMC2    C7 1396   4.579   4.418  16.905 -0.5404  0.1672  0.2566
   91TMC2    C8 1397   0.266   4.505  17.128  0.6362  0.0033  0.5904
   91TMC2    O1 1398   4.540   4.395  17.020  0.4903 -0.1749 -0.5321
   91TMC2    O2 1399   0.330   4.404  17.148  0.0068  0.5816  0.5313
   91TMC2    O5 1400   0.221   4.600  17.220 -0.4363  0.4490 -0.5717
   91TMC2    H5 1401   0.181   4.677  17.174  2.4925  2.0023 -0.5253
   92MPD2     C 1402   0.498   4.230  16.573 -0.4409  0.7552  0.4107
   92MPD2    C1 1403   0.500   4.358  16.616  0.4092  0.5479  0.3912
   92MPD2    C2 1404   0.615   4.429  16.605 -0.0782 -0.2238  0.2885
   92MPD2    C3 1405   0.725   4.369  16.547  0.2778 -0.2737  0.0625
   92MPD2    C4 1406   0.714   4.244  16.495 -0.6227 -0.2546  0.6055
   92MPD2    C5 1407   0.599   4.172  16.506  0.4474 -0.5488  0.5170
   92MPD2     H 1408   0.614   4.534  16.634 -0.8585 -0.1225 -0.1004
   92MPD2    H1 1409   0.789   4.189  16.440 -1.3209  0.7129 -1.3110
   92MPD2    H2 1410   0.419   4.162  16.601 -1.0739  1.5789  0.6409
   92MPD2    H3 1411   0.597   4.069  16.471 -0.2188 -1.1911  2.4069
   92MPD2     N 1412   0.841   4.450  16.519 -0.0642 -0.4830 -0.0659
   92MPD2    H5 1413   0.840   4.549  16.543 -2.0458 -0.5714  0.2535
   92MPD2    N1 1414   0.398   4.421  16.689 -1.1636 -0.0402 -0.3517
   92MPD2    H7 1415   0.412   4.517  16.719 -1.4438  0.1003 -0.6611
   93MPD2     C 1416   1.560   4.272  13.504  0.2521  0.2858 -0.3417
   93MPD2    C1 1417   1.523   4.405  13.487  0.1008  0.9070  0.0857
   93MPD2    C2 1418   1.392   4.444  13.509  0.0743  0.0229  0.1441
   93MPD2    C3 1419   1.297   4.359  13.552  0.2819 -0.6571 -0.1954
   93MPD2    C4 1420   1.332   4.227  13.555  0.5187  0.4268 -0.7471
   93MPD2    C5 1421   1.460   4.183  13.534 -0.1055  0.0636  0.2655
   93MPD2     H 1422   1.366   4.549  13.506  0.5955  0.1661  0.6769
   93MPD2    H1 1423   1.264   4.150  13.591 -0.3702  2.0052  0.9336
   93MPD2    H2 1424   1.654   4.231  13.470  1.4915  1.4508  1.6484
   93MPD2    H3 1425   1.467   4.076  13.543 -0.9202  0.1629  2.1789
   93MPD2     N 1426   1.164   4.383  13.581  0.0965 -0.4536  0.4674
   93MPD2    H5 1427   1.110   4.298  13.591  0.2797 -0.4402  1.6188
   93MPD2    N1 1428   1.623   4.502  13.459 -1.1702  0.1867  0.0518
   93MPD2    H7 1429   1.595   4.599  13.446 -0.1458  0.4340 -0.2538
   94TCq2    C1 1430   1.756   4.474  13.448 -0.3075 -0.1316 -0.0004
   94TCq2    O2 1431   1.820   4.371  13.467  0.4462  0.0467 -0.3380
   94TCq2    C2 1432   1.832   4.591  13.422  0.3536 -0.3132  0.6448
   94TCq2    C3 1433   1.784   4.660  13.315 -0.1541 -0.3726 -0.1270
   94TCq2    C4 1434   1.868   0.033  13.262 -0.4879 -0.3369  0.1991
   94TCq2    C5 1435   2.000   0.054  13.307 -0.5725 -1.0705 -0.0638
   94TCq2    C6 1436   2.040   4.692  13.414 -1.1618  0.4983  0.3671
   94TCq2    C7 1437   1.962   4.595  13.469  0.4319  0.0604 -0.5218
   94TCq2    C8 1438   2.171   4.715  13.471 -0.4048  0.4578  0.0322
   94TCq2    O4 1439   2.231   4.619  13.511 -0.1601  0.0055 -0.7327
   94TCq2    C9 1440   1.831   0.108  13.148 -0.1175  0.4910  0.2897
   94TCq2    O5 1441   1.879   0.222  13.150  0.6816  0.0323  0.2634
   94TCq2    O6 1442   1.745   0.054  13.070 -0.0315 -0.6674  0.7934
   94TCq2    H2 1443   1.679   4.658  13.286 -0.0427 -0.6071 -0.5168
   94TCq2    H3 1444   2.069   0.116  13.251 -0.9868 -1.2105 -0.7318
   94TCq2    H4 1445   1.976   4.536  13.559 -1.2356 -2.7667 -2.1268
   95TMC2    C1 1446   2.006   2.210  16.612  0.2289  0.4408  0.3844
   95TMC2    C2 1447   1.987   2.344  16.622  1.0235 -0.6823 -0.0539
   95TMC2    C3 1448   1.958   2.391  16.745  0.8720 -0.3379 -1.1661
   95TMC2    C4 1449   2.005   2.133  16.726  0.7760  0.4659 -0.4703
   95TMC2    C5 1450   1.973   2.191  16.845 -0.0535  0.0438 -0.2008
   95TMC2    C6 1451   1.945   2.322  16.860 -0.1169 -0.4765  0.2209
   95TMC2     C 1452   2.051   2.155  16.486  0.0037  0.3217  0.6107
   95TMC2     O 1453   2.084   2.233  16.402 -0.1465  0.2555 -1.3591
   95TMC2     H 1454   1.982   2.410  16.536 -0.4984 -0.4389  0.2152
   95TMC2    H1 1455   2.031   2.028  16.727  0.0657  0.3280  2.2517
   95TMC2    H2 1456   1.936   2.377  16.953 -0.2729 -1.0813  0.5620
   95TMC2    C7 1457   1.965   2.100  16.961  0.5550  0.4107 -0.1695
   95TMC2    C8 1458   1.915   2.526  16.745 -0.6111  0.3245  0.3229
   95TMC2    O1 1459   2.022   1.994  16.956 -0.0855  0.3809  0.0870
   95TMC2    O2 1460   1.963   2.603  16.669  0.2352 -0.1964 -0.1674
   95TMC2    O5 1461   1.803   2.536  16.811 -0.1105 -0.0429 -0.0895
   95TMC2    H5 1462   1.778   2.446  16.842 -1.0270 -0.4503 -1.9833
   96MPD2     C 1463   2.084   1.783  16.136 -0.0992 -0.1180 -0.6326
   96MPD2    C1 1464   2.140   1.914  16.137 -0.4914 -0.0257  0.2810
   96MPD2    C2 1465   2.134   1.997  16.248  0.4543 -0.4106 -0.0017
   96MPD2    C3 1466   2.060   1.950  16.356 -0.4750 -0.0118  1.1624
   96MPD2    C4 1467   2.005   1.822  16.349  0.0583 -1.0686  0.3552
   96MPD2    C5 1468   2.009   1.739  16.241 -0.3837 -0.0863  0.2904
   96MPD2     H 1469   2.179   2.096  16.249 -1.6056  0.5181 -0.6337
   96MPD2    H1 1470   1.938   1.790  16.429 -2.5954  1.1554 -0.9832
   96MPD2    H2 1471   2.094   1.720  16.049 -0.6684  0.1245 -0.8706
   96MPD2    H3 1472   1.968   1.638  16.241 -2.1252  0.6204 -1.2211
   96MPD2     N 1473   2.030   2.023  16.473 -0.6061 -0.4067  0.4967
   96MPD2    H5 1474   1.962   1.983  16.537  0.1234 -1.8462  0.3561
   96MPD2    N1 1475   2.207   1.952  16.014 -0.6581 -0.5683 -0.1966
   96MPD2    H7 1476   2.207   1.878  15.944 -0.9023 -0.1919 -0.5929
   97MPD2     C 1477   4.131   3.259   0.964  0.4440  0.7499  0.3054
   97MPD2    C1 1478   4.168   3.393   0.956  0.2805 -0.4353  0.4460
   97MPD2    C2 1479   4.197   3.451   0.828 -0.1146 -0.6146  0.0317
   97MPD2    C3 1480   4.166   3.383   0.713  0.0257  0.6172  0.6124
   97MPD2    C4 1481   4.129   3.247   0.725 -0.7573  0.2454 -0.1122
   97MPD2    C5 1482   4.111   3.195   0.845  0.5115 -0.1703  0.0135
   97MPD2     H 1483   4.223   3.556   0.825  0.4260 -0.6864  1.8394
   97MPD2    H1 1484   4.113   3.184   0.639  0.8887  0.2696 -0.4380
   97MPD2    H2 1485   4.103   3.218   1.060 -0.6977  0.9343  0.0555
   97MPD2    H3 1486   4.078   3.092   0.853 -1.3005  0.4036 -0.0924
   97MPD2     N 1487   4.160   3.444   0.585  0.4090 -0.5100  0.5525
   97MPD2    H5 1488   4.158   3.382   0.505  1.0492  0.2375 -0.0356
   97MPD2    N1 1489   4.179   3.466   1.078  0.1947  0.0560 -0.2126
   97MPD2    H7 1490   4.183   3.416   1.166  1.7997  0.3870 -0.0936
   98TCq2    C1 1491   4.201   3.569   0.556 -0.0750 -0.4271 -0.1759
   98TCq2    O2 1492   4.233   3.661   0.631  0.0512  0.1521 -1.0614
   98TCq2    C2 1493   4.207   3.594   0.414 -0.0017 -0.6986  0.1710
   98TCq2    C3 1494   4.117   3.535   0.331  0.2396 -0.1278 -0.8112
   98TCq2    C4 1495   4.094   3.584   0.209 -0.4544 -0.3039  0.0935
   98TCq2    C5 1496   4.166   3.700   0.170 -0.1858 -0.2402  0.1990
   98TCq2    C6 1497   4.256   3.755   0.254  0.2661  0.3390 -0.4119
   98TCq2    C7 1498   4.282   3.707   0.380 -0.1855 -0.2981  0.0046
   98TCq2    C8 1499   4.286   3.892   0.231 -0.2861 -0.1285 -0.2394
   98TCq2    O4 1500   4.369   3.942   0.305 -0.0253 -0.6002 -0.2867
   98TCq2    C9 1501   4.006   3.508   0.123  0.1579 -0.4979 -0.0355
   98TCq2    O5 1502   3.985   3.559   0.008 -0.3087 -0.9314 -0.0097
   98TCq2    O6 1503   3.953   3.398   0.165 -0.6361 -0.6833  0.5822
   98TCq2    H2 1504   4.065   3.445   0.359 -0.0438  0.1672 -0.4048
   98TCq2    H3 1505   4.162   3.724   0.064  0.8264 -0.2485  0.1582
   98TCq2    H4 1506   4.345   3.760   0.451 -0.8327  0.5723 -0.0706
   99MPD2     C 1507   2.737   1.610   1.797 -0.2897 -0.2852 -0.5539
   99MPD2    C1 1508   2.748   1.667   1.670 -0.2950  0.4772  0.2023
   99MPD2    C2 1509   2.728   1.585   1.554  0.7008  0.2681 -0.6910
   99MPD2    C3 1510   2.710   1.449   1.567  0.0710  0.0136  0.2090
   99MPD2    C4 1511   2.688   1.397   1.692  0.1494 -0.4536  0.1150
   99MPD2    C5 1512   2.698   1.478   1.808 -0.0150 -0.3589  0.8468
   99MPD2     H 1513   2.704   1.627   1.457 -0.1352 -3.3250 -2.0424
   99MPD2    H1 1514   2.649   1.297   1.707  0.4232 -0.6223 -0.3298
   99MPD2    H2 1515   2.747   1.664   1.891 -0.5701 -0.0321 -0.6687
   99MPD2    H3 1516   2.670   1.446   1.908 -0.8762 -4.4920 -0.7455
   99MPD2     N 1517   2.711   1.365   1.454 -0.0354  0.1039 -0.2950
   99MPD2    H5 1518   2.732   1.398   1.360 -0.9157  2.3928  0.3234
   99MPD2    N1 1519   2.761   1.808   1.663  0.0955 -1.0004  0.3171
   99MPD2    H7 1520   2.748   1.845   1.570  1.5141  0.3662  0.6635
  100TCq2    C1 1521   2.787   1.896   1.763 -0.1604  0.0029  0.1667
  100TCq2    O2 1522   2.840   1.871   1.874 -0.5988  0.4281  0.2802
  100TCq2    C2 1523   2.763   2.034   1.726  0.2697 -0.0920 -0.1129
  100TCq2    C3 1524   2.831   2.134   1.794 -0.6935  0.3973 -0.5468
  100TCq2    C4 1525   2.781   2.261   1.796 -0.3308  0.0766  0.3632
  100TCq2    C5 1526   2.674   2.295   1.724  0.0378 -0.0163 -0.2010
  100TCq2    C6 1527   2.606   2.199   1.664 -0.5209  0.4748  0.2270
  100TCq2    C7 1528   2.650   2.066   1.653  1.0574 -0.0814 -0.1636
  100TCq2    C8 1529   2.487   2.240   1.589 -0.5075 -0.4581  0.4621
  100TCq2    O4 1530   2.474   2.353   1.544  0.2699  0.8740 -0.0668
  100TCq2    C9 1531   2.844   2.369   1.873  0.4905 -0.2381  0.6428
  100TCq2    O5 1532   2.799   2.483   1.853  0.0195 -0.0754 -0.4238
  100TCq2    O6 1533   2.935   2.339   1.948  0.0652  0.0260 -0.5466
  100TCq2    H2 1534   2.918   2.117   1.856 -0.2998 -0.2460 -1.2813
  100TCq2    H3 1535   2.635   2.396   1.716  3.1097  1.2902  1.3845
  100TCq2    H4 1536   2.585   1.992   1.608 -0.2609  0.5315  0.7015
  101MPD2     C 1537   3.154   2.698  13.032  0.3231 -0.2090 -0.0957
  101MPD2    C1 1538   3.024   2.708  13.074  0.9097 -0.6903 -0.2784
  101MPD2    C2 1539   2.979   2.617  13.163  0.1772 -0.3144 -0.2150
  101MPD2    C3 1540   3.061   2.505  13.195 -0.2439  1.0841 -0.2728
  101MPD2    C4 1541   3.182   2.491  13.145 -0.7639 -0.0432 -0.4664
  101MPD2    C5 1542   3.228   2.585  13.056  0.3626  0.8463 -0.2193
  101MPD2     H 1543   2.880   2.623  13.207  0.1861 -1.4329 -0.0431
  101MPD2    H1 1544   3.250   2.410  13.167 -1.6475 -0.9698 -1.1671
  101MPD2    H2 1545   3.199   2.770  12.965 -1.3157 -0.5320 -1.5228
  101MPD2    H3 1546   3.326   2.562  13.017  1.2079  0.2496  2.2664
  101MPD2     N 1547   3.007   2.419  13.298  0.5710 -0.7901  0.3513
  101MPD2    H5 1548   2.910   2.428  13.324  0.8124  1.6422  0.3933
  101MPD2    N1 1549   2.944   2.811  13.024  0.7036  0.1473  0.0033
  101MPD2    H7 1550   2.985   2.881  12.963 -0.1533 -0.3276 -1.1108
  102TCq2    C1 1551   2.872   3.289  12.888 -0.6049 -0.2475 -0.6131
  102TCq2    O2 1552   2.811   3.395  12.868 -0.4661  0.0266 -0.4926
  102TCq2    C2 1553   2.786   3.177  12.908 -0.4807  0.6520 -0.7127
  102TCq2    C3 1554   2.663   3.174  12.845 -0.0692  0.7563  0.0307
  102TCq2    C4 1555   2.582   3.067  12.856 -0.4573 -0.0973 -0.6166
  102TCq2    C5 1556   2.621   2.962  12.929 -0.8316  0.0979 -0.4269
  102TCq2    C6 1557   2.750   2.956  12.986 -0.0872 -0.0770  0.1317
  102TCq2    C7 1558   2.834   3.066  12.977  0.2996  0.4525  0.1887
  102TCq2    C8 1559   2.805   2.828  13.034  0.5794 -1.1396  0.2101
  102TCq2    O4 1560   2.729   2.752  13.091 -0.2162  0.3425  0.5972
  102TCq2    C9 1561   2.475   3.058  12.764 -0.0629  0.1874  0.2914
  102TCq2    O5 1562   2.373   2.989  12.798 -0.2000 -0.1537 -0.7346
  102TCq2    O6 1563   2.483   3.102  12.650 -0.4566 -0.2997  0.3347
  102TCq2    H2 1564   2.628   3.258  12.786 -0.4195 -0.0043 -0.8500
  102TCq2    H3 1565   2.557   2.876  12.915 -0.6059 -0.1055 -0.2041
  102TCq2    H4 1566   2.930   3.073  13.027  0.9823  1.5608 -1.2792
  103TMC2    C1 1567   1.595   2.043  12.546  0.1563  0.5621 -0.0742
  103TMC2    C2 1568   1.723   1.986  12.558  0.6915  0.5751  0.8211
  103TMC2    C3 1569   1.772   1.945  12.684  0.6080 -0.4331  1.1664
  103TMC2    C4 1570   1.516   2.052  12.656 -0.0970 -0.3496  0.3189
  103TMC2    C5 1571   1.579   2.019  12.776 -0.3989 -0.2593 -1.3761
  103TMC2    C6 1572   1.698   1.962  12.792 -0.6878  0.2732  0.0523
  103TMC2     C 1573   1.571   2.133  12.433 -0.9495 -0.0674 -0.5295
  103TMC2     O 1574   1.477   2.211  12.451 -0.1459 -0.9254 -0.6180
  103TMC2     H 1575   1.788   1.977  12.472 -1.2445  0.3077 -0.6170
  103TMC2    H1 1576   1.423   2.106  12.643  0.5177 -0.0951 -2.8508
  103TMC2    H2 1577   1.741   1.919  12.882 -1.2442 -3.8652 -1.6782
  103TMC2    C7 1578   1.508   2.027  12.898 -0.3532 -0.2788  0.2567
  103TMC2    C8 1579   1.887   1.860  12.673 -0.6625  0.2439  0.8427
  103TMC2    O1 1580   1.583   2.042  12.997  0.1824  1.0052  0.2307
  103TMC2    O2 1581   1.894   1.788  12.575  0.3018  0.1580 -0.6581
  103TMC2    O5 1582   1.987   1.935  12.721 -0.2138  0.2134 -0.5901
  103TMC2    H5 1583   1.956   2.013  12.771  1.7632 -1.3113  3.0276
  104MPD2     C 1584   1.749   2.148  12.115 -0.0174 -0.5553  0.3425
  104MPD2    C1 1585   1.643   2.172  12.204  0.8099  0.4605 -0.0138
  104MPD2    C2 1586   1.530   2.244  12.156  0.1254  0.2406 -0.5406
  104MPD2    C3 1587   1.523   2.279  12.027 -0.0863  0.4165  0.8252
  104MPD2    C4 1588   1.632   2.267  11.940 -0.4504 -0.7525 -0.0037
  104MPD2    C5 1589   1.745   2.194  11.987  0.6203  0.2937  0.1881
  104MPD2     H 1590   1.451   2.274  12.224 -1.6444 -0.6608 -2.2040
  104MPD2    H1 1591   1.631   2.291  11.834 -2.2509 -1.3991 -0.1291
  104MPD2    H2 1592   1.836   2.094  12.152  0.0856 -0.8586 -0.3381
  104MPD2    H3 1593   1.828   2.168  11.923  1.5391 -1.2764  2.0314
  104MPD2     N 1594   1.413   2.339  11.968  0.4383  0.4019 -0.1408
  104MPD2    H5 1595   1.426   2.372  11.873  1.3537 -0.6627 -0.3806
  104MPD2    N1 1596   1.654   2.111  12.331 -0.3961  0.4521  0.4138
  104MPD2    H7 1597   1.727   2.041  12.337  0.6793  1.5813  0.4739
  105MPD2     C 1598   3.705   1.976  17.626 -0.1489 -0.6802  0.1257
  105MPD2    C1 1599   3.597   1.968   0.023 -0.0503  0.6662 -0.7895
  105MPD2    C2 1600   3.610   1.994   0.157 -0.6081 -0.5520  0.1979
  105MPD2    C3 1601   3.734   2.020   0.216  0.2290 -0.3795 -0.6185
  105MPD2    C4 1602   3.842   2.015   0.134 -0.3859  0.1184  0.1454
  105MPD2    C5 1603   3.826   2.010  17.686 -0.4507 -0.3177 -0.3517
  105MPD2     H 1604   3.517   1.989   0.211 -1.6057 -2.1186 -1.6460
  105MPD2    H1 1605   3.944   2.029   0.168 -0.5017  1.5979 -0.1204
  105MPD2    H2 1606   3.688   1.975  17.519  2.1231  0.0124 -0.2407
  105MPD2    H3 1607   3.917   2.013  17.628  0.4681  0.1267  1.1147
  105MPD2     N 1608   3.740   2.030   0.362  0.2154  0.6868 -0.1033
  105MPD2    H5 1609   3.656   2.000   0.410  0.8113 -1.7379 -0.5902
  105MPD2    N1 1610   3.471   1.922  17.667 -0.0786  0.0233  0.0918
  105MPD2    H7 1611   3.402   1.922   0.054 -0.1660 -1.3391  0.0229
  106TCq2    C1 1612   3.857   2.045   0.435 -0.1527 -0.5408  0.1254
  106TCq2    O2 1613   3.970   2.053   0.399  0.3389 -0.1665  0.3478
  106TCq2    C2 1614   3.837   2.024   0.575  0.3129  0.2348 -0.1041
  106TCq2    C3 1615   3.952   2.016   0.650 -0.1739 -0.2660 -0.7999
  106TCq2    C4 1616   3.943   2.049   0.784 -0.3568  0.5594  0.0327
  106TCq2    C5 1617   3.825   2.089   0.843  0.6707  0.8836  0.4914
  106TCq2    C6 1618   3.713   2.097   0.766  1.0372 -0.4509 -0.1889
  106TCq2    C7 1619   3.715   2.065   0.634 -0.6369  0.5272  0.5334
  106TCq2    C8 1620   3.582   2.106   0.823  0.9688 -0.4431  0.7294
  106TCq2    O4 1621   3.483   2.101   0.756 -0.1337 -0.0115  0.4846
  106TCq2    C9 1622   4.068   2.047   0.860  0.6070  0.0597 -0.7628
  106TCq2    O5 1623   4.050   2.063   0.985 -0.4423  0.3524 -0.5269
  106TCq2    O6 1624   4.175   2.004   0.809 -0.1785  0.0122 -0.5863
  106TCq2    H2 1625   4.048   2.002   0.600 -1.3996  1.6977 -3.7266
  106TCq2    H3 1626   3.831   2.135   0.941  1.4886  1.6139  0.0954
  106TCq2    H4 1627   3.630   2.096   0.575 -0.6498  0.2851  0.4234
  107TMC2    C1 1628   3.488   1.204  11.338 -0.6535 -0.0824  0.4894
  107TMC2    C2 1629   3.520   1.256  11.212 -0.1436 -0.2281  0.9626
  107TMC2    C3 1630   3.553   1.169  11.116  0.0119  0.2420  0.1179
  107TMC2    C4 1631   3.514   1.074  11.370  0.6813  0.2050 -0.0299
  107TMC2    C5 1632   3.561   0.988  11.272  0.1194 -0.0367 -0.9304
  107TMC2    C6 1633   3.570   1.035  11.144  0.3734  0.0656 -0.1637
  107TMC2     C 1634   3.426   1.280  11.445  0.5667 -0.4594 -0.0720
  107TMC2     O 1635   3.372   1.227  11.538 -0.3402 -0.2750  0.3410
  107TMC2     H 1636   3.504   1.359  11.182 -0.7054 -0.4293  0.5850
  107TMC2    H1 1637   3.490   1.037  11.469  1.6882  0.0112  0.1505
  107TMC2    H2 1638   3.604   0.970  11.065 -1.0547 -0.7180 -0.1250
  107TMC2    C7 1639   3.651   0.889  11.328 -0.0942  0.2062 -0.1514
  107TMC2    C8 1640   3.576   1.219  10.982  0.5009  0.4458 -0.5045
  107TMC2    O1 1641   3.649   0.880  11.449 -0.1189  0.1250  1.1198
  107TMC2    O2 1642   3.639   1.146  10.902 -0.3772 -0.1722 -0.0584
  107TMC2    O5 1643   3.468   1.291  10.941  0.2467 -0.2281 -0.6764
  107TMC2    H5 1644   3.396   1.326  10.997  0.7696 -0.6752  0.2696
  108MPD2     C 1645   3.411   1.647  11.432 -0.1529  0.2064 -0.7175
  108MPD2    C1 1646   3.401   1.529  11.500 -0.0059 -1.0046  0.9030
  108MPD2    C2 1647   3.333   1.512  11.617  0.5726 -0.7446  0.5811
  108MPD2    C3 1648   3.286   1.632  11.675  0.0752 -0.2969 -0.5328
  108MPD2    C4 1649   3.296   1.750  11.609  0.2292  0.5035  0.7783
  108MPD2    C5 1650   3.351   1.756  11.483 -0.3897 -0.5471  0.7795
  108MPD2     H 1651   3.335   1.418  11.670 -0.4492 -0.1176  1.7419
  108MPD2    H1 1652   3.255   1.840  11.654 -0.1717 -0.3326  2.1024
  108MPD2    H2 1653   3.462   1.658  11.337 -2.7257  0.0241 -2.1086
  108MPD2    H3 1654   3.343   1.853  11.436 -0.5880 -0.2218  1.4749
  108MPD2     N 1655   3.242   1.638  11.810 -0.2607 -0.4581 -0.2593
  108MPD2    H5 1656   3.209   1.729  11.838  0.3667 -0.1450 -0.5304
  108MPD2    N1 1657   3.456   1.414  11.429 -0.2548 -0.1896  0.2173
  108MPD2    H7 1658   3.513   1.437  11.348 -1.5388 -1.9589 -1.1800
  109MPD2     C 1659   4.057   3.092   2.399  0.8943 -0.3414 -0.3401
  109MPD2    C1 1660   4.091   3.114   2.266 -0.1347  0.0982 -0.0942
  109MPD2    C2 1661   4.223   3.125   2.230 -0.0684  0.0224  0.0716
  109MPD2    C3 1662   4.319   3.128   2.325  0.2551  0.5305  0.2374
  109MPD2    C4 1663   4.302   3.089   2.452 -0.2065 -0.4585 -0.0028
  109MPD2    C5 1664   4.168   3.075   2.485 -0.4512  0.4832 -0.2066
  109MPD2     H 1665   4.259   3.164   2.135 -2.0934 -1.0688 -1.1286
  109MPD2    H1 1666   4.381   3.098   2.526 -1.3878  1.6872  1.0093
  109MPD2    H2 1667   3.956   3.070   2.432  0.8969  0.6678  0.3296
  109MPD2    H3 1668   4.140   3.051   2.587 -0.3207 -1.7964 -0.6938
  109MPD2     N 1669   4.442   3.173   2.280 -0.1950 -0.0998  0.3302
  109MPD2    H5 1670   4.464   3.182   2.181 -4.7110 -0.2481 -0.6817
  109MPD2    N1 1671   3.990   3.136   2.169 -0.2040 -0.1423  1.3306
  109MPD2    H7 1672   3.896   3.138   2.205 -0.4212 -2.4249  0.8844
  110TCq2    C1 1673   4.543   3.229   2.352  0.1809 -0.0138  0.0174
  110TCq2    O2 1674   4.533   3.266   2.468  0.0467  0.6776 -0.0339
  110TCq2    C2 1675   4.649   3.274   2.269  0.4589 -0.0616  0.3008
  110TCq2    C3 1676   0.042   3.325   2.328  0.4555  0.0742 -0.1482
  110TCq2    C4 1677   0.136   3.379   2.243  0.0524  0.1416  0.0637
  110TCq2    C5 1678   0.122   3.381   2.112 -0.2523 -0.2018 -0.5552
  110TCq2    C6 1679   0.016   3.327   2.048 -0.5611  0.7629 -0.1779
  110TCq2    C7 1680   4.633   3.277   2.130 -0.4974 -0.3015 -0.2363
  110TCq2    C8 1681   4.693   3.382   1.920  0.7889  0.3203 -0.7032
  110TCq2    O4 1682   4.572   3.395   1.905  0.0524 -0.1958 -0.7536
  110TCq2    C9 1683   0.248   3.441   2.303  0.0623 -0.5502  0.4855
  110TCq2    O5 1684   0.354   3.442   2.235 -0.3086 -0.3633  0.1152
  110TCq2    O6 1685   0.243   3.453   2.430  0.1285  0.0518 -0.2547
  110TCq2    H2 1686   0.061   3.321   2.435 -0.8623  1.3761  0.1383
  110TCq2    H3 1687   0.193   3.433   2.050  3.1430 -2.4876  1.4528
  110TCq2    H4 1688   4.539   3.254   2.080 -0.8975 -1.8772  1.2424
  111TMC2    C1 1689   3.448   3.389  11.543  0.2128  0.0899  0.6754
  111TMC2    C2 1690   3.357   3.446  11.632 -0.0710  0.1165  1.1373
  111TMC2    C3 1691   3.401   3.492  11.755  0.4580  1.0949 -0.2442
  111TMC2    C4 1692   3.584   3.395  11.562  0.7555 -0.2879 -0.9028
  111TMC2    C5 1693   3.628   3.431  11.685 -0.8599  0.3669  0.7971
  111TMC2    C6 1694   3.535   3.482  11.781  0.3856  0.8024  0.3891
  111TMC2     C 1695   3.394   3.357  11.411 -0.2156  0.0432  0.4111
  111TMC2     O 1696   3.454   3.398  11.317  0.4857 -0.5157 -0.3643
  111TMC2     H 1697   3.259   3.478  11.600  0.4466  1.3277  0.7584
  111TMC2    H1 1698   3.655   3.357  11.489  3.7229 -1.6945  2.6875
  111TMC2    H2 1699   3.575   3.531  11.869  0.6095 -1.8632  1.7901
  111TMC2    C7 1700   3.754   3.387  11.725 -0.2106  0.7648  0.6801
  111TMC2    C8 1701   3.294   3.557  11.835 -0.2227  0.1786  0.7267
  111TMC2    O1 1702   3.845   3.386  11.645 -0.4683 -0.3155 -0.4996
  111TMC2    O2 1703   3.174   3.568  11.809 -0.0590  0.0356  0.1191
  111TMC2    O5 1704   3.348   3.599  11.945  0.2740  0.2247 -0.3548
  111TMC2    H5 1705   3.420   3.537  11.970  0.3114 -0.0926 -1.2578
  112MPD2     C 1706   2.960   3.317  11.143 -0.7868 -0.0842 -0.1117
  112MPD2    C1 1707   3.089   3.350  11.109 -0.1157  0.1157 -0.3229
  112MPD2    C2 1708   3.195   3.333  11.190  0.2984 -0.5314 -0.0055
  112MPD2    C3 1709   3.179   3.288  11.321 -0.2043 -0.1184 -0.5488
  112MPD2    C4 1710   3.056   3.245  11.354  0.3208 -0.0070 -0.2934
  112MPD2    C5 1711   2.952   3.266  11.269 -0.4442 -0.6009 -0.2156
  112MPD2     H 1712   3.293   3.358  11.152  0.6375 -0.9851  0.5874
  112MPD2    H1 1713   3.028   3.206  11.451 -0.7489  0.7113 -0.3222
  112MPD2    H2 1714   2.872   3.329  11.081 -0.0854  2.1293 -0.6764
  112MPD2    H3 1715   2.856   3.240  11.310 -1.0509 -0.5105 -1.5698
  112MPD2     N 1716   3.273   3.305  11.425 -0.2916  0.7522  0.3285
  112MPD2    H5 1717   3.247   3.277  11.520 -1.0403 -3.7560 -1.2274
  112MPD2    N1 1718   3.121   3.400  10.980  0.2422  0.5288 -0.0444
  112MPD2    H7 1719   3.218   3.402  10.953 -0.1163  1.2507 -1.2999
  113MPD2     C 1720   2.401   1.537   1.432 -0.4412 -0.2119 -0.7256
  113MPD2    C1 1721   2.325   1.619   1.350  0.1746  0.0759  0.0415
  113MPD2    C2 1722   2.209   1.561   1.310  0.2231 -0.8814  0.1792
  113MPD2    C3 1723   2.162   1.438   1.353  0.1294 -0.0329 -0.1096
  113MPD2    C4 1724   2.244   1.362   1.439  0.5247  0.3054  0.2094
  113MPD2    C5 1725   2.361   1.414   1.473  0.9413  0.1142 -0.5459
  113MPD2     H 1726   2.147   1.614   1.239 -0.6826 -2.3838 -0.1423
  113MPD2    H1 1727   2.211   1.263   1.468 -1.6223  0.9612 -0.0541
  113MPD2    H2 1728   2.495   1.572   1.473  0.5951 -2.7510 -0.9493
  113MPD2    H3 1729   2.430   1.361   1.538  0.7044  0.4203 -0.0479
  113MPD2     N 1730   2.042   1.376   1.312  0.2853 -0.2123 -0.8969
  113MPD2    H5 1731   2.035   1.284   1.354  0.3630  0.3009  0.2339
  113MPD2    N1 1732   2.372   1.740   1.291 -0.2168  0.0311 -0.0755
  113MPD2    H7 1733   2.343   1.763   1.196  1.1939  1.1630 -0.2165
  114TCq2    C1 1734   1.936   1.419   1.237 -0.6705 -0.0447 -0.2574
  114TCq2    O2 1735   1.919   1.533   1.197  0.3180 -0.1100  0.9615
  114TCq2    C2 1736   1.831   1.331   1.222 -0.2388 -0.2428  1.0142
  114TCq2    C3 1737   1.717   1.372   1.153 -0.3288 -0.0881  0.2851
  114TCq2    C4 1738   1.601   1.306   1.179 -0.1773  0.0595 -0.5460
  114TCq2    C5 1739   1.600   1.189   1.252 -0.2465 -0.9423  0.1896
  114TCq2    C6 1740   1.716   1.141   1.314  0.4354  0.0363 -0.4861
  114TCq2    C7 1741   1.832   1.212   1.290  0.5221 -0.5214  0.4735
  114TCq2    C8 1742   1.716   1.033   1.410 -0.1886 -0.6807 -0.4334
  114TCq2    O4 1743   1.829   0.987   1.436 -0.5421  0.3158 -0.0321
  114TCq2    C9 1744   1.477   1.340   1.109 -0.0764  0.1193 -0.4862
  114TCq2    O5 1745   1.494   1.405   1.001  0.0024  0.3406 -0.5434
  114TCq2    O6 1746   1.366   1.279   1.140 -0.2294 -0.1251 -0.1206
  114TCq2    H2 1747   1.720   1.462   1.092 -1.0187 -1.0734 -1.2044
  114TCq2    H3 1748   1.509   1.131   1.261 -0.3459 -0.8325 -0.0920
  114TCq2    H4 1749   1.917   1.191   1.354  1.7750 -1.9505 -1.6512
  115TMC2    C1 1750   2.754   4.091   0.128  0.1116 -0.4689  0.5836
  115TMC2    C2 1751   2.889   4.050   0.131  0.2473  0.8033  0.2070
  115TMC2    C3 1752   2.979   4.142   0.076  0.2745  0.6784  0.4527
  115TMC2    C4 1753   2.710   4.213   0.100  0.0597 -0.0453  0.4530
  115TMC2    C5 1754   2.812   4.297   0.044 -0.8758 -0.5995 -0.4340
  115TMC2    C6 1755   2.942   4.269   0.032 -0.3037  1.0034 -0.6039
  115TMC2     C 1756   2.654   3.982   0.147 -0.2199  0.1890  1.0181
  115TMC2     O 1757   2.700   3.874   0.118  0.2280  0.1681 -0.4817
  115TMC2     H 1758   2.907   3.958   0.185  2.1501  0.1736 -1.5062
  115TMC2    H1 1759   2.610   4.253   0.111  0.2818  0.3203  1.1799
  115TMC2    H2 1760   3.012   4.344  17.685  0.8760 -0.1126 -0.6246
  115TMC2    C7 1761   2.764   4.432   0.015  0.4284 -0.7022  0.9444
  115TMC2    C8 1762   3.116   4.118   0.076 -0.6640 -0.5664  0.0427
  115TMC2    O1 1763   2.671   4.470   0.087  0.5403  0.3062 -0.7725
  115TMC2    O2 1764   3.206   4.201   0.074 -0.7906  0.1249  0.1467
  115TMC2    O5 1765   3.131   3.988   0.071  0.1677 -0.0626 -0.2708
  115TMC2    H5 1766   3.050   3.933   0.058 -0.1184  0.7170 -1.7936
  116MPD2     C 1767   2.151   3.859   0.125 -0.7419  0.2162  0.1589
  116MPD2    C1 1768   2.255   3.780   0.099 -0.3738  0.1393 -0.6243
  116MPD2    C2 1769   2.381   3.839   0.107 -0.2740  0.3893 -0.4631
  116MPD2    C3 1770   2.401   3.968   0.146 -0.6485  0.5348 -0.1491
  116MPD2    C4 1771   2.289   4.046   0.161 -0.4405 -0.1000  0.0336
  116MPD2    C5 1772   2.168   3.994   0.145 -0.1757 -0.1861  0.3154
  116MPD2     H 1773   2.468   3.777   0.090  0.5189  1.6920 -1.1395
  116MPD2    H1 1774   2.275   4.150   0.189 -0.0771 -1.0282  3.6061
  116MPD2    H2 1775   2.048   3.830   0.109 -1.0078  0.4220  1.4733
  116MPD2    H3 1776   2.079   4.052   0.165 -1.4774 -1.6803 -1.1930
  116MPD2     N 1777   2.526   4.030   0.163 -0.0593 -0.2022  0.7044
  116MPD2    H5 1778   2.519   4.126   0.195 -0.1597 -0.1500  0.5242
  116MPD2    N1 1779   2.229   3.656   0.038  0.0142 -0.7971  0.1970
  116MPD2    H7 1780   2.134   3.637   0.008  0.4542 -2.0732 -0.4128
  117TMC2    C1 1781   0.774   0.407  14.112 -0.6895 -0.0088 -0.5834
  117TMC2    C2 1782   0.824   0.286  14.083 -0.2932  0.7588  0.0613
  117TMC2    C3 1783   0.951   0.276  14.026 -0.3594  0.3237 -0.1506
  117TMC2    C4 1784   0.842   0.522  14.086  0.6163  0.4093  0.1636
  117TMC2    C5 1785   0.958   0.513  14.013  0.1828  0.4783 -0.3437
  117TMC2    C6 1786   1.017   0.390  13.998 -0.4661  0.2714  0.3242
  117TMC2     C 1787   0.643   0.414  14.174  0.4485  0.3889 -0.5207
  117TMC2     O 1788   0.594   0.311  14.216 -0.0164  0.2559 -0.1776
  117TMC2     H 1789   0.757   0.203  14.102 -0.2073  0.7351  0.2584
  117TMC2    H1 1790   0.808   0.615  14.130  1.8097 -0.0846  2.1083
  117TMC2    H2 1791   1.100   0.376  13.930 -1.0467  3.7457 -1.0821
  117TMC2    C7 1792   1.030   0.635  13.990  0.4678 -0.1828  0.1327
  117TMC2    C8 1793   0.961   0.170  13.930  0.5682 -0.2589 -0.5515
  117TMC2    O1 1794   1.022   0.729  14.069  0.1680 -0.0355 -0.1771
  117TMC2    O2 1795   1.012   0.176  13.817 -0.1121  0.1593  0.2652
  117TMC2    O5 1796   0.918   0.056  13.996  0.0964 -0.5264  0.4807
  117TMC2    H5 1797   0.888   0.067  14.089 -0.3128  2.3925  0.0087
  118MPD2     C 1798   1.163   0.713  13.640 -0.0367  0.3324  0.1959
  118MPD2    C1 1799   1.134   0.737  13.774  0.5247 -0.4805 -0.1287
  118MPD2    C2 1800   1.178   0.852  13.833 -0.6659  0.0143  0.1356
  118MPD2    C3 1801   1.244   0.942  13.757 -0.8095  0.6550  0.1891
  118MPD2    C4 1802   1.256   0.928  13.623 -0.2832  0.3159 -0.6876
  118MPD2    C5 1803   1.219   0.812  13.569  0.8181 -0.0810 -0.7763
  118MPD2     H 1804   1.167   0.862  13.940 -1.3350  2.3906 -0.1502
  118MPD2    H1 1805   1.311   1.002  13.565 -2.3646 -0.2348 -3.3354
  118MPD2    H2 1806   1.130   0.618  13.599 -0.5694  0.1822  0.9859
  118MPD2    H3 1807   1.234   0.804  13.462  0.4776  0.1149 -0.8378
  118MPD2     N 1808   1.268   1.069  13.811  1.1837 -0.4747  0.5891
  118MPD2    H5 1809   1.281   1.142  13.742  0.0715  0.2152  1.1015
  118MPD2    N1 1810   1.076   0.632  13.853 -0.2563 -0.3176 -0.3714
  118MPD2    H7 1811   1.052   0.548  13.802  1.3520 -1.2974  0.4627
  119MPD2     C 1812   4.410   1.672  13.517 -0.2682  0.5642 -0.2142
  119MPD2    C1 1813   4.356   1.774  13.592  0.4344 -0.2864 -0.4645
  119MPD2    C2 1814   4.318   1.898  13.537  1.0169 -0.0360  0.3500
  119MPD2    C3 1815   4.328   1.920  13.398 -0.6671 -0.1217  0.9400
  119MPD2    C4 1816   4.386   1.822  13.325 -0.0960  0.0520  0.2255
  119MPD2    C5 1817   4.435   1.701  13.385 -0.1995 -0.3615  0.0746
  119MPD2     H 1818   4.270   1.971  13.601 -1.3838  1.5380 -3.2012
  119MPD2    H1 1819   4.409   1.843  13.221  4.9574 -0.2420  1.2861
  119MPD2    H2 1820   4.420   1.567  13.544 -0.6973  0.4434 -0.5224
  119MPD2    H3 1821   4.480   1.624  13.324  0.3563 -0.8584  1.1127
  119MPD2     N 1822   4.267   2.029  13.329  0.2213  0.9088  0.0343
  119MPD2    H5 1823   4.265   2.028  13.227 -1.4557 -3.2810  0.1161
  119MPD2    N1 1824   4.301   1.741  13.719  0.4616 -0.1238 -0.2443
  119MPD2    H7 1825   4.327   1.650  13.757  0.5837  0.3643  0.8286
  120TCq2    C1 1826   4.202   2.124  13.396 -0.2329  0.6223 -0.3287
  120TCq2    O2 1827   4.209   2.166  13.513 -0.3117 -0.1816  0.2886
  120TCq2    C2 1828   4.087   2.165  13.325 -0.0203 -0.5566  0.2795
  120TCq2    C3 1829   4.081   2.151  13.188  0.6756  0.0903  0.5514
  120TCq2    C4 1830   3.957   2.162  13.140  0.0097 -0.0453  0.1904
  120TCq2    C5 1831   3.850   2.204  13.204  0.2265 -0.2633 -0.1590
  120TCq2    C6 1832   3.860   2.224  13.334 -0.5724 -0.1819  0.4486
  120TCq2    C7 1833   3.974   2.195  13.403 -0.1112 -0.2652 -0.0092
  120TCq2    C8 1834   3.735   2.218  13.404 -0.0858 -0.0241  0.2560
  120TCq2    O4 1835   3.632   2.267  13.358 -0.0965 -0.3469  0.0078
  120TCq2    C9 1836   3.938   2.139  12.995  0.5991 -0.3524 -0.4663
  120TCq2    O5 1837   3.826   2.091  12.959  0.0274  0.5721 -0.4052
  120TCq2    O6 1838   4.046   2.121  12.929 -0.7061 -0.8919 -0.0640
  120TCq2    H2 1839   4.167   2.130  13.126 -0.4650 -1.4596 -0.5056
  120TCq2    H3 1840   3.752   2.204  13.158 -0.6479  0.6839  1.7163
  120TCq2    H4 1841   3.976   2.206  13.511 -1.6831  0.9571 -0.0962
  121TMC2    C1 1842   0.548   3.203  13.752  1.2806 -0.3389  0.7426
  121TMC2    C2 1843   0.625   3.097  13.707 -0.2530  0.1068 -0.1660
  121TMC2    C3 1844   0.590   2.972  13.753  0.1473 -0.1967  0.4579
  121TMC2    C4 1845   0.425   3.188  13.812 -0.5097  0.4955  0.7567
  121TMC2    C5 1846   0.395   3.058  13.859 -0.4528 -0.2603 -0.1560
  121TMC2    C6 1847   0.490   2.952  13.847 -0.0793  0.2614 -0.2696
  121TMC2     C 1848   0.608   3.335  13.769  0.2684  0.0561 -0.1751
  121TMC2     O 1849   0.558   3.410  13.847 -0.0825 -0.4969 -0.1097
  121TMC2     H 1850   0.712   3.101  13.642  0.7266 -0.7269  1.0919
  121TMC2    H1 1851   0.365   3.277  13.827  0.0905  1.0017  0.1624
  121TMC2    H2 1852   0.457   2.860  13.894 -2.4749  1.3346  0.1598
  121TMC2    C7 1853   0.252   3.022  13.887 -0.1750  0.3679 -0.2456
  121TMC2    C8 1854   0.678   2.862  13.713  0.3922 -0.6176 -0.7712
  121TMC2    O1 1855   0.225   2.914  13.937 -0.0711  0.2054 -0.4470
  121TMC2    O2 1856   0.798   2.882  13.689 -0.1103 -0.0225  0.1833
  121TMC2    O5 1857   0.607   2.749  13.730  0.7884  0.0509  0.3507
  121TMC2    H5 1858   0.509   2.754  13.727  0.6300 -3.1059  0.4736
  122MPD2     C 1859   0.728   3.600  13.740  0.1379 -0.3068  0.2319
  122MPD2    C1 1860   0.738   3.504  13.645 -0.6051  0.4735 -0.7585
  122MPD2    C2 1861   0.770   3.538  13.517  0.1418  0.0413 -0.0351
  122MPD2    C3 1862   0.793   3.672  13.493 -0.4169  0.0357  0.3947
  122MPD2    C4 1863   0.809   3.759  13.598  0.4717 -0.0908  0.0854
  122MPD2    C5 1864   0.774   3.724  13.728  0.8069  0.0146 -0.6537
  122MPD2     H 1865   0.766   3.469  13.433  1.4069  0.4818 -0.4443
  122MPD2    H1 1866   0.813   3.867  13.588 -1.0955  0.0757  1.1080
  122MPD2    H2 1867   0.704   3.575  13.842  2.1071 -0.8234  0.5672
  122MPD2    H3 1868   0.773   3.793  13.812  0.1511 -1.1917  0.3376
  122MPD2     N 1869   0.810   3.726  13.365  0.2477 -0.1072 -0.0502
  122MPD2    H5 1870   0.816   3.827  13.368 -0.7152 -0.0402 -0.5699
  122MPD2    N1 1871   0.692   3.371  13.667 -0.1764  0.1130  0.3307
  122MPD2    H7 1872   0.708   3.296  13.600 -0.8031 -0.7342  1.1313
  123MPD2     C 1873   2.862   1.981   9.482  0.7436  0.1253 -0.4187
  123MPD2    C1 1874   2.953   1.910   9.558 -0.6209 -0.6058  0.6309
  123MPD2    C2 1875   3.089   1.945   9.563  0.7682  0.4961  0.7475
  123MPD2    C3 1876   3.129   2.060   9.498 -0.5367  0.0114  0.1625
  123MPD2    C4 1877   3.037   2.129   9.424  0.2028 -0.5480 -0.3961
  123MPD2    C5 1878   2.907   2.085   9.415 -0.8119  0.5890 -0.6164
  123MPD2     H 1879   3.168   1.893   9.616 -0.5018 -1.1342  1.0215
  123MPD2    H1 1880   3.053   2.225   9.377  2.0398 -0.1503  1.0371
  123MPD2    H2 1881   2.754   1.974   9.483  0.8549 -1.5965 -0.4909
  123MPD2    H3 1882   2.835   2.148   9.365  0.5788  0.4430 -2.8037
  123MPD2     N 1883   3.261   2.105   9.511  0.3242 -0.2398 -0.2627
  123MPD2    H5 1884   3.327   2.040   9.553  0.9416 -0.5918 -1.7796
  123MPD2    N1 1885   2.900   1.806   9.638  0.7302 -0.6531 -0.5820
  123MPD2    H7 1886   2.799   1.806   9.650  0.8100 -0.3811  0.1075
  124TCq2    C1 1887   3.317   2.215   9.451  0.0729  0.2391 -0.6333
  124TCq2    O2 1888   3.268   2.293   9.366 -0.4397 -0.4527  0.1755
  124TCq2    C2 1889   3.462   2.204   9.458 -0.0335  0.7024 -0.2177
  124TCq2    C3 1890   3.534   2.280   9.366  0.1553  0.4730 -0.4515
  124TCq2    C4 1891   3.670   2.249   9.335 -1.0627 -0.6282 -0.3772
  124TCq2    C5 1892   3.739   2.153   9.403 -0.6104  0.1986 -0.2041
  124TCq2    C6 1893   3.661   2.070   9.486  0.3438 -0.3188  0.0887
  124TCq2    C7 1894   3.524   2.097   9.517  1.2641  0.0712  0.4480
  124TCq2    C8 1895   3.716   1.943   9.545 -0.3845 -0.1295  0.0485
  124TCq2    O4 1896   3.655   1.887   9.631  0.0698  0.4933 -0.1699
  124TCq2    C9 1897   3.740   2.332   9.237 -0.2008 -0.4271 -0.4404
  124TCq2    O5 1898   3.687   2.446   9.209  0.4798  0.5536 -0.1593
  124TCq2    O6 1899   3.836   2.290   9.174 -0.4301 -0.1749 -0.3489
  124TCq2    H2 1900   3.487   2.359   9.308 -1.1140 -1.1850 -1.6956
  124TCq2    H3 1901   3.841   2.134   9.370  0.2551  0.7801  2.1795
  124TCq2    H4 1902   3.483   2.021   9.583  3.0475  0.0649  1.5627
  125TMC2    C1 1903   3.784   3.201   9.277  0.5262 -0.2800 -0.9069
  125TMC2    C2 1904   3.873   3.300   9.266  0.6121 -0.0868 -1.0712
  125TMC2    C3 1905   3.991   3.296   9.333  0.2078 -0.0082  0.3861
  125TMC2    C4 1906   3.803   3.095   9.355 -0.7111  0.5421  0.1020
  125TMC2    C5 1907   3.916   3.099   9.433  0.5850 -0.6655  0.9218
  125TMC2    C6 1908   4.009   3.198   9.426  0.1835 -0.7723 -0.8410
  125TMC2     C 1909   3.654   3.211   9.205  0.4552  0.4970  0.2841
  125TMC2     O 1910   3.594   3.104   9.192  0.0616  0.0969 -0.0521
  125TMC2     H 1911   3.860   3.378   9.191 -0.4196  0.5403 -0.2304
  125TMC2    H1 1912   3.745   3.003   9.354  0.3632 -0.1587  2.8416
  125TMC2    H2 1913   4.099   3.206   9.486 -2.0101  1.5501  2.1164
  125TMC2    C7 1914   3.963   2.972   9.479 -0.1926  0.0232  0.1499
  125TMC2    C8 1915   4.073   3.422   9.330 -0.3042 -0.0014  0.6954
  125TMC2    O1 1916   3.877   2.897   9.527  0.1082  0.4469 -0.7655
  125TMC2    O2 1917   4.043   3.515   9.256 -0.0173  0.0508 -0.2400
  125TMC2    O5 1918   4.199   3.396   9.364 -0.5404 -0.1107 -0.3345
  125TMC2    H5 1919   4.223   3.309   9.403 -0.8671 -0.4311 -0.8545
  126MPD1     C 1920   3.226   3.416   9.056 -0.5445  0.2524  0.1425
  126MPD1    C1 1921   3.301   3.528   9.102 -0.5270  0.4523 -0.3409
  126MPD1    C2 1922   3.430   3.496   9.151 -0.0094 -0.2989  0.4729
  126MPD1    C3 1923   3.481   3.372   9.131  0.3112 -0.2519  0.6399
  126MPD1    C4 1924   3.412   3.275   9.070 -0.0208  0.5822  0.0999
  126MPD1    C5 1925   3.281   3.300   9.031  0.1660 -0.3915 -0.5685
  126MPD1     H 1926   3.489   3.568   9.208  0.7594 -1.5599  1.2549
  126MPD1    H1 1927   3.444   3.175   9.044 -0.9746 -0.0608  1.3910
  126MPD1    H2 1928   3.121   3.434   9.035 -0.5853  0.9165  0.8730
  126MPD1    H3 1929   3.231   3.220   8.977  0.5252  0.4699 -2.1965
  126MPD1     N 1930   3.606   3.340   9.189 -0.5817  0.1682 -0.4787
  126MPD1    H5 1931   3.661   3.416   9.229 -3.2978  1.2204  1.2368
  126MPD1    N1 1932   3.231   3.644   9.138 -0.0294  0.0361 -0.6113
  126MPD1    H6 1933   3.168   3.670   9.062 -1.2456 -2.4903 -0.4614
  126MPD1    H7 1934   3.287   3.729   9.143 -2.5147  1.5709  0.7403
  127MPD2     C 1935   1.231   2.416   9.362 -0.6079 -0.4435 -0.1594
  127MPD2    C1 1936   1.196   2.425   9.489  0.2260  1.0048  0.4570
  127MPD2    C2 1937   1.205   2.545   9.553 -0.5336 -0.3449  0.3516
  127MPD2    C3 1938   1.244   2.664   9.489  0.2844 -0.1844 -0.3782
  127MPD2    C4 1939   1.283   2.653   9.360  0.6922  0.2287 -0.0638
  127MPD2    C5 1940   1.282   2.529   9.302  0.7485 -0.2121  0.0613
  127MPD2     H 1941   1.164   2.561   9.652  2.0472 -2.4445  1.7703
  127MPD2    H1 1942   1.307   2.742   9.304  2.2666 -0.1325  0.0525
  127MPD2    H2 1943   1.216   2.335   9.292 -2.2472 -1.2011  1.0619
  127MPD2    H3 1944   1.306   2.524   9.196  0.3722  1.0276 -0.0758
  127MPD2     N 1945   1.237   2.784   9.558 -0.4409  0.0509  0.2640
  127MPD2    H5 1946   1.207   2.774   9.654  0.4374  0.6303  0.6062
  127MPD2    N1 1947   1.162   2.305   9.556 -0.3302 -0.3615  0.5408
  127MPD2    H7 1948   1.142   2.229   9.492  1.3666  0.4673 -0.9677
  128TCq2    C1 1949   1.158   2.293   9.695 -0.0404  0.0832  0.0434
  128TCq2    O2 1950   1.187   2.369   9.790  0.4365 -0.5728 -0.4326
  128TCq2    C2 1951   1.089   2.172   9.744  0.0043 -0.3954 -0.6467
  128TCq2    C3 1952   1.074   2.167   9.881  0.2149  0.3771  0.4769
  128TCq2    C4 1953   0.984   2.088   9.939 -0.2782  0.9020  0.5493
  128TCq2    C5 1954   0.910   2.003   9.858 -0.1822  0.4901 -0.1343
  128TCq2    C6 1955   0.920   2.015   9.719 -0.3548 -0.2918  0.0845
  128TCq2    C7 1956   1.012   2.097   9.659  0.0775 -0.4116  0.5642
  128TCq2    C8 1957   0.855   1.907   9.637  0.0984  0.3792  0.0880
  128TCq2    O4 1958   0.861   1.915   9.516 -0.2133 -0.6336  0.1194
  128TCq2    C9 1959   0.948   2.095  10.078  0.0976  0.6635  0.3283
  128TCq2    O5 1960   0.851   2.029  10.118 -0.4370 -0.0001 -0.6226
  128TCq2    O6 1961   1.020   2.162  10.156  0.2545  0.6656  0.0172
  128TCq2    H2 1962   1.132   2.231   9.947  0.8036 -0.1634  0.4813
  128TCq2    H3 1963   0.824   1.959   9.908  0.9042 -4.1186 -2.2686
  128TCq2    H4 1964   1.018   2.106   9.551 -1.4362  0.7766  0.5591
  129MPD2     C 1965   0.452   3.069   1.905 -0.4298  0.1757  0.0874
  129MPD2    C1 1966   0.427   3.173   1.982  0.2675 -0.6287  0.5221
  129MPD2    C2 1967   0.428   3.299   1.923  0.3702  0.0620 -1.3544
  129MPD2    C3 1968   0.448   3.314   1.791  0.3072 -0.0622 -0.3977
  129MPD2    C4 1969   0.485   3.206   1.714  0.0729 -0.3031  0.2542
  129MPD2    C5 1970   0.481   3.079   1.770  0.4836 -0.1192  0.1382
  129MPD2     H 1971   0.408   3.391   1.978  0.7003 -0.4071 -0.4456
  129MPD2    H1 1972   0.508   3.200   1.608 -0.2276 -0.2089  0.1851
  129MPD2    H2 1973   0.452   2.967   1.942  1.8378 -0.7922 -2.5277
  129MPD2    H3 1974   0.502   2.985   1.719 -2.0857 -0.8810  0.5072
  129MPD2     N 1975   0.439   3.445   1.732 -0.3003  0.4296  0.1197
  129MPD2    H5 1976   0.408   3.522   1.791  0.3303  1.2178 -0.5801
  129MPD2    N1 1977   0.392   3.168   2.122 -0.0433  0.3892 -0.5124
  129MPD2    H7 1978   0.377   3.254   2.174 -0.5488  1.5086 -2.5283
  130TCq2    C1 1979   0.353   3.051   2.182 -0.2525  0.2233 -0.1540
  130TCq2    O2 1980   0.309   2.952   2.129  0.1419  0.2689 -0.7406
  130TCq2    C2 1981   0.310   3.077   2.317 -0.7251  0.6780  0.1131
  130TCq2    C3 1982   0.382   3.161   2.393  0.1592  0.1945 -0.3694
  130TCq2    C4 1983   0.352   3.171   2.525 -0.1821  0.2168  0.5387
  130TCq2    C5 1984   0.239   3.113   2.577 -0.5384  0.1666 -0.1658
  130TCq2    C6 1985   0.166   3.026   2.493  0.1906  0.1840 -1.6564
  130TCq2    C7 1986   0.195   3.009   2.362 -0.2401  0.1501 -0.4202
  130TCq2    C8 1987   0.031   2.979   2.535 -0.4415  0.1359  0.5809
  130TCq2    O4 1988   4.675   2.946   2.444  0.1901  0.3169 -0.1904
  130TCq2    C9 1989   0.436   3.260   2.606  0.5870 -0.1780  0.1023
  130TCq2    O5 1990   0.395   3.292   2.724 -0.0471  0.4132 -0.1521
  130TCq2    O6 1991   0.549   3.291   2.553 -0.1074 -0.3870 -0.5096
  130TCq2    H2 1992   0.467   3.219   2.358 -0.5354  0.3789 -1.7427
  130TCq2    H3 1993   0.214   3.136   2.680 -1.7085  0.9094 -0.6222
  130TCq2    H4 1994   0.143   2.932   2.306 -0.0877  0.1056 -0.4987
  131MPD2     C 1995   3.320   1.082  10.214  0.2475 -0.6971 -1.0369
  131MPD2    C1 1996   3.372   1.209  10.180 -0.4450  0.5834 -0.0787
  131MPD2    C2 1997   3.279   1.292  10.113 -0.0287 -0.0561 -0.1138
  131MPD2    C3 1998   3.152   1.253  10.088 -0.7260 -0.4293 -0.0784
  131MPD2    C4 1999   3.112   1.127  10.121  0.3763 -0.4205 -1.1512
  131MPD2    C5 2000   3.197   1.032  10.181  0.1122 -0.3234 -0.6344
  131MPD2     H 2001   3.309   1.391  10.081  2.3950  0.2893  3.2084
  131MPD2    H1 2002   3.027   1.082  10.073 -1.0932  0.1396  0.9230
  131MPD2    H2 2003   3.392   1.010  10.251  1.1412 -0.0586 -1.5466
  131MPD2    H3 2004   3.175   0.928  10.199  1.3894 -0.8300 -2.0862
  131MPD2     N 2005   3.069   1.340  10.012 -0.0072  0.0548  0.2703
  131MPD2    H5 2006   3.113   1.415   9.960 -1.3058 -1.0531 -2.4260
  131MPD2    N1 2007   3.497   1.250  10.228  0.3157 -0.2358  0.0386
  131MPD2    H7 2008   3.563   1.185  10.269  0.4105  0.3755  0.8523
  132TCq2    C1 2009   4.028   1.442  10.136  0.3794 -0.7518  0.7283
  132TCq2    O2 2010   4.140   1.394  10.149  0.1829  0.2237 -0.2061
  132TCq2    C2 2011   3.912   1.383  10.207  0.0544  0.1804  0.4842
  132TCq2    C3 2012   3.940   1.276  10.293  0.3376  0.7745  0.5881
  132TCq2    C4 2013   3.841   1.225  10.366 -0.6003 -0.4999 -0.0379
  132TCq2    C5 2014   3.710   1.274  10.354 -0.2570  0.4001  0.5705
  132TCq2    C6 2015   3.683   1.378  10.271 -0.3441 -0.5728  0.0499
  132TCq2    C7 2016   3.783   1.433  10.192  0.8642 -0.0218 -0.2282
  132TCq2    C8 2017   3.553   1.371  10.204 -0.2567 -0.3176 -0.0718
  132TCq2    O4 2018   3.513   1.465  10.137  0.0654 -0.4958  0.0241
  132TCq2    C9 2019   3.873   1.126  10.465  0.9051  0.4491 -0.2430
  132TCq2    O5 2020   3.812   1.132  10.575 -0.1137  0.5230  0.3764
  132TCq2    O6 2021   3.974   1.048  10.448  0.1572 -0.5345 -0.0536
  132TCq2    H2 2022   4.044   1.247  10.305  0.4550  1.4814  1.2918
  132TCq2    H3 2023   3.634   1.229  10.417 -0.3576  1.4730  1.2178
  132TCq2    H4 2024   3.759   1.515  10.126 -0.2433 -0.5009 -0.4240
  133MPD2     C 2025   2.927   1.569  10.287 -0.1243 -0.2470  0.2737
  133MPD2    C1 2026   2.815   1.636  10.255 -0.6103  0.0284 -0.5660
  133MPD2    C2 2027   2.824   1.748  10.171  0.1257 -0.5391  0.0190
  133MPD2    C3 2028   2.941   1.787  10.110  0.6131 -0.6915 -1.0271
  133MPD2    C4 2029   3.063   1.724  10.151 -0.6973 -0.2892 -0.9513
  133MPD2    C5 2030   3.049   1.608  10.236 -0.5099  0.0926  0.2565
  133MPD2     H 2031   2.735   1.808  10.161  1.4580  1.3724 -0.4605
  133MPD2    H1 2032   3.160   1.749  10.111  0.3950 -1.8135  0.7112
  133MPD2    H2 2033   2.913   1.487  10.355  0.3704  1.4914  2.4786
  133MPD2    H3 2034   3.139   1.553  10.262 -0.1870  0.4959  0.0010
  133MPD2     N 2035   2.951   1.892  10.018  0.8780 -0.2519  0.6206
  133MPD2    H5 2036   3.043   1.937  10.016 -0.2353  1.8487 -3.4188
  133MPD2    N1 2037   2.701   1.594  10.326 -0.2431 -0.2685 -0.0967
  133MPD2    H7 2038   2.711   1.515  10.390 -1.2388  0.5593  1.0834
  134TCq2    C1 2039   2.575   1.656  10.335  0.2690  0.4269  1.3964
  134TCq2    O2 2040   2.532   1.760  10.293  0.3091 -0.4938 -0.1492
  134TCq2    C2 2041   2.478   1.569  10.410  0.0468  0.0259  0.3606
  134TCq2    C3 2042   2.521   1.489  10.514 -0.2871 -1.3194 -0.0035
  134TCq2    C4 2043   2.436   1.390  10.555  0.5235 -0.1466 -0.3321
  134TCq2    C5 2044   2.303   1.383  10.511  0.0958 -0.1573  0.5153
  134TCq2    C6 2045   2.263   1.465  10.407  0.3725 -0.6712  0.3734
  134TCq2    C7 2046   2.350   1.561  10.355 -0.4436 -0.0038  0.5912
  134TCq2    C8 2047   2.137   1.438  10.337  0.1727  0.4195 -0.3266
  134TCq2    O4 2048   2.112   1.323  10.306  0.1279  0.0185 -0.1620
  134TCq2    C9 2049   2.476   1.312  10.664 -0.9779 -0.2268 -0.0502
  134TCq2    O5 2050   2.590   1.322  10.718 -0.4126 -0.4613  0.2536
  134TCq2    O6 2051   2.388   1.236  10.707  0.1767 -0.7641 -0.1256
  134TCq2    H2 2052   2.617   1.509  10.561 -0.7311 -0.0865  0.3877
  134TCq2    H3 2053   2.233   1.323  10.567  0.7145 -1.0061  0.3925
  134TCq2    H4 2054   2.324   1.628  10.274 -1.6323  0.2679  1.1949
  135MPD2     C 2055   0.812   3.456   9.741  0.1032  0.0143  0.0491
  135MPD2    C1 2056   0.764   3.367   9.644  0.0829 -0.6431  0.7317
  135MPD2    C2 2057   0.840   3.313   9.548 -0.0261 -0.6201 -0.1181
  135MPD2    C3 2058   0.980   3.354   9.538 -0.2210  0.0683 -0.0320
  135MPD2    C4 2059   1.023   3.448   9.632 -0.0928  0.2094 -0.9307
  135MPD2    C5 2060   0.942   3.501   9.731  0.0301 -0.0047  0.0354
  135MPD2     H 2061   0.786   3.253   9.476  1.2567 -0.4641 -1.2114
  135MPD2    H1 2062   1.124   3.486   9.619 -1.1651  2.7621 -1.9309
  135MPD2    H2 2063   0.748   3.506   9.813 -1.2001  1.6880 -2.2755
  135MPD2    H3 2064   0.971   3.585   9.793 -0.2571  0.8678 -1.0244
  135MPD2     N 2065   1.068   3.322   9.434 -0.2286  0.1883  0.3294
  135MPD2    H5 2066   1.159   3.363   9.455 -0.5420  0.8907  0.3117
  135MPD2    N1 2067   0.629   3.322   9.637 -0.0276  0.1180  0.7914
  135MPD2    H7 2068   0.609   3.268   9.554  3.3190  0.2709 -0.1069
  136TCq2    C1 2069   0.529   3.353   9.728 -0.3195  0.1980 -0.1536
  136TCq2    O2 2070   0.538   3.401   9.842  0.0192 -0.5044  0.4536
  136TCq2    C2 2071   0.394   3.303   9.686 -0.2465  0.1347  0.0082
  136TCq2    C3 2072   0.371   3.240   9.563  0.0613 -0.5875 -0.4114
  136TCq2    C4 2073   0.251   3.181   9.538  0.1647  0.2219  0.0518
  136TCq2    C5 2074   0.157   3.170   9.634 -0.8378  0.3114  0.1341
  136TCq2    C6 2075   0.176   3.232   9.757 -0.8093 -0.6078 -0.5072
  136TCq2    C7 2076   0.293   3.299   9.781  0.1139  0.5818 -0.5251
  136TCq2    C8 2077   0.074   3.220   9.867  0.2979  0.0906 -0.2558
  136TCq2    O4 2078   4.702   3.144   9.842 -0.7750  0.3017  0.0510
  136TCq2    C9 2079   0.229   3.146   9.400  0.0340 -0.1570 -0.4306
  136TCq2    O5 2080   0.111   3.150   9.367  0.1436 -0.2834  0.5306
  136TCq2    O6 2081   0.322   3.130   9.318  0.6954 -0.1647  0.5488
  136TCq2    H2 2082   0.431   3.248   9.473 -0.6959 -0.7928 -0.9303
  136TCq2    H3 2083   0.062   3.120   9.621  0.1029 -1.4021 -0.1393
  136TCq2    H4 2084   0.319   3.342   9.877 -0.7632  1.3219 -0.6238
  137MPD2     C 2085   0.407   2.554   9.232  0.7487  0.1295 -0.4180
  137MPD2    C1 2086   0.293   2.494   9.273  0.4707  0.4145 -0.2537
  137MPD2    C2 2087   0.278   2.465   9.408 -0.1081 -0.4249 -0.2053
  137MPD2    C3 2088   0.382   2.500   9.492 -0.3569  0.6397  0.1967
  137MPD2    C4 2089   0.507   2.537   9.443 -0.6267  0.0041  0.1987
  137MPD2    C5 2090   0.517   2.563   9.311 -0.2540  0.4558 -0.0866
  137MPD2     H 2091   0.182   2.429   9.444 -0.2878 -0.5418 -0.7975
  137MPD2    H1 2092   0.594   2.549   9.506 -0.7105 -0.2228  0.3570
  137MPD2    H2 2093   0.419   2.597   9.133 -2.6369  1.8383 -0.0717
  137MPD2    H3 2094   0.606   2.611   9.272 -0.0437  0.6697  0.6436
  137MPD2     N 2095   0.371   2.473   9.631  0.5377 -0.8628 -0.5772
  137MPD2    H5 2096   0.280   2.433   9.653  0.4677 -0.9068 -0.9523
  137MPD2    N1 2097   0.190   2.479   9.179  0.5647 -0.0431  0.1229
  137MPD2    H7 2098   0.205   2.503   9.081 -0.9931  1.3475  0.2195
  138TCq2    C1 2099   0.054   2.446   9.199  0.2337 -0.5464  0.4330
  138TCq2    O2 2100   0.001   2.425   9.306  0.0203  0.0361 -0.2931
  138TCq2    C2 2101   4.694   2.464   9.086 -0.3426  0.0048 -0.5950
  138TCq2    C3 2102   0.020   2.412   8.969  0.0573  0.7576 -0.0346
  138TCq2    C4 2103   4.666   2.434   8.855 -0.2581  0.3589 -0.3024
  138TCq2    C5 2104   4.534   2.474   8.863 -1.4830 -0.0397 -0.0214
  138TCq2    C6 2105   4.486   2.501   8.990  0.0658 -0.8160  0.0915
  138TCq2    C7 2106   4.565   2.509   9.100 -0.2418 -0.2130  0.1729
  138TCq2    C8 2107   4.353   2.555   8.998 -0.3472  0.5483  0.2469
  138TCq2    O4 2108   4.287   2.605   8.908  0.0109  1.0562 -0.4491
  138TCq2    C9 2109   4.712   2.368   8.737  0.4638  1.2584  0.0893
  138TCq2    O5 2110   0.114   2.353   8.733 -0.4595  0.3259 -0.0171
  138TCq2    O6 2111   4.632   2.352   8.639  0.2042  0.0569 -0.2013
  138TCq2    H2 2112   0.117   2.366   8.955 -0.8234 -1.4741  1.2586
  138TCq2    H3 2113   4.465   2.483   8.780 -0.0081  0.4179 -1.1890
  138TCq2    H4 2114   4.533   2.547   9.196 -0.5173 -0.6584  0.2584
  139TMC2    C1 2115   0.247   1.586  13.583 -0.6049 -0.1169  0.2840
  139TMC2    C2 2116   0.231   1.597  13.448  0.1221 -0.4436 -0.0327
  139TMC2    C3 2117   0.122   1.675  13.410 -0.1668  0.3518 -0.6407
  139TMC2    C4 2118   0.171   1.646  13.674 -0.0097  0.5181 -0.2143
  139TMC2    C5 2119   0.068   1.719  13.635 -0.6234 -0.4118  0.4230
  139TMC2    C6 2120   0.038   1.732  13.502 -0.1478  0.3722  0.0801
  139TMC2     C 2121   0.366   1.518  13.626 -0.0400  0.1666 -0.0808
  139TMC2     O 2122   0.410   1.439  13.543  0.0857  0.7924  0.0922
  139TMC2     H 2123   0.303   1.565  13.373 -0.8378  1.1458 -1.6347
  139TMC2    H1 2124   0.190   1.621  13.778 -0.0200 -0.1296 -0.3715
  139TMC2    H2 2125   4.678   1.797  13.475  0.1852  0.7852  0.0783
  139TMC2    C7 2126   4.688   1.768  13.732  0.5890  0.4733 -0.4372
  139TMC2    C8 2127   0.120   1.728  13.275 -0.2370 -0.1068  0.2138
  139TMC2    O1 2128   4.633   1.875  13.700  0.2399 -0.0336  0.1881
  139TMC2    O2 2129   0.079   1.842  13.255  0.1680 -0.0085  0.0839
  139TMC2    O5 2130   0.211   1.666  13.189  0.0197  0.2316  0.4536
  139TMC2    H5 2131   0.215   1.569  13.203 -1.2245 -0.0389 -1.1082
  140MPD2     C 2132   0.603   1.581  13.904 -0.0032 -0.0497  0.4445
  140MPD2    C1 2133   0.557   1.520  13.786  0.6041 -0.0330  0.4059
  140MPD2    C2 2134   0.620   1.405  13.736  0.4924  0.0561 -0.5013
  140MPD2    C3 2135   0.732   1.358  13.797  0.5952  0.1877 -0.2720
  140MPD2    C4 2136   0.783   1.421  13.912  0.1591  0.0615  0.0380
  140MPD2    C5 2137   0.719   1.533  13.955  1.5702  0.0054 -0.2779
  140MPD2     H 2138   0.582   1.355  13.648 -0.5521 -2.0638  1.1728
  140MPD2    H1 2139   0.879   1.401  13.958  0.5129  1.0783 -0.2632
  140MPD2    H2 2140   0.557   1.673  13.938  0.4697  0.1235  0.6233
  140MPD2    H3 2141   0.765   1.575  14.044  0.0587  1.3452 -0.1203
  140MPD2     N 2142   0.783   1.233  13.749  0.3825 -0.1900  0.0487
  140MPD2    H5 2143   0.731   1.202  13.667  0.8653  0.2138 -0.4117
  140MPD2    N1 2144   0.430   1.566  13.740  0.1555 -0.2674 -0.5662
  140MPD2    H7 2145   0.398   1.652  13.785 -0.1229 -1.1137  0.8594
  141TCq2    C1 2146   1.761   2.306  14.394 -0.2853 -0.4399 -0.6702
  141TCq2    O2 2147   1.646   2.328  14.361  0.2690 -0.0989  0.7381
  141TCq2    C2 2148   1.810   2.372  14.509 -0.3598  0.0238 -0.0500
  141TCq2    C3 2149   1.910   2.314  14.587  0.5788  0.0386 -0.1952
  141TCq2    C4 2150   1.939   2.381  14.699 -0.2284 -0.1029 -0.0043
  141TCq2    C5 2151   1.876   2.494  14.742  0.2140 -0.2487  0.0481
  141TCq2    C6 2152   1.773   2.542  14.667  0.5734 -0.0598 -0.5968
  141TCq2    C7 2153   1.738   2.481  14.552  0.5124  0.0320  0.0387
  141TCq2    C8 2154   1.734   2.677  14.691  0.0735  0.7401  0.4174
  141TCq2    O4 2155   1.766   2.720  14.803 -0.0397 -0.2795  0.1687
  141TCq2    C9 2156   2.045   2.326  14.780  1.2758 -0.1409  0.1675
  141TCq2    O5 2157   2.081   2.378  14.891  0.7134  0.6638 -0.3432
  141TCq2    O6 2158   2.107   2.223  14.734  0.0868  0.0614  0.5564
  141TCq2    H2 2159   1.964   2.225  14.558  0.9111  0.9830 -2.4847
  141TCq2    H3 2160   1.906   2.553  14.828  1.5389  1.5219 -1.6334
  141TCq2    H4 2161   1.677   2.530  14.477 -0.5461  1.1102  1.5892
  142MPD2     C 2162   3.065   1.011   9.791  0.3042  0.2354 -0.6906
  142MPD2    C1 2163   3.158   0.928   9.850 -0.0651 -0.0039 -0.3134
  142MPD2    C2 2164   3.294   0.958   9.847 -0.4001  0.0075  0.3974
  142MPD2    C3 2165   3.336   1.083   9.804 -0.5279 -0.1306 -0.1930
  142MPD2    C4 2166   3.248   1.159   9.731  1.0331 -0.0536  0.2993
  142MPD2    C5 2167   3.110   1.129   9.733 -1.0073  0.0710 -0.2759
  142MPD2     H 2168   3.367   0.881   9.871  0.5133  1.6314  2.8921
  142MPD2    H1 2169   3.279   1.249   9.678  0.4001  1.2053  2.0794
  142MPD2    H2 2170   2.958   0.999   9.807  0.7122  0.7084  2.5089
  142MPD2    H3 2171   3.044   1.199   9.684 -1.2198  1.6505  2.2434
  142MPD2     N 2172   3.471   1.128   9.818 -0.8150  0.0207 -0.4498
  142MPD2    H5 2173   3.487   1.216   9.770  1.0019  0.0372  0.1731
  142MPD2    N1 2174   3.104   0.804   9.898  0.4753  0.4459  0.1107
  142MPD2    H7 2175   3.003   0.807   9.903  0.5229 -0.6747  1.5271
  143TCq2    C1 2176   3.563   1.073   9.900  0.5071  0.4487  0.2558
  143TCq2    O2 2177   3.584   0.951   9.918 -0.6048 -0.2287 -0.1816
  143TCq2    C2 2178   3.677   1.161   9.921 -0.1200  0.2503 -0.0520
  143TCq2    C3 2179   3.794   1.108   9.960 -0.4607  0.5297 -0.0800
  143TCq2    C4 2180   3.911   1.159   9.921 -0.1828 -0.3608  0.6131
  143TCq2    C5 2181   3.916   1.274   9.853  0.1623 -0.8239 -0.1087
  143TCq2    C6 2182   3.799   1.340   9.826 -0.1354  0.2992 -0.3832
  143TCq2    C7 2183   3.671   1.289   9.862  0.3789 -1.0068 -0.3176
  143TCq2    C8 2184   3.809   1.465   9.761 -0.6850  0.9911  0.2167
  143TCq2    O4 2185   3.707   1.537   9.759 -0.7435 -0.3195 -0.0925
  143TCq2    C9 2186   4.037   1.089   9.944  0.2409  0.9316  0.6940
  143TCq2    O5 2187   4.028   0.984  10.015 -0.3811 -0.1244  0.0524
  143TCq2    O6 2188   4.134   1.105   9.862  0.0270  0.7083  0.2631
  143TCq2    H2 2189   3.792   1.011  10.008 -1.9298  0.2043 -0.8150
  143TCq2    H3 2190   4.016   1.315   9.838  0.0408 -0.3739  0.3391
  143TCq2    H4 2191   3.579   1.346   9.863 -0.2873 -2.0970  0.5832
  144MPD2     C 2192   1.481   0.981   0.952  0.2272 -0.1466 -0.7740
  144MPD2    C1 2193   1.424   0.865   1.012  0.0537  0.2599  0.2013
  144MPD2    C2 2194   1.504   0.789   1.095  0.5048 -0.0990  0.3769
  144MPD2    C3 2195   1.632   0.832   1.122  0.3840 -0.5502 -0.0101
  144MPD2    C4 2196   1.689   0.938   1.055 -0.2163 -0.0857 -0.7441
  144MPD2    C5 2197   1.610   1.004   0.961  0.1373  0.1812  0.9313
  144MPD2     H 2198   1.458   0.702   1.139 -1.1082 -1.3144 -3.7193
  144MPD2    H1 2199   1.794   0.959   1.075  0.4053 -3.0249 -0.8075
  144MPD2    H2 2200   1.437   1.041   0.873  1.6017  0.4813 -1.0662
  144MPD2    H3 2201   1.656   1.093   0.918 -0.5026  0.3945  0.7000
  144MPD2     N 2202   1.722   0.772   1.220  0.3904  0.1546 -0.3575
  144MPD2    H5 2203   1.813   0.815   1.233  0.2781 -0.3501  2.0451
  144MPD2    N1 2204   1.290   0.831   0.998  1.0505 -0.1315 -0.2543
  144MPD2    H7 2205   1.266   0.737   1.028 -1.8517  0.6900  0.0181
  145TCq2    C1 2206   1.692   0.659   1.289 -0.5429 -0.4490  0.3204
  145TCq2    O2 2207   1.592   0.589   1.291 -0.3262  0.3536  0.2626
  145TCq2    C2 2208   1.800   0.619   1.377 -0.7892 -0.3899 -0.2917
  145TCq2    C3 2209   1.783   0.495   1.433  0.4387 -0.5273  0.7407
  145TCq2    C4 2210   1.874   0.454   1.526 -0.8039 -0.3666 -0.1230
  145TCq2    C5 2211   1.979   0.531   1.571 -0.6459 -0.1804  0.4750
  145TCq2    C6 2212   1.989   0.651   1.522  0.3444  0.1243  0.7848
  145TCq2    C7 2213   1.907   0.695   1.410  0.2969  0.3418 -0.1881
  145TCq2    C8 2214   2.075   0.744   1.590  1.5345  0.0439 -0.2291
  145TCq2    O4 2215   2.169   0.694   1.654 -0.6694  0.3421 -0.3660
  145TCq2    C9 2216   1.843   0.339   1.595 -0.4772 -0.4639  0.0614
  145TCq2    O5 2217   1.736   0.275   1.574  0.7071  0.0649  0.0906
  145TCq2    O6 2218   1.925   0.308   1.688  0.6104  0.2762  0.5086
  145TCq2    H2 2219   1.696   0.432   1.416 -0.1470 -0.5958  3.9024
  145TCq2    H3 2220   2.038   0.504   1.658  0.4127 -0.5363 -0.3527
  145TCq2    H4 2221   1.917   0.794   1.368  1.4427 -0.1704 -1.1117
  146TMC2    C1 2222   3.118   4.047  12.270 -0.0652 -0.1248 -0.3145
  146TMC2    C2 2223   3.104   4.157  12.193  0.5714  0.1120 -0.3954
  146TMC2    C3 2224   3.197   4.174  12.086 -0.3053  0.1690 -0.6572
  146TMC2    C4 2225   3.230   3.961  12.248  0.4764  0.6787 -0.8778
  146TMC2    C5 2226   3.324   3.985  12.152 -0.1397 -0.0516  0.6952
  146TMC2    C6 2227   3.312   4.094  12.063  0.2055  0.2773 -0.2306
  146TMC2     C 2228   3.028   4.029  12.383  0.0698  0.3940 -0.4371
  146TMC2     O 2229   2.916   4.070  12.369 -0.0458 -0.2732  0.5088
  146TMC2     H 2230   3.015   4.217  12.198  0.9270  0.8316 -2.5422
  146TMC2    H1 2231   3.232   3.873  12.311  2.0189  0.3002 -1.4482
  146TMC2    H2 2232   3.376   4.098  11.976 -0.1467 -1.2159 -0.5608
  146TMC2    C7 2233   3.432   3.887  12.134 -0.2173 -0.0416 -0.1321
  146TMC2    C8 2234   3.169   4.278  11.991  0.2724  0.4313 -0.6668
  146TMC2    O1 2235   3.485   3.888  12.021 -0.2172 -0.1052 -0.4822
  146TMC2    O2 2236   3.087   4.365  12.012  0.3846  0.3309  0.0071
  146TMC2    O5 2237   3.180   4.213  11.869  0.3250  0.1291 -0.4069
  146TMC2    H5 2238   3.214   4.122  11.876  1.7318  0.8458  2.1136
  147MPD2     C 2239   3.806   3.568  12.290  0.1570 -0.2378 -0.8242
  147MPD2    C1 2240   3.730   3.609  12.402 -0.4142  0.0129 -0.2997
  147MPD2    C2 2241   3.611   3.683  12.376  0.3791  0.6142  0.8096
  147MPD2    C3 2242   3.576   3.722  12.253 -0.3691  0.4028  0.1478
  147MPD2    C4 2243   3.655   3.687  12.143  0.0354  0.5285 -0.3619
  147MPD2    C5 2244   3.766   3.614  12.165 -0.1160 -0.7006  0.4759
  147MPD2     H 2245   3.540   3.717  12.450  0.1591  0.2503  0.7657
  147MPD2    H1 2246   3.638   3.723  12.043  3.6642  2.8775 -0.1142
  147MPD2    H2 2247   3.907   3.528  12.289  1.0331  1.9371  1.9378
  147MPD2    H3 2248   3.816   3.591  12.072 -0.7012 -1.4611  0.3504
  147MPD2     N 2249   3.463   3.807  12.243  0.7080 -0.2152  0.1402
  147MPD2    H5 2250   3.403   3.824  12.322 -2.0689  0.3598 -2.0960
  147MPD2    N1 2251   3.766   3.567  12.531  0.0073  0.6426 -0.4215
  147MPD2    H7 2252   3.852   3.513  12.545 -0.5971 -0.4817 -1.0589
  148MPD2     C 2253   3.132   2.814  10.475 -0.5978 -0.4110 -0.2643
  148MPD2    C1 2254   3.158   2.689  10.529  0.4932  0.3249 -0.2851
  148MPD2    C2 2255   3.057   2.599  10.532 -0.0284 -0.7732 -0.2226
  148MPD2    C3 2256   2.930   2.632  10.475  0.7242  0.4388 -0.9158
  148MPD2    C4 2257   2.901   2.757  10.419 -0.1022 -1.0304 -0.4176
  148MPD2    C5 2258   2.999   2.846  10.423  0.7632  0.8152  0.5733
  148MPD2     H 2259   3.081   2.494  10.541 -1.7727 -1.3864 -2.4653
  148MPD2    H1 2260   2.819   2.775  10.350 -1.6030 -1.3857  1.2890
  148MPD2    H2 2261   3.208   2.891  10.484  0.7444 -1.3559 -3.3767
  148MPD2    H3 2262   2.995   2.938  10.367 -1.2956  0.0439 -0.5386
  148MPD2     N 2263   2.832   2.535  10.461 -0.0812 -0.6502  0.9110
  148MPD2    H5 2264   2.768   2.549  10.383 -1.5391 -3.0966  1.6564
  148MPD2    N1 2265   3.283   2.648  10.592  0.1808  0.3835  0.1191
  148MPD2    H7 2266   3.281   2.557  10.636 -1.5912  0.4604  0.1785
  149TCq2    C1 2267   3.397   2.725  10.599 -0.4376 -0.6279  0.5775
  149TCq2    O2 2268   3.418   2.843  10.580  0.1804  0.1568  0.7614
  149TCq2    C2 2269   3.488   2.652  10.689 -0.3565 -0.3397  0.2354
  149TCq2    C3 2270   3.560   2.733  10.770  0.0273 -0.7014  0.1697
  149TCq2    C4 2271   3.603   2.686  10.891  0.0713 -0.4256 -0.4923
  149TCq2    C5 2272   3.584   2.554  10.916  0.8170 -0.3503  0.1262
  149TCq2    C6 2273   3.502   2.478  10.840 -0.1715 -0.5018 -0.2130
  149TCq2    C7 2274   3.467   2.516  10.713 -0.4014 -0.1630  0.2180
  149TCq2    C8 2275   3.486   2.337  10.862  0.4819 -0.0526  0.2849
  149TCq2    O4 2276   3.508   2.264  10.770  0.3802 -0.1704  0.3539
  149TCq2    C9 2277   3.704   2.754  10.969  0.2443  0.2784  0.6890
  149TCq2    O5 2278   3.767   2.850  10.921  0.3986 -0.2438  0.0976
  149TCq2    O6 2279   3.744   2.693  11.068 -0.2756 -0.1036 -0.1390
  149TCq2    H2 2280   3.589   2.833  10.739 -0.8777 -0.6374 -0.4356
  149TCq2    H3 2281   3.628   2.510  11.005  0.7380 -1.5792 -0.4363
  149TCq2    H4 2282   3.410   2.447  10.651 -0.2899 -0.0377 -0.0215
  150MPD2     C 2283   0.436   1.599  12.120 -0.6471  0.2143  1.1984
  150MPD2    C1 2284   0.416   1.704  12.031 -0.2565 -0.6897  0.3868
  150MPD2    C2 2285   0.502   1.812  12.039 -0.3064 -0.7491  0.0609
  150MPD2    C3 2286   0.609   1.809  12.121  0.0175  0.9965  0.0548
  150MPD2    C4 2287   0.634   1.699  12.197  0.1053 -0.2606 -0.2055
  150MPD2    C5 2288   0.550   1.593  12.203 -0.3334 -0.1324 -0.6323
  150MPD2     H 2289   0.487   1.902  11.980  1.2854 -0.3794  0.2054
  150MPD2    H1 2290   0.726   1.690  12.253  0.9212 -1.0593 -1.6495
  150MPD2    H2 2291   0.363   1.519  12.120 -2.2880  1.7123  1.0965
  150MPD2    H3 2292   0.572   1.510  12.270 -1.4774  0.2146  0.1733
  150MPD2     N 2293   0.696   1.911  12.098  0.0216 -0.7175  0.1513
  150MPD2    H5 2294   0.678   1.970  12.018 -3.2279 -2.3346 -0.2936
  150MPD2    N1 2295   0.302   1.706  11.950  0.2586 -0.1156 -0.1167
  150MPD2    H7 2296   0.243   1.624  11.949  0.9221 -0.5836 -0.3057
  151TCq2    C1 2297   0.814   1.944  12.162 -0.8272  0.3880  0.2316
  151TCq2    O2 2298   0.866   1.888  12.253 -0.0478 -0.0945  0.2704
  151TCq2    C2 2299   0.886   2.053  12.093  0.2132 -0.3447  0.3460
  151TCq2    C3 2300   0.822   2.099  11.978 -0.3090 -0.1216 -0.5377
  151TCq2    C4 2301   0.890   2.114  11.868 -0.3359 -0.8254 -0.4039
  151TCq2    C5 2302   1.022   2.096  11.872  0.3319 -0.2386  0.0305
  151TCq2    C6 2303   1.088   2.048  11.977  0.3140  0.7622  0.1762
  151TCq2    C7 2304   1.020   2.024  12.092 -0.4994 -0.5948  0.0119
  151TCq2    C8 2305   1.227   1.999  11.961  0.8525  0.9215 -0.4777
  151TCq2    O4 2306   1.263   1.980  11.845 -0.9132 -0.6684  0.3475
  151TCq2    C9 2307   0.825   2.156  11.748  0.3373  0.2815 -0.3718
  151TCq2    O5 2308   0.702   2.177  11.767 -0.0580 -0.0920  0.2111
  151TCq2    O6 2309   0.894   2.155  11.640 -0.1239 -0.2818 -0.9476
  151TCq2    H2 2310   0.718   2.130  11.985  0.0359  0.7691  0.6522
  151TCq2    H3 2311   1.078   2.104  11.779 -0.2429 -0.4824 -0.3378
  151TCq2    H4 2312   1.066   1.977  12.178 -1.4366  1.5222  1.6713
  152MPD2     C 2313   4.530   1.378  12.834 -0.3232 -0.3921  0.5496
  152MPD2    C1 2314   4.628   1.420  12.752  0.3215  0.1192  0.1313
  152MPD2    C2 2315   4.598   1.480  12.628  0.3910 -0.5895  1.1015
  152MPD2    C3 2316   4.463   1.496  12.593 -0.4824 -0.0444  0.1897
  152MPD2    C4 2317   4.362   1.460  12.686  1.1023  0.7731 -0.6543
  152MPD2    C5 2318   4.398   1.394  12.798 -0.7673 -0.0540  0.1417
  152MPD2     H 2319   4.674   1.518  12.561 -1.4451 -0.2506 -0.7778
  152MPD2    H1 2320   4.256   1.464  12.663  1.4853  1.1478 -2.3031
  152MPD2    H2 2321   4.559   1.336  12.930  0.3595 -1.6521 -0.2160
  152MPD2    H3 2322   4.325   1.349  12.865 -0.0229 -0.7083  0.5079
  152MPD2     N 2323   4.437   1.564  12.472  0.4800 -0.5648 -0.2427
  152MPD2    H5 2324   4.514   1.580  12.408 -1.2219  0.7529 -1.9550
  152MPD2    N1 2325   0.042   1.397  12.797 -0.3048 -0.0968 -1.0069
  152MPD2    H7 2326   0.053   1.347  12.884 -4.2954  1.0565  0.1679
  153TCq2    C1 2327   0.160   1.423  12.728  0.2828 -0.0078  0.1274
  153TCq2    O2 2328   0.177   1.449  12.607 -0.4607  0.3866  0.7453
  153TCq2    C2 2329   0.278   1.390  12.816 -0.2570 -0.3333  0.2257
  153TCq2    C3 2330   0.264   1.390  12.949 -0.5407 -0.6480  0.3485
  153TCq2    C4 2331   0.374   1.371  13.031 -0.0339 -0.6459  0.1846
  153TCq2    C5 2332   0.499   1.351  12.981  0.4502  0.0347  0.2124
  153TCq2    C6 2333   0.511   1.357  12.842  0.7356  0.0284 -0.0444
  153TCq2    C7 2334   0.400   1.370  12.760  0.1976  0.3183 -0.3827
  153TCq2    C8 2335   0.644   1.358  12.781 -0.0203  0.2650 -1.0066
  153TCq2    O4 2336   0.653   1.343  12.664 -0.6543 -0.5994  0.4591
  153TCq2    C9 2337   0.353   1.374  13.174  0.8895 -0.2577 -0.4039
  153TCq2    O5 2338   0.450   1.357  13.252  0.4402  0.4102 -0.0180
  153TCq2    O6 2339   0.238   1.417  13.211  0.0292  0.0413 -0.0949
  153TCq2    H2 2340   0.169   1.412  12.996 -1.0668 -1.1468 -0.4832
  153TCq2    H3 2341   0.577   1.342  13.057 -0.6516  0.1136  1.3508
  153TCq2    H4 2342   0.416   1.390  12.654  1.0946  0.2590 -0.2582
  154MPD2     C 2343   1.462   3.215   0.669  0.0080 -0.1941 -0.1905
  154MPD2    C1 2344   1.572   3.142   0.631  0.2805  0.2815 -0.2481
  154MPD2    C2 2345   1.656   3.099   0.727  0.0838 -0.8572  0.2176
  154MPD2    C3 2346   1.633   3.132   0.862 -0.1881 -0.5471 -0.0760
  154MPD2    C4 2347   1.521   3.202   0.897  0.7263  0.2098 -0.1733
  154MPD2    C5 2348   1.427   3.229   0.798  0.5389  0.7047 -0.5793
  154MPD2     H 2349   1.748   3.046   0.705  2.1292  2.2958  1.0935
  154MPD2    H1 2350   1.490   3.223   0.999 -4.0885  2.4343 -2.0715
  154MPD2    H2 2351   1.388   3.228   0.591  0.3093 -0.3540 -0.5054
  154MPD2    H3 2352   1.331   3.274   0.824  0.6972  2.1379 -2.4908
  154MPD2     N 2353   1.725   3.074   0.951  0.2531 -0.2479 -0.3711
  154MPD2    H5 2354   1.798   3.011   0.919  0.4438 -1.2188  1.9479
  154MPD2    N1 2355   1.590   3.123   0.493  0.0109  0.1733  0.5714
  154MPD2    H7 2356   1.515   3.161   0.437  0.8568 -0.7584 -1.2022
  155TCq2    C1 2357   1.690   3.049   0.438 -0.2097 -0.0280  0.0412
  155TCq2    O2 2358   1.784   2.986   0.484  0.1621  0.0006 -0.1961
  155TCq2    C2 2359   1.692   3.061   0.294  0.3049  0.2337  0.0680
  155TCq2    C3 2360   1.616   3.156   0.229 -0.4230 -0.0027  0.0616
  155TCq2    C4 2361   1.573   3.125   0.107  0.5262  0.1459  0.5576
  155TCq2    C5 2362   1.618   3.017   0.040  0.1918 -0.7902  0.1568
  155TCq2    C6 2363   1.712   2.936   0.101 -0.0997  0.2844  0.8223
  155TCq2    C7 2364   1.745   2.957   0.231  0.1051 -0.0010  0.4492
  155TCq2    C8 2365   1.757   2.816   0.026  0.2078  0.5618 -0.1872
  155TCq2    O4 2366   1.779   2.829  17.595 -0.5502  0.1518  0.4827
  155TCq2    C9 2367   1.491   3.225   0.036  0.3275  0.2765  0.0273
  155TCq2    O5 2368   1.405   3.289   0.111  0.0428  0.7063 -0.2208
  155TCq2    O6 2369   1.495   3.226  17.599  0.5347 -0.4824 -0.2750
  155TCq2    H2 2370   1.583   3.243   0.284 -1.0882  0.7729 -1.5660
  155TCq2    H3 2371   1.564   2.994  17.636 -0.2936  0.1757  0.2009
  155TCq2    H4 2372   1.795   2.882   0.291 -1.0260 -0.6656  0.5659
  156MPD2     C 2373   0.891   3.741  11.832  0.0978  0.0905 -0.2583
  156MPD2    C1 2374   0.799   3.818  11.899 -0.4962 -0.1976  0.4789
  156MPD2    C2 2375   0.844   3.885  12.012 -0.3085  0.1967 -0.4681
  156MPD2    C3 2376   0.976   3.880  12.051  0.7391 -0.5862 -0.1611
  156MPD2    C4 2377   1.071   3.822  11.969 -0.0685 -0.4198  0.6545
  156MPD2    C5 2378   1.026   3.757  11.862 -0.6818 -1.0594  0.7385
  156MPD2     H 2379   0.771   3.936  12.073 -1.4217 -0.7318 -1.0263
  156MPD2    H1 2380   1.178   3.833  11.983  0.1508  0.7889 -1.9834
  156MPD2    H2 2381   0.866   3.679  11.746  1.9065 -0.7465 -0.1786
  156MPD2    H3 2382   1.100   3.700  11.807 -0.2392 -0.7058  0.9677
  156MPD2     N 2383   1.016   3.942  12.172  0.0058 -0.3639  0.0901
  156MPD2    H5 2384   0.948   3.991  12.229  1.1885  0.6855  0.6100
  156MPD2    N1 2385   0.666   3.816  11.847 -0.2953  0.3772  0.7058
  156MPD2    H7 2386   0.653   3.756  11.767  0.8376  0.2126  0.6397
  157TCq2    C1 2387   0.568   3.900  11.883 -0.0803  0.3582  0.3027
  157TCq2    O2 2388   0.580   3.996  11.953  0.1495 -0.2434 -0.3950
  157TCq2    C2 2389   0.447   3.882  11.795 -0.4964 -0.1552 -0.2294
  157TCq2    C3 2390   0.426   3.766  11.716 -0.0936  0.1823 -0.0052
  157TCq2    C4 2391   0.304   3.750  11.659 -0.1106  0.2723  0.0013
  157TCq2    C5 2392   0.207   3.855  11.669  0.0777 -0.5071  0.5152
  157TCq2    C6 2393   0.235   3.968  11.747 -0.0904 -0.2075 -0.0747
  157TCq2    C7 2394   0.353   3.978  11.814  0.4262  0.0558  1.1970
  157TCq2    C8 2395   0.175   4.090  11.706  0.8223 -0.0097 -0.0993
  157TCq2    O4 2396   0.241   4.187  11.738  0.1663  0.0646  0.0808
  157TCq2    C9 2397   0.265   3.631  11.583  0.3005 -0.3899  0.4708
  157TCq2    O5 2398   0.170   3.642  11.501  0.1512  0.4239 -0.4609
  157TCq2    O6 2399   0.336   3.530  11.609  0.1194  0.0055  0.1204
  157TCq2    H2 2400   0.484   3.675  11.721  1.5298  1.2881  1.4285
  157TCq2    H3 2401   0.107   3.842  11.629 -0.4156 -0.5446  1.7825
  157TCq2    H4 2402   0.366   4.058  11.886  1.2354  1.5127 -0.5649
  158TMC2    C1 2403   0.308   2.383  13.250 -0.5043  0.7539 -0.2272
  158TMC2    C2 2404   0.275   2.397  13.118  0.1500 -0.1373 -0.4464
  158TMC2    C3 2405   0.153   2.465  13.095 -0.4850  0.3195  0.3332
  158TMC2    C4 2406   0.215   2.398  13.349  0.6054 -0.0639  0.5468
  158TMC2    C5 2407   0.091   2.452  13.317 -1.0593  0.4451 -0.2477
  158TMC2    C6 2408   0.061   2.474  13.194  0.4501 -0.5518 -0.3615
  158TMC2     C 2409   0.442   2.345  13.283  0.0661 -0.1326 -0.1586
  158TMC2     O 2410   0.527   2.378  13.203 -0.4920 -0.0221  0.0337
  158TMC2     H 2411   0.348   2.375  13.041  1.8492  2.0700  0.5228
  158TMC2    H1 2412   0.248   2.402  13.452 -2.0039 -0.7217  1.4281
  158TMC2    H2 2413   4.688   2.526  13.184  1.6171  1.4240 -1.1928
  158TMC2    C7 2414   0.041   2.550  13.408 -0.7453  0.2688 -0.3632
  158TMC2    C8 2415   0.107   2.478  12.956  0.5951  0.1858  0.1071
  158TMC2    O1 2416   4.717   2.652  13.361  0.7837 -0.0553  0.2738
  158TMC2    O2 2417   4.716   2.508  12.928  0.4616  0.0629 -0.2478
  158TMC2    O5 2418   0.209   2.557  12.914  0.3204  0.8421  0.0288
  158TMC2    H5 2419   0.302   2.549  12.944  0.1161  0.5191  0.5684
  159MPD2     C 2420   0.797   2.264  13.644  0.3492 -0.3344 -0.5323
  159MPD2    C1 2421   0.672   2.247  13.699 -0.0236 -0.4558  0.3075
  159MPD2    C2 2422   0.564   2.261  13.612  0.0789  0.3996 -0.1039
  159MPD2    C3 2423   0.573   2.306  13.481 -0.3159 -0.3023  1.0272
  159MPD2    C4 2424   0.697   2.330  13.438  0.5765 -0.0938 -0.1856
  159MPD2    C5 2425   0.809   2.307  13.517 -0.1946 -0.5994  0.3034
  159MPD2     H 2426   0.461   2.246  13.641 -0.1813  2.2384 -0.0656
  159MPD2    H1 2427   0.707   2.376  13.340  0.4364 -1.6205 -0.9197
  159MPD2    H2 2428   0.887   2.250  13.703  0.8067 -2.1693 -1.6694
  159MPD2    H3 2429   0.911   2.329  13.489 -0.2601  1.5703  1.7397
  159MPD2     N 2430   0.452   2.318  13.412  0.7099  0.0456 -0.3113
  159MPD2    H5 2431   0.368   2.279  13.455  0.7706 -0.7937 -0.9514
  159MPD2    N1 2432   0.656   2.224  13.837  0.6485  0.1695  0.7767
  159MPD2    H7 2433   0.743   2.201  13.883  0.0952 -1.8245  0.8739
  160TMC2    C1 2434   1.560   1.226   1.854 -0.3577 -0.5977 -0.0015
  160TMC2    C2 2435   1.644   1.129   1.891  0.3965 -0.0404  0.5426
  160TMC2    C3 2436   1.594   1.010   1.918  0.1461 -0.5198 -0.1092
  160TMC2    C4 2437   1.427   1.204   1.830  0.5758  0.2732  0.1632
  160TMC2    C5 2438   1.382   1.073   1.839 -0.2965  0.2071  0.1393
  160TMC2    C6 2439   1.464   0.977   1.896  0.0459 -0.2497  0.4631
  160TMC2     C 2440   1.605   1.365   1.881 -0.0877 -0.6181  0.3330
  160TMC2     O 2441   1.696   1.392   1.954  0.5943  0.3644 -0.0569
  160TMC2     H 2442   1.746   1.157   1.915 -0.2456  1.9665  0.8851
  160TMC2    H1 2443   1.357   1.285   1.818  1.2123  1.0257  1.4677
  160TMC2    H2 2444   1.419   0.879   1.899 -1.0197  0.2084 -0.5151
  160TMC2    C7 2445   1.243   1.046   1.815 -0.1749  0.2500  0.7372
  160TMC2    C8 2446   1.680   0.915   1.985 -0.5441 -0.3864  0.2790
  160TMC2    O1 2447   1.199   0.946   1.877 -0.4829  0.1960  0.0544
  160TMC2    O2 2448   1.801   0.919   1.977 -0.1416 -0.7320 -0.6761
  160TMC2    O5 2449   1.607   0.833   2.069  0.0204  0.3721 -0.1876
  160TMC2    H5 2450   1.511   0.846   2.085 -0.6139 -1.1714 -2.7789
  161MPD2     C 2451   1.640   1.660   1.849 -0.7900  0.7425  0.4487
  161MPD2    C1 2452   1.535   1.587   1.812 -0.2113 -1.4995  0.4384
  161MPD2    C2 2453   1.436   1.652   1.746 -0.2439  0.2069 -1.2030
  161MPD2    C3 2454   1.426   1.788   1.730  0.0741 -0.5859  0.1356
  161MPD2    C4 2455   1.536   1.860   1.772  0.2595 -0.0716  0.3785
  161MPD2    C5 2456   1.636   1.796   1.834 -0.3316  0.9550 -0.1620
  161MPD2     H 2457   1.365   1.591   1.692  1.2539 -2.4320 -0.1676
  161MPD2    H1 2458   1.541   1.969   1.769  0.0293 -0.0247  1.5036
  161MPD2    H2 2459   1.736   1.631   1.890  0.0848  1.8873 -0.7909
  161MPD2    H3 2460   1.726   1.844   1.871 -0.0881 -1.2221  2.0259
  161MPD2     N 2461   1.319   1.851   1.666  0.0589  0.2650  0.5484
  161MPD2    H5 2462   1.325   1.949   1.638 -0.4614  0.4544  1.0947
  161MPD2    N1 2463   1.523   1.449   1.814 -0.0066 -0.5294  0.4779
  161MPD2    H7 2464   1.449   1.401   1.762  0.8096 -0.8194 -0.4279
  162TMC2    C1 2465   3.950   2.402   1.355 -0.4613  0.2449 -0.2738
  162TMC2    C2 2466   4.038   2.313   1.410 -0.2010  0.3103  0.1163
  162TMC2    C3 2467   4.076   2.333   1.541  0.0654  0.4161  0.0214
  162TMC2    C4 2468   3.906   2.506   1.424 -0.6841  0.6773  0.3783
  162TMC2    C5 2469   3.945   2.526   1.553  0.1334  0.2502  0.1397
  162TMC2    C6 2470   4.040   2.449   1.610 -0.3606  0.2175  0.3810
  162TMC2     C 2471   3.896   2.368   1.224  0.4815 -0.5611 -0.5700
  162TMC2     O 2472   3.957   2.284   1.165 -0.7154  0.4553  0.1228
  162TMC2     H 2473   4.065   2.218   1.367 -1.8482  0.3623 -1.0228
  162TMC2    H1 2474   3.844   2.584   1.381 -1.0830 -0.6606 -1.4645
  162TMC2    H2 2475   4.079   2.465   1.709 -1.0517 -3.1012  1.1980
  162TMC2    C7 2476   3.877   2.629   1.633 -0.5953 -0.4413 -0.4837
  162TMC2    C8 2477   4.165   2.227   1.598 -0.2687 -0.4534 -0.1502
  162TMC2    O1 2478   3.778   2.678   1.580  0.3987 -0.4414  0.1975
  162TMC2    O2 2479   4.271   2.190   1.549  0.6390  0.2257  0.2204
  162TMC2    O5 2480   4.134   2.211   1.732  0.2690  0.1221 -0.3364
  162TMC2    H5 2481   4.044   2.246   1.749 -0.2216 -0.9322 -0.7652
  163MPD2     C 2482   3.617   2.460   0.815 -0.5352  0.1018 -0.1560
  163MPD2    C1 2483   3.750   2.432   0.829  0.5850  0.3647  0.6931
  163MPD2    C2 2484   3.796   2.420   0.958 -0.1039  1.4476 -0.6119
  163MPD2    C3 2485   3.718   2.449   1.069 -0.3956  0.6978  0.1216
  163MPD2    C4 2486   3.581   2.466   1.048  0.0097 -0.1204  0.4303
  163MPD2    C5 2487   3.530   2.471   0.919  0.6393  0.0032  0.0385
  163MPD2     H 2488   3.904   2.426   0.967 -0.1751  0.3559  0.9165
  163MPD2    H1 2489   3.515   2.477   1.134 -0.3078  0.4154  0.1209
  163MPD2    H2 2490   3.580   2.471   0.714 -0.5494  0.4989 -0.1072
  163MPD2    H3 2491   3.426   2.497   0.901  0.6708 -0.0890 -0.2751
  163MPD2     N 2492   3.782   2.440   1.198 -0.2455 -0.3514 -0.8194
  163MPD2    H5 2493   3.742   2.489   1.278  1.4387  0.0380 -0.2355
  163MPD2    N1 2494   3.832   2.426   0.717 -0.2175  0.0797  0.3569
  163MPD2    H7 2495   3.780   2.435   0.631  1.7271  1.5811 -0.6501
  164TCq2    C1 2496   3.859   2.270  11.518 -0.1785  0.1959  0.1842
  164TCq2    O2 2497   3.820   2.245  11.632 -0.6324 -0.1541 -0.4047
  164TCq2    C2 2498   3.894   2.408  11.503 -0.1493  0.4072  0.6507
  164TCq2    C3 2499   3.953   2.442  11.386  0.2878 -0.0537  0.7712
  164TCq2    C4 2500   3.940   2.572  11.347  0.5183 -0.0899  0.1326
  164TCq2    C5 2501   3.870   2.662  11.414 -0.2651  0.0892 -0.6294
  164TCq2    C6 2502   3.824   2.626  11.536  0.1527 -0.1821 -0.2375
  164TCq2    C7 2503   3.834   2.493  11.582 -0.4831 -0.7261 -0.0848
  164TCq2    C8 2504   3.736   2.709  11.615 -0.5616 -0.2427 -0.1527
  164TCq2    O4 2505   3.755   2.714  11.733 -0.1539 -0.0435 -0.4572
  164TCq2    C9 2506   4.024   2.604  11.229  0.2095 -0.0413 -0.3146
  164TCq2    O5 2507   4.062   2.515  11.146 -0.4406 -0.3789 -0.2825
  164TCq2    O6 2508   4.047   2.726  11.209 -0.2279 -0.3312 -0.3222
  164TCq2    H2 2509   4.016   2.373  11.331 -0.7915 -0.4820  0.0661
  164TCq2    H3 2510   3.872   2.768  11.389  1.1905  0.6811  2.0482
  164TCq2    H4 2511   3.788   2.466  11.677 -1.5795  0.3074 -0.3265
  165MPD2     C 2512   4.270   0.142   0.726  0.9086  0.0831 -0.0249
  165MPD2    C1 2513   4.348   0.099   0.837  0.1621 -0.2036 -0.1203
  165MPD2    C2 2514   4.448   0.181   0.879 -0.3607  0.1283  0.1083
  165MPD2    C3 2515   4.462   0.309   0.841  0.3010 -0.2301  0.4527
  165MPD2    C4 2516   4.384   0.349   0.738  0.4415  0.3428 -0.2023
  165MPD2    C5 2517   4.287   0.266   0.674  0.0794 -0.7174 -0.4345
  165MPD2     H 2518   4.521   0.148   0.952  0.3288  1.4790  0.0339
  165MPD2    H1 2519   4.390   0.454   0.712 -0.1588  0.1094 -1.2748
  165MPD2    H2 2520   4.199   0.076   0.678 -0.4174  0.5405  1.3077
  165MPD2    H3 2521   4.229   0.294   0.587  0.8953 -0.8224 -1.0083
  165MPD2     N 2522   4.547   0.400   0.897 -0.0756 -0.0067  0.2495
  165MPD2    H5 2523   4.547   0.496   0.867 -0.8184  0.1309  0.6820
  165MPD2    N1 2524   4.335   4.689   0.873  0.1915 -0.6236 -0.0363
  165MPD2    H7 2525   4.272   4.631   0.819  0.6814 -1.3248  0.1384
  166TCq2    C1 2526   4.640   0.371   0.996  0.8757 -1.3699 -0.6495
  166TCq2    O2 2527   4.685   0.262   1.030 -0.3245 -0.2399  0.5214
  166TCq2    C2 2528   4.698   0.494   1.064  0.3785  0.6017  0.6374
  166TCq2    C3 2529   4.624   0.609   1.057 -0.8195 -0.6542  0.1542
  166TCq2    C4 2530   4.643   0.713   1.143 -0.2215  0.4413  0.7081
  166TCq2    C5 2531   0.013   0.696   1.245 -0.0078 -0.5715 -0.1623
  166TCq2    C6 2532   0.087   0.584   1.250  0.3230  0.1752 -0.1795
  166TCq2    C7 2533   0.070   0.485   1.158  0.3748 -0.2198 -0.1883
  166TCq2    C8 2534   0.194   0.575   1.350 -0.1496 -0.4976 -0.2971
  166TCq2    O4 2535   0.278   0.487   1.337 -0.1532 -0.5422 -0.2259
  166TCq2    C9 2536   4.559   0.831   1.134 -0.6708  0.1792 -0.9056
  166TCq2    O5 2537   4.594   0.938   1.192 -0.5898 -0.4713  0.2009
  166TCq2    O6 2538   4.448   0.808   1.076  0.4069 -1.0716 -0.4251
  166TCq2    H2 2539   4.545   0.626   0.985 -1.3204  0.1173  0.8791
  166TCq2    H3 2540   0.017   0.785   1.307 -0.1906  0.5410 -1.7469
  166TCq2    H4 2541   0.138   0.401   1.167 -0.2052 -0.8272 -1.5488
  167TMC2    C1 2542   2.692   2.483  12.892  0.1356 -0.3584  0.0687
  167TMC2    C2 2543   2.613   2.524  12.996  0.0098 -0.6757 -0.1188
  167TMC2    C3 2544   2.611   2.452  13.109  0.3457  0.8479  0.5968
  167TMC2    C4 2545   2.769   2.373  12.908  0.0621  0.0818  0.0855
  167TMC2    C5 2546   2.783   2.321  13.033 -0.1519 -0.1815  0.6220
  167TMC2    C6 2547   2.690   2.342  13.131  0.5858  0.4687 -0.6692
  167TMC2     C 2548   2.655   2.546  12.767  0.6895  0.2149 -0.1119
  167TMC2     O 2549   2.634   2.665  12.761 -0.6681  0.6764  0.1352
  167TMC2     H 2550   2.540   2.604  13.000  1.1040  0.2310  1.9665
  167TMC2    H1 2551   2.835   2.351  12.824  0.5772  1.0343  0.2368
  167TMC2    H2 2552   2.700   2.307  13.233 -0.0496  1.6441 -0.1963
  167TMC2    C7 2553   2.874   2.213  13.064  0.4902  0.1155 -0.1751
  167TMC2    C8 2554   2.537   2.506  13.220  0.2317  0.0536  1.0501
  167TMC2    O1 2555   2.841   2.139  13.157 -0.2300 -0.3686 -0.6222
  167TMC2    O2 2556   2.477   2.437  13.299  0.1662 -0.6112 -0.2090
  167TMC2    O5 2557   2.520   2.643  13.216 -0.1847  0.2834 -0.2713
  167TMC2    H5 2558   2.590   2.674  13.155  0.6685 -0.9254  0.0885
  168MPD2     C 2559   2.703   2.631  12.475  0.1051  0.6017  0.0916
  168MPD2    C1 2560   2.718   2.503  12.527 -0.3334 -0.2754  0.3403
  168MPD2    C2 2561   2.759   2.411  12.440  0.0489  0.1588 -0.5734
  168MPD2    C3 2562   2.817   2.440  12.316 -0.2866 -0.1631  0.0903
  168MPD2    C4 2563   2.816   2.570  12.275  0.2252 -0.1775 -0.2753
  168MPD2    C5 2564   2.750   2.664  12.353 -1.2592  0.4444 -0.0793
  168MPD2     H 2565   2.782   2.316  12.487 -0.9448  0.2603  0.1291
  168MPD2    H1 2566   2.847   2.594  12.174  2.5249 -1.5454  0.1061
  168MPD2    H2 2567   2.657   2.709  12.536  1.5925  0.6189  1.2070
  168MPD2    H3 2568   2.731   2.756  12.299  0.1743  1.3305  0.9212
  168MPD2     N 2569   2.885   2.338  12.252  0.4377  0.1838 -0.7676
  168MPD2    H5 2570   2.874   2.246  12.293  0.6530  0.7489  0.5777
  168MPD2    N1 2571   2.694   2.468  12.664 -0.7894  0.5827 -0.2699
  168MPD2    H7 2572   2.714   2.371  12.682  1.9566  1.5187  1.6840
  169MPD1     C 2573   1.189   0.776  10.021 -0.4093 -0.0947  0.0471
  169MPD1    C1 2574   1.142   0.753   9.896 -0.7723  0.1356  0.5925
  169MPD1    C2 2575   1.117   0.860   9.815 -0.3798  0.5343 -0.3698
  169MPD1    C3 2576   1.128   0.988   9.861  0.1291  0.6512  0.7537
  169MPD1    C4 2577   1.176   1.011   9.986  0.2381  0.0747 -0.0767
  169MPD1    C5 2578   1.204   0.901  10.063  0.9742 -0.6470 -0.1841
  169MPD1     H 2579   1.094   0.842   9.711 -0.9549 -0.7134 -0.0387
  169MPD1    H1 2580   1.184   1.106  10.037 -0.1948 -0.2922  0.6776
  169MPD1    H2 2581   1.198   0.700  10.098  0.6825 -0.4310 -0.4073
  169MPD1    H3 2582   1.233   0.928  10.164 -1.0796  0.0562  0.2258
  169MPD1     N 2583   1.084   1.089   9.778 -0.5488 -0.0656 -0.2972
  169MPD1    H5 2584   1.055   1.062   9.684 -4.1006  0.1162  0.7423
  169MPD1    N1 2585   1.131   0.618   9.852  0.1627  0.0001 -0.2158
  169MPD1    H6 2586   1.150   0.554   9.928  2.2517 -1.5787 -2.0743
  169MPD1    H7 2587   1.048   0.594   9.799  0.5226 -3.0594  0.6123
  170MPD1     C 2588   3.325   4.693  12.973  0.1739  0.6316 -0.4447
  170MPD1    C1 2589   3.356   0.060  13.069  0.0269 -0.4022 -0.8766
  170MPD1    C2 2590   3.458   0.034  13.154  0.3318 -0.0184 -0.0443
  170MPD1    C3 2591   3.534   4.640  13.149 -0.1196 -0.4650  0.0983
  170MPD1    C4 2592   3.487   4.539  13.070 -0.0357  0.0379 -0.5059
  170MPD1    C5 2593   3.391   4.576  12.976 -0.3033  0.4818 -0.4242
  170MPD1     H 2594   3.496   0.113  13.218  1.3615 -1.1122  0.7035
  170MPD1    H1 2595   3.542   4.446  13.078 -1.3219 -0.8262 -1.6618
  170MPD1    H2 2596   3.253   4.715  12.895 -1.9195 -0.0909  1.2946
  170MPD1    H3 2597   3.356   4.499  12.908 -1.8465  0.1301  0.7718
  170MPD1     N 2598   3.637   4.626  13.243 -0.1027  0.1765 -0.2600
  170MPD1    H5 2599   3.657   4.706  13.303  2.0903 -1.2914  0.9784
  170MPD1    N1 2600   3.307   0.191  13.063  0.5642  0.1259 -0.6444
  170MPD1    H6 2601   3.312   0.229  13.158  1.7779  1.9244 -1.4248
  170MPD1    H7 2602   3.212   0.202  13.030  0.2076  0.7604  0.5812
  171MPD1     C 2603   2.565   1.109  15.319  0.6115 -0.0777 -0.0591
  171MPD1    C1 2604   2.651   1.139  15.418  0.1128 -0.0065  0.1818
  171MPD1    C2 2605   2.698   1.036  15.491 -0.0453 -0.1101 -0.0949
  171MPD1    C3 2606   2.667   0.910  15.460 -0.2594  0.1298  0.5891
  171MPD1    C4 2607   2.565   0.887  15.369  0.0604 -0.8044  0.2107
  171MPD1    C5 2608   2.522   0.987  15.294 -0.2530 -0.3057  0.4096
  171MPD1     H 2609   2.772   1.069  15.563 -0.2917  0.6964 -0.2100
  171MPD1    H1 2610   2.533   0.786  15.348  1.0706 -0.5404 -2.6531
  171MPD1    H2 2611   2.512   1.189  15.268 -0.8658 -0.2420  1.2203
  171MPD1    H3 2612   2.438   0.977  15.225  0.8304 -1.4057 -0.7438
  171MPD1     N 2613   2.719   0.799  15.534  1.0865  0.2304  0.5298
  171MPD1    H5 2614   2.675   0.708  15.525 -1.0617  1.1846  1.2850
  171MPD1    N1 2615   2.673   1.271  15.461  1.0755 -0.2055  0.3584
  171MPD1    H6 2616   2.763   1.276  15.509  1.0726  0.4933  0.2891
  171MPD1    H7 2617   2.674   1.337  15.384  3.1933  0.6593  1.1288
  172MPD1     C 2618   1.597   4.686   0.667  0.3145  0.3577  0.1975
  172MPD1    C1 2619   1.695   4.709   0.567  0.0038  0.0250  0.5499
  172MPD1    C2 2620   1.786   0.092   0.582 -0.0144 -0.1828 -0.3948
  172MPD1    C3 2621   1.769   0.191   0.687  0.2632 -0.1614  0.8555
  172MPD1    C4 2622   1.660   0.181   0.768 -0.4156 -0.1682  0.4630
  172MPD1    C5 2623   1.587   0.059   0.765 -0.0371  0.2207 -0.5713
  172MPD1     H 2624   1.869   0.094   0.512  0.3532 -1.8247 -0.0194
  172MPD1    H1 2625   1.648   0.246   0.854 -2.2539 -0.5242  0.4724
  172MPD1    H2 2626   1.527   4.604   0.659  0.5722  0.1526  0.0166
  172MPD1    H3 2627   1.514   0.046   0.844 -0.7755  0.7827 -1.1648
  172MPD1     N 2628   1.865   0.298   0.702 -1.0042 -0.2388 -0.4743
  172MPD1    H5 2629   1.848   0.367   0.774  0.8476 -0.6338  0.3616
  172MPD1    N1 2630   1.711   4.610   0.466 -0.1416  0.5244 -0.6286
  172MPD1    H6 2631   1.723   4.658   0.377 -2.7406 -0.5160 -1.5428
  172MPD1    H7 2632   1.626   4.555   0.456  1.3408 -1.9389  0.2555
  173MPD1     C 2633   3.780   0.409  13.728  0.1677 -0.2303  0.5779
  173MPD1    C1 2634   3.659   0.350  13.699  0.5334  0.3686  0.2551
  173MPD1    C2 2635   3.602   0.276  13.797 -0.6099  1.0803 -0.2569
  173MPD1    C3 2636   3.668   0.259  13.921 -0.8143 -0.2829  0.0317
  173MPD1    C4 2637   3.788   0.326  13.950  0.0578 -0.7849  0.0049
  173MPD1    C5 2638   3.846   0.397  13.845 -0.4341 -1.0479  0.5889
  173MPD1     H 2639   3.506   0.237  13.765 -0.8944  0.4230  1.4175
  173MPD1    H1 2640   3.827   0.309  14.049  3.9795  0.4136 -1.3440
  173MPD1    H2 2641   3.835   0.466  13.654 -0.9158 -0.8847 -0.7262
  173MPD1    H3 2642   3.945   0.441  13.845 -0.6384 -0.6081 -5.4062
  173MPD1     N 2643   3.600   0.176  14.008 -0.2581 -0.0123 -0.3584
  173MPD1    H5 2644   3.509   0.137  13.984 -1.4607  3.2643 -1.0849
  173MPD1    N1 2645   3.599   0.375  13.579 -0.2912 -0.4046 -0.0053
  173MPD1    H6 2646   3.498   0.369  13.587 -0.4364 -0.6724 -2.0410
  173MPD1    H7 2647   3.642   0.461  13.547 -0.2784 -0.7403 -0.8910
  174MPD1     C 2648   3.376   4.048  14.657  0.7602  0.1719 -0.1082
  174MPD1    C1 2649   3.441   4.066  14.536  0.1963  0.2362 -0.5098
  174MPD1    C2 2650   3.459   4.203  14.494  0.3849  0.1748  0.4467
  174MPD1    C3 2651   3.412   4.308  14.567  0.6779 -0.7081  0.0521
  174MPD1    C4 2652   3.345   4.289  14.676  0.3138 -0.0765  0.6614
  174MPD1    C5 2653   3.324   4.156  14.728 -0.2634 -0.2606 -0.1329
  174MPD1     H 2654   3.519   4.223  14.406 -0.0095  0.3571  0.2174
  174MPD1    H1 2655   3.302   4.374  14.728  0.0334  0.0391  0.2352
  174MPD1    H2 2656   3.350   3.955  14.706 -0.8523 -0.1643 -1.5899
  174MPD1    H3 2657   3.266   4.151  14.819  0.8242 -2.0380  0.4507
  174MPD1     N 2658   3.427   4.443  14.519  0.1536  0.4017  0.9251
  174MPD1    H5 2659   3.375   4.515  14.567 -1.2840 -1.6685  2.4659
  174MPD1    N1 2660   3.500   3.955  14.472 -0.2561  0.0197 -0.2353
  174MPD1    H6 2661   3.465   3.863  14.498  0.8693 -0.4214 -0.2736
  174MPD1    H7 2662   3.493   3.954  14.370  1.4293 -0.5025 -0.3516
  175MPD1     C 2663   2.240   0.860  15.611 -0.6317  0.6526  0.5225
  175MPD1    C1 2664   2.108   0.878  15.611 -0.3500  0.1309 -0.3445
  175MPD1    C2 2665   2.025   0.823  15.714 -0.3166 -0.7345 -0.1944
  175MPD1    C3 2666   2.082   0.735  15.801  0.3563 -0.8252 -0.1836
  175MPD1    C4 2667   2.225   0.709  15.788 -0.2165 -0.5195  0.0191
  175MPD1    C5 2668   2.299   0.772  15.698  0.1265  0.2413  0.5444
  175MPD1     H 2669   1.918   0.843  15.720  0.0723  0.6901  2.1238
  175MPD1    H1 2670   2.266   0.633  15.854  1.3727 -0.0727 -0.4482
  175MPD1    H2 2671   2.300   0.919  15.544  1.1602 -0.1503  1.4202
  175MPD1    H3 2672   2.406   0.755  15.690 -0.0457 -0.6541  0.1200
  175MPD1     N 2673   2.011   0.663  15.898 -0.4906  0.0914 -1.0599
  175MPD1    H5 2674   2.064   0.608  15.964 -0.7831  1.6063  0.4374
  175MPD1    N1 2675   2.053   0.971  15.518 -0.1413 -0.6027 -0.3688
  175MPD1    H6 2676   1.955   0.954  15.498 -0.1785  0.6722 -1.2881
  175MPD1    H7 2677   2.102   0.987  15.430 -0.6449  0.0489 -0.5292
  176MPD1     C 2678   3.833   3.480   0.632  0.5855  0.6787 -0.8199
  176MPD1    C1 2679   3.778   3.430   0.523 -0.2710 -0.9621 -0.1542
  176MPD1    C2 2680   3.748   3.522   0.421 -0.4449  0.1370  0.9236
  176MPD1    C3 2681   3.796   3.655   0.419  0.3376  0.1106 -0.4016
  176MPD1    C4 2682   3.858   3.697   0.535  1.1457 -0.5942  0.9418
  176MPD1    C5 2683   3.877   3.609   0.638 -0.7028  0.6019 -0.0487
  176MPD1     H 2684   3.681   3.482   0.346  0.9710  0.7856 -0.6913
  176MPD1    H1 2685   3.896   3.794   0.563 -1.0605  0.5060  0.1353
  176MPD1    H2 2686   3.854   3.426   0.724 -0.0271 -0.1259 -1.1512
  176MPD1    H3 2687   3.925   3.641   0.730 -0.3389  3.1906 -1.1255
  176MPD1     N 2688   3.773   3.739   0.312  0.0216  0.8687  0.1050
  176MPD1    H5 2689   3.700   3.707   0.249 -1.1616  0.3485  1.7096
  176MPD1    N1 2690   3.703   3.311   0.539  0.5846  0.0424 -0.1916
  176MPD1    H6 2691   3.684   3.275   0.445  1.9103 -1.0701 -0.0308
  176MPD1    H7 2692   3.756   3.242   0.591 -0.0032  0.6492  1.2160
  177MPD1     C 2693   1.815   3.200  10.082 -0.1046  0.4727 -0.1150
  177MPD1    C1 2694   1.815   3.106   9.984  0.0530  0.3490 -0.4141
  177MPD1    C2 2695   1.700   3.098   9.902 -0.4803  0.5240  0.1592
  177MPD1    C3 2696   1.604   3.191   9.904  0.3604 -0.3305 -0.3837
  177MPD1    C4 2697   1.608   3.294  10.003  0.0417 -0.2219  0.0783
  177MPD1    C5 2698   1.713   3.288  10.094 -0.4156 -0.3517 -0.3025
  177MPD1     H 2699   1.676   3.003   9.856 -1.7297  1.7815 -1.7725
  177MPD1    H1 2700   1.531   3.369  10.013  0.1586 -0.2163  0.9304
  177MPD1    H2 2701   1.891   3.209  10.159  1.5058 -0.6112 -1.5973
  177MPD1    H3 2702   1.704   3.364  10.171  1.2150 -1.4928  1.0013
  177MPD1     N 2703   1.496   3.173   9.812 -0.7872  0.3322  0.2181
  177MPD1    H5 2704   1.510   3.101   9.742  0.1145  1.0003 -0.2804
  177MPD1    N1 2705   1.899   3.004   9.983  0.8710 -0.5782 -0.1019
  177MPD1    H6 2706   1.910   2.965   9.890 -0.2049 -2.4357  0.5447
  177MPD1    H7 2707   1.993   3.026  10.012  1.2582 -0.2438 -1.6214
  178MPD1     C 2708   0.016   3.566   0.510 -0.3127 -0.8911 -0.0060
  178MPD1    C1 2709   4.696   3.458   0.424  0.4146  0.1356  0.0020
  178MPD1    C2 2710   4.671   3.492   0.294  0.4705  0.5517 -0.1176
  178MPD1    C3 2711   4.677   3.620   0.241  0.3159  0.3905  0.3248
  178MPD1    C4 2712   4.713   3.716   0.331 -0.0079 -0.3710  0.8097
  178MPD1    C5 2713   0.031   3.691   0.460  0.0073 -0.0225 -0.5190
  178MPD1     H 2714   4.637   3.427   0.214 -2.1970  0.4178  1.1357
  178MPD1    H1 2715   4.705   3.821   0.306  1.5306 -0.7450 -1.2249
  178MPD1    H2 2716   0.051   3.547   0.611 -0.4632 -1.7422 -0.1114
  178MPD1    H3 2717   0.068   3.767   0.528 -0.7417  1.1107 -1.3780
  178MPD1     N 2718   4.651   3.654   0.103  0.0897 -0.0200 -0.0408
  178MPD1    H5 2719   4.685   3.745   0.074 -1.4040  0.1447 -1.3004
  178MPD1    N1 2720   4.712   3.327   0.456  0.1637 -0.0124  0.1033
  178MPD1    H6 2721   4.633   3.274   0.418  0.7356 -1.8123  1.3981
  178MPD1    H7 2722   4.690   3.318   0.555  0.9564 -0.9579  0.1919
  179MPD1     C 2723   3.515   2.378  15.634  0.6994 -0.6731 -0.4298
  179MPD1    C1 2724   3.566   2.296  15.537  0.3414 -0.6924  0.0602
  179MPD1    C2 2725   3.549   2.161  15.548 -0.4905  0.0766  0.3019
  179MPD1    C3 2726   3.498   2.105  15.666 -0.3231 -0.2993 -0.1439
  179MPD1    C4 2727   3.438   2.191  15.757 -0.0073 -0.3726  0.8376
  179MPD1    C5 2728   3.455   2.323  15.743  0.1451 -0.4920 -0.0538
  179MPD1     H 2729   3.587   2.095  15.470 -1.9186  0.3500 -0.6172
  179MPD1    H1 2730   3.382   2.157  15.843 -1.2077  3.1785  1.4726
  179MPD1    H2 2731   3.514   2.486  15.623 -0.3439 -0.7894 -1.5444
  179MPD1    H3 2732   3.410   2.387  15.819 -0.0236 -1.1518  0.4005
  179MPD1     N 2733   3.486   1.969  15.701  0.5714  0.5175  0.5486
  179MPD1    H5 2734   3.433   1.942  15.783 -1.0951 -3.3739 -1.8059
  179MPD1    N1 2735   3.617   2.350  15.420 -0.8170 -0.3468 -0.0126
  179MPD1    H6 2736   3.656   2.444  15.423 -4.3196  1.1395 -0.2933
  179MPD1    H7 2737   3.673   2.283  15.367 -0.8920  1.3207 -2.2153
  180MPD1     C 2738   2.971   3.914  14.268 -0.9386  0.0855 -0.0674
  180MPD1    C1 2739   2.927   3.790  14.238  0.0523 -0.0533  0.5042
  180MPD1    C2 2740   3.017   3.686  14.256  0.3859  0.5223  0.1236
  180MPD1    C3 2741   3.142   3.711  14.313  0.5369  0.8552  0.0003
  180MPD1    C4 2742   3.186   3.843  14.342  0.0288  0.0920 -0.1433
  180MPD1    C5 2743   3.101   3.943  14.310  0.5692  0.4167 -0.0312
  180MPD1     H 2744   2.987   3.585  14.231 -0.8336  0.4922  1.6573
  180MPD1    H1 2745   3.276   3.872  14.394 -0.2817 -0.6527  0.8246
  180MPD1    H2 2746   2.918   4.008  14.261  1.5506  1.5271  0.7460
  180MPD1    H3 2747   3.124   4.047  14.332 -0.0447  0.1799  1.7839
  180MPD1     N 2748   3.221   3.597  14.344  0.5738 -0.3269  0.1357
  180MPD1    H5 2749   3.187   3.508  14.312 -1.9738  1.0123 -0.8781
  180MPD1    N1 2750   2.800   3.768  14.175 -0.5535 -0.0079  0.2250
  180MPD1    H6 2751   2.721   3.825  14.204 -1.4690 -0.8318 -0.6159
  180MPD1    H7 2752   2.766   3.671  14.173  1.5552 -0.7309 -0.4596
  181MPD1     C 2753   0.073   4.202   9.322  0.1874 -0.0064  0.1172
  181MPD1    C1 2754   0.070   4.337   9.291  0.1372  0.3447 -0.0277
  181MPD1    C2 2755   0.075   4.429   9.396  0.0011  0.4108  0.3701
  181MPD1    C3 2756   0.078   4.386   9.529 -0.7674  0.2632  0.9858
  181MPD1    C4 2757   0.089   4.248   9.550 -0.3120  0.2269 -0.4293
  181MPD1    C5 2758   0.073   4.159   9.449 -0.0686 -0.6133 -0.2733
  181MPD1     H 2759   0.062   4.534   9.372 -0.8609  0.2845  0.2854
  181MPD1    H1 2760   0.104   4.201   9.646  0.5748  2.8626  0.7393
  181MPD1    H2 2761   0.079   4.133   9.238 -1.5593  1.0325 -0.8703
  181MPD1    H3 2762   0.084   4.055   9.477  3.2795 -0.1861 -0.0245
  181MPD1     N 2763   0.073   4.476   9.640  0.2480  0.1564 -0.0853
  181MPD1    H5 2764   0.080   4.444   9.736  0.1937  1.2345  0.2878
  181MPD1    N1 2765   0.089   4.377   9.158  0.0471  0.2887  0.1395
  181MPD1    H6 2766   0.189   4.374   9.139 -0.3436 -0.0715 -1.8302
  181MPD1    H7 2767   0.066   4.476   9.153 -0.9048  0.0153 -1.0105
  182MPD1     C 2768   2.164   4.030   1.335 -0.3891  0.2580 -0.2175
  182MPD1    C1 2769   2.132   3.941   1.236  0.3822 -0.1948 -0.1032
  182MPD1    C2 2770   2.003   3.890   1.244  0.4793 -0.0719 -0.4596
  182MPD1    C3 2771   1.903   3.934   1.333 -0.5558  0.0710 -0.1924
  182MPD1    C4 2772   1.938   4.015   1.442 -0.2490  0.2489  0.7317
  182MPD1    C5 2773   2.069   4.069   1.432  0.1184  0.8323 -0.5471
  182MPD1     H 2774   1.981   3.812   1.171  2.0856 -1.4015  0.4696
  182MPD1    H1 2775   1.868   4.057   1.513 -2.0993 -1.6848  0.0031
  182MPD1    H2 2776   2.261   4.078   1.341 -0.8369  1.0359  0.8347
  182MPD1    H3 2777   2.102   4.134   1.512 -0.2902  1.1708 -0.6557
  182MPD1     N 2778   1.777   3.888   1.327 -0.2611 -0.8050 -0.2166
  182MPD1    H5 2779   1.716   3.929   1.397  1.5992  3.1429 -0.9040
  182MPD1    N1 2780   2.222   3.901   1.136  0.1295  0.1356 -0.3627
  182MPD1    H6 2781   2.319   3.921   1.160 -0.0614 -1.0501  1.3403
  182MPD1    H7 2782   2.219   3.802   1.116  0.2340 -0.7681  4.2797
  183MPD1     C 2783   0.686   3.599   8.828  0.3140 -0.1144 -0.1516
  183MPD1    C1 2784   0.590   3.699   8.856  0.5519  0.0938 -0.6041
  183MPD1    C2 2785   0.632   3.811   8.923  0.4010 -0.4715 -1.0478
  183MPD1    C3 2786   0.764   3.834   8.963 -0.2810  0.7262  0.3381
  183MPD1    C4 2787   0.857   3.749   8.915 -0.1316 -0.6683 -0.7405
  183MPD1    C5 2788   0.817   3.635   8.850 -0.0783  0.5887 -0.1205
  183MPD1     H 2789   0.551   3.880   8.945 -0.5598 -1.3808 -1.7128
  183MPD1    H1 2790   0.959   3.782   8.897  0.3569 -0.5026  2.2132
  183MPD1    H2 2791   0.656   3.506   8.780 -2.1211 -0.6479  2.4263
  183MPD1    H3 2792   0.891   3.560   8.822 -2.2357 -1.3675 -0.5795
  183MPD1     N 2793   0.792   3.953   9.033 -0.1225 -0.1216  0.0997
  183MPD1    H5 2794   0.715   4.019   9.037  0.3590  0.5289 -1.3139
  183MPD1    N1 2795   0.459   3.675   8.809  0.0531  0.0164  0.2328
  183MPD1    H6 2796   0.435   3.577   8.800  0.2682 -0.1643  1.6847
  183MPD1    H7 2797   0.385   3.717   8.863  2.0652  0.5990  2.5302
  184MPD1     C 2798   0.419   1.717   9.992  0.4438 -0.1407 -0.8342
  184MPD1    C1 2799   0.417   1.786   9.879  0.2634  0.1511 -0.4545
  184MPD1    C2 2800   0.471   1.917   9.876  0.3354 -0.1585  0.6144
  184MPD1    C3 2801   0.547   1.969   9.980 -0.2258 -0.5105  0.0417
  184MPD1    C4 2802   0.567   1.888  10.088 -0.2614 -0.1913 -0.1423
  184MPD1    C5 2803   0.501   1.767  10.091  0.2217  1.1792 -0.2444
  184MPD1     H 2804   0.451   1.973   9.785  0.8253 -1.7163 -0.4422
  184MPD1    H1 2805   0.622   1.930  10.172 -0.6396 -0.8257  0.4235
  184MPD1    H2 2806   0.372   1.624  10.021 -2.2260  0.7093 -2.4730
  184MPD1    H3 2807   0.527   1.708  10.179 -0.3647  0.5957 -0.4611
  184MPD1     N 2808   0.616   2.091   9.972 -0.7788 -0.4196  0.0617
  184MPD1    H5 2809   0.685   2.111  10.044 -0.5940  1.3143 -0.5867
  184MPD1    N1 2810   0.317   1.743   9.786  0.0387 -0.1173  0.1428
  184MPD1    H6 2811   0.342   1.770   9.691 -1.1756  1.9575  0.4132
  184MPD1    H7 2812   0.314   1.642   9.785 -1.1584 -0.0838 -0.6369
  185MPD1     C 2813   0.873   2.786   9.260  0.1878 -0.2957  0.3588
  185MPD1    C1 2814   0.851   2.834   9.387  0.0953 -0.1676 -0.1948
  185MPD1    C2 2815   0.841   2.739   9.485 -0.0326 -0.1081  0.2831
  185MPD1    C3 2816   0.867   2.601   9.468  0.4738  0.2814 -1.0606
  185MPD1    C4 2817   0.902   2.560   9.339  0.2134  0.4148 -0.8852
  185MPD1    C5 2818   0.903   2.656   9.238  0.4311 -0.6475  0.6067
  185MPD1     H 2819   0.819   2.768   9.587 -1.8761  0.2481 -0.2291
  185MPD1    H1 2820   0.934   2.459   9.320 -1.0827 -0.1749  0.0483
  185MPD1    H2 2821   0.879   2.853   9.175  1.2990 -0.0551  0.6182
  185MPD1    H3 2822   0.924   2.636   9.134 -1.0302 -2.1360  0.6011
  185MPD1     N 2823   0.861   2.505   9.573  0.4674 -0.3856 -0.0956
  185MPD1    H5 2824   0.872   2.409   9.541 -0.7431 -0.7862  0.7145
  185MPD1    N1 2825   0.829   2.966   9.413 -0.2816  0.2316 -0.5364
  185MPD1    H6 2826   0.883   3.024   9.349  0.7083  0.0880  0.1738
  185MPD1    H7 2827   0.732   2.989   9.395 -0.4960 -3.1403 -3.5256
  186MPD1     C 2828   4.048   2.298  15.406 -0.6622  0.1249  0.6587
  186MPD1    C1 2829   4.156   2.215  15.442 -0.4104  0.5713 -0.3368
  186MPD1    C2 2830   4.182   2.214  15.579  1.2496 -1.0822 -0.2835
  186MPD1    C3 2831   4.098   2.261  15.678  0.2087  0.7342  0.2399
  186MPD1    C4 2832   3.989   2.333  15.632 -0.0668  0.1990 -0.2632
  186MPD1    C5 2833   3.969   2.349  15.497 -0.6929  0.5405 -0.3138
  186MPD1     H 2834   4.273   2.165  15.612  1.2418 -1.1075 -0.3005
  186MPD1    H1 2835   3.916   2.379  15.698  1.0828 -0.3741  1.4200
  186MPD1    H2 2836   4.023   2.320  15.303  3.3020 -0.9131 -0.5313
  186MPD1    H3 2837   3.882   2.408  15.469  0.4322  1.0391 -2.7904
  186MPD1     N 2838   4.114   2.251  15.815 -0.0226 -0.5222 -0.0721
  186MPD1    H5 2839   4.060   2.317  15.871 -1.2259 -2.0147  0.5290
  186MPD1    N1 2840   4.245   2.166  15.350 -0.1970 -0.4322 -1.1320
  186MPD1    H6 2841   4.202   2.160  15.258 -1.3329 -0.6396 -0.5868
  186MPD1    H7 2842   4.294   2.081  15.377 -0.0526 -0.2273 -0.7394
  187MPD1     C 2843   4.010   3.933  17.204  0.4507  0.1620 -0.0024
  187MPD1    C1 2844   4.050   4.038  17.283 -0.2895  0.5258 -0.1540
  187MPD1    C2 2845   3.947   4.102  17.349  0.1054  0.0045  0.0446
  187MPD1    C3 2846   3.813   4.064  17.338  0.4925 -0.5577  0.6778
  187MPD1    C4 2847   3.775   3.961  17.246  0.0666  0.2905 -0.2659
  187MPD1    C5 2848   3.878   3.893  17.191  0.4064 -0.5661 -0.4061
  187MPD1     H 2849   3.971   4.191  17.405 -1.6531 -0.0959  0.9535
  187MPD1    H1 2850   3.674   3.922  17.237 -0.5233  1.3170  1.8859
  187MPD1    H2 2851   4.082   3.879  17.145  2.0797  1.0458  1.1722
  187MPD1    H3 2852   3.853   3.810  17.126 -1.5716 -0.7650  0.5885
  187MPD1     N 2853   3.704   4.134  17.392 -0.0800 -0.2966  0.9383
  187MPD1    H5 2854   3.622   4.076  17.401  1.6947 -3.3155 -2.2247
  187MPD1    N1 2855   4.189   4.051  17.322  0.0167 -0.4094  0.7047
  187MPD1    H6 2856   4.259   4.038  17.249 -1.3038 -1.1313 -0.4414
  187MPD1    H7 2857   4.213   4.136  17.373  0.3244  0.5322 -1.0127
  188MPD1     C 2858   2.753   4.205  10.394  0.9552  0.2970  0.4510
  188MPD1    C1 2859   2.744   4.188  10.255 -0.3663 -0.9076  0.8268
  188MPD1    C2 2860   2.841   4.112  10.192  0.5438  0.0862 -0.2527
  188MPD1    C3 2861   2.943   4.061  10.267  0.1594  0.2612  0.6631
  188MPD1    C4 2862   2.955   4.084  10.405  0.1634  0.4485  0.1545
  188MPD1    C5 2863   2.865   4.163  10.461 -0.3471  0.2427 -0.3688
  188MPD1     H 2864   2.836   4.104  10.084 -2.6182  0.6618 -0.1330
  188MPD1    H1 2865   3.051   4.060  10.449  0.2235  1.3775  0.5276
  188MPD1    H2 2866   2.674   4.259  10.445 -0.6560 -1.1645 -0.4756
  188MPD1    H3 2867   2.876   4.195  10.564 -1.4060 -3.3863  0.8552
  188MPD1     N 2868   3.047   3.979  10.213  1.1685 -0.4354  0.2277
  188MPD1    H5 2869   3.098   3.926  10.282  0.7185 -1.0100  0.1138
  188MPD1    N1 2870   2.637   4.244  10.178 -0.4686 -0.0131  0.2285
  188MPD1    H6 2871   2.554   4.229  10.235 -0.9106  1.2133 -0.1009
  188MPD1    H7 2872   2.619   4.193  10.092  1.0712 -0.4767  0.1751
  189MPD1     C 2873   0.294   4.686   1.033 -0.5681 -0.1766 -0.1077
  189MPD1    C1 2874   0.249   0.083   0.982  0.6216  0.1115  0.6200
  189MPD1    C2 2875   0.163   0.073   0.877 -0.5407  0.4382 -0.0232
  189MPD1    C3 2876   0.096   4.678   0.846 -0.3745 -0.1162  0.2070
  189MPD1    C4 2877   0.140   4.563   0.899 -0.0909  0.3035 -0.0754
  189MPD1    C5 2878   0.239   4.567   0.993  0.6858 -0.1440  0.0924
  189MPD1     H 2879   0.126   0.162   0.825 -1.7567  0.2051  0.4344
  189MPD1    H1 2880   0.106   4.467   0.865 -1.2360  0.0295  1.8287
  189MPD1    H2 2881   0.370   4.692   1.110 -1.1505  0.8585  0.3894
  189MPD1    H3 2882   0.283   4.471   1.018 -0.0824  0.6081  4.3282
  189MPD1     N 2883   4.721   4.692   0.742  0.1272 -0.0777  0.2083
  189MPD1    H5 2884   0.007   0.057   0.690  0.5854  0.3979  1.0648
  189MPD1    N1 2885   0.306   0.204   1.021  0.0674 -0.4351 -0.8201
  189MPD1    H6 2886   0.228   0.270   1.021  1.6285  1.4001  2.4955
  189MPD1    H7 2887   0.349   0.197   1.113 -0.3870  0.8859 -0.5137
  190MPD1     C 2888   3.338   3.445  15.648  0.6286  0.4094  0.3142
  190MPD1    C1 2889   3.397   3.459  15.777  0.4477 -0.2343 -0.0414
  190MPD1    C2 2890   3.519   3.404  15.790  0.4608  0.3637  0.6603
  190MPD1    C3 2891   3.595   3.341  15.692  0.0361 -0.8012  0.1094
  190MPD1    C4 2892   3.535   3.322  15.572 -0.7538  0.3665 -0.3434
  190MPD1    C5 2893   3.411   3.383  15.548 -0.3129 -0.0785 -0.0314
  190MPD1     H 2894   3.556   3.405  15.892  1.8495  0.4173  0.1478
  190MPD1    H1 2895   3.591   3.271  15.495 -1.3203 -1.5655  0.5337
  190MPD1    H2 2896   3.245   3.494  15.622  0.1648 -0.5360  0.1930
  190MPD1    H3 2897   3.375   3.379  15.446  0.5885 -1.4563 -0.3026
  190MPD1     N 2898   3.723   3.295  15.725 -0.0192 -1.2865  0.4149
  190MPD1    H5 2899   3.746   3.300  15.824 -1.3562  0.6976  0.6237
  190MPD1    N1 2900   3.323   3.503  15.885 -0.3143  1.0881  0.1245
  190MPD1    H6 2901   3.388   3.512  15.963  0.1416 -3.4309  0.2875
  190MPD1    H7 2902   3.260   3.580  15.864 -0.2136  1.0619 -0.2749
  191MPD1     C 2903   2.863   4.576  13.165  0.1501 -0.4652 -0.1018
  191MPD1    C1 2904   2.747   4.648  13.167 -0.1121 -0.1116  0.4619
  191MPD1    C2 2905   2.763   0.068  13.166  0.1561  0.7760  0.1681
  191MPD1    C3 2906   2.882   0.125  13.127 -0.0568  0.4024  0.7583
  191MPD1    C4 2907   2.990   0.046  13.101  0.5091 -0.1554  0.2410
  191MPD1    C5 2908   2.983   4.629  13.131  0.0819  0.2005 -0.1907
  191MPD1     H 2909   2.677   0.130  13.183 -1.5542 -1.3427 -0.7689
  191MPD1    H1 2910   3.090   0.087  13.086  0.5774 -0.7497 -0.8607
  191MPD1    H2 2911   2.858   4.470  13.183 -1.1630 -0.4202 -0.1849
  191MPD1    H3 2912   3.074   4.572  13.149 -0.0837 -0.5592 -1.7255
  191MPD1     N 2913   2.875   0.262  13.098 -0.1516 -0.3081 -0.0175
  191MPD1    H5 2914   2.786   0.309  13.111 -0.0670  0.2937 -1.6751
  191MPD1    N1 2915   2.624   4.590  13.214 -0.3329 -0.1593 -0.6800
  191MPD1    H6 2916   2.545   4.643  13.176 -0.5330 -1.5418 -2.2071
  191MPD1    H7 2917   2.602   4.493  13.191 -2.0837  0.2650 -0.8210
  192MPD1     C 2918   2.257   0.754  13.438 -0.3842  0.3100  0.0034
  192MPD1    C1 2919   2.362   0.846  13.411 -0.0730 -0.2020 -0.2441
  192MPD1    C2 2920   2.464   0.810  13.326 -0.2868 -0.2507  0.7814
  192MPD1    C3 2921   2.473   0.686  13.274 -0.2724 -0.3024 -0.5448
  192MPD1    C4 2922   2.373   0.593  13.296 -0.2402 -0.3700 -0.3822
  192MPD1    C5 2923   2.267   0.632  13.376  0.2034  0.2453 -0.1196
  192MPD1     H 2924   2.534   0.888  13.295 -0.9500  0.1915  0.3875
  192MPD1    H1 2925   2.373   0.490  13.261  0.6400 -0.8877  1.1813
  192MPD1    H2 2926   2.183   0.764  13.516  1.8398  0.5054  2.0737
  192MPD1    H3 2927   2.185   0.566  13.400 -0.2112  0.4990 -0.8341
  192MPD1     N 2928   2.583   0.629  13.199 -0.1252 -0.0764  0.4009
  192MPD1    H5 2929   2.586   0.528  13.194  0.2712 -0.1866  2.6174
  192MPD1    N1 2930   2.355   0.982  13.453 -0.1650  0.9342 -0.1393
  192MPD1    H6 2931   2.305   1.041  13.386  0.0990  1.4481  0.1212
  192MPD1    H7 2932   2.307   0.990  13.542  0.8158  0.1153  0.4649
  193MPD1     C 2933   2.242   0.622  17.041  0.0222 -0.1363 -0.0092
  193MPD1    C1 2934   2.339   0.552  16.985 -0.8447 -0.1996 -0.7027
  193MPD1    C2 2935   2.471   0.584  16.998 -0.5413 -0.6137 -0.1520
  193MPD1    C3 2936   2.504   0.696  17.077 -0.3904 -0.0080  0.3111
  193MPD1    C4 2937   2.406   0.762  17.140  0.1009 -0.2463 -0.9538
  193MPD1    C5 2938   2.274   0.725  17.123 -0.5685 -0.9141  0.0791
  193MPD1     H 2939   2.552   0.530  16.951  0.8722 -0.3405  2.0168
  193MPD1    H1 2940   2.428   0.846  17.204  3.3351 -3.3385  1.9917
  193MPD1    H2 2941   2.140   0.590  17.024  0.0207  0.8140 -1.8049
  193MPD1    H3 2942   2.198   0.787  17.169  0.0502  1.7754 -2.4852
  193MPD1     N 2943   2.634   0.749  17.098 -0.7217 -0.6026 -0.7441
  193MPD1    H5 2944   2.636   0.826  17.164  1.6345 -0.0967 -1.4041
  193MPD1    N1 2945   2.300   0.453  16.901  0.4385  0.3755  0.2736
  193MPD1    H6 2946   2.376   0.388  16.884  0.3968  0.9823 -2.2453
  193MPD1    H7 2947   2.220   0.401  16.937  1.2526 -1.4208 -0.5112
  194MPD1     C 2948   1.514   2.733  16.525 -0.0915  0.3646  0.4193
  194MPD1    C1 2949   1.444   2.642  16.446  0.5413  0.2182 -0.8330
  194MPD1    C2 2950   1.335   2.576  16.508 -0.2150  0.3458 -0.1536
  194MPD1    C3 2951   1.319   2.585  16.647  0.1416  0.0573 -0.0249
  194MPD1    C4 2952   1.408   2.663  16.723 -0.4252  0.0679 -0.3086
  194MPD1    C5 2953   1.504   2.731  16.658 -0.0267 -0.3485 -0.5034
  194MPD1     H 2954   1.262   2.520  16.450 -1.2369  0.9006  0.6067
  194MPD1    H1 2955   1.403   2.666  16.832 -0.8354 -0.3826 -0.3133
  194MPD1    H2 2956   1.585   2.798  16.475  1.0307 -1.7556 -0.7026
  194MPD1    H3 2957   1.575   2.786  16.719 -0.8449  0.6756 -0.4808
  194MPD1     N 2958   1.226   2.511  16.722 -0.8366 -0.5531  0.5590
  194MPD1    H5 2959   1.228   2.516  16.823  3.2055 -2.0792  0.5865
  194MPD1    N1 2960   1.462   2.633  16.307 -0.1373  0.6021 -0.0568
  194MPD1    H6 2961   1.439   2.543  16.266 -2.1028  1.0626  0.0629
  194MPD1    H7 2962   1.556   2.656  16.274 -0.6170  3.0688  0.2475
  195MPD1     C 2963   2.246   0.249   0.962  0.3687  0.1802  0.2689
  195MPD1    C1 2964   2.378   0.284   0.970 -0.0346  0.8291  0.3288
  195MPD1    C2 2965   2.464   0.240   0.872  0.9137 -0.3323  0.3278
  195MPD1    C3 2966   2.420   0.149   0.774 -0.1664 -0.1025 -0.5707
  195MPD1    C4 2967   2.288   0.127   0.763  0.1453 -0.3673 -0.2129
  195MPD1    C5 2968   2.205   0.165   0.859 -0.2183  0.2657 -0.1127
  195MPD1     H 2969   2.569   0.269   0.869  0.5685  0.6983 -1.5030
  195MPD1    H1 2970   2.249   0.075   0.676  2.5526 -0.9940 -0.9282
  195MPD1    H2 2971   2.178   0.270   1.043  0.0399  1.5828 -0.3742
  195MPD1    H3 2972   2.102   0.131   0.858 -1.3227  3.5970 -0.3264
  195MPD1     N 2973   2.505   0.072   0.683  0.0212 -0.0999  0.2989
  195MPD1    H5 2974   2.461   0.018   0.610  0.6914 -0.8147  0.4198
  195MPD1    N1 2975   2.414   0.384   1.057  0.2219 -0.7132  0.3337
  195MPD1    H6 2976   2.362   0.377   1.145 -0.7174  0.8464 -0.0975
  195MPD1    H7 2977   2.514   0.394   1.071  0.2001  0.3554 -0.2627
  196MPD1     C 2978   2.432   3.602   0.873 -0.7664 -0.1870 -0.3594
  196MPD1    C1 2979   2.347   3.678   0.798 -0.5299 -0.3294 -0.5295
  196MPD1    C2 2980   2.376   3.812   0.801  0.4556  0.2043 -0.0947
  196MPD1    C3 2981   2.503   3.855   0.841 -0.7942 -1.2592 -0.1655
  196MPD1    C4 2982   2.591   3.773   0.902  0.3240  0.2732  0.1840
  196MPD1    C5 2983   2.547   3.651   0.929 -0.0586 -0.7863  0.0716
  196MPD1     H 2984   2.316   3.881   0.743  0.9184  0.4882 -0.2349
  196MPD1    H1 2985   2.679   3.806   0.957 -0.1836 -2.3464  2.5945
  196MPD1    H2 2986   2.406   3.497   0.883  0.6702 -0.5495 -0.4230
  196MPD1    H3 2987   2.604   3.577   0.984  0.0743 -0.8797 -0.1899
  196MPD1     N 2988   2.540   3.990   0.832  0.5331  0.2700 -0.2070
  196MPD1    H5 2989   2.634   4.012   0.863 -0.4616  0.8021  2.4323
  196MPD1    N1 2990   2.222   3.637   0.754  0.1998 -0.1413 -0.0047
  196MPD1    H6 2991   2.177   3.691   0.680  2.0605  1.2550 -0.0948
  196MPD1    H7 2992   2.223   3.548   0.703 -0.2506  0.9217 -1.8501
  197MPD1     C 2993   1.308   1.369   0.151 -0.1672  0.3408  0.1861
  197MPD1    C1 2994   1.266   1.401   0.026 -0.7241 -0.1515 -0.0436
  197MPD1    C2 2995   1.347   1.361  17.605  0.0777 -0.8497  0.0480
  197MPD1    C3 2996   1.470   1.315  17.637  0.1111 -0.2577  0.2262
  197MPD1    C4 2997   1.516   1.288   0.076 -1.1466  0.2119  0.1612
  197MPD1    C5 2998   1.431   1.315   0.169  0.4291  0.2777 -0.1726
  197MPD1     H 2999   1.322   1.379  17.501  1.8528  0.6698 -0.1197
  197MPD1    H1 3000   1.618   1.256   0.097 -1.1443 -0.6570 -1.1093
  197MPD1    H2 3001   1.251   1.378   0.242 -0.3266  0.0647  0.1131
  197MPD1    H3 3002   1.459   1.295   0.272 -0.4343  2.1480  0.4117
  197MPD1     N 3003   1.570   1.301  17.538 -0.0242  0.4864  0.1180
  197MPD1    H5 3004   1.664   1.277  17.567 -0.7264 -0.4372  1.6232
  197MPD1    N1 3005   1.136   1.448   0.007  0.5764  0.0926  0.0804
  197MPD1    H6 3006   1.130   1.501  17.608 -1.7260  0.1122  0.2289
  197MPD1    H7 3007   1.104   1.507   0.084 -1.2083  1.4470 -1.6762
  198MPD1     C 3008   3.585   0.600  15.951 -0.2567  0.7026  0.6331
  198MPD1    C1 3009   3.598   0.494  15.861  0.2023 -0.2194 -0.3719
  198MPD1    C2 3010   3.646   0.371  15.902  0.5580  0.5113  0.3924
  198MPD1    C3 3011   3.686   0.352  16.035  0.1316 -0.4955  0.1582
  198MPD1    C4 3012   3.663   0.456  16.123  0.6780 -0.1721 -0.2299
  198MPD1    C5 3013   3.620   0.577  16.081 -0.4753  0.2139 -0.5736
  198MPD1     H 3014   3.671   0.289  15.834 -1.8078 -0.7960  1.1063
  198MPD1    H1 3015   3.681   0.449  16.230  0.8015 -2.8548 -0.4188
  198MPD1    H2 3016   3.541   0.698  15.936  2.3929  2.0899  1.8744
  198MPD1    H3 3017   3.602   0.657  16.152 -2.8371 -1.0041  0.1685
  198MPD1     N 3018   3.749   0.227  16.068 -0.1590  0.2334  0.0129
  198MPD1    H5 3019   3.764   0.170  15.986  1.7143 -0.4907  0.8545
  198MPD1    N1 3020   3.582   0.523  15.729 -0.3595  0.0715 -0.1763
  198MPD1    H6 3021   3.533   0.611  15.711 -0.2359 -0.0668 -1.1960
  198MPD1    H7 3022   3.523   0.455  15.681 -1.0536  0.0978  0.6330
  199MPD1     C 3023   0.590   4.480   9.483 -1.2581 -0.3135 -0.4774
  199MPD1    C1 3024   0.685   4.581   9.491 -0.1956  0.1602  0.0561
  199MPD1    C2 3025   0.646   4.711   9.455  0.0161 -0.3452  0.8218
  199MPD1    C3 3026   0.510   0.020   9.445  0.1323 -0.4958 -0.6359
  199MPD1    C4 3027   0.407   4.643   9.456  0.5777 -0.0333  0.3792
  199MPD1    C5 3028   0.457   4.515   9.472 -0.2762 -0.1008 -0.1432
  199MPD1     H 3029   0.722   0.067   9.448 -2.0144  1.6579  1.0322
  199MPD1    H1 3030   0.301   4.659   9.441  0.5500 -1.7308 -1.2273
  199MPD1    H2 3031   0.619   4.376   9.488  0.6574  0.2874  0.9734
  199MPD1    H3 3032   0.388   4.434   9.489 -2.4472  1.5977 -0.9435
  199MPD1     N 3033   0.457   0.151   9.434 -0.1218  0.1180  0.4506
  199MPD1    H5 3034   0.357   0.146   9.414  0.2864 -1.8719 -1.1575
  199MPD1    N1 3035   0.823   4.544   9.507 -0.5130  0.0611 -0.9117
  199MPD1    H6 3036   0.874   4.624   9.544 -0.2211  0.0045 -1.1912
  199MPD1    H7 3037   0.818   4.471   9.578  1.8530 -0.5324 -1.3828
  200MPD1     C 3038   4.271   0.657  15.262  0.4095 -0.1278  0.3380
  200MPD1    C1 3039   4.265   0.698  15.131 -0.4590  0.0637  0.7384
  200MPD1    C2 3040   4.387   0.723  15.073 -0.1392  0.0735  0.4438
  200MPD1    C3 3041   4.509   0.683  15.136 -0.4134  0.4769  0.4564
  200MPD1    C4 3042   4.512   0.629  15.263  0.0883  0.0140 -0.3246
  200MPD1    C5 3043   4.393   0.618  15.321  0.0210 -0.0409 -0.3738
  200MPD1     H 3044   4.388   0.772  14.976 -0.8998 -1.0308 -0.1136
  200MPD1    H1 3045   4.601   0.600  15.317  0.8804  0.3218 -1.4726
  200MPD1    H2 3046   4.178   0.652  15.318 -0.8495  0.1658 -1.7052
  200MPD1    H3 3047   4.394   0.586  15.425  0.7531 -1.8533 -0.9273
  200MPD1     N 3048   4.621   0.696  15.053 -0.4208 -0.1624  0.0026
  200MPD1    H5 3049   4.615   0.713  14.953  1.4198 -1.3996 -0.3158
  200MPD1    N1 3050   4.149   0.741  15.060 -0.0038  0.2955 -0.0241
  200MPD1    H6 3051   4.074   0.676  15.082 -0.4540  0.0822 -2.1473
  200MPD1    H7 3052   4.162   0.717  14.962  1.3899  2.9184 -0.4874
  201MPD1     C 3053   2.161   0.013  12.782 -0.4168  0.3687 -0.0030
  201MPD1    C1 3054   2.096   4.614  12.814  0.2189  0.7356 -0.5261
  201MPD1    C2 3055   2.171   4.504  12.826 -0.3771 -0.0806  0.1006
  201MPD1    C3 3056   2.309   4.511  12.814  0.1267 -0.4123 -0.5020
  201MPD1    C4 3057   2.371   4.630  12.786 -0.0275  0.2379 -0.4483
  201MPD1    C5 3058   2.294   0.020  12.778  0.0272 -1.1047  0.1865
  201MPD1     H 3059   2.123   4.408  12.845  1.4665 -0.5592  2.3221
  201MPD1    H1 3060   2.479   4.641  12.779 -0.0675 -0.0462 -1.4243
  201MPD1    H2 3061   2.092   0.096  12.768 -0.0866  0.2485 -2.2699
  201MPD1    H3 3062   2.333   0.121  12.765 -0.4226 -0.7707  1.4165
  201MPD1     N 3063   2.378   4.394  12.848  0.1277 -0.2277  0.1064
  201MPD1    H5 3064   2.328   4.306  12.854  0.4246 -0.4258 -0.3345
  201MPD1    N1 3065   1.959   4.602  12.798 -0.1721 -0.3686  0.6174
  201MPD1    H6 3066   1.910   4.532  12.853  0.7518 -0.8486  0.8358
  201MPD1    H7 3067   1.904   4.687  12.807  0.4052 -0.0125  0.7810
  202MPD1     C 3068   1.558   3.324   8.956 -0.4000  0.2573 -0.2841
  202MPD1    C1 3069   1.683   3.286   8.996 -0.2132  0.0350 -0.0064
  202MPD1    C2 3070   1.727   3.342   9.117 -0.1159  0.2818  1.1606
  202MPD1    C3 3071   1.678   3.466   9.148  0.1728 -0.1728  0.5973
  202MPD1    C4 3072   1.560   3.507   9.106 -0.5319  0.3148 -0.3898
  202MPD1    C5 3073   1.492   3.428   9.020  0.2316  0.1367  0.0281
  202MPD1     H 3074   1.816   3.306   9.168 -0.9291 -1.4022  1.4048
  202MPD1    H1 3075   1.512   3.594   9.149  1.0366  1.1982 -0.4287
  202MPD1    H2 3076   1.507   3.263   8.883 -2.6770 -0.3112  1.8081
  202MPD1    H3 3077   1.390   3.451   8.989  1.0811  1.3691 -1.8670
  202MPD1     N 3078   1.733   3.548   9.250  0.3340  0.1574 -0.5744
  202MPD1    H5 3079   1.668   3.622   9.273 -1.7773 -2.2239  1.1159
  202MPD1    N1 3080   1.717   3.154   8.964 -0.6270  0.5614 -0.3378
  202MPD1    H6 3081   1.816   3.144   8.982 -0.4320  1.7825 -0.7437
  202MPD1    H7 3082   1.706   3.138   8.864 -2.3990 -2.2022  0.2827
  203MPD1     C 3083   1.183   0.721  12.981 -0.2320  0.2896  0.0102
  203MPD1    C1 3084   1.124   0.633  13.067 -0.1230 -0.1815 -0.5850
  203MPD1    C2 3085   1.133   0.494  13.026 -0.5304  0.2294  0.1022
  203MPD1    C3 3086   1.219   0.446  12.927  0.3502 -0.2138  0.4673
  203MPD1    C4 3087   1.277   0.539  12.843  0.9794  0.2298  0.2901
  203MPD1    C5 3088   1.262   0.674  12.872 -0.1932  0.4289  0.8037
  203MPD1     H 3089   1.070   0.421  13.075 -2.1263  2.5259  1.4852
  203MPD1    H1 3090   1.324   0.514  12.748 -1.0607 -3.5355  0.2651
  203MPD1    H2 3091   1.163   0.827  12.991  0.7334  0.4296  0.4681
  203MPD1    H3 3092   1.308   0.747  12.805 -0.9538  0.8986  0.7899
  203MPD1     N 3093   1.213   0.305  12.896  0.4742 -0.5967  0.5233
  203MPD1    H5 3094   1.139   0.253  12.942 -1.8610  0.7606 -1.7531
  203MPD1    N1 3095   1.026   0.681  13.157  0.0296 -0.1901  0.1847
  203MPD1    H6 3096   1.037   0.775  13.194 -2.2715 -0.7024  2.1325
  203MPD1    H7 3097   1.020   0.624  13.241 -2.3958  0.6842  0.5968
  204MPD1     C 3098   0.878   1.617   0.382  0.4528  0.5791  0.7650
  204MPD1    C1 3099   0.901   1.630   0.247  0.5895  0.0099  0.5533
  204MPD1    C2 3100   0.826   1.550   0.163 -0.1529  0.4788  0.0770
  204MPD1    C3 3101   0.719   1.471   0.209 -0.1344  0.0054  0.0918
  204MPD1    C4 3102   0.681   1.486   0.337 -0.6741  0.2398 -1.1037
  204MPD1    C5 3103   0.766   1.547   0.428  0.3492  0.1046  0.0470
  204MPD1     H 3104   0.842   1.570   0.057  0.5712 -1.3119 -0.1526
  204MPD1    H1 3105   0.606   1.422   0.382 -0.4956 -1.2379 -2.9203
  204MPD1    H2 3106   0.943   1.668   0.452 -0.1526 -0.9210  2.4130
  204MPD1    H3 3107   0.751   1.551   0.535  0.6436 -0.8395  0.1228
  204MPD1     N 3108   0.653   1.381   0.119  0.3008 -0.2329 -0.0017
  204MPD1    H5 3109   0.683   1.382   0.022  2.1346 -1.8201  0.5321
  204MPD1    N1 3110   1.020   1.688   0.197 -0.4151 -0.0381  0.7876
  204MPD1    H6 3111   1.035   1.777   0.244 -2.4676  1.1118 -0.7473
  204MPD1    H7 3112   1.020   1.714   0.098 -0.8248 -1.3758  0.4366
  205MPD1     C 3113   1.000   0.248  17.268  0.5710 -0.1249  0.2953
  205MPD1    C1 3114   0.953   0.140  17.334 -0.0391 -0.2983 -0.1227
  205MPD1    C2 3115   0.846   0.156  17.419  0.6269  0.1650  0.3561
  205MPD1    C3 3116   0.775   0.276  17.427  0.1171 -0.0989 -0.0704
  205MPD1    C4 3117   0.833   0.387  17.365 -0.3267  0.3426  0.1472
  205MPD1    C5 3118   0.942   0.368  17.289 -0.2311 -0.4746  0.2852
  205MPD1     H 3119   0.812   0.066  17.468 -1.7672  0.0622 -1.4550
  205MPD1    H1 3120   0.799   0.489  17.381  2.4204  0.9619  2.0503
  205MPD1    H2 3121   1.083   0.233  17.200  0.2783  0.1591 -0.1252
  205MPD1    H3 3122   0.988   0.458  17.251  0.5645 -0.7821  0.5072
  205MPD1     N 3123   0.657   0.289  17.500  0.2297 -0.7647 -0.8030
  205MPD1    H5 3124   0.619   0.383  17.507  0.5405 -0.6227 -1.0764
  205MPD1    N1 3125   1.004   0.010  17.317  0.8399  0.5606 -0.1182
  205MPD1    H6 3126   0.979   4.662  17.388 -1.0974 -0.2459 -1.5823
  205MPD1    H7 3127   1.102   4.721  17.291  1.1760  3.1992  0.0913
  206MPD1     C 3128   1.066   2.766  16.856 -0.0917 -0.5385 -0.6218
  206MPD1    C1 3129   0.946   2.694  16.846 -0.8406  0.4569 -0.1806
  206MPD1    C2 3130   0.887   2.664  16.723 -0.0182  0.3511 -0.1043
  206MPD1    C3 3131   0.930   2.733  16.609 -0.1747 -0.2993 -0.1782
  206MPD1    C4 3132   1.049   2.808  16.617 -0.2289 -0.2988 -0.8124
  206MPD1    C5 3133   1.114   2.820  16.742  0.1856  0.2329  0.4712
  206MPD1     H 3134   0.806   2.592  16.715  0.9793 -0.5503 -1.9220
  206MPD1    H1 3135   1.109   2.850  16.537  1.8062 -0.2931  0.7000
  206MPD1    H2 3136   1.118   2.783  16.950 -1.0747  1.2906 -0.4052
  206MPD1    H3 3137   1.210   2.870  16.741 -0.0645  0.7057  0.0597
  206MPD1     N 3138   0.855   2.724  16.493  0.2114 -0.0594 -0.0999
  206MPD1    H5 3139   0.777   2.660  16.499  0.0473  0.0848 -0.6423
  206MPD1    N1 3140   0.898   2.623  16.954  0.4013 -0.5902 -0.5702
  206MPD1    H6 3141   0.800   2.602  16.937 -0.2723 -0.7062  3.4065
  206MPD1    H7 3142   0.895   2.680  17.039  0.6239  0.1879 -1.0814
  207MPD1     C 3143   2.437   0.341   9.607  0.1050 -0.2726 -0.8202
  207MPD1    C1 3144   2.458   0.261   9.720  0.2254  0.2067  0.5823
  207MPD1    C2 3145   2.563   0.288   9.805  0.0053  0.1240 -0.2461
  207MPD1    C3 3146   2.641   0.407   9.780  0.3975 -0.3759  0.2417
  207MPD1    C4 3147   2.603   0.501   9.680  0.3895  0.4094 -0.4465
  207MPD1    C5 3148   2.509   0.450   9.586  0.0031  0.8058  0.6284
  207MPD1     H 3149   2.596   0.214   9.877 -0.2351  2.9337  2.7612
  207MPD1    H1 3150   2.653   0.596   9.666 -1.1750  1.4383  0.9994
  207MPD1    H2 3151   2.368   0.303   9.533 -0.1082 -3.1474  0.8440
  207MPD1    H3 3152   2.492   0.509   9.496 -2.9853 -0.7558  0.1633
  207MPD1     N 3153   2.742   0.448   9.868 -0.2164  0.1424  0.8592
  207MPD1    H5 3154   2.790   0.533   9.840 -0.0683 -0.7329 -1.5160
  207MPD1    N1 3155   2.390   0.141   9.733 -0.3129  0.5738  0.3440
  207MPD1    H6 3156   2.393   0.106   9.828 -0.6766  0.2253  0.2295
  207MPD1    H7 3157   2.291   0.150   9.711 -0.3935  0.0748  0.4945
  208MPD1     C 3158   0.592   3.592  17.577 -0.1278 -0.1202 -0.8937
  208MPD1    C1 3159   0.667   3.539  17.679  0.5750  0.8912  0.2680
  208MPD1    C2 3160   0.705   3.621   0.102 -0.3926 -0.3147 -0.1061
  208MPD1    C3 3161   0.670   3.754   0.110 -0.2387  0.1859 -0.6020
  208MPD1    C4 3162   0.595   3.806   0.001  0.7951 -0.0923  1.3834
  208MPD1    C5 3163   0.554   3.726  17.580 -0.2234  0.1222  0.4671
  208MPD1     H 3164   0.767   3.574   0.176 -0.1260 -1.6444 -1.1730
  208MPD1    H1 3165   0.559   3.908   0.006 -1.1483 -0.7760  1.2980
  208MPD1    H2 3166   0.566   3.537  17.487 -1.1128  0.8897 -1.2321
  208MPD1    H3 3167   0.498   3.761  17.494 -1.3619  1.6275  1.8261
  208MPD1     N 3168   0.715   3.830   0.224  0.2581  0.3658  0.1493
  208MPD1    H5 3169   0.788   3.792   0.285 -1.3758  1.5308  2.8326
  208MPD1    N1 3170   0.714   3.409  17.678 -0.3820  0.2674  0.4281
  208MPD1    H6 3171   0.652   3.341  17.635  2.2907 -1.4527 -0.6821
  208MPD1    H7 3172   0.750   3.372   0.079 -1.3612 -1.7874 -0.0251
  209MPD1     C 3173   3.349   4.147   9.836 -0.0250  0.0823 -0.6621
  209MPD1    C1 3174   3.322   4.281   9.859  0.1844  0.4992  0.0831
  209MPD1    C2 3175   3.356   4.321   9.987 -0.7952 -0.0502  0.6722
  209MPD1    C3 3176   3.427   4.245  10.085  0.6267 -0.4024 -0.6458
  209MPD1    C4 3177   3.459   4.117  10.052 -0.0697 -0.0749  0.1208
  209MPD1    C5 3178   3.416   4.072   9.927  0.3765 -0.1209 -0.0829
  209MPD1     H 3179   3.334   4.424  10.015 -0.4193 -0.4034  2.2882
  209MPD1    H1 3180   3.511   4.053  10.123  1.5379  0.1432 -0.8424
  209MPD1    H2 3181   3.311   4.092   9.751  2.3891 -1.1519 -0.9587
  209MPD1    H3 3182   3.444   3.967   9.918  0.3153 -0.0602 -0.9924
  209MPD1     N 3183   3.462   4.310  10.204  0.5529  0.1110  0.1513
  209MPD1    H5 3184   3.431   4.406  10.212 -1.6549 -0.7591  1.7943
  209MPD1    N1 3185   3.235   4.352   9.778 -0.7346  0.3678 -0.1213
  209MPD1    H6 3186   3.246   4.319   9.682 -1.1719 -3.5245  1.1587
  209MPD1    H7 3187   3.252   4.452   9.779  0.7163  0.1249 -0.5052
  210MPD1     C 3188   3.287   4.401  11.223 -0.0075 -0.7089 -0.3568
  210MPD1    C1 3189   3.317   4.287  11.153  0.6737 -0.4862  0.3886
  210MPD1    C2 3190   3.382   4.309  11.029  1.2182  0.0675 -0.1067
  210MPD1    C3 3191   3.407   4.438  10.980  0.3601  0.6512 -0.0085
  210MPD1    C4 3192   3.378   4.546  11.055  0.5064 -0.5427  0.1556
  210MPD1    C5 3193   3.313   4.527  11.171  0.8273  0.0054  0.0774
  210MPD1     H 3194   3.407   4.218  10.976 -2.2620 -0.0220 -1.6398
  210MPD1    H1 3195   3.397   4.644  11.013  2.7535 -0.1906  2.0265
  210MPD1    H2 3196   3.251   4.392  11.325 -0.5245  1.1426 -0.3698
  210MPD1    H3 3197   3.295   4.611  11.237  2.6500  0.9998 -0.6855
  210MPD1     N 3198   3.473   4.461  10.859  0.0542  0.4017  0.5495
  210MPD1    H5 3199   3.500   4.552  10.824  2.3827 -0.0973  1.0593
  210MPD1    N1 3200   3.316   4.158  11.218 -0.1104 -0.0219  0.5030
  210MPD1    H6 3201   3.295   4.093  11.142 -2.3805 -0.9009  1.8776
  210MPD1    H7 3202   3.236   4.160  11.281  1.7004  1.4924  2.7361
  211MPD1     C 3203   1.853   4.370  16.486 -0.2550  0.0767  0.2161
  211MPD1    C1 3204   1.756   4.277  16.455  0.2420 -0.9500  0.1999
  211MPD1    C2 3205   1.629   4.319  16.433 -0.0986 -0.0392  0.4982
  211MPD1    C3 3206   1.599   4.454  16.446 -0.5551 -0.7049  0.6064
  211MPD1    C4 3207   1.699   4.547  16.485  0.1081 -0.1415 -0.0874
  211MPD1    C5 3208   1.825   4.498  16.509  0.2516 -0.2702  0.1296
  211MPD1     H 3209   1.560   4.244  16.396 -0.5994  1.1866 -1.1006
  211MPD1    H1 3210   1.676   4.652  16.482  1.6099  0.1860 -0.2023
  211MPD1    H2 3211   1.957   4.344  16.501 -0.4199 -2.2632 -2.5709
  211MPD1    H3 3212   1.904   4.561  16.546 -0.3978  1.2482 -1.0660
  211MPD1     N 3213   1.465   4.472  16.412 -0.0465  0.0287  0.2299
  211MPD1    H5 3214   1.404   4.393  16.391  0.3855  0.0331 -1.0291
  211MPD1    N1 3215   1.802   4.160  16.395  0.2779 -0.6109 -0.6354
  211MPD1    H6 3216   1.893   4.126  16.426 -0.9750 -0.4117  3.1733
  211MPD1    H7 3217   1.742   4.078  16.404 -0.2338 -0.1463  0.1483
  212MPD1     C 3218   0.640   3.037  16.650  0.3986 -0.5541 -0.3698
  212MPD1    C1 3219   0.561   3.012  16.538  0.1176  0.1479 -0.0768
  212MPD1    C2 3220   0.446   2.940  16.571  0.0486 -0.0403  0.1001
  212MPD1    C3 3221   0.416   2.901  16.697  0.5163  0.4208  0.5554
  212MPD1    C4 3222   0.486   2.949  16.800  0.0883  0.2444 -0.1373
  212MPD1    C5 3223   0.599   3.017  16.780  0.0638  0.6735 -0.3831
  212MPD1     H 3224   0.391   2.906  16.484  1.0920  1.5455 -1.1740
  212MPD1    H1 3225   0.475   2.917  16.903 -1.3099  1.4356  0.0935
  212MPD1    H2 3226   0.740   3.076  16.640  0.6163 -0.3928  2.6240
  212MPD1    H3 3227   0.666   3.043  16.861 -0.1643 -1.5534  0.5128
  212MPD1     N 3228   0.307   2.823  16.724  0.2447  0.0112 -0.2146
  212MPD1    H5 3229   0.281   2.812  16.821 -3.1741 -0.3096 -1.1559
  212MPD1    N1 3230   0.589   3.063  16.412  0.7314 -0.3510  0.0531
  212MPD1    H6 3231   0.545   3.015  16.334 -1.0717  0.5670  0.5072
  212MPD1    H7 3232   0.685   3.085  16.388 -0.3156  1.1525 -2.7305
  213MPD1     C 3233   2.585   4.298  15.700 -0.5911  0.5730  0.4445
  213MPD1    C1 3234   2.699   4.313  15.627 -0.1073  0.3806  0.0680
  213MPD1    C2 3235   2.706   4.240  15.510 -0.0506  0.2875  0.7691
  213MPD1    C3 3236   2.600   4.168  15.466 -0.5260  0.1937  0.4989
  213MPD1    C4 3237   2.479   4.173  15.528 -0.4428  0.8432  0.4006
  213MPD1    C5 3238   2.475   4.241  15.645  0.0508  0.3175 -0.6775
  213MPD1     H 3239   2.801   4.232  15.460  1.3218 -1.1323  3.6108
  213MPD1    H1 3240   2.396   4.115  15.490 -2.2770  1.1878  3.8454
  213MPD1    H2 3241   2.569   4.337  15.799  1.9354  1.4287  0.5111
  213MPD1    H3 3242   2.381   4.249  15.698  1.0588 -4.2920  1.8325
  213MPD1     N 3243   2.620   4.092  15.348 -0.0938 -0.0929  0.2999
  213MPD1    H5 3244   2.715   4.108  15.318 -0.8158  0.0533 -1.9292
  213MPD1    N1 3245   2.820   4.346  15.696 -0.1353  0.2938  0.7679
  213MPD1    H6 3246   2.898   4.374  15.637  0.3177  1.9674  2.1651
  213MPD1    H7 3247   2.806   4.421  15.763  2.5908  0.4083  1.2045
  214MPD1     C 3248   2.532   3.154  15.017  0.6588 -0.5160 -0.0420
  214MPD1    C1 3249   2.556   3.229  14.902 -0.4445 -0.0173  0.5059
  214MPD1    C2 3250   2.543   3.359  14.914 -0.1054 -0.0133  0.1645
  214MPD1    C3 3251   2.545   3.420  15.034 -0.2396  0.1509  0.5321
  214MPD1    C4 3252   2.549   3.351  15.154 -0.2621  0.6438 -0.1290
  214MPD1    C5 3253   2.531   3.213  15.139 -0.6223 -0.0772  0.0012
  214MPD1     H 3254   2.516   3.415  14.825 -1.4750 -1.0475 -0.0610
  214MPD1    H1 3255   2.554   3.398  15.251  1.9597 -0.7160  0.3873
  214MPD1    H2 3256   2.539   3.046  15.017 -1.4000 -0.6507  3.9364
  214MPD1    H3 3257   2.534   3.152  15.228  0.6690 -0.0619 -0.0349
  214MPD1     N 3258   2.531   3.561  15.054  0.4850 -0.2019  0.0934
  214MPD1    H5 3259   2.551   3.596  15.147  1.6190  1.4703 -0.7940
  214MPD1    N1 3260   2.541   3.176  14.774 -0.3173 -0.1339  0.0526
  214MPD1    H6 3261   2.585   3.084  14.773  0.9565  0.4674  1.4674
  214MPD1    H7 3262   2.581   3.232  14.699 -1.8681  2.4848  1.1871
  215MPD1     C 3263   3.162   4.390  10.361  0.3736  0.1941  0.1407
  215MPD1    C1 3264   3.146   4.509  10.303  0.6850  0.1247  0.2705
  215MPD1    C2 3265   3.169   4.621  10.380 -0.3844  0.1758 -0.3226
  215MPD1    C3 3266   3.187   4.619  10.518  0.3753  0.1858 -0.5347
  215MPD1    C4 3267   3.192   4.494  10.572 -0.1344  0.3218 -0.8676
  215MPD1    C5 3268   3.191   4.384  10.493 -0.9013 -0.3491  1.6075
  215MPD1     H 3269   3.166   4.715  10.327  2.7601  0.4018 -0.1072
  215MPD1    H1 3270   3.195   4.484  10.680  0.8782  1.8873 -0.7422
  215MPD1    H2 3271   3.172   4.292  10.315  3.8033  1.0750 -0.9720
  215MPD1    H3 3272   3.188   4.282  10.530 -3.7430 -0.8857 -0.1643
  215MPD1     N 3273   3.178   0.026  10.583 -0.8967  0.0589  0.4005
  215MPD1    H5 3274   3.155   0.105  10.523 -0.9470  0.1856  0.5846
  215MPD1    N1 3275   3.144   4.519  10.164  0.1689  0.4761  0.2202
  215MPD1    H6 3276   3.097   4.437  10.126  1.0953  0.5880 -1.1440
  215MPD1    H7 3277   3.097   4.601  10.125 -2.4480 -1.3464 -0.4476
  216MPD1     C 3278   0.421   2.264  16.250  0.2612  0.6178  0.3498
  216MPD1    C1 3279   0.412   2.126  16.253  0.0889 -0.2828  0.6936
  216MPD1    C2 3280   0.392   2.061  16.371 -0.1231  0.0317 -0.7611
  216MPD1    C3 3281   0.396   2.131  16.491 -0.6099 -0.0911  0.2163
  216MPD1    C4 3282   0.413   2.265  16.488  0.3218  0.2013 -0.5900
  216MPD1    C5 3283   0.425   2.331  16.369  0.1946 -0.2017  0.2563
  216MPD1     H 3284   0.357   1.959  16.373  0.3531 -0.1506 -2.0468
  216MPD1    H1 3285   0.417   2.321  16.580  2.5900  0.6063 -0.9443
  216MPD1    H2 3286   0.436   2.328  16.164  2.0084 -1.7071 -1.0877
  216MPD1    H3 3287   0.446   2.437  16.364 -1.1530  0.1594  2.2978
  216MPD1     N 3288   0.354   2.064  16.606 -0.1715 -0.0338  0.1071
  216MPD1    H5 3289   0.328   1.967  16.596 -2.8230  0.8885 -1.9665
  216MPD1    N1 3290   0.391   2.069  16.133  0.3828  0.5566 -0.1845
  216MPD1    H6 3291   0.442   2.121  16.061  1.8720 -2.1487 -1.0856
  216MPD1    H7 3292   0.420   1.971  16.136  0.7367  0.6566 -0.4399
  217MPD1     C 3293   1.101   2.505   8.828 -0.3121 -0.3690  0.3586
  217MPD1    C1 3294   1.224   2.527   8.893  0.2599 -0.0670 -0.2198
  217MPD1    C2 3295   1.245   2.655   8.943  0.6689  0.2931  0.5007
  217MPD1    C3 3296   1.159   2.757   8.952 -0.0636  0.3670 -0.3850
  217MPD1    C4 3297   1.037   2.732   8.891  0.5175  0.1931 -0.1605
  217MPD1    C5 3298   1.014   2.608   8.831  0.0426  0.3986 -0.4308
  217MPD1     H 3299   1.345   2.667   8.985  0.8412 -0.1546  0.2105
  217MPD1    H1 3300   0.960   2.808   8.899  1.2302  0.6845  2.0747
  217MPD1    H2 3301   1.075   2.408   8.787 -0.1152 -0.4866  0.5114
  217MPD1    H3 3302   0.916   2.586   8.790 -0.8303 -1.2238  2.5413
  217MPD1     N 3303   1.175   2.883   9.014  0.1702 -0.2872 -0.6290
  217MPD1    H5 3304   1.102   2.953   8.999  0.7415  0.7581  1.4480
  217MPD1    N1 3305   1.337   2.447   8.859 -0.1789  0.6883 -0.1853
  217MPD1    H6 3306   1.408   2.458   8.931  0.2559 -0.8022 -0.3785
  217MPD1    H7 3307   1.325   2.348   8.838 -0.2636  0.4192  1.1516
  218MPD1     C 3308   2.384   0.383  12.981  0.3389  0.4436  0.7560
  218MPD1    C1 3309   2.449   0.268  13.018 -0.6303 -0.1316  0.3873
  218MPD1    C2 3310   2.555   0.221  12.943 -0.3720  0.5881  0.3070
  218MPD1    C3 3311   2.608   0.301  12.844 -0.0715 -0.5125  0.4064
  218MPD1    C4 3312   2.544   0.419  12.803 -0.0985 -0.5206  0.0949
  218MPD1    C5 3313   2.428   0.453  12.868 -0.3632 -0.0563  0.2752
  218MPD1     H 3314   2.601   0.126  12.968  0.1420  0.7604  0.0090
  218MPD1    H1 3315   2.575   0.485  12.723 -0.0310  0.1961  0.7209
  218MPD1    H2 3316   2.304   0.424  13.042 -1.6804 -2.0832 -0.1697
  218MPD1    H3 3317   2.389   0.549  12.836  1.7663  1.6953  2.9075
  218MPD1     N 3318   2.720   0.249  12.768  0.1002 -0.3704  0.7314
  218MPD1    H5 3319   2.757   0.157  12.790 -1.1567 -1.2282 -0.8153
  218MPD1    N1 3320   2.413   0.194  13.137 -0.2692  0.3861  0.2461
  218MPD1    H6 3321   2.321   0.228  13.164  0.2491  0.5638  1.7842
  218MPD1    H7 3322   2.403   0.094  13.120  2.1210  0.1067  0.4591
  219MPD1     C 3323   3.305   0.709  12.111  0.1015  0.5033  0.7402
  219MPD1    C1 3324   3.382   0.630  12.190 -0.1142  0.0312 -0.8840
  219MPD1    C2 3325   3.332   0.515  12.248 -0.0323  0.1998  0.5375
  219MPD1    C3 3326   3.194   0.488  12.240  0.2878  0.0457 -0.4719
  219MPD1    C4 3327   3.115   0.568  12.158 -0.0315 -0.3940 -0.1742
  219MPD1    C5 3328   3.168   0.677  12.102 -0.1882  0.3328 -0.3065
  219MPD1     H 3329   3.402   0.453  12.304 -1.1695 -1.4664  0.1312
  219MPD1    H1 3330   3.010   0.551  12.136  0.4998 -1.2866 -1.9699
  219MPD1    H2 3331   3.337   0.802  12.066 -1.2095 -0.4221 -2.0997
  219MPD1    H3 3332   3.111   0.733  12.029  0.9006  2.2842  0.3627
  219MPD1     N 3333   3.125   0.390  12.311  0.3903  0.7483 -0.3297
  219MPD1    H5 3334   3.031   0.366  12.280  0.9593 -2.3872  0.4063
  219MPD1    N1 3335   3.516   0.663  12.197  0.3508 -0.4306 -0.2715
  219MPD1    H6 3336   3.559   0.639  12.286 -2.1342  0.0851  1.0482
  219MPD1    H7 3337   3.525   0.763  12.181 -0.6432 -0.5156 -1.3834
  220MPD1     C 3338   1.732   0.747   9.618  0.0385 -0.9950 -0.1544
  220MPD1    C1 3339   1.732   0.632   9.691 -0.2213  0.2802  0.4386
  220MPD1    C2 3340   1.858   0.579   9.710 -0.8651  0.1476  0.3362
  220MPD1    C3 3341   1.973   0.659   9.711 -0.3607  0.4308 -0.4740
  220MPD1    C4 3342   1.969   0.783   9.659 -0.1140 -0.4123 -0.8657
  220MPD1    C5 3343   1.846   0.818   9.603  0.4696 -0.0224 -0.6072
  220MPD1     H 3344   1.866   0.475   9.741  0.1709 -0.0068 -0.4717
  220MPD1    H1 3345   2.049   0.856   9.652 -0.8337  0.4152 -0.4521
  220MPD1    H2 3346   1.640   0.787   9.576  1.5451  1.0380 -1.4794
  220MPD1    H3 3347   1.841   0.917   9.558 -0.4363 -0.3743 -1.2882
  220MPD1     N 3348   2.091   0.596   9.765  0.0099 -0.0086  0.1560
  220MPD1    H5 3349   2.085   0.504   9.808 -1.5081  0.3196  0.6518
  220MPD1    N1 3350   1.618   0.562   9.697 -0.5066  0.2180  0.4007
  220MPD1    H6 3351   1.534   0.619   9.688  0.5668  1.7262 -0.0679
  220MPD1    H7 3352   1.600   0.480   9.755  0.1941  1.5419  2.4840
  221MPD1     C 3353   1.678   3.654  17.014  1.0239 -0.4082  0.6096
  221MPD1    C1 3354   1.559   3.587  16.986 -0.1297 -0.4252 -0.5191
  221MPD1    C2 3355   1.528   3.551  16.852  0.2549 -0.0465 -0.7503
  221MPD1    C3 3356   1.614   3.570  16.751  0.5719  0.7616  0.0266
  221MPD1    C4 3357   1.730   3.628  16.783  0.0547  0.5548 -0.0370
  221MPD1    C5 3358   1.759   3.676  16.906 -0.1994  0.4921  0.9230
  221MPD1     H 3359   1.425   3.524  16.830 -0.0147 -0.1299  0.6502
  221MPD1    H1 3360   1.810   3.656  16.715  2.4741 -1.6428  1.9161
  221MPD1    H2 3361   1.713   3.681  17.113 -1.5748 -2.3923  2.0782
  221MPD1    H3 3362   1.849   3.731  16.928  0.4192  0.1000 -0.6051
  221MPD1     N 3363   1.585   3.544  16.616 -0.0114  0.1880  0.1929
  221MPD1    H5 3364   1.652   3.577  16.548 -1.6318  1.0901 -0.9553
  221MPD1    N1 3365   1.460   3.573  17.085  0.1847  0.2909 -0.2003
  221MPD1    H6 3366   1.488   3.554  17.181  0.1077  0.2833 -0.1794
  221MPD1    H7 3367   1.396   3.497  17.064  0.7590 -0.3683  0.4285
  222MPD1     C 3368   4.578   2.232  17.310  0.3714  0.0380  0.5736
  222MPD1    C1 3369   4.525   2.359  17.292 -0.3048 -0.2020  0.1342
  222MPD1    C2 3370   4.530   2.458  17.391  0.2430 -0.2949 -0.2717
  222MPD1    C3 3371   4.597   2.431  17.506  1.0462 -0.4042  0.0807
  222MPD1    C4 3372   4.647   2.304  17.527 -0.7717 -0.1306  0.1367
  222MPD1    C5 3373   4.638   2.211  17.431 -0.8195 -0.6706 -0.2473
  222MPD1     H 3374   4.488   2.555  17.367  1.2006 -0.1360 -1.3579
  222MPD1    H1 3375   4.711   2.276  17.609 -0.4471  4.7052  1.5627
  222MPD1    H2 3376   4.563   2.148  17.243 -2.0125  0.6189  0.3787
  222MPD1    H3 3377   4.697   2.122  17.450  0.7238  0.4790  0.3973
  222MPD1     N 3378   4.612   2.527  17.608 -0.0865  0.0115 -0.5315
  222MPD1    H5 3379   4.653   2.496   0.008 -1.1263  0.0937 -0.0169
  222MPD1    N1 3380   4.458   2.384  17.169 -0.1879 -0.1520 -0.5036
  222MPD1    H6 3381   4.474   2.308  17.102  1.0023 -0.7035  0.3898
  222MPD1    H7 3382   4.485   2.469  17.121  1.1186 -0.7774 -0.8968
  223MPD1     C 3383   0.090   2.351   0.702  0.0505 -0.2284 -0.5780
  223MPD1    C1 3384   4.717   2.291   0.624 -0.4798 -0.4848  0.8583
  223MPD1    C2 3385   4.681   2.366   0.512  0.5127 -0.4526  0.1730
  223MPD1    C3 3386   0.001   2.499   0.496 -0.3564 -0.3254  0.5347
  223MPD1    C4 3387   0.085   2.557   0.591 -1.2220 -0.6082 -0.5369
  223MPD1    C5 3388   0.143   2.480   0.684 -0.2138 -0.5505 -0.5417
  223MPD1     H 3389   4.608   2.327   0.442  0.1632  0.4183  0.0482
  223MPD1    H1 3390   0.117   2.659   0.578  0.4818 -0.9768  0.8929
  223MPD1    H2 3391   0.131   2.308   0.792 -1.5810 -2.0657 -0.7040
  223MPD1    H3 3392   0.217   2.515   0.754  0.9251  0.6298 -2.3272
  223MPD1     N 3393   4.667   2.571   0.389 -0.1163  0.7430  0.2378
  223MPD1    H5 3394   4.634   2.511   0.314  0.5686 -0.7786  1.1578
  223MPD1    N1 3395   4.684   2.156   0.643  0.0962 -0.2469  0.0050
  223MPD1    H6 3396   4.689   2.123   0.740 -0.4271  1.4856  0.6161
  223MPD1    H7 3397   4.588   2.134   0.615 -0.2163 -0.4522  1.2280
  224MPD1     C 3398   0.554   3.514   9.314 -1.1234 -0.0798  0.9499
  224MPD1    C1 3399   0.660   3.575   9.251 -0.1249 -0.3650 -0.3860
  224MPD1    C2 3400   0.731   3.664   9.329 -0.2149  0.9848 -0.3542
  224MPD1    C3 3401   0.690   3.702   9.454  0.1653 -0.0006  0.6626
  224MPD1    C4 3402   0.564   3.663   9.503  0.0465  0.1624  0.4496
  224MPD1    C5 3403   0.506   3.556   9.437  0.0827  0.6691 -0.2866
  224MPD1     H 3404   0.828   3.691   9.288 -0.2025  1.5819  0.0674
  224MPD1    H1 3405   0.529   3.681   9.604 -1.7607 -1.2257  0.0751
  224MPD1    H2 3406   0.506   3.426   9.273 -0.3819  0.0812 -0.2482
  224MPD1    H3 3407   0.415   3.510   9.474 -0.0359 -0.4499 -1.9672
  224MPD1     N 3408   0.757   3.792   9.537 -0.6712 -0.0100 -0.2577
  224MPD1    H5 3409   0.709   3.818   9.622 -0.2847  1.2187 -0.4235
  224MPD1    N1 3410   0.713   3.512   9.130  0.0249 -0.6314 -0.0777
  224MPD1    H6 3411   0.763   3.579   9.072  1.8450  0.1175  2.3730
  224MPD1    H7 3412   0.637   3.482   9.069 -0.1943  1.8653 -1.0318
  225MPD1     C 3413   3.181   1.125  12.066 -0.2383  0.3044 -0.8208
  225MPD1    C1 3414   3.070   1.111  11.987  0.1899  0.4607  0.0316
  225MPD1    C2 3415   2.941   1.092  12.033 -0.0529  0.1238  0.1177
  225MPD1    C3 3416   2.925   1.095  12.168  0.1849 -0.6228 -0.0713
  225MPD1    C4 3417   3.037   1.102  12.250  0.0294  0.1170  0.6487
  225MPD1    C5 3418   3.162   1.104  12.192 -0.2834 -0.1868 -0.1724
  225MPD1     H 3419   2.857   1.106  11.967 -0.6852 -2.2628  0.4010
  225MPD1    H1 3420   3.022   1.077  12.355  0.7969  3.0113  1.4524
  225MPD1    H2 3421   3.279   1.140  12.022 -0.4082 -1.1098 -1.7126
  225MPD1    H3 3422   3.249   1.099  12.257 -0.4133 -1.3791 -0.0796
  225MPD1     N 3423   2.792   1.066  12.226 -0.4816  0.0287 -0.0253
  225MPD1    H5 3424   2.787   1.038  12.323  1.0064 -1.6590 -0.4408
  225MPD1    N1 3425   3.089   1.149  11.853 -0.1952 -0.0762 -0.6384
  225MPD1    H6 3426   3.184   1.148  11.816  0.8378 -0.0791  2.0338
  225MPD1    H7 3427   3.037   1.101  11.780 -0.4833 -1.4130  0.4550
  226MPD1     C 3428   4.334   4.405   9.069  0.1863  0.0526  0.0403
  226MPD1    C1 3429   4.331   4.479   8.952  0.3840 -0.2030 -0.6767
  226MPD1    C2 3430   4.417   4.586   8.946  0.0693  0.1682 -0.0179
  226MPD1    C3 3431   4.525   4.605   9.030 -0.1484  0.2135  0.1679
  226MPD1    C4 3432   4.536   4.525   9.143  0.5747  0.0734  0.2293
  226MPD1    C5 3433   4.436   4.428   9.160 -0.6006 -0.3794  0.1838
  226MPD1     H 3434   4.410   4.658   8.865  2.8629  1.0419  0.5209
  226MPD1    H1 3435   4.602   4.544   9.227  1.3724  1.7474 -0.7661
  226MPD1    H2 3436   4.266   4.324   9.091 -1.8578  1.4975 -1.0456
  226MPD1    H3 3437   4.440   4.371   9.252 -0.5162  0.7272  0.8622
  226MPD1     N 3438   4.624   4.698   8.991 -0.3484  0.4154  0.0115
  226MPD1    H5 3439   4.622   0.018   8.899  0.4659  1.3212  0.4012
  226MPD1    N1 3440   4.227   4.470   8.861 -0.1762 -0.3210 -0.7058
  226MPD1    H6 3441   4.262   4.488   8.767  2.6120  2.4311  0.8838
  226MPD1    H7 3442   4.204   4.371   8.853 -0.3651 -0.4993  2.0050
  227MPD1     C 3443   4.381   0.696   8.612 -0.0494 -0.3640  0.7321
  227MPD1    C1 3444   4.331   0.567   8.626 -0.0868  0.6847 -0.1965
  227MPD1    C2 3445   4.425   0.481   8.673 -0.3592 -0.2172  0.2237
  227MPD1    C3 3446   4.562   0.508   8.693  0.0823  0.5561 -0.3125
  227MPD1    C4 3447   4.602   0.638   8.670  0.5569  0.2047 -0.0310
  227MPD1    C5 3448   4.510   0.733   8.639 -0.1456 -0.3478  0.5987
  227MPD1     H 3449   4.388   0.384   8.704  1.0439 -1.2841 -1.4223
  227MPD1    H1 3450   4.704   0.669   8.685  0.8802 -0.7784 -0.1640
  227MPD1    H2 3451   4.310   0.777   8.604 -1.5667 -1.8351 -0.6933
  227MPD1    H3 3452   4.545   0.836   8.643  0.2836 -0.6249  3.7388
  227MPD1     N 3453   4.648   0.412   8.750  0.0255  0.1564 -0.0769
  227MPD1    H5 3454   4.608   0.319   8.758  0.6433 -0.2145 -1.2552
  227MPD1    N1 3455   4.196   0.535   8.628 -0.3823 -0.5206  0.0126
  227MPD1    H6 3456   4.187   0.444   8.583 -0.2658 -0.8733  0.7057
  227MPD1    H7 3457   4.150   0.612   8.578  0.1620 -0.8997 -1.0829
  228MPD1     C 3458   4.581   3.778  12.715  1.2376  0.2050 -0.0390
  228MPD1    C1 3459   4.475   3.818  12.636 -0.2794  0.0160 -0.1957
  228MPD1    C2 3460   4.347   3.800  12.679  0.0896 -0.4032  0.3058
  228MPD1    C3 3461   4.314   3.729  12.790 -0.0584 -0.4191  0.8049
  228MPD1    C4 3462   4.417   3.688  12.871 -0.0127  0.6974 -0.5244
  228MPD1    C5 3463   4.549   3.722  12.833  0.9645  0.5872 -0.7880
  228MPD1     H 3464   4.269   3.826  12.608  0.7097  0.3300 -0.1044
  228MPD1    H1 3465   4.408   3.628  12.961  1.6846  1.6587  0.2774
  228MPD1    H2 3466   4.685   3.792  12.689  0.9890  1.2368 -0.4868
  228MPD1    H3 3467   4.631   3.677  12.890  0.7493  0.7235 -0.3758
  228MPD1     N 3468   4.177   3.694  12.806 -0.5956 -0.1326  0.2228
  228MPD1    H5 3469   4.102   3.723  12.743 -0.3208 -1.9364 -0.9662
  228MPD1    N1 3470   4.497   3.896  12.518  0.0488  0.4109  0.0667
  228MPD1    H6 3471   4.587   3.892  12.470 -0.5603  1.6836 -1.1924
  228MPD1    H7 3472   4.418   3.894  12.454 -0.3716  2.7066  0.5053
  229MPD1     C 3473   3.667   2.350  14.795  0.5021 -0.1261 -0.8340
  229MPD1    C1 3474   3.680   2.219  14.753 -0.4077  0.4642 -0.9434
  229MPD1    C2 3475   3.741   2.132  14.845 -0.2938  0.4991  0.5921
  229MPD1    C3 3476   3.765   2.178  14.977  0.1778 -0.3599 -0.2547
  229MPD1    C4 3477   3.736   2.308  15.012  0.1271  0.6860  0.3643
  229MPD1    C5 3478   3.681   2.401  14.921 -0.2750  0.0024 -0.2778
  229MPD1     H 3479   3.766   2.033  14.808  2.0638  1.0720  0.6939
  229MPD1    H1 3480   3.745   2.350  15.112 -1.0335 -1.1348  1.2389
  229MPD1    H2 3481   3.639   2.420  14.717 -0.2121 -0.3708 -0.7961
  229MPD1    H3 3482   3.657   2.505  14.940  1.2272 -0.1160  2.3649
  229MPD1     N 3483   3.826   2.087  15.067  0.6292  0.0922  0.4679
  229MPD1    H5 3484   3.861   2.008  15.015  0.8135 -0.0570  0.8224
  229MPD1    N1 3485   3.685   2.190  14.617  0.1218  0.0511 -0.2231
  229MPD1    H6 3486   3.620   2.249  14.564  0.6237  1.5781  0.8585
  229MPD1    H7 3487   3.682   2.089  14.603 -1.9264 -0.0127  0.5570
  230MPD1     C 3488   3.954   1.923  16.071 -0.7967 -0.5804 -0.4422
  230MPD1    C1 3489   3.863   2.007  16.001  0.2666  0.4794  0.0269
  230MPD1    C2 3490   3.841   1.982  15.862 -0.1803  0.2285  0.2071
  230MPD1    C3 3491   3.932   1.892  15.794 -0.0132 -0.3460  0.3682
  230MPD1    C4 3492   4.031   1.825  15.864 -0.2191  0.5324 -0.3862
  230MPD1    C5 3493   4.040   1.838  16.003 -0.1523 -0.0062  0.3642
  230MPD1     H 3494   3.762   2.023  15.801  0.2355 -0.1688 -0.6093
  230MPD1    H1 3495   4.098   1.751  15.821 -1.9593 -0.9032 -0.6341
  230MPD1    H2 3496   3.978   1.946  16.175  0.5920 -2.8144 -0.2429
  230MPD1    H3 3497   4.109   1.788  16.070 -0.8784  1.8220  2.4790
  230MPD1     N 3498   3.919   1.893  15.652 -0.1525 -0.4681 -0.4402
  230MPD1    H5 3499   3.869   1.971  15.610  2.0964  0.5394 -1.2493
  230MPD1    N1 3500   3.782   2.089  16.072 -0.0627  0.0196 -0.6124
  230MPD1    H6 3501   3.750   2.158  16.004 -1.3651  0.8968  0.8938
  230MPD1    H7 3502   3.829   2.131  16.152  1.5835 -0.2854 -1.4216
  231MPD1     C 3503   2.408   4.291  15.187  0.7381  0.0099  0.1167
  231MPD1    C1 3504   2.498   4.376  15.129 -0.2318  0.0350  0.2786
  231MPD1    C2 3505   2.519   4.375  14.993  0.4827  0.4051 -0.4036
  231MPD1    C3 3506   2.461   4.273  14.916 -0.1423  0.8736 -0.1583
  231MPD1    C4 3507   2.365   4.189  14.982 -0.6177 -0.2214 -0.4496
  231MPD1    C5 3508   2.340   4.200  15.120 -0.1228 -0.5711  0.1454
  231MPD1     H 3509   2.587   4.455  14.964  0.2169  0.4132 -0.9987
  231MPD1    H1 3510   2.313   4.108  14.932 -0.7658  0.3196 -1.1843
  231MPD1    H2 3511   2.395   4.311  15.293  0.1181 -1.8905  0.4001
  231MPD1    H3 3512   2.270   4.130  15.164 -1.6148  0.9326  0.1959
  231MPD1     N 3513   2.483   4.274  14.778 -0.4496 -0.1069 -0.5831
  231MPD1    H5 3514   2.555   4.338  14.746  2.0666 -0.9164  3.4766
  231MPD1    N1 3515   2.578   4.459  15.210  1.4312  0.4049 -0.0564
  231MPD1    H6 3516   2.571   4.560  15.197  2.0404  0.3657 -0.6681
  231MPD1    H7 3517   2.552   4.450  15.308 -0.3237  1.1519 -0.4495
  232MPD1     C 3518   0.013   1.198  17.290  0.3290  0.4895 -0.4752
  232MPD1    C1 3519   4.703   1.327  17.314  0.4590 -0.6366 -0.3703
  232MPD1    C2 3520   4.601   1.354  17.404  0.2417 -0.1553  0.3371
  232MPD1    C3 3521   4.547   1.247  17.479  0.0553  0.0342  0.4471
  232MPD1    C4 3522   4.592   1.120  17.459  0.7311  0.8562 -0.9542
  232MPD1    C5 3523   4.689   1.096  17.367 -0.1879  0.3749 -0.1562
  232MPD1     H 3524   4.576   1.459  17.411  0.8750  0.0962 -1.1352
  232MPD1    H1 3525   4.557   1.037  17.519 -0.1283  1.7974 -0.1585
  232MPD1    H2 3526   0.090   1.167  17.220  0.0164 -2.3247  0.4337
  232MPD1    H3 3527   4.711   0.991  17.350  0.2015  0.8368 -2.5837
  232MPD1     N 3528   4.455   1.273  17.578 -0.1074  0.4318 -0.5926
  232MPD1    H5 3529   4.433   1.369  17.599 -0.0088  0.3715 -0.2174
  232MPD1    N1 3530   0.012   1.433  17.223  0.4215  0.5300 -0.3865
  232MPD1    H6 3531   0.003   1.524  17.268 -3.5867 -0.2473  0.3834
  232MPD1    H7 3532   0.106   1.412  17.190  0.0400 -0.1058 -1.0712
  233MPD1     C 3533   1.494   4.642   2.578  0.3012  0.9229  0.5906
  233MPD1    C1 3534   1.633   4.622   2.595  0.4241 -0.8650 -0.0796
  233MPD1    C2 3535   1.706   4.600   2.479  0.7322  0.9802  0.2002
  233MPD1    C3 3536   1.644   4.587   2.353  0.4007  0.6965 -0.3642
  233MPD1    C4 3537   1.508   4.595   2.344 -0.5722 -0.8626  0.0911
  233MPD1    C5 3538   1.440   4.629   2.454  0.3279  0.1434  0.1710
  233MPD1     H 3539   1.811   4.582   2.499  0.9360  1.6720 -0.2557
  233MPD1    H1 3540   1.454   4.571   2.253  1.5395 -0.1069 -1.3558
  233MPD1    H2 3541   1.431   4.674   2.661  0.5677 -0.8428  1.4918
  233MPD1    H3 3542   1.333   4.644   2.449  0.7554  2.6134 -1.7333
  233MPD1     N 3543   1.707   4.555   2.232  0.3469  0.1713 -0.7917
  233MPD1    H5 3544   1.647   4.511   2.163 -1.3256 -0.9204  1.3528
  233MPD1    N1 3545   1.682   4.595   2.729  0.3916 -0.4162 -0.4166
  233MPD1    H6 3546   1.624   4.633   2.804 -1.6437  0.5105 -2.4641
  233MPD1    H7 3547   1.778   4.621   2.748 -0.6438  0.9250  2.9749
  234MPD1     C 3548   2.418   3.294  10.531 -0.1426  0.3449  0.4459
  234MPD1    C1 3549   2.437   3.421  10.489  0.0557  0.9132  0.5049
  234MPD1    C2 3550   2.353   3.472  10.390  0.0882  1.0103 -0.0165
  234MPD1    C3 3551   2.262   3.390  10.334  0.0052 -0.4175  0.6874
  234MPD1    C4 3552   2.233   3.265  10.390  0.4317 -0.3721  0.2921
  234MPD1    C5 3553   2.314   3.219  10.489 -0.0731 -0.7026 -0.4388
  234MPD1     H 3554   2.378   3.563  10.337  1.9044  0.0427 -0.8237
  234MPD1    H1 3555   2.144   3.215  10.352  0.1288 -0.0961  0.6485
  234MPD1    H2 3556   2.488   3.257  10.605 -0.2697 -0.4728  0.1567
  234MPD1    H3 3557   2.295   3.123  10.535  1.9751 -2.1579 -2.5835
  234MPD1     N 3558   2.184   3.447  10.231 -0.1821  0.2603  0.2778
  234MPD1    H5 3559   2.201   3.544  10.208 -0.9735  0.2213 -0.4641
  234MPD1    N1 3560   2.561   3.486  10.506 -0.1406 -0.2477  0.1160
  234MPD1    H6 3561   2.616   3.466  10.590 -1.1056 -1.3154  0.4934
  234MPD1    H7 3562   2.566   3.586  10.491 -1.4179  0.1533  2.2924
  235MPD1     C 3563   2.154   1.914  10.015  0.1127 -0.4219  0.7113
  235MPD1    C1 3564   2.268   1.993  10.015  0.1629  0.2577  0.7513
  235MPD1    C2 3565   2.391   1.929   9.993 -0.6294 -0.2472 -0.3707
  235MPD1    C3 3566   2.402   1.795   9.967 -0.6734  0.4786  0.5708
  235MPD1    C4 3567   2.288   1.717   9.972 -0.0069 -0.4496  0.1194
  235MPD1    C5 3568   2.166   1.782   9.981  0.0876 -0.4509  0.0323
  235MPD1     H 3569   2.482   1.988   9.997 -1.1059  0.3192  2.0067
  235MPD1    H1 3570   2.275   1.610   9.960 -1.2938 -0.3818  0.9645
  235MPD1    H2 3571   2.053   1.952  10.025 -0.5114 -1.9318  0.0980
  235MPD1    H3 3572   2.074   1.728   9.961 -1.2268  1.1974  1.6078
  235MPD1     N 3573   2.530   1.737   9.943 -0.6301  0.9879 -0.1026
  235MPD1    H5 3574   2.613   1.796   9.946 -0.8067  1.3547 -2.7424
  235MPD1    N1 3575   2.264   2.128  10.062 -0.2833 -0.2565 -1.1059
  235MPD1    H6 3576   2.344   2.182  10.027  1.5472 -2.1027  0.2085
  235MPD1    H7 3577   2.168   2.159  10.053  0.1556  0.4869 -3.2096
  236MPD1     C 3578   2.121   2.685  10.046 -0.6821  0.0280  0.4434
  236MPD1    C1 3579   2.073   2.575  10.112  0.2624 -0.1376  0.4805
  236MPD1    C2 3580   2.178   2.500  10.166 -0.5012 -0.0177  0.0237
  236MPD1    C3 3581   2.303   2.552  10.195  0.3320  0.5072  0.1762
  236MPD1    C4 3582   2.337   2.673  10.136 -0.8328 -0.6718 -0.2893
  236MPD1    C5 3583   2.252   2.733  10.049  1.2304 -0.2208  0.3278
  236MPD1     H 3584   2.154   2.398  10.196  0.2776  0.3280  1.7685
  236MPD1    H1 3585   2.432   2.721  10.154 -1.8090  0.5340  1.7411
  236MPD1    H2 3586   2.052   2.752   9.997 -0.6212 -0.2611 -0.0379
  236MPD1    H3 3587   2.265   2.825   9.994 -0.3660 -1.4125 -2.0700
  236MPD1     N 3588   2.401   2.469  10.255  0.0079 -0.1677 -0.0412
  236MPD1    H5 3589   2.498   2.500  10.251 -0.6057  1.9637  1.2367
  236MPD1    N1 3590   1.937   2.528  10.109  0.6353 -0.2078  0.2827
  236MPD1    H6 3591   1.903   2.496  10.200 -0.2664  1.5735  0.5666
  236MPD1    H7 3592   1.878   2.604  10.075  0.4431 -0.3076  0.3955
  237MPD1     C 3593   2.690   0.554  15.174 -1.0861 -0.5406 -0.1348
  237MPD1    C1 3594   2.564   0.598  15.141 -0.5030 -0.0389  0.1437
  237MPD1    C2 3595   2.460   0.508  15.150 -0.1460  0.1723 -0.8920
  237MPD1    C3 3596   2.475   0.380  15.201 -0.5844  0.1712 -0.5639
  237MPD1    C4 3597   2.605   0.353  15.247  0.0212 -0.5423  0.5554
  237MPD1    C5 3598   2.711   0.436  15.228 -0.5995 -0.6823  0.6249
  237MPD1     H 3599   2.364   0.536  15.108  0.5525 -0.1018 -2.6967
  237MPD1    H1 3600   2.626   0.259  15.297  3.3694 -1.0727 -1.8750
  237MPD1    H2 3601   2.779   0.609  15.144 -0.2573 -0.4557  2.5025
  237MPD1    H3 3602   2.812   0.404  15.251  0.1245  0.4923 -0.8726
  237MPD1     N 3603   2.365   0.293  15.221 -0.3158 -0.4723  0.0879
  237MPD1    H5 3604   2.368   0.217  15.288 -2.9715  0.4242  1.2305
  237MPD1    N1 3605   2.558   0.712  15.062 -0.7572 -0.5412  0.1714
  237MPD1    H6 3606   2.464   0.752  15.067 -0.2472  0.7789 -0.9951
  237MPD1    H7 3607   2.621   0.786  15.093  0.6591 -0.9240 -1.8848
  238MPD1     C 3608   0.007   4.020  15.142 -0.3143 -0.4915 -0.3360
  238MPD1    C1 3609   4.662   3.911  15.193  0.0087 -0.4947  0.2285
  238MPD1    C2 3610   4.556   3.868  15.117  0.0611 -0.6726  0.3540
  238MPD1    C3 3611   4.496   3.950  15.024  0.6567 -0.3654  0.5243
  238MPD1    C4 3612   4.552   4.066  14.985  0.1701 -0.4840  0.0285
  238MPD1    C5 3613   4.669   4.098  15.041 -0.9912  0.1400 -0.0298
  238MPD1     H 3614   4.493   3.785  15.148  2.2605 -2.3724  0.2713
  238MPD1    H1 3615   4.520   4.141  14.913 -0.6524  0.1435  1.0567
  238MPD1    H2 3616   0.105   4.051  15.177  0.4201 -1.2232 -1.7652
  238MPD1    H3 3617   0.002   4.183  15.001  1.0110  0.2314  2.8765
  238MPD1     N 3618   4.381   3.920  14.954  0.1113 -0.3913 -0.3892
  238MPD1    H5 3619   4.349   3.988  14.885  0.0762  0.2844  0.2894
  238MPD1    N1 3620   4.716   3.828  15.293 -0.1557  0.1465  0.3750
  238MPD1    H6 3621   4.643   3.770  15.333 -0.0647 -0.1547  0.1001
  238MPD1    H7 3622   0.046   3.875  15.368 -0.3469  0.1398  0.5110
  239MPD1     C 3623   4.359   0.026  15.260  0.2868 -0.7578 -0.0815
  239MPD1    C1 3624   4.230   4.710  15.225  0.0955  0.4514 -0.1509
  239MPD1    C2 3625   4.199   0.006  15.090 -0.5149  0.2965 -0.1945
  239MPD1    C3 3626   4.294   0.061  14.997  0.3117 -0.2496 -0.0223
  239MPD1    C4 3627   4.416   0.108  15.048 -0.3218  0.1040 -0.1126
  239MPD1    C5 3628   4.452   0.075  15.179  0.1927 -0.2154  0.3290
  239MPD1     H 3629   4.102   4.688  15.062 -0.9141  0.7096  0.6303
  239MPD1    H1 3630   4.478   0.177  14.993 -0.7877  1.0147  0.5075
  239MPD1    H2 3631   4.406   0.015  15.357 -0.4612 -1.8679  0.1545
  239MPD1    H3 3632   4.549   0.099  15.220 -0.7161  0.5037  2.0480
  239MPD1     N 3633   4.262   0.085  14.864 -0.2105 -0.4495 -0.3590
  239MPD1    H5 3634   4.335   0.139  14.818 -1.1298  0.5920 -0.6100
  239MPD1    N1 3635   4.143   4.636  15.308  0.4874  0.4001 -0.2509
  239MPD1    H6 3636   4.045   4.636  15.281  0.4643  0.6480 -0.1681
  239MPD1    H7 3637   4.158   4.637  15.409  1.2535 -1.2282 -0.3345
  240MPD1     C 3638   3.766   0.013  13.705 -0.3280  0.3852  0.5989
  240MPD1    C1 3639   3.664   4.646  13.726 -0.2194  0.2574  0.0865
  240MPD1    C2 3640   3.669   4.554  13.825  0.5898  0.5116 -0.1559
  240MPD1    C3 3641   3.768   4.554  13.922 -0.0592  0.3721  0.1082
  240MPD1    C4 3642   3.875   4.638  13.895  0.0620 -0.5028 -0.0578
  240MPD1    C5 3643   3.880   4.717  13.785 -0.5526  0.4065  0.4961
  240MPD1     H 3644   3.592   4.478  13.821 -0.0900  1.1617  0.4418
  240MPD1    H1 3645   3.966   4.645  13.954  0.1071 -0.7948 -0.0959
  240MPD1    H2 3646   3.767   0.086  13.624 -0.9216  0.0272  0.2684
  240MPD1    H3 3647   3.962   0.065  13.774 -0.8791  0.2644 -2.6525
  240MPD1     N 3648   3.774   4.455  14.013  0.0905  0.4796  0.0385
  240MPD1    H5 3649   3.699   4.386  14.013  0.8770 -0.3881  1.9081
  240MPD1    N1 3650   3.551   4.662  13.644  0.3443 -0.1333 -0.0188
  240MPD1    H6 3651   3.558   4.715  13.558  0.5387 -1.1780 -0.6561
  240MPD1    H7 3652   3.517   4.574  13.606  0.3096 -1.9687  4.2165
  241MPD1     C 3653   3.860   3.976  14.969 -0.4158 -0.0151 -0.3980
  241MPD1    C1 3654   3.959   4.059  14.918  0.2080  0.1652  0.4401
  241MPD1    C2 3655   3.950   4.108  14.785 -0.4482  0.0229  0.6624
  241MPD1    C3 3656   3.838   4.082  14.712  0.8925  0.6439 -0.0628
  241MPD1    C4 3657   3.740   4.007  14.768 -0.2217 -0.1169 -0.5329
  241MPD1    C5 3658   3.751   3.950  14.893 -0.1634  0.0380 -0.2771
  241MPD1     H 3659   4.030   4.172  14.746 -1.0705  1.5843  1.9497
  241MPD1    H1 3660   3.649   3.979  14.716 -0.9230 -0.1935  0.7336
  241MPD1    H2 3661   3.854   3.947  15.073 -0.1902  5.4132  1.1414
  241MPD1    H3 3662   3.661   3.901  14.926 -0.7615  1.1863 -0.1928
  241MPD1     N 3663   3.817   4.128  14.583  0.3173  0.0584  0.0133
  241MPD1    H5 3664   3.734   4.092  14.539  0.0649 -1.3328  1.6231
  241MPD1    N1 3665   4.065   4.096  15.002  0.1120 -0.1972 -0.3594
  241MPD1    H6 3666   4.093   4.018  15.061  2.5927 -1.0048 -2.5975
  241MPD1    H7 3667   4.142   4.118  14.940 -1.1219  0.9187 -1.5025
  242MPD1     C 3668   3.522   3.004  16.022 -0.1651 -0.5805  0.2891
  242MPD1    C1 3669   3.602   2.890  16.030 -0.1497  0.1053 -0.6342
  242MPD1    C2 3670   3.650   2.831  15.910  0.2757  0.4250  0.2964
  242MPD1    C3 3671   3.624   2.890  15.787  0.1561  0.6030  0.5623
  242MPD1    C4 3672   3.548   3.000  15.786 -0.2790  0.6962 -0.1670
  242MPD1    C5 3673   3.489   3.056  15.899  0.0200  0.3006  0.0058
  242MPD1     H 3674   3.710   2.741  15.917 -0.6269 -0.0757  1.5107
  242MPD1    H1 3675   3.531   3.039  15.686 -0.5732 -3.5402 -1.8070
  242MPD1    H2 3676   3.478   3.041  16.113 -2.7980 -3.7143  0.3110
  242MPD1    H3 3677   3.424   3.142  15.890  0.7901  0.7911 -0.8550
  242MPD1     N 3678   3.659   2.840  15.658  0.0668  0.0077  0.0147
  242MPD1    H5 3679   3.615   2.881  15.577  0.3441 -0.7606 -0.5212
  242MPD1    N1 3680   3.619   2.824  16.148  0.0624  0.3922  0.2769
  242MPD1    H6 3681   3.639   2.893  16.221  1.4081  1.6852 -1.3115
  242MPD1    H7 3682   3.707   2.773  16.148  1.0503  2.1135 -0.8391
  243MPD1     C 3683   1.394   1.896  17.260  0.0854 -0.1068  0.1610
  243MPD1    C1 3684   1.378   1.778  17.196  0.3075 -0.1084  0.2764
  243MPD1    C2 3685   1.257   1.729  17.166 -0.7214 -0.0958  0.3076
  243MPD1    C3 3686   1.145   1.800  17.202  0.8693 -0.2282  0.3346
  243MPD1    C4 3687   1.156   1.920  17.265 -0.1935 -0.4218 -0.5177
  243MPD1    C5 3688   1.281   1.969  17.300 -0.9259 -0.5401 -0.2260
  243MPD1     H 3689   1.251   1.631  17.120  0.2626  0.2178 -0.4767
  243MPD1    H1 3690   1.067   1.977  17.292  1.0780  0.9048  0.9167
  243MPD1    H2 3691   1.491   1.937  17.288 -0.3701  1.5592 -0.7178
  243MPD1    H3 3692   1.292   2.066  17.346 -2.6153 -1.0611  1.3212
  243MPD1     N 3693   1.024   1.746  17.159  0.4860  0.0024  0.3697
  243MPD1    H5 3694   1.028   1.658  17.109 -0.7821  0.0826  0.1248
  243MPD1    N1 3695   1.498   1.721  17.149  0.1510 -0.2889  0.4785
  243MPD1    H6 3696   1.493   1.620  17.134 -0.1076 -0.1121 -0.6002
  243MPD1    H7 3697   1.576   1.745  17.210  0.7289 -1.2651  0.1277
  244MPD1     C 3698   0.200   1.499  17.665  0.2392 -0.0894 -0.0724
  244MPD1    C1 3699   0.330   1.518   0.010  0.0364  0.2302  0.1663
  244MPD1    C2 3700   0.420   1.543  17.608  0.5663  0.7473  0.0723
  244MPD1    C3 3701   0.384   1.548  17.475  0.0584 -0.4216 -0.0217
  244MPD1    C4 3702   0.260   1.517  17.436  0.0986 -0.1920  0.2759
  244MPD1    C5 3703   0.164   1.496  17.533 -0.2868  0.3074 -0.2605
  244MPD1     H 3704   0.523   1.574  17.626  0.8810  0.2004 -0.7656
  244MPD1    H1 3705   0.225   1.518  17.334  0.8164 -0.6051  0.0277
  244MPD1    H2 3706   0.118   1.473   0.043 -0.0945 -0.3184 -0.5767
  244MPD1    H3 3707   0.059   1.502  17.509  0.0677  2.2031 -1.3219
  244MPD1     N 3708   0.483   1.583  17.381 -0.5039 -0.3057 -0.3232
  244MPD1    H5 3709   0.574   1.605  17.420  0.5633  0.1280 -3.0847
  244MPD1    N1 3710   0.369   1.515   0.150 -0.4732 -0.6352  0.0100
  244MPD1    H6 3711   0.313   1.459   0.213 -1.4257  1.1144  0.7070
  244MPD1    H7 3712   0.467   1.488   0.159 -0.2131  0.8729  1.6345
  245MPD1     C 3713   1.748   1.255  13.286 -0.1500  0.3335 -1.2703
  245MPD1    C1 3714   1.880   1.288  13.267  0.0135 -0.8665  0.0802
  245MPD1    C2 3715   1.917   1.415  13.299 -0.0215  0.1085 -0.7025
  245MPD1    C3 3716   1.848   1.492  13.384 -0.1403 -0.0502  0.2639
  245MPD1    C4 3717   1.725   1.444  13.430 -0.4763 -0.4895  0.0261
  245MPD1    C5 3718   1.673   1.331  13.374 -0.0692  0.3850 -0.2903
  245MPD1     H 3719   1.999   1.455  13.239  1.3259 -0.4277  0.7868
  245MPD1    H1 3720   1.662   1.504  13.496 -0.9810  1.6080 -2.3423
  245MPD1    H2 3721   1.706   1.164  13.246 -3.1806  1.3303 -0.3248
  245MPD1    H3 3722   1.573   1.301  13.404  0.2556 -0.0388  0.3605
  245MPD1     N 3723   1.900   1.619  13.426  0.6208 -0.0224  0.1526
  245MPD1    H5 3724   1.995   1.640  13.398  0.7962 -0.1141  0.6707
  245MPD1    N1 3725   1.946   1.199  13.187  1.1845 -0.2974 -0.4788
  245MPD1    H6 3726   2.047   1.198  13.199  1.0251  1.0178  0.9480
  245MPD1    H7 3727   1.910   1.110  13.221  0.5821 -0.1729 -0.7813
  246MPD1     C 3728   1.795   1.656  10.014 -0.1839 -0.9238  0.4196
  246MPD1    C1 3729   1.843   1.752  10.104  0.0557 -0.9732  0.3043
  246MPD1    C2 3730   1.935   1.717  10.200  0.7408  0.4741  0.2018
  246MPD1    C3 3731   1.979   1.584  10.222 -0.0257 -0.5433  0.2561
  246MPD1    C4 3732   1.939   1.499  10.122 -0.3361  0.3570 -0.6193
  246MPD1    C5 3733   1.841   1.528  10.028 -0.4758  1.1801  0.3788
  246MPD1     H 3734   1.971   1.792  10.270 -0.0993 -0.7562  1.9482
  246MPD1    H1 3735   1.973   1.397  10.112  1.5261  0.6205  2.9689
  246MPD1    H2 3736   1.723   1.686   9.938  0.3176  0.8047  0.6324
  246MPD1    H3 3737   1.819   1.462   9.945  0.4151  1.9677 -0.4900
  246MPD1     N 3738   2.079   1.559  10.323 -0.1081 -1.3125  0.2610
  246MPD1    H5 3739   2.106   1.638  10.381 -1.9417 -2.5103  2.7889
  246MPD1    N1 3740   1.781   1.881  10.112 -0.5901 -0.5082  0.4407
  246MPD1    H6 3741   1.752   1.901  10.016 -0.1410 -1.0856  0.1857
  246MPD1    H7 3742   1.854   1.947  10.140 -0.2450 -0.4799 -0.5223
  247MPD1     C 3743   1.725   1.941  17.395 -0.6325  0.0573 -0.2760
  247MPD1    C1 3744   1.782   1.870  17.291  0.7746  0.2199 -0.0144
  247MPD1    C2 3745   1.828   1.929  17.180  0.1170  0.3086  0.1673
  247MPD1    C3 3746   1.838   2.063  17.170  0.2914  0.5003 -0.3928
  247MPD1    C4 3747   1.787   2.140  17.268 -0.0104  0.3850  0.0598
  247MPD1    C5 3748   1.719   2.077  17.371  0.3375  0.1307  0.2957
  247MPD1     H 3749   1.869   1.871  17.099  1.9892 -1.2098  2.1900
  247MPD1    H1 3750   1.778   2.248  17.270 -1.8340  0.2263  0.8970
  247MPD1    H2 3751   1.681   1.891  17.481  0.8606  0.4418  0.7183
  247MPD1    H3 3752   1.673   2.140  17.446 -0.4688  1.4222 -1.2828
  247MPD1     N 3753   1.882   2.140  17.059  0.6920  0.7312 -0.3047
  247MPD1    H5 3754   1.865   2.239  17.065  0.6339  0.6015  1.5632
  247MPD1    N1 3755   1.762   1.732  17.302  0.2359  0.1573  0.1331
  247MPD1    H6 3756   1.798   1.714  17.396  1.9100 -0.9399 -0.7021
  247MPD1    H7 3757   1.831   1.694  17.237  0.3249 -0.3867  0.5467
  248MPD1     C 3758   1.889   2.337   0.014 -0.1857 -0.7175 -0.5923
  248MPD1    C1 3759   1.846   2.352   0.143 -0.0502 -0.1853  0.1624
  248MPD1    C2 3760   1.805   2.481   0.167 -0.1080  0.6415  0.4277
  248MPD1    C3 3761   1.823   2.584   0.078 -0.3521  0.6071  0.5467
  248MPD1    C4 3762   1.877   2.564  17.639  0.7734 -0.4926  0.0354
  248MPD1    C5 3763   1.898   2.436  17.601 -0.7582  0.3397  0.2265
  248MPD1     H 3764   1.757   2.498   0.263 -2.3735 -0.6860 -0.4655
  248MPD1    H1 3765   1.910   2.640  17.570 -3.2930  1.6808  0.5108
  248MPD1    H2 3766   1.904   2.237  17.665  2.4559 -1.2076  1.8668
  248MPD1    H3 3767   1.931   2.414  17.501 -1.6491  0.7478 -0.1621
  248MPD1     N 3768   1.776   2.711   0.114 -0.1258 -0.0881 -0.7293
  248MPD1    H5 3769   1.745   2.722   0.210 -1.0440  2.3023 -1.3088
  248MPD1    N1 3770   1.815   2.245   0.224  0.1277  0.0962 -0.6092
  248MPD1    H6 3771   1.821   2.258   0.325  2.9001 -0.3763 -0.7146
  248MPD1    H7 3772   1.869   2.166   0.188 -0.6694 -0.5280 -0.4256
  249MPD1     C 3773   4.081   3.749   9.633 -0.0190  0.4864  0.1888
  249MPD1    C1 3774   4.113   3.738   9.762  0.6319 -0.3240 -0.0218
  249MPD1    C2 3775   4.116   3.851   9.848  0.2949  0.1864 -0.1526
  249MPD1    C3 3776   4.108   3.975   9.786 -0.0378  0.2173  0.2941
  249MPD1    C4 3777   4.058   3.982   9.658 -0.7234  0.4386  0.4280
  249MPD1    C5 3778   4.052   3.871   9.583 -0.2872  0.7195  0.2767
  249MPD1     H 3779   4.127   3.837   9.955  1.4025 -2.2808 -0.6023
  249MPD1    H1 3780   4.027   4.074   9.609 -1.5582 -0.5385 -0.8693
  249MPD1    H2 3781   4.078   3.660   9.570  1.9762  0.0091  0.7628
  249MPD1    H3 3782   4.024   3.884   9.480  0.2426  0.2836  0.0756
  249MPD1     N 3783   4.130   4.090   9.867  0.0561 -0.6032  0.3898
  249MPD1    H5 3784   4.161   4.077   9.962  0.7575 -1.4787  0.0446
  249MPD1    N1 3785   4.102   3.607   9.823  0.0724  0.1350 -0.1853
  249MPD1    H6 3786   4.131   3.530   9.763  0.3348 -0.7790  1.1254
  249MPD1    H7 3787   4.161   3.595   9.905  0.4495 -2.2918 -0.8264
  250MPD2     C 3788   0.951   0.471  12.618 -0.4877  0.5469 -0.3386
  250MPD2    C1 3789   0.821   0.502  12.568  0.0023 -0.0001 -0.1811
  250MPD2    C2 3790   0.753   0.399  12.502 -0.1555  0.0453 -0.2705
  250MPD2    C3 3791   0.811   0.273  12.482 -0.4303 -0.1686  0.0348
  250MPD2    C4 3792   0.937   0.245  12.531 -0.4812  0.7303 -0.6833
  250MPD2    C5 3793   1.006   0.345  12.587  0.3661  0.2721  0.3161
  250MPD2     H 3794   0.664   0.433  12.450 -3.1597 -2.2791  3.3152
  250MPD2    H1 3795   0.989   0.153  12.508  0.8088  1.2915 -0.0100
  250MPD2    H2 3796   1.012   0.544  12.670  0.2651  0.5103 -1.1619
  250MPD2    H3 3797   1.111   0.326  12.605  0.4385  0.3833  0.0138
  250MPD2     N 3798   0.731   0.167  12.424  0.6094 -0.4473  0.0453
  250MPD2    H5 3799   0.763   0.074  12.448  1.5793  0.8332  3.7128
  250MPD2    N1 3800   0.762   0.620  12.619  0.0595  0.5771 -0.2593
  250MPD2    H7 3801   0.823   0.686  12.667 -0.2531  0.7339 -0.0834
  251TMC3    C1 3802   0.571   0.745  12.694 -0.9281  0.4838 -0.3374
  251TMC3    C2 3803   0.441   0.730  12.732  0.1050  0.7120  0.2987
  251TMC3    C3 3804   0.380   0.836  12.807  0.2213 -0.7209 -0.3322
  251TMC3    C4 3805   0.646   0.851  12.735  0.4479  1.3811  0.2334
  251TMC3    C5 3806   0.581   0.948  12.808  0.0389 -0.8287  0.1111
  251TMC3    C6 3807   0.450   0.945  12.831 -0.2310  0.0200  0.2185
  251TMC3     C 3808   0.627   0.633  12.623 -0.1790 -0.0463  0.7668
  251TMC3     O 3809   0.549   0.538  12.619  0.3135 -0.0615 -0.2794
  251TMC3     H 3810   0.388   0.639  12.707 -0.5751  1.3540 -0.6425
  251TMC3    H1 3811   0.753   0.843  12.722  0.3416  0.5460 -0.1840
  251TMC3    H2 3812   0.402   1.021  12.891 -0.8281  0.3936 -0.7212
  251TMC3    C7 3813   0.657   0.992  12.925  0.1928 -0.1368 -0.3347
  251TMC3    C8 3814   0.238   0.824  12.847 -0.3660  0.1514  0.0561
  251TMC3    O1 3815   0.589   0.988  13.026  0.2664  0.0829  0.0334
  251TMC3    O2 3816   0.172   0.926  12.842  0.0535 -0.0468 -0.6236
  252TMC3    C1 3817   1.056   1.306   9.688 -0.4669 -0.1091 -0.0736
  252TMC3    C2 3818   1.095   1.431   9.697  0.6079  0.1844 -0.5344
  252TMC3    C3 3819   1.062   1.518   9.600  0.3455 -0.4005 -0.5054
  252TMC3    C4 3820   0.963   1.263   9.603 -0.3474 -0.4901  0.2607
  252TMC3    C5 3821   0.931   1.347   9.501 -0.3149 -0.4200  0.1082
  252TMC3    C6 3822   0.992   1.471   9.491 -0.1503 -0.0679 -0.2428
  252TMC3     C 3823   1.097   1.225   9.804  0.1276  0.3780  0.5985
  252TMC3     O 3824   1.116   1.282   9.908  0.0281  0.1929 -0.0094
  252TMC3     H 3825   1.164   1.454   9.778  0.7735 -0.4971 -0.4789
  252TMC3    H1 3826   0.921   1.163   9.608  0.2812 -0.8041 -0.7027
  252TMC3    H2 3827   0.965   1.532   9.405  0.3368  0.7338  0.1763
  252TMC3    C7 3828   0.853   1.302   9.383 -0.2511 -0.4212  0.3983
  252TMC3    C8 3829   1.130   1.646   9.583 -0.6930 -0.2759 -0.3643
  252TMC3    O1 3830   0.852   1.376   9.287  0.1090  0.1214  0.2628
  252TMC3    O2 3831   1.163   1.676   9.472  0.1141  0.1306  0.0078
  253MPD2     C 3832   2.286   0.391  15.665  0.0820 -0.2046  0.4582
  253MPD2    C1 3833   2.153   0.372  15.688  0.3233 -0.3110 -0.5299
  253MPD2    C2 3834   2.106   0.329  15.809  0.1287 -0.1395  0.3624
  253MPD2    C3 3835   2.194   0.294  15.910  0.5439  0.3974 -0.1815
  253MPD2    C4 3836   2.331   0.307  15.882  0.5977 -0.0279  0.8043
  253MPD2    C5 3837   2.377   0.358  15.759 -0.1272 -0.7527 -0.7436
  253MPD2     H 3838   1.998   0.319  15.817 -0.0047  1.9705  1.0145
  253MPD2    H1 3839   2.403   0.306  15.964 -0.2325 -3.5803  1.4668
  253MPD2    H2 3840   2.326   0.430  15.572  0.3494 -1.8268 -0.1130
  253MPD2    H3 3841   2.481   0.385  15.742 -0.5506  0.5743 -1.2035
  253MPD2     N 3842   2.154   0.249  16.037 -0.0862 -0.2210 -0.1466
  253MPD2    H5 3843   2.226   0.235  16.108  0.3226  1.9541 -0.1351
  253MPD2    N1 3844   2.055   0.404  15.592  0.0076 -0.3042 -0.2572
  253MPD2    H7 3845   1.957   0.384  15.610 -0.2229  1.8879  1.0260
  254TMC3    C1 3846   2.018   0.202  16.228 -0.1908  0.2569  0.4663
  254TMC3    C2 3847   1.899   0.247  16.291 -0.2200 -0.2069 -0.0539
  254TMC3    C3 3848   1.896   0.257  16.425 -0.7043 -0.0141  0.4051
  254TMC3    C4 3849   2.134   0.185  16.304 -0.3065 -0.2526  0.6051
  254TMC3    C5 3850   2.130   0.216  16.434  0.2267 -0.9670 -0.1395
  254TMC3    C6 3851   2.012   0.244  16.498 -0.5571 -0.2498  0.0575
  254TMC3     C 3852   2.025   0.230  16.077  0.1895 -0.0050 -0.5291
  254TMC3     O 3853   1.919   0.249  16.021  0.2401 -0.3111 -0.4866
  254TMC3     H 3854   1.809   0.261  16.232 -0.1790 -1.3611 -0.3959
  254TMC3    H1 3855   2.230   0.174  16.255  0.0407  0.7920  1.0475
  254TMC3    H2 3856   2.006   0.248  16.606  0.5177 -3.1775  0.2363
  254TMC3    C7 3857   2.240   0.176  16.526 -0.1600 -0.0783  0.2331
  254TMC3    C8 3858   1.776   0.310  16.495  0.6753  0.0282 -0.9299
  254TMC3    O1 3859   2.226   0.187  16.648 -0.0499 -0.9324 -0.2600
  254TMC3    O2 3860   1.804   0.386  16.593  0.1017 -0.1442 -0.3901
  255MPD2     C 3861   4.476   2.309  10.294 -0.0311 -0.0359  0.0375
  255MPD2    C1 3862   4.543   2.427  10.319  0.5094 -0.5724 -0.7191
  255MPD2    C2 3863   4.675   2.443  10.279 -0.5248 -0.3938  0.1973
  255MPD2    C3 3864   0.018   2.344  10.208  0.1972 -0.3307  0.0914
  255MPD2    C4 3865   4.676   2.223  10.187 -0.0621  0.5180 -0.2645
  255MPD2    C5 3866   4.544   2.209  10.220 -0.0784 -0.6787  1.1207
  255MPD2     H 3867   0.017   2.527  10.304 -0.6885  0.0780 -0.9538
  255MPD2    H1 3868   0.001   2.140  10.136 -1.6733  0.1383 -1.1131
  255MPD2    H2 3869   4.369   2.301  10.310 -0.0026  0.5347  0.5498
  255MPD2    H3 3870   4.486   2.118  10.204 -1.2477  0.5258 -1.3739
  255MPD2     N 3871   0.148   2.375  10.156 -0.0307 -0.1724 -0.2776
  255MPD2    H5 3872   0.190   2.466  10.174 -2.5766  1.1476 -0.8688
  255MPD2    N1 3873   4.472   2.524  10.384 -0.4864 -0.1305 -0.8120
  255MPD2    H7 3874   4.379   2.509  10.422 -0.2213  0.1178 -0.0718
  256TMC3    C1 3875   4.427   2.758  10.424  0.1166  0.1674 -0.5749
  256TMC3    C2 3876   4.469   2.888  10.410  0.3099  0.2228 -0.6872
  256TMC3    C3 3877   4.370   2.987  10.415  0.3295 -0.1221  0.1792
  256TMC3    C4 3878   4.289   2.732  10.432 -0.1628  0.0658  0.0835
  256TMC3    C5 3879   4.199   2.834  10.424  0.3801  0.6039 -0.2169
  256TMC3    C6 3880   4.236   2.965  10.418  1.0987  0.5649 -0.1997
  256TMC3     C 3881   4.524   2.653  10.402 -0.1161 -0.3447 -0.2640
  256TMC3     O 3882   4.637   2.700  10.381 -0.2384 -0.2268  0.1368
  256TMC3     H 3883   4.573   2.918  10.415 -0.2574  1.9361  0.7997
  256TMC3    H1 3884   4.244   2.633  10.430 -0.1350  0.0727 -0.7133
  256TMC3    H2 3885   4.167   3.049  10.426 -2.2873 -2.1156 -1.1454
  256TMC3    C7 3886   4.081   2.804  10.355  0.5080  0.3227  0.2348
  256TMC3    C8 3887   4.413   3.124  10.391 -0.0038  0.4928  1.0235
  256TMC3    O1 3888   4.025   2.697  10.367 -0.0369 -0.0745 -0.5509
  256TMC3    O2 3889   4.343   3.212  10.440 -0.2320 -0.2335 -0.3281
  257MPD2     C 3890   4.035   0.624  13.330  0.0478  1.0426  0.5744
  257MPD2    C1 3891   4.000   0.548  13.221 -0.3492  0.2246 -0.8981
  257MPD2    C2 3892   3.990   0.410  13.229  0.5655  0.5658 -0.2933
  257MPD2    C3 3893   4.023   0.342  13.350 -0.2057  0.5111 -0.7076
  257MPD2    C4 3894   4.059   0.417  13.460  0.4860  0.7795  0.1772
  257MPD2    C5 3895   4.059   0.559  13.449 -0.4083  0.0277  0.4126
  257MPD2     H 3896   3.956   0.358  13.141  0.5714  1.1986 -0.6700
  257MPD2    H1 3897   4.088   0.375  13.555 -0.9271 -1.0945 -0.2284
  257MPD2    H2 3898   4.031   0.733  13.325 -3.1810  0.8303 -1.5832
  257MPD2    H3 3899   4.082   0.611  13.541 -1.4432  1.0832  0.0772
  257MPD2     N 3900   3.997   0.200  13.357  0.6642  0.0141  0.1587
  257MPD2    H5 3901   3.966   0.156  13.271  0.7181  0.2163  0.0346
  257MPD2    N1 3902   3.968   0.628  13.110 -0.1767  0.6635  0.1263
  257MPD2    H7 3903   3.967   0.729  13.126  1.0860  0.5928  0.6136
  258TMC3    C1 3904   3.974   4.705  13.440  0.2494 -0.7802 -0.0795
  258TMC3    C2 3905   3.869   4.674  13.358 -0.0535  0.3225 -0.3968
  258TMC3    C3 3906   3.820   4.554  13.364  0.4916  0.0548  0.2279
  258TMC3    C4 3907   4.037   4.615  13.516  0.4143  0.7885  0.1273
  258TMC3    C5 3908   3.977   4.490  13.527  0.3789  0.7730  0.0295
  258TMC3    C6 3909   3.872   4.457  13.447 -0.4444  0.6090  0.5054
  258TMC3     C 3910   4.008   0.119  13.470 -0.4691 -0.2815 -0.2332
  258TMC3     O 3911   4.060   0.147  13.577  0.0865  0.0577  0.5215
  258TMC3     H 3912   3.828   0.024  13.288 -2.1070 -0.2322  0.2542
  258TMC3    H1 3913   4.117   4.650  13.581 -0.8389 -2.3062  3.3849
  258TMC3    H2 3914   3.817   4.363  13.443 -1.3027  1.0917  1.0653
  258TMC3    C7 3915   3.994   4.406  13.639  0.1169 -0.3848  0.6330
  258TMC3    C8 3916   3.707   4.518  13.287 -0.8048  0.0996 -0.1675
  258TMC3    O1 3917   3.904   4.331  13.669  0.6037  0.1533 -0.1439
  258TMC3    O2 3918   3.701   4.399  13.255  0.3994 -0.1413  0.1537
  259MPD2     C 3919   4.045   1.893   1.788  0.3903 -0.2801 -0.1409
  259MPD2    C1 3920   3.928   1.891   1.713 -0.3610 -0.4668  0.3110
  259MPD2    C2 3921   3.948   1.852   1.577  0.4505  0.1930 -0.7142
  259MPD2    C3 3922   4.079   1.830   1.526 -0.4248  0.2050 -0.7284
  259MPD2    C4 3923   4.185   1.831   1.615 -0.0249 -0.2203  0.4834
  259MPD2    C5 3924   4.171   1.871   1.741  0.1027  0.2697  0.4498
  259MPD2     H 3925   3.863   1.860   1.510  0.5192  0.0809 -0.8150
  259MPD2    H1 3926   4.287   1.803   1.592 -0.5718 -1.9978  0.2260
  259MPD2    H2 3927   4.043   1.915   1.895  0.0446 -2.2465  0.2551
  259MPD2    H3 3928   4.252   1.874   1.813  0.3465  1.5740  0.1105
  259MPD2     N 3929   4.093   1.783   1.391 -0.4320 -1.0519 -0.9322
  259MPD2    H5 3930   4.014   1.768   1.330 -0.9373  1.4556 -0.8918
  259MPD2    N1 3931   3.807   1.926   1.780 -1.0183  0.4679 -0.7083
  259MPD2    H7 3932   3.826   1.961   1.873  1.5922  1.7037 -1.7316
  260TMC3    C1 3933   4.205   1.719   1.193 -0.2507  0.1317  0.3888
  260TMC3    C2 3934   4.315   1.674   1.133  0.1744  1.1351  0.0160
  260TMC3    C3 3935   4.312   1.641   1.004 -0.2450  0.3678 -0.3690
  260TMC3    C4 3936   4.087   1.734   1.122  0.3193  0.1725  0.1128
  260TMC3    C5 3937   4.085   1.698   0.990  0.0840 -0.8136  0.1190
  260TMC3    C6 3938   4.201   1.648   0.928 -0.6047  0.0748  0.5025
  260TMC3     C 3939   4.213   1.770   1.328 -0.0928  0.0969 -0.2928
  260TMC3     O 3940   4.326   1.801   1.369 -0.4952  0.2454 -0.2519
  260TMC3     H 3941   4.402   1.684   1.198  0.2797  2.0932 -0.2840
  260TMC3    H1 3942   4.001   1.779   1.170  0.0749 -0.1384 -0.0298
  260TMC3    H2 3943   4.184   1.584   0.842  0.5080 -0.0675  0.3814
  260TMC3    C7 3944   3.966   1.703   0.915 -0.8028  0.0464  0.2123
  260TMC3    C8 3945   4.420   1.569   0.954 -0.1175 -0.5407 -0.5990
  260TMC3    O1 3946   3.972   1.659   0.800 -0.8438 -0.0111  0.2607
  260TMC3    O2 3947   4.501   1.525   1.030  0.2764 -0.3120  0.5949
  261MPD2     C 3948   4.707   0.262  12.445  0.2385 -0.8306 -0.3617
  261MPD2    C1 3949   0.052   0.265  12.324  0.2574  0.3687 -0.9264
  261MPD2    C2 3950   0.036   0.364  12.238 -0.1209 -0.8053  0.1305
  261MPD2    C3 3951   4.678   0.472  12.260  0.4111  0.0696 -0.0288
  261MPD2    C4 3952   4.596   0.470  12.374 -0.3221  0.1911 -0.2339
  261MPD2    C5 3953   4.616   0.362  12.458 -0.0435 -0.6607 -0.2537
  261MPD2     H 3954   0.088   0.365  12.142 -1.4222 -2.7298 -0.5934
  261MPD2    H1 3955   4.523   0.544  12.402  0.6118  0.7154  0.8258
  261MPD2    H2 3956   4.720   0.186  12.521  0.0743  0.7503  1.2524
  261MPD2    H3 3957   4.547   0.362  12.541  1.8087 -1.5323  1.3084
  261MPD2     N 3958   4.678   0.575  12.166 -0.3335  0.1738  0.0253
  261MPD2    H5 3959   0.029   0.576  12.095  0.8786  1.5184  1.2685
  261MPD2    N1 3960   0.137   0.161  12.274  0.0695 -0.5803  0.5876
  261MPD2    H7 3961   0.211   0.173  12.206  1.1346  0.2671  1.9080
  262TMC3    C1 3962   4.629   0.781  12.060 -0.0062  0.6946  0.5044
  262TMC3    C2 3963   4.571   0.906  12.071 -0.4999  0.4352 -0.1633
  262TMC3    C3 3964   4.574   0.973  11.952 -0.0441 -0.5218 -0.6725
  262TMC3    C4 3965   4.675   0.731  11.940 -0.3773 -0.3425 -0.0801
  262TMC3    C5 3966   4.666   0.810  11.830 -0.2774 -0.1688  0.6556
  262TMC3    C6 3967   4.606   0.929  11.829 -0.1738 -0.1734  0.9139
  262TMC3     C 3968   4.600   0.688  12.167  0.2117  0.5140  0.0953
  262TMC3     O 3969   4.529   0.723  12.252  0.3110  0.3361  0.1017
  262TMC3     H 3970   4.557   0.946  12.171  3.6265  0.6721  0.3057
  262TMC3    H1 3971   4.714   0.630  11.928 -1.0173 -0.6792  0.6496
  262TMC3    H2 3972   4.595   0.987  11.738 -0.8442 -0.8464  0.5694
  262TMC3    C7 3973   4.719   0.763  11.701  1.3182 -0.0069  0.3013
  262TMC3    C8 3974   4.536   1.114  11.950 -0.4332 -0.6933 -0.4843
  262TMC3    O1 3975   0.083   0.673  11.712 -0.2825  0.3014 -0.4681
  262TMC3    O2 3976   4.587   1.176  11.854  0.2382  0.7476 -0.1017
  263MPD2     C 3977   0.693   4.217  11.471  0.4904  0.0135 -0.0390
  263MPD2    C1 3978   0.783   4.325  11.470 -0.4539  0.2805 -0.8396
  263MPD2    C2 3979   0.773   4.418  11.377 -0.1253 -0.5234  0.3774
  263MPD2    C3 3980   0.681   4.406  11.277  0.3617  0.3479 -0.0574
  263MPD2    C4 3981   0.595   4.295  11.275  0.3679  0.7118  0.0475
  263MPD2    C5 3982   0.608   4.195  11.369  0.0356  0.0425  0.5936
  263MPD2     H 3983   0.833   4.508  11.374  0.7105 -1.0942  0.0427
  263MPD2    H1 3984   0.520   4.287  11.198 -0.3592  1.6990  0.6599
  263MPD2    H2 3985   0.693   4.150  11.557 -3.0015 -0.1256 -0.1683
  263MPD2    H3 3986   0.543   4.108  11.367  0.9372 -0.6256  0.2968
  263MPD2     N 3987   0.681   4.512  11.176 -0.5867  0.1068  0.3734
  263MPD2    H5 3988   0.747   4.588  11.187  0.7647 -1.3091  1.9761
  263MPD2    N1 3989   0.878   4.328  11.568 -0.3691  0.2731 -0.7401
  263MPD2    H7 3990   0.874   4.253  11.637 -1.7192  0.9033 -0.1449
  264TMC3    C1 3991   0.640   4.629  10.977  0.3981 -0.2624 -0.5886
  264TMC3    C2 3992   0.639   0.033  11.038 -0.4589 -0.3801 -0.2016
  264TMC3    C3 3993   0.639   0.144  10.960  0.7528 -0.2046 -0.2526
  264TMC3    C4 3994   0.646   4.612  10.844 -0.2757  0.4753 -0.4372
  264TMC3    C5 3995   0.671   0.001  10.767  0.4121 -0.0277 -0.2727
  264TMC3    C6 3996   0.648   0.124  10.824 -0.5100  0.7967 -0.3013
  264TMC3     C 3997   0.619   4.504  11.056  0.1960  0.4305  0.1829
  264TMC3     O 3998   0.566   4.405  11.005  0.1083  0.1718  0.8267
  264TMC3     H 3999   0.636   0.042  11.146 -0.5409 -2.3475 -0.0471
  264TMC3    H1 4000   0.657   4.511  10.804  1.8276  0.9072 -0.9473
  264TMC3    H2 4001   0.672   0.215  10.771  3.0332  0.1506  0.1977
  264TMC3    C7 4002   0.762   4.707  10.656  0.1754  0.3813  0.0035
  264TMC3    C8 4003   0.694   0.271  11.006  0.2117  0.0182  0.5380
  264TMC3    O1 4004   0.823   4.605  10.646  0.3168 -0.1339 -0.2510
  264TMC3    O2 4005   0.741   0.340  10.917  0.0411  0.0671 -0.3429
  265MPD2     C 4006   2.790   0.058  15.506 -0.3052 -1.0242 -0.1275
  265MPD2    C1 4007   2.844   0.177  15.477  0.2603 -0.3214 -0.9718
  265MPD2    C2 4008   2.923   0.182  15.367  0.1740  0.1247  0.1626
  265MPD2    C3 4009   2.948   0.076  15.284 -0.8721  0.1644 -0.5502
  265MPD2    C4 4010   2.896   4.674  15.323 -0.1456 -0.5200  0.0181
  265MPD2    C5 4011   2.811   4.673  15.425  0.2244  0.6209  0.3802
  265MPD2     H 4012   2.973   0.274  15.343  0.5890  0.2338  1.4135
  265MPD2    H1 4013   2.942   4.589  15.274  0.0657 -0.1188 -0.4856
  265MPD2    H2 4014   2.737   0.033  15.597  0.8268 -0.8203  0.5817
  265MPD2    H3 4015   2.763   4.579  15.448 -0.9433  0.9159 -0.8819
  265MPD2     N 4016   3.031   0.083  15.166  0.1154 -0.3025  0.2949
  265MPD2    H5 4017   3.036   4.714  15.121  0.6287 -1.0293  1.7961
  265MPD2    N1 4018   2.849   0.290  15.562 -0.5883 -0.1344 -0.0241
  265MPD2    H7 4019   2.914   0.362  15.532 -1.0772  0.8145  1.2037
  266TMC3    C1 4020   2.762   0.445  15.728  0.1459 -0.5206  0.2675
  266TMC3    C2 4021   2.724   0.459  15.859 -0.2808  1.0343  0.2859
  266TMC3    C3 4022   2.740   0.583  15.919 -0.0618  0.1164 -0.4873
  266TMC3    C4 4023   2.790   0.555  15.648  0.7355 -0.3377 -0.0646
  266TMC3    C5 4024   2.805   0.676  15.708 -0.6826 -0.2050 -0.0734
  266TMC3    C6 4025   2.779   0.687  15.846 -0.2554  0.0676 -0.2143
  266TMC3     C 4026   2.762   0.311  15.674  0.5079  0.4078 -0.1327
  266TMC3     O 4027   2.701   0.227  15.739 -0.2217 -0.4965  0.3515
  266TMC3     H 4028   2.698   0.381  15.930  1.4438  0.6772  0.5227
  266TMC3    H1 4029   2.791   0.541  15.541 -1.2239 -1.6279  0.0776
  266TMC3    H2 4030   2.788   0.786  15.890 -2.1226  0.0341  0.2094
  266TMC3    C7 4031   2.804   0.798  15.637 -0.2104 -0.0065  0.1763
  266TMC3    C8 4032   2.643   0.596  16.033  0.3400  0.0143  0.1408
  266TMC3    O1 4033   2.842   0.897  15.701  0.3498  0.2163 -0.1219
  266TMC3    O2 4034   2.539   0.529  16.030  0.3347 -0.1595 -0.6574
  267MPD2     C 4035   0.050   1.792  17.600 -0.8486 -1.0010  0.0515
  267MPD2    C1 4036   0.174   1.837  17.553 -0.4603  0.0683 -0.7261
  267MPD2    C2 4037   0.165   1.866  17.421 -0.2466  0.4661 -0.9002
  267MPD2    C3 4038   0.057   1.845  17.338  0.5693 -0.1000  1.0928
  267MPD2    C4 4039   4.665   1.785  17.390 -0.2120  0.7240 -0.2461
  267MPD2    C5 4040   4.658   1.775  17.524 -0.2896  0.0240 -0.0927
  267MPD2     H 4041   0.252   1.891  17.361  0.0908 -0.0268 -0.6049
  267MPD2    H1 4042   4.575   1.772  17.330  0.3314  0.2992 -0.9620
  267MPD2    H2 4043   0.033   1.790   0.019 -0.9856 -2.3867  0.0096
  267MPD2    H3 4044   4.567   1.751  17.578 -1.3490 -0.9213 -2.3015
  267MPD2     N 4045   0.055   1.887  17.204  0.0740 -0.1165  0.0799
  267MPD2    H5 4046   4.710   1.853  17.135 -0.3410 -1.9039  1.3701
  267MPD2    N1 4047   0.277   1.865  17.647 -0.8669 -0.2084 -0.2981
  267MPD2    H7 4048   0.265   1.846   0.059 -0.4036 -0.9878 -0.3846
  268TMC3    C1 4049   0.489   1.941   0.045 -0.0244  0.2146 -0.6485
  268TMC3    C2 4050   0.582   2.043   0.034 -0.3100  0.3137  0.2199
  268TMC3    C3 4051   0.684   2.048   0.125 -0.5078 -0.2227  1.0909
  268TMC3    C4 4052   0.485   1.859   0.152 -0.0101  0.1163  0.3680
  268TMC3    C5 4053   0.559   1.903   0.259 -0.1705  0.2887  0.3055
  268TMC3    C6 4054   0.662   1.996   0.246 -0.2980  0.2887  0.9324
  268TMC3     C 4055   0.400   1.923  17.617 -0.3844  0.3679  0.2454
  268TMC3     O 4056   0.442   1.971  17.507 -0.3876 -0.4855  0.4302
  268TMC3     H 4057   0.584   2.113  17.639  2.2171  0.3686  0.3178
  268TMC3    H1 4058   0.412   1.780   0.165 -1.6067  1.1174 -2.5390
  268TMC3    H2 4059   0.734   2.005   0.326  0.9492 -2.5614  0.1161
  268TMC3    C7 4060   0.548   1.833   0.388  0.0329 -0.5033 -0.0228
  268TMC3    C8 4061   0.811   2.113   0.096  0.4828 -0.3337 -0.3039
  268TMC3    O1 4062   0.633   1.853   0.474  0.1560  0.2345  0.2165
  268TMC3    O2 4063   0.884   2.131   0.195 -0.1214  0.1250  0.0660
  269MPD2     C 4064   1.097   0.402  15.801 -0.0450  0.2540 -0.2312
  269MPD2    C1 4065   0.963   0.421  15.826 -0.4577  0.6374 -0.5518
  269MPD2    C2 4066   0.916   0.553  15.813  0.1508  0.0900  0.0939
  269MPD2    C3 4067   0.998   0.659  15.775  1.2002  0.4304 -0.1301
  269MPD2    C4 4068   1.124   0.626  15.740 -0.1114  0.1462 -0.5105
  269MPD2    C5 4069   1.175   0.508  15.760  0.4425 -0.3564  0.4839
  269MPD2     H 4070   0.820   0.588  15.848 -0.2863 -1.4538  0.4711
  269MPD2    H1 4071   1.197   0.699  15.707 -0.9847  0.3220 -2.0322
  269MPD2    H2 4072   1.144   0.305  15.813 -1.3608 -0.0257  2.7108
  269MPD2    H3 4073   1.280   0.486  15.744  0.4908  1.0476 -1.1497
  269MPD2     N 4074   0.954   0.797  15.763 -0.4109  0.2385 -0.2570
  269MPD2    H5 4075   0.867   0.821  15.810 -0.3090 -0.5376  0.3417
  269MPD2    N1 4076   0.891   0.312  15.867  0.3383 -0.4107  0.0363
  269MPD2    H7 4077   0.941   0.224  15.879  1.7898  0.7625  2.6529
  270TMC3    C1 4078   0.706   0.200  15.982 -0.1479  0.0980 -0.6322
  270TMC3    C2 4079   0.576   0.184  15.955  0.0813  0.0600  0.9212
  270TMC3    C3 4080   0.514   0.063  15.983 -0.3580 -0.2057  0.0960
  270TMC3    C4 4081   0.789   0.096  16.020 -0.1006 -0.0261 -0.0522
  270TMC3    C5 4082   0.727   4.691  16.034  0.1561 -0.4630 -0.1685
  270TMC3    C6 4083   0.591   4.681  16.028 -0.3666  0.3820  1.0494
  270TMC3     C 4084   0.763   0.321  15.922 -0.0991 -0.1511 -0.4548
  270TMC3     O 4085   0.700   0.424  15.946 -0.5076 -0.2784 -0.6391
  270TMC3     H 4086   0.525   0.269  15.910  1.1811 -1.1171 -2.5027
  270TMC3    H1 4087   0.892   0.112  16.049 -0.0735  2.0450 -1.3028
  270TMC3    H2 4088   0.544   4.587  16.054  1.6738 -1.7072 -2.8248
  270TMC3    C7 4089   0.812   4.581  16.056  0.1797  0.0003  0.2106
  270TMC3    C8 4090   0.400   0.029  15.900  0.1678  0.7880 -0.2873
  270TMC3    O1 4091   0.931   4.610  16.059 -0.4839  0.5874 -0.0225
  270TMC3    O2 4092   0.287   0.035  15.950  0.9731 -0.1423  0.3263
  271MPD2     C 4093   4.650   0.359  14.113  0.1010  0.2223 -0.5519
  271MPD2    C1 4094   4.578   0.368  14.237 -0.1791  0.4274 -0.5799
  271MPD2    C2 4095   4.464   0.440  14.239  0.1751 -0.3386 -0.2014
  271MPD2    C3 4096   4.409   0.478  14.116 -0.0335  1.1067 -0.5584
  271MPD2    C4 4097   4.465   0.453  13.996 -0.5697  0.3795  0.2215
  271MPD2    C5 4098   4.588   0.399  13.994  0.5541 -0.0864  0.9862
  271MPD2     H 4099   4.403   0.440  14.328  0.8508 -0.5718  0.2611
  271MPD2    H1 4100   4.421   0.481  13.901  0.4861  0.3309 -0.2757
  271MPD2    H2 4101   0.027   0.313  14.109 -0.8529 -1.9546  1.0804
  271MPD2    H3 4102   4.636   0.380  13.899 -0.4538 -0.8813  0.6422
  271MPD2     N 4103   4.271   0.525  14.100 -0.7885 -0.3320 -0.2167
  271MPD2    H5 4104   4.242   0.538  14.004  1.3117  1.8354 -0.5339
  271MPD2    N1 4105   4.621   0.300  14.349  0.0896 -0.1492 -0.2917
  271MPD2    H7 4106   4.568   0.315  14.434  0.0021 -1.6967 -0.0682
  272TMC3    C1 4107   0.034   0.140  14.482  0.0632 -0.1575 -0.0308
  272TMC3    C2 4108   0.115   0.034  14.472  0.1554  0.4130  0.2874
  272TMC3    C3 4109   0.177   4.708  14.588 -0.1279  0.6564 -0.9608
  272TMC3    C4 4110   0.027   0.211  14.596 -0.9515  0.2413  0.6649
  272TMC3    C5 4111   0.083   0.159  14.710  0.0858 -0.5658 -0.9519
  272TMC3    C6 4112   0.145   0.034  14.713 -0.3538 -0.4952 -0.0355
  272TMC3     C 4113   0.007   0.208  14.355  0.2857 -0.3298 -0.4575
  272TMC3     O 4114   0.073   0.159  14.261 -0.2188 -0.0061  0.2341
  272TMC3     H 4115   0.126   4.697  14.381  0.5632  4.1458 -2.0759
  272TMC3    H1 4116   4.682   0.297  14.599 -2.8203 -1.1021 -1.8780
  272TMC3    H2 4117   0.186   0.000  14.807  0.3331  0.2482 -0.0654
  272TMC3    C7 4118   0.047   0.214  14.835 -0.4534  0.4339 -0.5762
  272TMC3    C8 4119   0.314   4.688  14.543 -0.1669 -0.1481 -0.0989
  272TMC3    O1 4120   4.671   0.288  14.840  0.0603  0.3950  0.2579
  272TMC3    O2 4121   0.351   0.043  14.452  0.5054 -0.4664 -0.4388
  273MPD2     C 4122   1.408   2.813  11.870 -0.1336  0.1373 -0.0550
  273MPD2    C1 4123   1.500   2.917  11.879 -0.0303  0.1162  0.6384
  273MPD2    C2 4124   1.508   2.996  11.767 -0.4849  0.1716  0.6117
  273MPD2    C3 4125   1.427   2.980  11.657  0.3436  0.1950 -0.3480
  273MPD2    C4 4126   1.323   2.886  11.659 -1.0046 -0.1769  0.2997
  273MPD2    C5 4127   1.323   2.796  11.757  0.7123  0.2480 -0.2800
  273MPD2     H 4128   1.571   3.084  11.765  2.0670 -1.6709  0.2659
  273MPD2    H1 4129   1.269   2.865  11.567 -0.9081  0.5991  0.0722
  273MPD2    H2 4130   1.395   2.751  11.958 -0.4115  2.6432  1.6651
  273MPD2    H3 4131   1.251   2.715  11.763 -0.4773  1.1962 -1.5069
  273MPD2     N 4132   1.443   3.065  11.541 -0.1877 -0.2206  0.4665
  273MPD2    H5 4133   1.369   3.060  11.471  0.3837  0.9943 -0.2322
  273MPD2    N1 4134   1.576   2.923  11.990  0.3671 -0.4639 -0.3672
  273MPD2    H7 4135   1.570   2.842  12.052 -1.3906 -0.0837 -0.0571
  274TMC3    C1 4136   1.534   3.249  11.410 -0.3096 -0.0750 -0.1101
  274TMC3    C2 4137   1.411   3.267  11.355  0.2655 -0.3215 -0.3777
  274TMC3    C3 4138   1.385   3.393  11.304 -0.1597 -0.4753 -0.2178
  274TMC3    C4 4139   1.624   3.354  11.429  0.2995 -0.1892  0.7340
  274TMC3    C5 4140   1.584   3.480  11.403  0.4249 -0.8297  0.2888
  274TMC3    C6 4141   1.459   3.505  11.336 -0.3432 -1.1508 -0.0496
  274TMC3     C 4142   1.553   3.139  11.511 -0.5216  0.1960  0.0630
  274TMC3     O 4143   1.651   3.141  11.579 -0.1076  0.2448 -0.0010
  274TMC3     H 4144   1.348   3.186  11.320 -0.0996 -0.1822 -0.0464
  274TMC3    H1 4145   1.721   3.335  11.473  0.5468 -1.5762 -0.4125
  274TMC3    H2 4146   1.431   3.602  11.296  0.4279 -0.6981  0.5134
  274TMC3    C7 4147   1.634   3.580  11.499 -0.3083 -0.7149 -0.3734
  274TMC3    C8 4148   1.279   3.403  11.206  0.7602 -0.0548  0.7366
  274TMC3    O1 4149   1.754   3.570  11.529 -0.3980 -0.0168  0.0758
  274TMC3    O2 4150   1.199   3.314  11.202  0.5359  0.7171  0.4128
  275MPD2     C 4151   1.398   1.379  14.769 -1.1172 -1.0725 -0.9641
  275MPD2    C1 4152   1.375   1.307  14.886 -0.6918 -0.2992  0.6408
  275MPD2    C2 4153   1.314   1.184  14.888  0.1497  0.0284  0.8645
  275MPD2    C3 4154   1.258   1.135  14.774 -0.2017 -0.1237  0.0764
  275MPD2    C4 4155   1.274   1.211  14.656 -0.1187  0.4994  0.3055
  275MPD2    C5 4156   1.345   1.324  14.661  0.3716 -0.0944 -0.4375
  275MPD2     H 4157   1.309   1.116  14.973  0.1089 -0.6500  0.3144
  275MPD2    H1 4158   1.221   1.199  14.563 -1.2152  0.3995  0.9351
  275MPD2    H2 4159   1.457   1.470  14.762 -0.9231 -1.2136 -1.1501
  275MPD2    H3 4160   1.363   1.372  14.565 -0.4079  4.7937  1.8694
  275MPD2     N 4161   1.170   1.028  14.781 -0.5698  0.3257 -0.1653
  275MPD2    H5 4162   1.154   0.992  14.874 -1.3983 -0.6295 -0.6790
  275MPD2    N1 4163   1.414   1.356  15.017  0.1429 -0.6951 -0.3462
  275MPD2    H7 4164   1.407   1.288  15.092  1.8243  1.2142  1.5642
  276TMC3    C1 4165   1.483   1.501  15.188 -0.5750 -0.3094  0.2056
  276TMC3    C2 4166   1.434   1.409  15.283 -0.1777  0.0287 -0.0864
  276TMC3    C3 4167   1.473   1.432  15.412  0.4168 -0.6249 -0.4183
  276TMC3    C4 4168   1.571   1.602  15.223 -0.2492 -0.2605  0.4625
  276TMC3    C5 4169   1.606   1.618  15.351 -0.3347  0.2412  0.2421
  276TMC3    C6 4170   1.563   1.530  15.448  0.0343  0.0166 -0.2743
  276TMC3     C 4171   1.456   1.487  15.047 -0.1205  0.1322 -0.5724
  276TMC3     O 4172   1.466   1.578  14.969  0.3921  0.1390 -0.0810
  276TMC3     H 4173   1.356   1.338  15.259  0.4651 -1.0545  1.0516
  276TMC3    H1 4174   1.609   1.676  15.154  1.8940  0.9593  2.9866
  276TMC3    H2 4175   1.598   1.543  15.550 -2.2143  1.2238  0.3589
  276TMC3    C7 4176   1.728   1.692  15.390  0.0350  0.1909  0.5961
  276TMC3    C8 4177   1.440   1.336  15.512 -0.0219  0.4082  0.7003
  276TMC3    O1 4178   1.740   1.715  15.512 -0.1899 -0.1062  0.2972
  276TMC3    O2 4179   1.441   1.368  15.628  0.1172  0.6910 -0.1851
  277MPD2     C 4180   3.406   0.630  13.127  0.8354 -0.7524 -0.2262
  277MPD2    C1 4181   3.270   0.628  13.150  0.3147  0.2779 -0.2935
  277MPD2    C2 4182   3.217   0.530  13.232 -0.0343 -0.3790 -0.7860
  277MPD2    C3 4183   3.293   0.429  13.277  0.3923 -0.3521 -0.5320
  277MPD2    C4 4184   3.426   0.427  13.254 -0.1499 -0.3322 -0.9022
  277MPD2    C5 4185   3.478   0.522  13.173 -0.1272 -0.3774 -1.4205
  277MPD2     H 4186   3.112   0.528  13.259  0.2195 -1.0328  0.1751
  277MPD2    H1 4187   3.493   0.353  13.297 -0.0441  0.9132  1.0988
  277MPD2    H2 4188   3.462   0.701  13.067 -0.3529  1.0503  0.8032
  277MPD2    H3 4189   3.584   0.517  13.150 -0.0072 -0.2088 -0.8880
  277MPD2     N 4190   3.220   0.338  13.365 -0.0233 -0.2825 -0.1895
  277MPD2    H5 4191   3.124   0.369  13.380 -0.4429 -1.9745  0.6552
  277MPD2    N1 4192   3.196   0.748  13.121 -0.4021 -0.4398 -1.1761
  277MPD2    H7 4193   3.247   0.829  13.088  1.4455 -0.4589  1.6258
  278TMC3    C1 4194   3.154   0.139  13.466 -0.5133 -0.6838  0.5013
  278TMC3    C2 4195   3.181   0.012  13.508  0.1178  0.4898  0.7238
  278TMC3    C3 4196   3.074   4.659  13.551  0.1439  0.1874  0.6046
  278TMC3    C4 4197   3.034   0.202  13.485  0.1173 -0.4359 -0.9590
  278TMC3    C5 4198   2.932   0.124  13.534  0.3914 -0.1437  0.0205
  278TMC3    C6 4199   2.951   4.713  13.562 -0.0327 -0.7812 -0.1186
  278TMC3     C 4200   3.260   0.218  13.411 -0.3027  0.1099 -0.2837
  278TMC3     O 4201   3.372   0.176  13.417  0.3696  0.2504 -0.4132
  278TMC3     H 4202   3.278   4.689  13.490 -1.5681 -2.2339 -1.5362
  278TMC3    H1 4203   3.015   0.308  13.477 -1.5426 -0.5954  1.0324
  278TMC3    H2 4204   2.876   4.660  13.620  0.1235  0.4159  1.1723
  278TMC3    C7 4205   2.810   0.196  13.574 -0.1583 -0.6541  0.1763
  278TMC3    C8 4206   3.096   4.517  13.561  1.0045 -1.7873  0.4986
  278TMC3    O1 4207   2.833   0.306  13.625 -0.2477  0.0114 -1.1085
  278TMC3    O2 4208   3.210   4.485  13.574 -0.6222 -0.3670  0.8783
  279MPD2     C 4209   2.572   0.264   0.371  0.2256  0.2211  0.3165
  279MPD2    C1 4210   2.571   0.380   0.441 -0.4811 -0.1506  0.6006
  279MPD2    C2 4211   2.679   0.463   0.429 -0.1074 -0.5509 -0.2824
  279MPD2    C3 4212   2.792   0.425   0.354  0.6006  0.3482  0.4947
  279MPD2    C4 4213   2.789   0.299   0.293 -0.1540 -0.6432 -0.4376
  279MPD2    C5 4214   2.678   0.228   0.298  0.3740 -0.0862  0.3040
  279MPD2     H 4215   2.682   0.555   0.486 -0.4652 -1.1935  0.7708
  279MPD2    H1 4216   2.870   0.251   0.239  1.8559 -0.2001  2.1763
  279MPD2    H2 4217   2.490   0.194   0.371  0.3886  0.0322 -0.4288
  279MPD2    H3 4218   2.658   0.140   0.238 -0.2433  1.2129 -1.3760
  279MPD2     N 4219   2.883   0.526   0.316 -0.1279  0.0626  0.5056
  279MPD2    H5 4220   2.881   0.617   0.360 -1.6668  0.9003 -1.3297
  279MPD2    N1 4221   2.448   0.396   0.519  0.1119  0.1585 -0.0755
  279MPD2    H7 4222   2.386   0.316   0.509  0.2269 -0.0999  1.3083
  280TMC3    C1 4223   2.271   0.528   0.602  0.0714  0.1920 -0.0836
  280TMC3    C2 4224   2.191   0.416   0.608 -0.7665 -0.7289 -0.3266
  280TMC3    C3 4225   2.062   0.418   0.653 -0.3147  0.2416  0.2717
  280TMC3    C4 4226   2.224   0.642   0.646  0.4730 -0.2929  0.5413
  280TMC3    C5 4227   2.097   0.651   0.696 -0.4500 -0.1903  0.7390
  280TMC3    C6 4228   2.009   0.539   0.692 -0.4727  0.2725 -0.0303
  280TMC3     C 4229   2.409   0.514   0.573  0.4315  0.0069  0.8304
  280TMC3     O 4230   2.474   0.616   0.578 -0.7778  0.3813 -0.1379
  280TMC3     H 4231   2.232   0.319   0.586 -1.6358 -1.4068  1.0072
  280TMC3    H1 4232   2.282   0.733   0.644 -0.8590  0.4766 -2.8476
  280TMC3    H2 4233   1.904   0.539   0.717 -0.5708  0.2487 -0.4431
  280TMC3    C7 4234   2.033   0.775   0.698 -0.1057 -0.6183 -0.4434
  280TMC3    C8 4235   1.993   0.296   0.646  0.0249 -0.1592 -0.8670
  280TMC3    O1 4236   2.080   0.861   0.769  0.0393 -0.1961 -0.2899
  280TMC3    O2 4237   2.043   0.206   0.585  0.1330 -0.5264 -0.6212
  281TMC3    C1 4238   0.870   1.025  13.740  0.1696  0.4075  0.0796
  281TMC3    C2 4239   0.888   1.031  13.608  0.3737 -0.5423  0.0816
  281TMC3    C3 4240   0.858   0.915  13.537  0.5629  0.0418  0.2440
  281TMC3    C4 4241   0.816   0.916  13.803  0.6050  0.2002  0.1997
  281TMC3    C5 4242   0.774   0.807  13.724 -0.3560 -0.0064 -0.1731
  281TMC3    C6 4243   0.801   0.806  13.592 -0.1681 -0.5739  0.1301
  281TMC3     C 4244   0.864   1.146  13.817 -0.0770 -0.0995  0.3726
  281TMC3     O 4245   0.881   1.156  13.937  0.2200  0.1440  0.0757
  281TMC3     H 4246   0.939   1.121  13.575  2.3865 -1.2696  1.1859
  281TMC3    H1 4247   0.799   0.919  13.910  5.0421  2.5856  0.8402
  281TMC3    H2 4248   0.782   0.714  13.538  0.5724  0.1534 -1.3859
  281TMC3    C7 4249   0.693   0.702  13.786 -0.7137  0.1677 -0.4070
  281TMC3    C8 4250   0.855   0.924  13.391  0.1462  0.5945  0.4935
  281TMC3    O1 4251   0.655   0.725  13.902  0.5624 -0.4545  0.3196
  281TMC3    O2 4252   0.754   0.872  13.342 -0.4285  0.2686  0.3287
  282MPD2     C 4253   3.264   1.871  15.266  0.7897 -0.2118  0.3261
  282MPD2    C1 4254   3.187   1.988  15.275  0.0887  0.2545 -0.2022
  282MPD2    C2 4255   3.119   2.032  15.169  0.6823  0.4224  0.2383
  282MPD2    C3 4256   3.114   1.957  15.050 -0.1671  1.0431  0.1620
  282MPD2    C4 4257   3.187   1.836  15.047  0.6666  0.2791 -0.6875
  282MPD2    C5 4258   3.268   1.798  15.151  0.0931 -0.2802  0.4670
  282MPD2     H 4259   3.065   2.126  15.177 -1.0804 -0.4372 -1.5772
  282MPD2    H1 4260   3.192   1.767  14.965 -0.2430 -2.5232  1.6294
  282MPD2    H2 4261   3.328   1.827  15.342  0.8026  1.5739  1.3272
  282MPD2    H3 4262   3.309   1.697  15.151  0.3296 -0.1817  1.2983
  282MPD2     N 4263   3.036   2.003  14.939 -0.5257  0.5046 -0.6520
  282MPD2    H5 4264   2.962   2.069  14.959 -0.9535 -0.0750 -0.2985
  282MPD2    N1 4265   3.186   2.058  15.396 -0.4017 -0.0722  0.8834
  282MPD2    H7 4266   3.136   2.146  15.389  2.2135  1.1440 -2.4977
  283TMC3    C1 4267   3.145   2.083  15.620 -0.4571  0.8164 -0.7310
  283TMC3    C2 4268   3.151   2.214  15.594 -0.0528 -0.1119  0.1803
  283TMC3    C3 4269   3.101   2.299  15.689 -0.1554 -0.9335  0.2182
  283TMC3    C4 4270   3.065   2.027  15.720  0.0725 -0.1460  0.1291
  283TMC3    C5 4271   2.998   2.121  15.799 -0.1079 -0.0307  0.1413
  283TMC3    C6 4272   3.025   2.253  15.789  0.7017 -0.4312 -0.3919
  283TMC3     C 4273   3.191   1.996  15.515  0.5250  0.2441  0.6779
  283TMC3     O 4274   3.217   1.880  15.544 -0.4610  0.1824  0.3707
  283TMC3     H 4275   3.222   2.257  15.524  0.4767  1.4328  1.6727
  283TMC3    H1 4276   3.055   1.921  15.738  1.2431 -0.6672 -2.2291
  283TMC3    H2 4277   2.972   2.330  15.844  2.5479  0.2134  0.4776
  283TMC3    C7 4278   2.877   2.078  15.871 -0.1559  0.0811 -0.1829
  283TMC3    C8 4279   3.148   2.435  15.702  0.0202 -0.7469  0.4247
  283TMC3    O1 4280   2.842   2.136  15.971 -0.1940 -0.2111 -0.6788
  283TMC3    O2 4281   3.152   2.482  15.819  0.1565  0.3538 -0.5988
  284MPD2     C 4282   1.062   1.673  12.048 -0.3623 -0.7670  0.3084
  284MPD2    C1 4283   1.138   1.611  11.958  0.1137 -0.1521  0.1562
  284MPD2    C2 4284   1.235   1.528  11.996  0.2261 -0.0649  0.0170
  284MPD2    C3 4285   1.264   1.507  12.127 -0.6906  0.1284  0.4585
  284MPD2    C4 4286   1.185   1.566  12.218  1.2557  0.3781 -0.5700
  284MPD2    C5 4287   1.087   1.655  12.177  0.2747  0.3252 -0.6534
  284MPD2     H 4288   1.295   1.471  11.927  0.1758 -0.3891  0.2429
  284MPD2    H1 4289   1.208   1.562  12.324  0.4038 -3.5466 -0.5426
  284MPD2    H2 4290   0.976   1.730  12.014 -1.0464 -0.6048  2.3300
  284MPD2    H3 4291   1.035   1.720  12.246  0.5526  0.7003 -0.8018
  284MPD2     N 4292   1.372   1.421  12.167 -0.5772  0.1243 -0.6502
  284MPD2    H5 4293   1.429   1.380  12.094 -1.1645 -0.0239 -1.0317
  284MPD2    N1 4294   1.094   1.638  11.826  0.0212  0.4976  0.3188
  284MPD2    H7 4295   1.008   1.692  11.826 -0.3155 -0.0586 -3.3356
  285TMC3    C1 4296   1.295   1.579  11.713 -0.2293  0.3437 -0.1718
  285TMC3    C2 4297   1.326   1.461  11.660  0.1359 -0.2998 -0.3315
  285TMC3    C3 4298   1.445   1.439  11.599  0.0816  0.6183 -0.2415
  285TMC3    C4 4299   1.378   1.681  11.681  0.0782  0.4785  0.5812
  285TMC3    C5 4300   1.487   1.655  11.604 -0.0340 -0.1881  0.6985
  285TMC3    C6 4301   1.530   1.532  11.569 -0.1325  0.0880  0.3776
  285TMC3     C 4302   1.152   1.602  11.710 -0.0458 -0.4388  0.1643
  285TMC3     O 4303   1.104   1.600  11.596  0.4891  0.1296 -0.2623
  285TMC3     H 4304   1.254   1.385  11.687  1.0822 -1.8221 -2.1053
  285TMC3    H1 4305   1.355   1.782  11.714  0.4371  0.5315  0.6648
  285TMC3    H2 4306   1.618   1.525  11.507  1.2075  1.1586  2.1683
  285TMC3    C7 4307   1.581   1.764  11.591  0.0434  0.5731 -0.1518
  285TMC3    C8 4308   1.442   1.343  11.496  0.3055 -0.0961 -0.0999
  285TMC3    O1 4309   1.525   1.872  11.574  0.0932 -0.4129  0.0330
  285TMC3    O2 4310   1.328   1.310  11.453  0.1937  0.0242  0.4018
  286MPD2     C 4311   0.974   0.022   1.411 -0.1280  0.1164 -0.3667
  286MPD2    C1 4312   1.083   0.083   1.477 -0.1184  0.8895  0.4518
  286MPD2    C2 4313   1.196   0.011   1.469 -0.3456  0.1716 -0.0175
  286MPD2    C3 4314   1.213   4.612   1.391  0.2374  0.2145  0.6443
  286MPD2    C4 4315   1.104   4.560   1.326  0.2486 -0.7533 -0.2185
  286MPD2    C5 4316   0.986   4.630   1.340 -0.1022 -0.2918 -0.0356
  286MPD2     H 4317   1.286   0.051   1.515  0.3080  1.6369 -2.5804
  286MPD2    H1 4318   1.106   4.461   1.281 -0.3943 -0.2263 -1.3857
  286MPD2    H2 4319   0.875   0.065   1.412  0.3759  1.2785 -0.6095
  286MPD2    H3 4320   0.891   4.596   1.302 -0.4519  2.4234 -1.6148
  286MPD2     N 4321   1.330   4.535   1.379 -0.0104 -0.2846  0.6515
  286MPD2    H5 4322   1.323   4.449   1.325  2.6075 -0.6612  0.9213
  286MPD2    N1 4323   1.077   0.202   1.551  0.2835  0.3133  0.1106
  286MPD2    H7 4324   1.160   0.251   1.583  1.0805 -2.3185  2.0930
  287TMC3    C1 4325   1.569   4.476   1.410  0.4294  0.3440  0.1163
  287TMC3    C2 4326   1.553   4.373   1.313 -0.2055 -0.2685  1.0910
  287TMC3    C3 4327   1.667   4.314   1.267  0.4940  0.7756  0.1170
  287TMC3    C4 4328   1.694   4.513   1.462  0.6837 -0.1361 -0.3632
  287TMC3    C5 4329   1.807   4.441   1.419  0.5094  0.4697 -0.1090
  287TMC3    C6 4330   1.792   4.341   1.321 -0.4439  0.5109  0.3390
  287TMC3     C 4331   1.452   4.566   1.441  0.0806  0.3561  0.0924
  287TMC3     O 4332   1.481   4.666   1.500 -0.5218  0.3063  0.5180
  287TMC3     H 4333   1.454   4.350   1.275  0.5098  2.4006 -2.3692
  287TMC3    H1 4334   1.704   4.584   1.544  0.7924  0.6990 -1.0919
  287TMC3    H2 4335   1.879   4.291   1.279 -0.9363 -0.4566  0.4635
  287TMC3    C7 4336   1.933   4.480   1.480  0.2325 -0.3467  0.1278
  287TMC3    C8 4337   1.654   4.225   1.150  0.0959  0.4856  0.9615
  287TMC3    O1 4338   1.927   4.559   1.576  0.3802 -0.8588  0.1732
  287TMC3    O2 4339   1.754   4.154   1.131 -0.2091  0.1744 -0.1049
  288TMC3    C1 4340   3.493   4.631  14.382 -0.0575  0.2666 -0.8789
  288TMC3    C2 4341   3.369   4.685  14.387 -0.3090 -0.7752  0.2293
  288TMC3    C3 4342   3.328   0.058  14.298 -0.2281  0.3218  0.1858
  288TMC3    C4 4343   3.580   4.676  14.283 -0.1606  0.4741 -0.1606
  288TMC3    C5 4344   3.541   0.047  14.193 -0.5965 -0.3531 -0.0849
  288TMC3    C6 4345   3.414   0.099  14.201  0.7106  0.2742  0.2710
  288TMC3     C 4346   3.501   4.492  14.411  0.1891 -0.3338 -0.2226
  288TMC3     O 4347   3.563   4.426  14.324  0.2126  0.6181  0.1516
  288TMC3     H 4348   3.294   4.627  14.439 -1.4387  1.2339  0.8279
  288TMC3    H1 4349   3.685   4.648  14.276  0.1562  0.6017  3.7754
  288TMC3    H2 4350   3.385   0.183  14.138  4.1407  0.0347 -1.6161
  288TMC3    C7 4351   3.645   0.122  14.127  0.0909 -0.4578  0.2918
  288TMC3    C8 4352   3.197   0.116  14.297  0.9894 -1.1575 -0.0991
  288TMC3    O1 4353   3.756   0.129  14.178 -0.0579 -0.3498 -0.1456
  288TMC3    O2 4354   3.180   0.235  14.285  0.7817 -0.2971  0.1383
  289MPD2     C 4355   3.710   3.641  14.163 -0.4791  0.2398 -0.4462
  289MPD2    C1 4356   3.648   3.759  14.146  0.5716  0.9530 -0.7058
  289MPD2    C2 4357   3.514   3.760  14.089 -0.2582  0.0383  1.0317
  289MPD2    C3 4358   3.465   3.642  14.048 -0.4665 -0.1240 -0.7236
  289MPD2    C4 4359   3.529   3.523  14.071 -0.1723 -0.3765 -0.0536
  289MPD2    C5 4360   3.652   3.528  14.123 -0.2248  0.8978 -0.3936
  289MPD2     H 4361   3.464   3.856  14.077 -0.5488 -0.1011  1.1479
  289MPD2    H1 4362   3.490   3.428  14.037  1.1467 -0.8564 -0.2239
  289MPD2    H2 4363   3.810   3.625  14.203  0.0123 -0.5383 -1.9944
  289MPD2    H3 4364   3.705   3.436  14.148 -2.0606 -0.8089 -2.7635
  289MPD2     N 4365   3.335   3.636  13.985 -0.2627 -0.3627  0.7331
  289MPD2    H5 4366   3.309   3.543  13.954 -1.9788 -0.1134  1.4466
  289MPD2    N1 4367   3.722   3.875  14.189  0.6502 -0.2159  0.3662
  289MPD2    H7 4368   3.817   3.860  14.222  0.7989 -0.0255  0.0267
  290TMC3    C1 4369   3.137   3.683  13.889 -0.3662 -0.4155 -0.2972
  290TMC3    C2 4370   3.048   3.779  13.849 -0.3036 -0.9383 -0.1422
  290TMC3    C3 4371   2.920   3.742  13.821 -0.3751  0.1963 -0.3470
  290TMC3    C4 4372   3.099   3.556  13.912 -0.2137 -0.6823 -0.2465
  290TMC3    C5 4373   2.971   3.523  13.868 -0.6552  0.5745 -0.0188
  290TMC3    C6 4374   2.876   3.614  13.828 -0.0124 -0.3566  0.7243
  290TMC3     C 4375   3.250   3.737  13.960 -1.0374 -0.4110  0.0621
  290TMC3     O 4376   3.275   3.857  13.957  0.3633  0.2357 -0.3805
  290TMC3     H 4377   3.083   3.879  13.830  1.9458 -1.5225  0.8760
  290TMC3    H1 4378   3.165   3.473  13.934  1.8902  1.1904  0.4516
  290TMC3    H2 4379   2.778   3.589  13.789  1.0103 -1.8836 -0.8398
  290TMC3    C7 4380   2.931   3.385  13.889  0.1929  0.2091 -0.0731
  290TMC3    C8 4381   2.835   3.842  13.759 -0.3029  0.1732 -0.5790
  290TMC3    O1 4382   2.995   3.332  13.979 -0.2999  0.6959 -0.1316
  290TMC3    O2 4383   2.742   3.794  13.697  0.3352 -0.2028 -0.5373
  291MPD2     C 4384   2.264   4.065   0.484  0.5260 -0.8335  0.6541
  291MPD2    C1 4385   2.400   4.041   0.462 -0.7868 -0.5731  0.3840
  291MPD2    C2 4386   2.486   4.147   0.452 -0.6150  0.8536  0.1638
  291MPD2    C3 4387   2.434   4.277   0.458 -0.4375 -0.1256  0.5215
  291MPD2    C4 4388   2.303   4.308   0.487 -1.2076  0.8527 -0.2526
  291MPD2    C5 4389   2.227   4.194   0.501  0.1210  1.0625  0.2522
  291MPD2     H 4390   2.587   4.111   0.437 -1.8120 -2.2004 -0.6284
  291MPD2    H1 4391   2.266   4.409   0.499 -1.9092  0.8480 -2.2611
  291MPD2    H2 4392   2.186   3.990   0.473  0.6291 -1.1648  2.2235
  291MPD2    H3 4393   2.119   4.207   0.509  0.2080  0.7704  1.9197
  291MPD2     N 4394   2.510   4.390   0.441 -0.3508 -0.4865  0.3214
  291MPD2    H5 4395   2.462   4.479   0.440  1.2523  0.3809 -0.8100
  291MPD2    N1 4396   2.457   3.911   0.460  1.1731  0.0411 -0.2047
  291MPD2    H7 4397   2.557   3.916   0.444  1.4772 -1.9137  1.1816
  292TMC3    C1 4398   2.476   3.671   0.454  0.7047 -0.2593 -0.0678
  292TMC3    C2 4399   2.591   3.678   0.523  0.3780  0.6946  0.0431
  292TMC3    C3 4400   2.665   3.565   0.539  0.4376  0.7078  0.0899
  292TMC3    C4 4401   2.421   3.556   0.407  0.0024  0.1629 -0.6242
  292TMC3    C5 4402   2.506   3.451   0.409  0.1996 -0.0196  0.3261
  292TMC3    C6 4403   2.618   3.449   0.492 -0.8984 -0.8819 -0.4299
  292TMC3     C 4404   2.394   3.792   0.445  0.1165  0.4491 -0.3931
  292TMC3     O 4405   2.276   3.763   0.429 -0.3934 -0.4053  0.3960
  292TMC3     H 4406   2.620   3.776   0.560 -3.1659  1.8167 -0.1542
  292TMC3    H1 4407   2.329   3.548   0.350 -0.8328  2.6780  0.3847
  292TMC3    H2 4408   2.684   3.364   0.486 -0.8694 -0.8978  0.0967
  292TMC3    C7 4409   2.461   3.319   0.354  0.5664 -0.5757 -0.0738
  292TMC3    C8 4410   2.789   3.572   0.616  0.5842  0.0305 -0.1791
  292TMC3    O1 4411   2.537   3.221   0.358  0.4237  0.0895 -0.0195
  292TMC3    O2 4412   2.858   3.673   0.615 -0.6139  0.5752  0.3148
  293MPD2     C 4413   4.380   0.168  12.662  0.0135  0.3742 -0.1151
  293MPD2    C1 4414   4.314   0.281  12.711  0.9169  0.4878 -0.2147
  293MPD2    C2 4415   4.310   0.296  12.843  0.3422 -0.3073 -0.0929
  293MPD2    C3 4416   4.375   0.208  12.927  0.3515  0.2784 -0.6288
  293MPD2    C4 4417   4.445   0.098  12.877  0.3361 -0.6047 -0.0155
  293MPD2    C5 4418   4.454   0.089  12.742 -0.7522  0.5358 -0.3640
  293MPD2     H 4419   4.243   0.371  12.883  0.4689 -0.0996 -0.2745
  293MPD2    H1 4420   4.506   0.028  12.933  1.4223 -0.1302 -0.6273
  293MPD2    H2 4421   4.400   0.154  12.556  1.6249 -0.1330  0.2500
  293MPD2    H3 4422   4.517   0.011  12.700 -0.4655  0.9583 -0.7213
  293MPD2     N 4423   4.359   0.229  13.071 -0.9248  0.7301  0.9103
  293MPD2    H5 4424   4.341   0.324  13.100  0.1200  0.5195  2.2560
  293MPD2    N1 4425   4.245   0.364  12.617 -0.0301  0.5410 -0.5365
  293MPD2    H7 4426   4.259   0.333  12.521 -0.4470 -1.2500 -0.0121
  294TMC3    C1 4427   4.081   0.512  12.530  0.2465  0.1817 -0.2571
  294TMC3    C2 4428   3.946   0.511  12.531  0.2480 -0.0573 -0.4865
  294TMC3    C3 4429   3.882   0.513  12.407  0.1820 -0.2252 -0.0694
  294TMC3    C4 4430   4.158   0.524  12.421  0.4339 -0.1897  0.5256
  294TMC3    C5 4431   4.095   0.540  12.299 -0.2916  0.2411 -0.4776
  294TMC3    C6 4432   3.958   0.541  12.294 -0.1274  0.1053  0.0115
  294TMC3     C 4433   4.155   0.463  12.644  0.0870 -0.1740  0.6812
  294TMC3     O 4434   4.115   0.494  12.756  0.5127 -0.2098  0.5087
  294TMC3     H 4435   3.896   0.484  12.623 -0.0789  2.4179  0.0417
  294TMC3    H1 4436   4.265   0.532  12.431  0.3944  1.2476 -0.1359
  294TMC3    H2 4437   3.909   0.545  12.197 -0.3123 -0.1610  0.0951
  294TMC3    C7 4438   4.173   0.535  12.181  0.3912  0.4944  0.0063
  294TMC3    C8 4439   3.761   0.435  12.389 -0.4035  0.3956  0.2346
  294TMC3    O1 4440   4.274   0.463  12.172  0.6652  0.0173  0.0541
  294TMC3    O2 4441   3.668   0.456  12.466 -0.5685  0.0270 -0.1909
  295MPD2     C 4442   0.773   3.634   0.824 -0.3141  0.1538 -0.0979
  295MPD2    C1 4443   0.644   3.683   0.824 -0.4385  0.0617  0.2868
  295MPD2    C2 4444   0.596   3.709   0.953 -0.4940 -0.6413  0.9671
  295MPD2    C3 4445   0.670   3.703   1.075 -0.1790  0.3809 -0.2017
  295MPD2    C4 4446   0.799   3.671   1.067  0.4106 -0.5830  0.4390
  295MPD2    C5 4447   0.848   3.639   0.937  0.6317  0.5511  0.2494
  295MPD2     H 4448   0.490   3.732   0.952 -0.2725  0.2925 -2.5766
  295MPD2    H1 4449   0.866   3.658   1.151 -0.3027  2.0409  1.4202
  295MPD2    H2 4450   0.817   3.605   0.730  2.6091  1.7654  0.7801
  295MPD2    H3 4451   0.954   3.613   0.930  0.0401 -1.9982  0.5598
  295MPD2     N 4452   0.608   3.721   1.197  0.3848 -0.0933  0.4846
  295MPD2    H5 4453   0.660   3.702   1.282  2.0582  1.0952 -0.2718
  295MPD2    N1 4454   0.565   3.707   0.707 -0.4443 -0.5961  0.6300
  295MPD2    H7 4455   0.474   3.751   0.715 -0.5109 -0.0527 -3.0231
  296TMC3    C1 4456   0.432   3.742   1.354 -0.7101  0.3602 -0.1615
  296TMC3    C2 4457   0.304   3.792   1.381  0.4436 -0.3691 -0.1861
  296TMC3    C3 4458   0.243   3.734   1.493 -0.2876 -0.3729  0.2166
  296TMC3    C4 4459   0.491   3.655   1.435  0.1222  0.1066  0.2349
  296TMC3    C5 4460   0.422   3.601   1.544  0.5825  0.0743 -0.4353
  296TMC3    C6 4461   0.300   3.639   1.571  0.1216  0.3751  0.6283
  296TMC3     C 4462   0.488   3.782   1.225  0.0828  0.2188  0.2307
  296TMC3     O 4463   0.415   3.843   1.145 -0.6154  0.1916  0.1744
  296TMC3     H 4464   0.263   3.870   1.318  0.8356  1.1351  1.4450
  296TMC3    H1 4465   0.589   3.617   1.409 -0.0084  0.1781 -0.3640
  296TMC3    H2 4466   0.247   3.577   1.643 -0.0114  1.4060  1.4177
  296TMC3    C7 4467   0.480   3.481   1.606 -0.4608 -0.6459  0.4286
  296TMC3    C8 4468   0.141   3.809   1.558  0.4618  1.1178 -0.0474
  296TMC3    O1 4469   0.538   3.413   1.524 -0.2871 -0.4022  1.0861
  296TMC3    O2 4470   0.126   3.794   1.679 -0.5095 -0.0596 -0.3585
  297MPD2     C 4471   1.986   0.716  16.736  0.8037  0.1189 -0.0178
  297MPD2    C1 4472   2.023   0.744  16.603 -0.2525 -0.4075 -0.5689
  297MPD2    C2 4473   2.114   0.844  16.573  0.5334  0.4552  0.0471
  297MPD2    C3 4474   2.179   0.917  16.673  0.4034 -0.3806 -0.1148
  297MPD2    C4 4475   2.139   0.892  16.801 -0.5765  0.3317 -0.4324
  297MPD2    C5 4476   2.049   0.794  16.832 -0.4654 -0.2196  0.0855
  297MPD2     H 4477   2.146   0.872  16.473 -0.0459  1.4545  0.1360
  297MPD2    H1 4478   2.186   0.949  16.880 -1.1261  0.9063 -0.5222
  297MPD2    H2 4479   1.918   0.637  16.765  0.7136 -0.4387 -1.7550
  297MPD2    H3 4480   2.029   0.766  16.935 -1.4618  2.2504  0.5700
  297MPD2     N 4481   2.263   1.025  16.635 -0.1010 -0.1773 -0.4427
  297MPD2    H5 4482   2.284   1.045  16.537  1.4727  2.7473  0.4964
  297MPD2    N1 4483   1.955   0.676  16.503  0.3017  0.0532 -0.2138
  297MPD2    H7 4484   1.869   0.629  16.529  0.0187  0.7929  0.1722
  298TMC3    C1 4485   1.903   0.604  16.285  0.2750  0.2779  0.4296
  298TMC3    C2 4486   1.942   0.612  16.156  0.2941 -0.3906 -0.3222
  298TMC3    C3 4487   1.848   0.615  16.058  0.4505  0.6402  0.9160
  298TMC3    C4 4488   1.774   0.607  16.318 -0.0673  0.9837  0.0555
  298TMC3    C5 4489   1.678   0.594  16.221 -0.0014 -0.6062  0.0261
  298TMC3    C6 4490   1.716   0.611  16.094 -0.0022 -0.0325  0.2394
  298TMC3     C 4491   2.003   0.667  16.371  0.4635  0.9910  0.4014
  298TMC3     O 4492   2.115   0.700  16.327 -0.0144  0.8518  0.8472
  298TMC3     H 4493   2.048   0.610  16.134  0.3146  1.2576 -0.3598
  298TMC3    H1 4494   1.745   0.568  16.415 -1.2193  1.4758 -0.0951
  298TMC3    H2 4495   1.653   0.601  16.006  0.1288  0.0263  0.1387
  298TMC3    C7 4496   1.563   0.656  16.263  0.1609 -0.2442 -0.7623
  298TMC3    C8 4497   1.878   0.679  15.931  0.8624 -0.0790 -0.3264
  298TMC3    O1 4498   1.582   0.724  16.362  0.0539  0.0803 -0.4533
  298TMC3    O2 4499   1.791   0.743  15.871 -0.1377 -0.1222  0.1851
  299MPD2     C 4500   2.109   0.520  10.574  0.4153 -0.0069  0.4665
  299MPD2    C1 4501   2.168   0.601  10.481 -0.3047 -0.0320 -0.4602
  299MPD2    C2 4502   2.114   0.624  10.357 -0.2550  0.3277  0.1654
  299MPD2    C3 4503   1.993   0.562  10.330  0.2965 -0.7376  0.1954
  299MPD2    C4 4504   1.942   0.478  10.422  0.4103 -0.5633  0.2542
  299MPD2    C5 4505   2.002   0.448  10.540 -0.7727  0.0287  0.2641
  299MPD2     H 4506   2.172   0.681  10.286  1.5181 -0.4271  1.0145
  299MPD2    H1 4507   1.851   0.421  10.408 -0.5071  0.7020  0.9844
  299MPD2    H2 4508   2.157   0.534  10.670  0.1738  0.6231  0.4987
  299MPD2    H3 4509   1.953   0.389  10.617 -2.7876 -0.3415 -1.3078
  299MPD2     N 4510   1.925   0.565  10.211 -0.1121 -0.7625  0.1240
  299MPD2    H5 4511   1.842   0.507  10.203 -0.5287 -0.0583 -0.6812
  299MPD2    N1 4512   2.281   0.672  10.529  0.5563  0.1126 -0.1108
  299MPD2    H7 4513   2.304   0.664  10.628 -0.7469  0.4260  0.2173
  300TMC3    C1 4514   1.831   0.675  10.033  0.9518 -0.4827 -0.6507
  300TMC3    C2 4515   1.826   0.801   9.973 -0.0625 -0.4823 -0.2183
  300TMC3    C3 4516   1.700   0.862   9.973 -0.5225 -0.1948  0.2074
  300TMC3    C4 4517   1.719   0.599  10.055 -0.1540  0.5279 -0.1616
  300TMC3    C5 4518   1.601   0.662  10.046 -0.0445 -0.3514  0.5852
  300TMC3    C6 4519   1.586   0.793  10.011  0.7524  0.0361 -0.1515
  300TMC3     C 4520   1.948   0.649  10.110 -0.5165  0.1574  0.6963
  300TMC3     O 4521   2.043   0.729  10.099  0.1740 -0.5658  0.3353
  300TMC3     H 4522   1.919   0.853   9.953 -0.1336  0.0026  0.7191
  300TMC3    H1 4523   1.725   0.509  10.116 -2.0434  0.0867 -0.6245
  300TMC3    H2 4524   1.484   0.824   9.991  0.0239 -1.9723  0.4785
  300TMC3    C7 4525   1.483   0.592  10.093  0.0001 -0.1484 -0.7356
  300TMC3    C8 4526   1.700   1.010   9.978  0.2118 -0.3192 -0.5210
  300TMC3    O1 4527   1.466   0.477  10.049  0.1432 -0.2370  0.3024
  300TMC3    O2 4528   1.811   1.064   9.992 -0.1725 -0.9803  0.5381
  301MPD2     C 4529   1.101   2.666   1.565 -0.1600 -0.4723  0.4437
  301MPD2    C1 4530   1.026   2.614   1.464  0.5974  0.5593  0.8234
  301MPD2    C2 4531   1.036   2.483   1.423 -0.2886 -0.2006  0.6138
  301MPD2    C3 4532   1.128   2.401   1.481  0.1033 -0.7236 -0.3178
  301MPD2    C4 4533   1.219   2.453   1.571 -0.5217 -0.1890  0.1814
  301MPD2    C5 4534   1.202   2.585   1.620 -0.4075  0.7021 -0.1010
  301MPD2     H 4535   0.958   2.447   1.356 -2.0174  2.5143  1.1848
  301MPD2    H1 4536   1.288   2.390   1.626 -0.5444 -1.8348 -1.6493
  301MPD2    H2 4537   1.079   2.759   1.617  3.4576  0.4809  0.2767
  301MPD2    H3 4538   1.262   2.638   1.693  0.2447  2.5138 -1.9509
  301MPD2     N 4539   1.129   2.262   1.469  0.2557  0.1758  0.1796
  301MPD2    H5 4540   1.193   2.207   1.524 -0.5101 -0.5776  0.3163
  301MPD2    N1 4541   0.933   2.700   1.388  0.1895  0.5121  0.4391
  301MPD2    H7 4542   0.891   2.656   1.308  1.7239 -0.5872  0.2329
  302TMC3    C1 4543   1.035   2.049   1.425 -0.2579  0.0775  0.2253
  302TMC3    C2 4544   1.139   1.990   1.494 -0.3967 -0.3495 -1.0604
  302TMC3    C3 4545   1.115   1.855   1.532 -0.0302  0.3506  0.4776
  302TMC3    C4 4546   0.933   1.981   1.368  0.0940 -0.3869  0.0496
  302TMC3    C5 4547   0.927   1.849   1.398 -0.1452 -0.0464  0.2531
  302TMC3    C6 4548   1.015   1.786   1.482 -0.3253  0.8062  0.5483
  302TMC3     C 4549   1.040   2.187   1.396  0.3426 -0.2046 -0.2527
  302TMC3     O 4550   0.949   2.223   1.325  0.2358  0.1372 -0.1379
  302TMC3     H 4551   1.222   2.044   1.537 -1.5513 -0.6940  1.5921
  302TMC3    H1 4552   0.845   2.019   1.317 -0.4430 -2.3416 -0.4971
  302TMC3    H2 4553   0.992   1.685   1.514 -1.7928  0.7016 -0.8338
  302TMC3    C7 4554   0.808   1.779   1.353 -0.5981  0.1386  0.5498
  302TMC3    C8 4555   1.197   1.792   1.636  0.0076 -0.1064  0.2504
  302TMC3    O1 4556   0.773   1.677   1.412 -0.0074  0.3946  0.2148
  302TMC3    O2 4557   1.146   1.690   1.681  0.9554 -0.0307  0.0027
  303MPD2     C 4558   4.661   4.604  10.149 -0.8488  0.7339 -0.1876
  303MPD2    C1 4559   4.675   4.503  10.057 -0.7508  0.1579 -0.1195
  303MPD2    C2 4560   4.603   4.497   9.941 -0.4990 -0.0993 -0.0673
  303MPD2    C3 4561   4.516   4.599   9.909  0.0406  0.4051  0.0623
  303MPD2    C4 4562   4.492   4.697  10.004 -0.3110 -0.4893 -0.2416
  303MPD2    C5 4563   4.567   4.697  10.123  0.5605  0.1136 -0.3633
  303MPD2     H 4564   4.622   4.415   9.872 -0.9516  0.2311 -0.5778
  303MPD2    H1 4565   4.409   0.045   9.993 -0.6055 -0.9970 -1.1133
  303MPD2    H2 4566   4.721   4.611  10.239  0.2918 -4.2323 -0.5571
  303MPD2    H3 4567   4.542   0.051  10.196  0.8704  0.8842 -1.0452
  303MPD2     N 4568   4.431   4.604   9.791  0.3621  0.1172  0.3457
  303MPD2    H5 4569   4.382   4.691   9.774  1.0877 -0.3374 -4.1318
  303MPD2    N1 4570   0.058   4.405  10.082 -0.6234  0.2134  0.2287
  303MPD2    H7 4571   0.102   4.405  10.174 -0.9522 -0.5898  0.3882
  304TMC3    C1 4572   0.187   4.210  10.040 -0.0902 -0.2792 -0.0256
  304TMC3    C2 4573   0.136   4.155  10.152 -0.4506  0.9450 -0.7360
  304TMC3    C3 4574   0.161   4.019  10.176  0.4091  0.0597 -0.0540
  304TMC3    C4 4575   0.280   4.142   9.961 -0.7486  0.6051 -0.2705
  304TMC3    C5 4576   0.311   4.012   9.998  1.1398 -0.5212 -0.0736
  304TMC3    C6 4577   0.253   3.957  10.106 -0.1661  0.2236 -0.0883
  304TMC3     C 4578   0.116   4.322   9.987  0.3447 -0.1037  0.0867
  304TMC3     O 4579   0.100   4.329   9.866  0.2744 -0.2879 -0.1732
  304TMC3     H 4580   0.043   4.189  10.197 -1.5000  1.0610 -2.9972
  304TMC3    H1 4581   0.289   4.181   9.861  1.0936 -3.4903 -1.7087
  304TMC3    H2 4582   0.282   3.856  10.134  1.8098  0.1232 -2.5664
  304TMC3    C7 4583   0.294   3.922   9.890 -0.3483 -0.0420  0.5024
  304TMC3    C8 4584   0.038   3.944  10.203  0.0921  0.7369 -0.2205
  304TMC3    O1 4585   0.215   3.834   9.920  0.2524 -0.0475  0.1556
  304TMC3    O2 4586   4.679   3.994  10.278 -0.1553  0.2930  0.8508
  305MPD2     C 4587   3.296   2.480  14.155 -0.0300 -0.4382 -0.2573
  305MPD2    C1 4588   3.219   2.365  14.182  0.4395  0.1811  0.4007
  305MPD2    C2 4589   3.157   2.297  14.072 -0.3484  0.6868  0.3355
  305MPD2    C3 4590   3.193   2.340  13.945  0.4434  0.6919 -0.4599
  305MPD2    C4 4591   3.286   2.446  13.925 -0.2709  0.6209 -0.3838
  305MPD2    C5 4592   3.340   2.515  14.033  0.1001  0.5480 -0.6602
  305MPD2     H 4593   3.077   2.225  14.078  0.3756 -0.2505 -1.5911
  305MPD2    H1 4594   3.319   2.468  13.824  0.5408 -0.0702 -0.2726
  305MPD2    H2 4595   3.347   2.536  14.233  0.8541  0.2376 -1.3172
  305MPD2    H3 4596   3.412   2.594  14.015  0.6915 -0.1750 -1.4484
  305MPD2     N 4597   3.157   2.278  13.826 -0.1882 -0.2831 -0.2898
  305MPD2    H5 4598   3.181   2.327  13.740 -3.8507  0.5126 -0.8553
  305MPD2    N1 4599   3.199   2.323  14.311  0.1025 -0.4907  0.0525
  305MPD2    H7 4600   3.224   2.388  14.385 -4.3010  0.3477  0.8436
  306TMC3    C1 4601   3.153   2.186  14.497 -0.0768 -0.6894  0.0963
  306TMC3    C2 4602   3.241   2.098  14.549 -0.1832 -0.5305  0.6959
  306TMC3    C3 4603   3.321   2.128  14.659 -0.2734 -0.0846  0.1993
  306TMC3    C4 4604   3.147   2.310  14.552 -0.1724 -0.1551  0.1205
  306TMC3    C5 4605   3.219   2.342  14.659 -0.5998 -0.5446  0.7306
  306TMC3    C6 4606   3.308   2.254  14.720  1.0691 -0.0059  0.2520
  306TMC3     C 4607   3.150   2.197  14.351 -0.2706 -0.9174 -0.0941
  306TMC3     O 4608   3.147   2.090  14.288 -0.4638  0.9336  0.5082
  306TMC3     H 4609   3.265   2.005  14.499  0.5233  0.4785 -0.8319
  306TMC3    H1 4610   3.071   2.374  14.508  0.7203 -0.0801 -1.3157
  306TMC3    H2 4611   3.380   2.293  14.791  1.4963 -2.5019  1.1721
  306TMC3    C7 4612   3.262   2.480  14.658  0.2100 -0.2488  0.1042
  306TMC3    C8 4613   3.400   2.026  14.715 -0.4701 -0.6680  0.0465
  306TMC3    O1 4614   3.273   2.520  14.545  0.2230  0.2889 -0.5291
  306TMC3    O2 4615   3.437   1.941  14.640 -0.4530  0.1699  0.3159
  307MPD2     C 4616   0.999   0.162   1.081 -0.2486 -0.4883 -0.3946
  307MPD2    C1 4617   0.884   0.201   1.011  0.2273 -0.2334 -0.0922
  307MPD2    C2 4618   0.817   0.309   1.059  0.0653  0.3974  0.3311
  307MPD2    C3 4619   0.867   0.394   1.159  0.5783  0.4233  0.2102
  307MPD2    C4 4620   0.985   0.357   1.220 -0.8542  0.2651  0.4003
  307MPD2    C5 4621   1.048   0.245   1.178  0.3396 -0.8034 -0.0947
  307MPD2     H 4622   0.721   0.332   1.015  0.9568  1.4388 -1.0800
  307MPD2    H1 4623   1.041   0.419   1.289 -1.5796  0.1911  1.0456
  307MPD2    H2 4624   1.054   0.071   1.058  2.4345  0.5984  1.8034
  307MPD2    H3 4625   1.139   0.215   1.228  0.0321 -0.1823  0.8381
  307MPD2     N 4626   0.790   0.506   1.190 -0.5814 -0.4422 -0.0699
  307MPD2    H5 4627   0.692   0.507   1.162 -0.4819  0.1217 -0.3928
  307MPD2    N1 4628   0.835   0.129   0.894  0.5139  0.2174  0.1873
  307MPD2    H7 4629   0.758   0.165   0.839  1.2120  0.3278 -0.7032
  308TMC3    C1 4630   0.519   0.754   1.204 -0.8252  0.6204 -0.0042
  308TMC3    C2 4631   0.550   0.881   1.163  0.1842 -0.3387 -0.5545
  308TMC3    C3 4632   0.679   0.909   1.194 -0.0193 -0.3203 -0.3582
  308TMC3    C4 4633   0.602   0.667   1.260  0.3312 -0.1410  0.1793
  308TMC3    C5 4634   0.732   0.702   1.286 -0.1021 -0.4972 -0.0542
  308TMC3    C6 4635   0.768   0.828   1.252  0.0075  0.2308 -0.2397
  308TMC3     C 4636   0.453   0.682   1.100  0.0959 -0.6241 -0.0169
  308TMC3     O 4637   0.498   0.571   1.079 -0.3914  0.1351  0.1206
  308TMC3     H 4638   0.471   0.948   1.129  1.3993  0.7167 -1.3072
  308TMC3    H1 4639   0.564   0.575   1.303 -2.6222  1.5501  1.1801
  308TMC3    H2 4640   0.871   0.863   1.260 -0.5485  1.1318  3.1716
  308TMC3    C7 4641   0.832   0.600   1.278 -0.0870 -0.1444 -0.5154
  308TMC3    C8 4642   0.747   0.993   1.099 -0.3075 -0.1634 -0.6670
  308TMC3    O1 4643   0.941   0.628   1.323 -0.1189  0.0227 -0.3372
  308TMC3    O2 4644   0.866   1.017   1.112 -0.6693 -0.4420 -0.1193
  309MPD2     C 4645   0.098   0.497  17.157  0.1988  0.4419  0.0481
  309MPD2    C1 4646   0.017   0.525  17.048  0.2680 -0.8530  0.2096
  309MPD2    C2 4647   4.615   0.583  17.070  0.0893  0.2531 -0.4256
  309MPD2    C3 4648   4.586   0.635  17.199 -0.1305  0.0428  0.7760
  309MPD2    C4 4649   4.680   0.620  17.302  0.3132  0.2155 -0.7547
  309MPD2    C5 4650   0.073   0.548  17.276  0.3799 -0.5141 -0.6764
  309MPD2     H 4651   4.551   0.600  16.984 -1.1368 -0.0139  0.4310
  309MPD2    H1 4652   4.652   0.644  17.404  0.7134 -2.7918  0.0430
  309MPD2    H2 4653   0.190   0.448  17.131 -0.1190 -0.4618  0.6049
  309MPD2    H3 4654   0.137   0.529  17.361 -1.7957 -1.6102  0.7279
  309MPD2     N 4655   4.461   0.691  17.233  0.5085 -0.0747 -0.5190
  309MPD2    H5 4656   4.455   0.736  17.324 -0.7921  1.9862 -1.6418
  309MPD2    N1 4657   0.053   0.501  16.914  0.7238 -0.3000  0.3568
  309MPD2    H7 4658   4.720   0.532  16.833  0.0744 -2.8893 -0.1802
  310TMC3    C1 4659   0.175   0.413  16.724 -0.2959  0.0990 -0.6251
  310TMC3    C2 4660   0.086   0.471  16.635  0.0917  0.2500  0.3560
  310TMC3    C3 4661   0.130   0.503  16.510 -0.6292 -0.1832 -0.0157
  310TMC3    C4 4662   0.301   0.371  16.687 -0.5248 -0.5857  0.2449
  310TMC3    C5 4663   0.337   0.410  16.559 -0.4358  0.2376 -0.0696
  310TMC3    C6 4664   0.257   0.482  16.476  0.3991  0.4344 -0.2048
  310TMC3     C 4665   0.158   0.415  16.869 -0.0010  0.4724 -0.0652
  310TMC3     O 4666   0.233   0.341  16.929 -0.1007 -0.1372 -0.2940
  310TMC3     H 4667   4.707   0.494  16.669  1.0615  1.9623  2.0983
  310TMC3    H1 4668   0.371   0.327  16.756 -0.3281  0.0774  0.4675
  310TMC3    H2 4669   0.283   0.475  16.372 -3.7673 -0.5967 -1.1918
  310TMC3    C7 4670   0.468   0.370  16.523  0.7280  0.0464 -0.0437
  310TMC3    C8 4671   0.043   0.550  16.404 -0.5697 -0.2996  0.3511
  310TMC3    O1 4672   0.528   0.290  16.599  0.5942  0.3952 -0.5413
  310TMC3    O2 4673   4.643   0.539  16.415  0.4227 -0.6040 -0.2273
  311MPD2     C 4674   2.056   1.598  12.935 -0.2407  0.2761  0.2591
  311MPD2    C1 4675   2.021   1.721  12.992  0.4940  0.2408 -0.2135
  311MPD2    C2 4676   1.897   1.733  13.035 -0.6986  0.4260 -0.2582
  311MPD2    C3 4677   1.805   1.632  13.041  0.4376 -0.6564  0.0692
  311MPD2    C4 4678   1.839   1.505  12.987  0.6273 -0.7703  0.0005
  311MPD2    C5 4679   1.970   1.494  12.939 -0.1668  0.3132  0.7450
  311MPD2     H 4680   1.869   1.836  13.056  0.6448  0.6369  0.4608
  311MPD2    H1 4681   1.773   1.418  12.992  0.0928 -0.3104  0.9282
  311MPD2    H2 4682   2.150   1.579  12.884 -0.3475  0.3838  0.0201
  311MPD2    H3 4683   2.003   1.397  12.905  1.5461  1.5709 -1.1854
  311MPD2     N 4684   1.672   1.651  13.089 -0.2000 -0.4684  0.5184
  311MPD2    H5 4685   1.604   1.577  13.083 -1.4406  0.6194  1.1599
  311MPD2    N1 4686   2.112   1.834  13.000  0.6561  0.5790  0.1285
  311MPD2    H7 4687   2.074   1.901  13.066 -2.2498  0.5953 -1.5841
  312TMC3    C1 4688   1.508   1.710  13.224  1.1266  0.5710  0.2697
  312TMC3    C2 4689   1.411   1.653  13.142  0.3907  0.6200  0.4910
  312TMC3    C3 4690   1.303   1.598  13.205  0.3391  0.8313 -0.4524
  312TMC3    C4 4691   1.495   1.720  13.355  0.5554  0.2220  0.0033
  312TMC3    C5 4692   1.386   1.664  13.418 -0.2632 -0.0614 -1.1832
  312TMC3    C6 4693   1.284   1.606  13.338  0.4728 -0.5438  0.9072
  312TMC3     C 4694   1.634   1.748  13.171 -0.2825 -0.5068  0.1437
  312TMC3     O 4695   1.696   1.837  13.231 -0.3111 -0.7784 -0.3923
  312TMC3     H 4696   1.407   1.687  13.039 -1.3821 -1.9943 -0.2962
  312TMC3    H1 4697   1.569   1.779  13.408 -0.8708  2.3154 -0.3311
  312TMC3    H2 4698   1.197   1.560  13.383 -2.5946  3.1078 -1.2645
  312TMC3    C7 4699   1.342   1.710  13.545  0.1291 -0.1136  0.0200
  312TMC3    C8 4700   1.186   1.558  13.131  0.0535  0.3239 -0.0192
  312TMC3    O1 4701   1.220   1.705  13.567 -0.4117  0.0152 -0.2404
  312TMC3    O2 4702   1.088   1.528  13.197 -0.5912 -0.6097 -0.2230
  313MPD2     C 4703   1.314   1.272  10.615 -1.2656  0.4018  0.1011
  313MPD2    C1 4704   1.203   1.238  10.691  1.0666 -0.0861  0.0116
  313MPD2    C2 4705   1.093   1.178  10.633  0.1951  0.0963 -0.3964
  313MPD2    C3 4706   1.093   1.148  10.496  0.0089 -0.5545  0.8913
  313MPD2    C4 4707   1.201   1.191  10.418  0.1142  0.0762  1.0462
  313MPD2    C5 4708   1.305   1.252  10.480 -0.5956  0.1872 -0.2448
  313MPD2     H 4709   1.005   1.165  10.695  0.2262  2.0958  0.0553
  313MPD2    H1 4710   1.202   1.171  10.312  0.7513  0.7356  0.9271
  313MPD2    H2 4711   1.409   1.306  10.654 -1.7455  1.3835  0.4341
  313MPD2    H3 4712   1.388   1.278  10.415  0.0076  1.6044  1.0880
  313MPD2     N 4713   0.984   1.082  10.443 -0.0319  1.6656 -0.1314
  313MPD2    H5 4714   0.914   1.045  10.508 -0.5431  1.8711 -0.5665
  313MPD2    N1 4715   1.187   1.266  10.825  0.1202 -0.3467  0.0773
  313MPD2    H7 4716   1.101   1.245  10.876  0.5779 -1.2927  0.4647
  314TMC3    C1 4717   1.244   1.371  11.031 -0.2077 -0.6965  0.0729
  314TMC3    C2 4718   1.344   1.407  11.114  0.8001  0.2681 -0.1509
  314TMC3    C3 4719   1.317   1.505  11.208 -0.1034 -0.4116  0.0377
  314TMC3    C4 4720   1.123   1.433  11.031  0.7615  0.8085 -0.6095
  314TMC3    C5 4721   1.091   1.525  11.129  0.2423 -0.9535  0.1771
  314TMC3    C6 4722   1.185   1.560  11.220  0.5653  0.3807  0.3116
  314TMC3     C 4723   1.287   1.313  10.901 -0.2719  0.1990 -0.1470
  314TMC3     O 4724   1.407   1.330  10.879 -0.1674 -0.7183 -0.1203
  314TMC3     H 4725   1.443   1.363  11.110  0.2298 -1.4326  3.7365
  314TMC3    H1 4726   1.045   1.426  10.956 -0.7520 -0.2328  1.0481
  314TMC3    H2 4727   1.160   1.646  11.281  0.4998  1.4464 -1.2311
  314TMC3    C7 4728   1.007   1.631  11.066 -0.2204 -0.1356  0.5972
  314TMC3    C8 4729   1.423   1.593  11.244 -0.4988 -0.0634  0.0741
  314TMC3    O1 4730   0.886   1.610  11.051 -0.6931  0.8563 -0.0129
  314TMC3    O2 4731   1.386   1.705  11.282  0.5105 -0.0692 -0.2995
  315MPD2     C 4732   0.796   0.959   0.332 -0.1978  0.3380  0.1868
  315MPD2    C1 4733   0.903   0.990   0.417 -0.0149  0.4404 -0.3565
  315MPD2    C2 4734   1.016   1.034   0.354  0.0096  0.2966  0.0817
  315MPD2    C3 4735   1.030   1.017   0.215  0.2653  0.5801 -0.1665
  315MPD2    C4 4736   0.920   0.982   0.140  0.0462 -0.5105 -0.6436
  315MPD2    C5 4737   0.805   0.956   0.198 -0.3737  0.3085  0.5252
  315MPD2     H 4738   1.105   1.057   0.411  2.2783 -0.1984 -3.2837
  315MPD2    H1 4739   0.927   0.969   0.033 -0.5401 -1.5030 -0.5634
  315MPD2    H2 4740   0.709   0.911   0.374 -1.3732  1.0575 -1.4323
  315MPD2    H3 4741   0.724   0.925   0.132  1.3781 -2.8765 -0.1253
  315MPD2     N 4742   1.161   1.036   0.161 -1.2424 -0.2966 -0.0360
  315MPD2    H5 4743   1.238   1.053   0.226 -3.0258 -1.0532  2.2614
  315MPD2    N1 4744   0.909   0.961   0.559 -0.7896  0.2462  0.0954
  315MPD2    H7 4745   0.993   0.981   0.613 -0.1949 -0.3104 -0.6187
  316TMC3    C1 4746   1.338   1.005   0.005  0.3992  0.1901 -0.2756
  316TMC3    C2 4747   1.417   0.978   0.117 -0.1449  0.4934  0.5325
  316TMC3    C3 4748   1.547   0.938   0.091 -0.0698 -0.4416  0.0228
  316TMC3    C4 4749   1.391   0.989  17.560 -0.5557 -0.6141  0.8943
  316TMC3    C5 4750   1.515   0.943  17.539 -0.3021  0.2383  0.0756
  316TMC3    C6 4751   1.594   0.913  17.649  0.1710  0.3565 -1.0531
  316TMC3     C 4752   1.191   1.023   0.026  0.2353 -0.3467 -0.1451
  316TMC3     O 4753   1.115   1.018  17.615  0.0093 -0.2544 -0.1196
  316TMC3     H 4754   1.384   0.982   0.219 -2.1569 -0.1669 -0.0986
  316TMC3    H1 4755   1.327   1.023  17.480  0.0239 -1.3328  0.1353
  316TMC3    H2 4756   1.690   0.867  17.631  0.2530  0.5881 -1.2072
  316TMC3    C7 4757   1.560   0.923  17.408  0.2148  0.7221  0.3708
  316TMC3    C8 4758   1.643   0.923   0.194 -0.0817  0.2633  0.1735
  316TMC3    O1 4759   1.663   0.857  17.401  0.3423 -0.0743  0.3698
  316TMC3    O2 4760   1.744   0.860   0.160  0.0230  0.1328 -0.3006
  317MPD2     C 4761   2.889   3.918  12.619  0.3447 -0.2129 -0.5447
  317MPD2    C1 4762   3.023   3.936  12.613 -0.3618 -0.0442 -0.0795
  317MPD2    C2 4763   3.099   3.909  12.726  0.0111 -0.3945  0.4307
  317MPD2    C3 4764   3.043   3.860  12.848 -0.2954  0.0324 -0.3899
  317MPD2    C4 4765   2.901   3.847  12.849  0.5589  0.0226 -0.2412
  317MPD2    C5 4766   2.829   3.860  12.733  0.1064  0.5007 -0.0531
  317MPD2     H 4767   3.205   3.933  12.721 -0.0506  0.0776  1.2393
  317MPD2    H1 4768   2.845   3.810  12.934  1.4840 -0.5929  0.0939
  317MPD2    H2 4769   2.834   3.935  12.527  1.1415 -0.7160 -1.1144
  317MPD2    H3 4770   2.724   3.835  12.732  0.1699  0.2087  1.0613
  317MPD2     N 4771   3.127   3.809  12.952  0.4361  0.1889 -0.9739
  317MPD2    H5 4772   3.226   3.809  12.929  0.6121 -0.6979 -0.2190
  317MPD2    N1 4773   3.089   3.975  12.499  0.1810 -1.1028 -0.1847
  317MPD2    H7 4774   3.189   3.984  12.504 -0.0638  0.8459  1.0887
  318TMC3    C1 4775   3.189   3.658  13.113 -0.3989  0.5532  0.0224
  318TMC3    C2 4776   3.160   3.526  13.142 -0.6998  0.3574  0.0593
  318TMC3    C3 4777   3.261   3.449  13.198  0.2190  0.3015 -0.5984
  318TMC3    C4 4778   3.316   3.713  13.135  0.0071 -0.0991 -0.2515
  318TMC3    C5 4779   3.416   3.632  13.185  0.3553  0.2988 -0.1122
  318TMC3    C6 4780   3.388   3.498  13.220  0.4031  0.0726  0.5728
  318TMC3     C 4781   3.086   3.739  13.062 -0.4299 -0.7447 -0.0683
  318TMC3     O 4782   2.973   3.711  13.103  0.1403  0.4921  0.2286
  318TMC3     H 4783   3.070   3.477  13.107 -1.4150  2.6605 -1.3315
  318TMC3    H1 4784   3.342   3.818  13.126 -0.8897  0.2320  1.1694
  318TMC3    H2 4785   3.464   3.431  13.258  1.1822 -0.5712 -2.1874
  318TMC3    C7 4786   3.553   3.689  13.197  0.3627  0.8250  0.6351
  318TMC3    C8 4787   3.225   3.317  13.250  0.1789 -0.2640 -0.7206
  318TMC3    O1 4788   3.577   3.782  13.122 -0.1892 -0.7875 -0.1931
  318TMC3    O2 4789   3.317   3.237  13.283  0.0394  0.4272 -0.8018
  319MPD2     C 4790   3.511   0.377  17.136  1.0794  0.4890 -0.7503
  319MPD2    C1 4791   3.575   0.253  17.114 -0.2296  0.1380 -0.7764
  319MPD2    C2 4792   3.596   0.204  16.985  0.3274  0.2182 -0.0216
  319MPD2    C3 4793   3.548   0.272  16.875  0.5812 -0.2530  0.4220
  319MPD2    C4 4794   3.501   0.403  16.902  0.4999  0.1361  0.2615
  319MPD2    C5 4795   3.479   0.453  17.034 -0.0658  0.0356 -0.0623
  319MPD2     H 4796   3.643   0.107  16.971 -2.6763 -0.9737 -1.7228
  319MPD2    H1 4797   3.479   0.464  16.815 -0.2366  0.0364  0.3843
  319MPD2    H2 4798   3.496   0.416  17.235 -1.5762 -0.3013 -0.8449
  319MPD2    H3 4799   3.449   0.553  17.061 -0.0719  0.1266 -0.4050
  319MPD2     N 4800   3.551   0.222  16.746 -0.1372 -0.1143 -0.0149
  319MPD2    H5 4801   3.491   0.284  16.693 -1.5628 -0.8008  0.7894
  319MPD2    N1 4802   3.631   0.186  17.223 -0.2131 -0.6628  0.4522
  319MPD2    H7 4803   3.632   0.238  17.309  1.6754 -1.0728  0.6699
  320TMC3    C1 4804   3.591   0.062  16.562  0.5005  0.2056 -0.1024
  320TMC3    C2 4805   3.542   0.151  16.475 -0.9714  0.7033  1.0496
  320TMC3    C3 4806   3.496   0.104  16.351 -0.4205  0.4462  0.2513
  320TMC3    C4 4807   3.596   4.648  16.534 -0.1501  0.2966 -0.2722
  320TMC3    C5 4808   3.554   4.610  16.409  0.3985 -0.0367 -0.4644
  320TMC3    C6 4809   3.517   4.696  16.310 -0.3375  0.4220  0.2196
  320TMC3     C 4810   3.612   0.099  16.703 -0.7042  0.2394  0.2086
  320TMC3     O 4811   3.675   0.026  16.772  0.0389 -0.4867  0.1323
  320TMC3     H 4812   3.540   0.258  16.493 -2.2657  0.7882  0.3867
  320TMC3    H1 4813   3.634   4.579  16.608  0.2796 -1.9805 -2.5991
  320TMC3    H2 4814   3.486   4.665  16.211  0.0489  2.0671 -0.4090
  320TMC3    C7 4815   3.619   4.487  16.357  0.2157 -0.0623  0.1426
  320TMC3    C8 4816   3.438   0.210  16.265 -0.2432 -0.3110  0.4115
  320TMC3    O1 4817   3.616   4.464  16.238 -0.2639 -0.4405  0.8991
  320TMC3    O2 4818   3.428   0.321  16.320  0.1532  0.1878 -0.2463
  321TMC3    C1 4819   3.758   0.059  17.365 -0.0592  0.8515 -0.4655
  321TMC3    C2 4820   3.814   4.666  17.405  0.5347  0.0110  0.0527
  321TMC3    C3 4821   3.878   4.666  17.523 -0.3173  0.2685  0.6224
  321TMC3    C4 4822   3.780   0.174  17.435  0.0943 -0.0908  0.1169
  321TMC3    C5 4823   3.829   0.169  17.559 -0.1972 -0.1327  0.2560
  321TMC3    C6 4824   3.872   0.052  17.610 -0.1322 -0.2516  0.1906
  321TMC3     C 4825   3.698   0.066  17.234 -0.0957  0.2872  0.0419
  321TMC3     O 4826   3.710   4.696  17.154 -0.4788 -0.0779  0.1160
  321TMC3     H 4827   3.812   4.583  17.336 -0.1305  0.3864 -0.3839
  321TMC3    H1 4828   3.751   0.272  17.401 -0.9775 -0.6918 -0.6963
  321TMC3    H2 4829   3.913   0.040   0.022 -0.9441 -3.5560  0.1295
  321TMC3    C7 4830   3.923   0.278  17.588  0.8825 -0.5840 -0.4212
  321TMC3    C8 4831   4.012   4.606  17.527 -0.3531 -0.1185 -0.1571
  321TMC3    O1 4832   3.888   0.390  17.556  0.2224  0.1657  0.1516
  321TMC3    O2 4833   4.087   4.652  17.608  1.2196  0.1576 -0.5932
  322MPD2     C 4834   2.994   1.729  13.778 -0.0873 -0.0773  0.6815
  322MPD2    C1 4835   3.002   1.626  13.872 -0.7524 -0.6975  0.0031
  322MPD2    C2 4836   3.007   1.498  13.814  0.2720  0.2382  0.0275
  322MPD2    C3 4837   2.999   1.475  13.678  0.0580 -1.0082 -0.9477
  322MPD2    C4 4838   2.984   1.581  13.591 -0.1677  0.0300  0.1666
  322MPD2    C5 4839   2.983   1.710  13.641 -0.4345  0.1096 -0.0209
  322MPD2     H 4840   3.021   1.410  13.876 -0.1671  0.0133 -0.1860
  322MPD2    H1 4841   2.981   1.574  13.483  0.9084  2.2020  0.0017
  322MPD2    H2 4842   2.994   1.831  13.815  0.0428  0.6241 -1.2495
  322MPD2    H3 4843   2.961   1.794  13.577 -2.5475 -1.2658 -1.1196
  322MPD2     N 4844   3.008   1.343  13.621 -0.0359  0.2649  0.1334
  322MPD2    H5 4845   2.996   1.261  13.680  0.7027  0.0986  0.0497
  322MPD2    N1 4846   3.011   1.652  14.010 -0.5245 -0.0152  0.4996
  322MPD2    H7 4847   3.019   1.750  14.036 -1.4360  0.3203 -0.4864
  323TMC3    C1 4848   3.070   1.618  14.237  0.0310  0.3884  0.6668
  323TMC3    C2 4849   3.175   1.705  14.226 -0.6454 -0.0965 -0.6397
  323TMC3    C3 4850   3.258   1.718  14.335 -0.5518  0.4423  0.0649
  323TMC3    C4 4851   3.060   1.533  14.347 -0.4001  0.0588 -0.0537
  323TMC3    C5 4852   3.155   1.544  14.453  0.5236 -0.0125 -0.2074
  323TMC3    C6 4853   3.255   1.632  14.442  0.6024  0.0752  0.1549
  323TMC3     C 4854   3.012   1.564  14.107  0.5687 -0.7233  0.4580
  323TMC3     O 4855   2.985   1.442  14.109  0.9099  0.1404  0.3555
  323TMC3     H 4856   3.194   1.756  14.132  0.8941  0.9633  0.2495
  323TMC3    H1 4857   2.991   1.450  14.355  0.4916 -0.5631  1.2170
  323TMC3    H2 4858   3.334   1.632  14.516 -0.5776 -1.8169  1.4237
  323TMC3    C7 4859   3.210   1.421  14.497 -0.7250  0.4381  0.2803
  323TMC3    C8 4860   3.389   1.777  14.323  0.1847 -0.6658 -0.4848
  323TMC3    O1 4861   3.328   1.395  14.479 -0.2787 -0.4982  0.0849
  323TMC3    O2 4862   3.490   1.724  14.362  0.2371  0.5753 -0.5236
  324MPD2     C 4863   0.363   2.553  14.135 -0.3842  0.1759  0.8115
  324MPD2    C1 4864   0.369   2.662  14.222 -0.0654 -0.5636 -1.1188
  324MPD2    C2 4865   0.253   2.723  14.276 -0.7553  0.9013 -0.1455
  324MPD2    C3 4866   0.131   2.688  14.215 -0.5329  0.5487 -0.5333
  324MPD2    C4 4867   0.129   2.586  14.121  0.6037  0.4384  0.3379
  324MPD2    C5 4868   0.243   2.516  14.088  0.0718 -0.0792  0.9906
  324MPD2     H 4869   0.258   2.791  14.359 -1.9434  0.0846  0.6023
  324MPD2    H1 4870   0.030   2.549  14.097  1.0033 -0.9603  0.8121
  324MPD2    H2 4871   0.447   2.490  14.107 -1.6238 -1.0349 -0.2397
  324MPD2    H3 4872   0.239   2.434  14.016  3.2829  0.8165 -0.2085
  324MPD2     N 4873   0.011   2.758  14.254  0.6434 -0.1533  0.3100
  324MPD2    H5 4874   4.648   2.715  14.215  0.3046  0.3903  0.4425
  324MPD2    N1 4875   0.487   2.718  14.262 -0.1216  0.1408 -0.3611
  324MPD2    H7 4876   0.477   2.804  14.315 -0.5547 -1.7116  2.5626
  325TMC3    C1 4877   4.585   2.897  14.363 -0.5270  0.2303  0.4061
  325TMC3    C2 4878   4.526   2.797  14.436 -0.4229  0.6601  0.3212
  325TMC3    C3 4879   4.414   2.833  14.509 -0.0091  0.1398 -0.0150
  325TMC3    C4 4880   4.552   3.029  14.378  0.0188  0.4987 -0.0663
  325TMC3    C5 4881   4.435   3.053  14.444  0.7063  0.2327  0.1845
  325TMC3    C6 4882   4.357   2.959  14.511  0.1118 -0.4023 -0.4241
  325TMC3     C 4883   0.003   2.874  14.333  0.4232 -0.6291  0.9002
  325TMC3     O 4884   0.094   2.942  14.377  0.2920  0.1425 -0.3849
  325TMC3     H 4885   4.560   2.695  14.423 -1.6183  0.1033  1.5415
  325TMC3    H1 4886   4.611   3.106  14.330 -1.7472  0.1985 -2.6890
  325TMC3    H2 4887   4.263   2.986  14.556  0.3472  0.1891 -0.2884
  325TMC3    C7 4888   4.379   3.175  14.381 -0.4566 -0.2509 -0.0994
  325TMC3    C8 4889   4.329   2.728  14.555  0.1463 -0.0362 -0.4491
  325TMC3    O1 4890   4.454   3.251  14.329  0.0161  0.2875 -0.3286
  325TMC3    O2 4891   4.364   2.615  14.527  0.2148 -0.0405 -0.6823
  326MPD2     C 4892   0.642   3.816  11.415  0.0558  0.3579 -0.0069
  326MPD2    C1 4893   0.725   3.760  11.320 -0.2909  0.7382  0.1793
  326MPD2    C2 4894   0.866   3.753  11.338 -0.6966 -0.2721 -0.6830
  326MPD2    C3 4895   0.925   3.830  11.435 -0.7627 -0.1723 -0.1747
  326MPD2    C4 4896   0.839   3.898  11.522  0.4775 -0.3919  0.4227
  326MPD2    C5 4897   0.701   3.882  11.517  0.1518 -0.3421  0.4124
  326MPD2     H 4898   0.925   3.697  11.267  0.6493  0.6721 -0.3061
  326MPD2    H1 4899   0.882   3.959  11.600 -0.6670 -0.6291  1.2426
  326MPD2    H2 4900   0.534   3.816  11.413  0.0658 -1.6909 -0.7620
  326MPD2    H3 4901   0.643   3.931  11.595  0.5347  1.1346 -0.2411
  326MPD2     N 4902   1.062   3.870  11.425  0.3911  0.1297  0.3568
  326MPD2    H5 4903   1.106   3.937  11.488  0.1231 -1.4520  2.2320
  326MPD2    N1 4904   0.677   3.701  11.201 -0.7100  0.1735 -0.8383
  326MPD2    H7 4905   0.744   3.662  11.135  0.1676 -0.0750  0.1912
  327TMC3    C1 4906   0.542   3.657  11.021 -1.1628  0.2687 -0.0357
  327TMC3    C2 4907   0.447   3.716  10.935  0.1290 -0.1691 -0.2052
  327TMC3    C3 4908   0.453   3.678  10.804  0.1641 -0.0202 -0.9261
  327TMC3    C4 4909   0.626   3.561  10.985  0.1480  0.5414 -0.3931
  327TMC3    C5 4910   0.631   3.537  10.852  0.5766 -0.4938 -0.5452
  327TMC3    C6 4911   0.547   3.594  10.757 -0.8674 -0.1198  0.0291
  327TMC3     C 4912   0.551   3.711  11.153 -0.1273 -0.5590 -0.1564
  327TMC3     O 4913   0.449   3.753  11.205 -0.1599  0.0900 -0.1362
  327TMC3     H 4914   0.391   3.800  10.974 -0.3733 -0.2831 -0.6832
  327TMC3    H1 4915   0.683   3.499  11.053 -2.1880  0.4161  1.4226
  327TMC3    H2 4916   0.551   3.568  10.652 -0.3838  0.8793 -0.2008
  327TMC3    C7 4917   0.769   3.546  10.806  0.1068  0.5283 -0.2371
  327TMC3    C8 4918   0.400   3.772  10.703  0.6706 -0.2470 -0.2441
  327TMC3    O1 4919   0.783   3.575  10.688 -0.3967  0.1658  0.0549
  327TMC3    O2 4920   0.472   3.780  10.602  0.4370 -0.0945  0.0682
  328MPD2     C 4921   3.425   3.559  17.512 -0.6189  0.0748 -0.0177
  328MPD2    C1 4922   3.455   3.692  17.487 -0.0397  0.5922  0.0769
  328MPD2    C2 4923   3.408   3.751  17.376 -0.0135 -0.0961 -0.3956
  328MPD2    C3 4924   3.327   3.680  17.289 -0.2024  0.4851  0.5023
  328MPD2    C4 4925   3.288   3.550  17.309  0.3431 -0.0973  0.1423
  328MPD2    C5 4926   3.345   3.490  17.420 -0.2464  0.3265 -0.4360
  328MPD2     H 4927   3.434   3.853  17.353 -0.7246  0.2935  0.5183
  328MPD2    H1 4928   3.205   3.503  17.258 -0.4765 -1.1847  2.4473
  328MPD2    H2 4929   3.471   3.505  17.594  0.4950  1.8844  0.5511
  328MPD2    H3 4930   3.313   3.390  17.445 -0.5783  0.4884 -0.2129
  328MPD2     N 4931   3.277   3.740  17.165  0.1803  0.3276  0.2840
  328MPD2    H5 4932   3.213   3.688  17.106  1.0289 -0.2773 -0.1062
  328MPD2    N1 4933   3.520   3.764  17.593 -0.5727 -0.3026  0.7376
  328MPD2    H7 4934   3.555   3.715  17.675 -0.7260  1.1333  1.6627
  329TMC3    C1 4935   3.596   3.951   0.030  0.2972 -0.3377 -0.5181
  329TMC3    C2 4936   3.559   4.074   0.073 -0.3306 -0.2778  0.2048
  329TMC3    C3 4937   3.637   4.143   0.163 -0.0123  0.1121  0.3553
  329TMC3    C4 4938   3.692   3.877   0.102  0.0139  0.4919  0.4805
  329TMC3    C5 4939   3.759   3.947   0.198 -0.1957  0.1184 -0.3415
  329TMC3    C6 4940   3.745   4.082   0.214  0.2631 -0.1542  0.1462
  329TMC3     C 4941   3.523   3.904  17.603 -0.2667 -0.0997  0.0793
  329TMC3     O 4942   3.472   3.984  17.528 -0.3343  0.1108  0.7471
  329TMC3     H 4943   3.473   4.126   0.033  0.1528  1.8865  1.9690
  329TMC3    H1 4944   3.728   3.782   0.063 -2.2520 -0.4996  0.7644
  329TMC3    H2 4945   3.794   4.141   0.290 -0.2289  0.9055 -0.3530
  329TMC3    C7 4946   3.806   3.873   0.315  0.5167  0.3430  0.6410
  329TMC3    C8 4947   3.608   4.280   0.192  0.0883  0.3258  0.4088
  329TMC3    O1 4948   3.843   3.950   0.404 -0.6779  0.0608 -0.8994
  329TMC3    O2 4949   3.705   4.351   0.208  0.3957  0.1807 -0.0404
  330TMC3    C1 4950   1.058   3.072   9.731 -0.3028  0.3362 -0.1663
  330TMC3    C2 4951   1.090   3.009   9.620  0.3416 -0.6413 -0.7521
  330TMC3    C3 4952   1.215   3.023   9.570 -0.6651 -0.5093 -0.0690
  330TMC3    C4 4953   1.152   3.157   9.792  0.0610  0.1959 -0.3526
  330TMC3    C5 4954   1.271   3.186   9.733  0.1084 -0.2093 -0.4008
  330TMC3    C6 4955   1.302   3.115   9.616 -0.0677  0.6219 -0.3348
  330TMC3     C 4956   0.930   3.051   9.794 -0.2851 -0.2914 -1.0622
  330TMC3     O 4957   0.936   3.084   9.916 -0.0858  0.0991 -0.0592
  330TMC3     H 4958   1.019   2.942   9.573  0.4146 -1.7127  0.6518
  330TMC3    H1 4959   1.118   3.206   9.882  2.8164 -1.5992  1.6391
  330TMC3    H2 4960   1.402   3.123   9.574 -0.0414  3.9055  0.3584
  330TMC3    C7 4961   1.377   3.246   9.811  0.3014 -0.3871  0.2362
  330TMC3    C8 4962   1.272   2.909   9.503  0.6705 -0.1327  0.0108
  330TMC3    O1 4963   1.343   3.339   9.883  0.3650 -0.4262 -0.1778
  330TMC3    O2 4964   1.341   2.935   9.404 -0.1783  0.1141  0.1702
  331MPD2     C 4965   3.867   2.348  12.323 -0.4987 -0.9376 -0.3305
  331MPD2    C1 4966   3.947   2.294  12.425  0.5008 -0.7679  0.2806
  331MPD2    C2 4967   4.015   2.179  12.404 -0.3882  0.4222  0.6087
  331MPD2    C3 4968   4.010   2.117  12.286 -0.1563 -0.1742 -0.2551
  331MPD2    C4 4969   3.937   2.172  12.179  0.1901  0.8460  0.8414
  331MPD2    C5 4970   3.858   2.286  12.202 -0.2078  0.5014  0.2814
  331MPD2     H 4971   4.079   2.142  12.483  1.8622  0.6533 -1.1101
  331MPD2    H1 4972   3.924   2.107  12.094  0.5319 -0.6491  1.9374
  331MPD2    H2 4973   3.809   2.439  12.335  1.1528  0.3262 -1.9589
  331MPD2    H3 4974   3.801   2.332  12.121  1.0470  0.3497 -0.6772
  331MPD2     N 4975   4.089   2.001  12.269 -0.5274 -0.0121 -0.1780
  331MPD2    H5 4976   4.126   1.952  12.350 -2.6277  1.9106  1.9358
  331MPD2    N1 4977   3.977   2.371  12.535 -0.1905 -0.0819 -0.1482
  331MPD2    H7 4978   3.923   2.456  12.546  0.6129  0.3385  0.4867
  332TMC3    C1 4979   4.231   1.864  12.181 -0.3914 -0.3606 -0.1424
  332TMC3    C2 4980   4.352   1.901  12.128 -0.6219  0.3307 -0.8935
  332TMC3    C3 4981   4.465   1.842  12.182  0.0906  0.3269  0.0847
  332TMC3    C4 4982   4.218   1.775  12.284  0.0650  0.4466 -0.1883
  332TMC3    C5 4983   4.329   1.721  12.333 -0.3014 -0.0200 -0.1519
  332TMC3    C6 4984   4.454   1.754  12.285 -0.0198  0.1910  0.1246
  332TMC3     C 4985   4.132   1.960  12.150  0.7265  0.2181  0.6046
  332TMC3     O 4986   4.137   2.012  12.037  0.0741 -0.4333 -0.7196
  332TMC3     H 4987   4.355   1.981  12.055  3.1445  2.6498  1.7643
  332TMC3    H1 4988   4.126   1.762  12.340  0.7186 -0.6505  0.6288
  332TMC3    H2 4989   4.547   1.718  12.327  0.2204 -0.2019 -0.7505
  332TMC3    C7 4990   4.314   1.625  12.442  0.5484  0.2618 -0.1933
  332TMC3    C8 4991   4.600   1.878  12.147  0.0943  0.1573 -0.1077
  332TMC3    O1 4992   4.204   1.611  12.489 -0.3851  0.0654  0.2494
  332TMC3    O2 4993   4.688   1.799  12.178 -0.3988  0.3063  0.0725
  333MPD2     C 4994   4.379   2.444  11.331  0.0107  0.0723 -0.8035
  333MPD2    C1 4995   4.395   2.348  11.238  0.4930 -0.2848 -0.4778
  333MPD2    C2 4996   4.345   2.218  11.259 -0.3409  0.6883  0.5492
  333MPD2    C3 4997   4.276   2.195  11.375 -0.1328 -0.5997  0.2766
  333MPD2    C4 4998   4.267   2.294  11.474  0.4881  0.8725  0.3767
  333MPD2    C5 4999   4.319   2.418  11.450  0.3659 -0.0613  0.1268
  333MPD2     H 5000   4.340   2.143  11.181 -0.2087  1.3144 -0.0627
  333MPD2    H1 5001   4.223   2.282  11.572  0.9659 -0.2663  0.4560
  333MPD2    H2 5002   4.420   2.544  11.317 -0.3473  0.3805  0.4077
  333MPD2    H3 5003   4.296   2.499  11.519 -1.9775  0.0457 -0.7574
  333MPD2     N 5004   4.229   2.057  11.384 -0.0587  0.0429 -0.3240
  333MPD2    H5 5005   4.248   1.996  11.306  1.0324 -0.5539  0.4078
  333MPD2    N1 5006   4.472   2.376  11.124 -0.0605  0.4648 -0.5933
  333MPD2    H7 5007   4.486   2.475  11.108 -0.3650  0.3531 -1.5171
  334TMC3    C1 5008   4.561   2.350  10.908 -0.3533 -0.0758 -0.8768
  334TMC3    C2 5009   4.616   2.269  10.811  0.7363 -0.0698 -0.4052
  334TMC3    C3 5010   4.659   2.344  10.697 -0.4970 -0.8268 -0.0671
  334TMC3    C4 5011   4.568   2.487  10.909  0.1218  0.9194  0.0301
  334TMC3    C5 5012   4.619   2.547  10.800 -0.0201 -0.2362  0.4255
  334TMC3    C6 5013   4.654   2.478  10.687 -0.1547 -0.6379  0.6424
  334TMC3     C 5014   4.505   2.287  11.024  0.3472 -0.4861  0.3355
  334TMC3     O 5015   4.518   2.167  11.037  0.0210 -0.6679  0.5293
  334TMC3     H 5016   4.620   2.161  10.823 -0.6469  0.0350  0.9724
  334TMC3    H1 5017   4.510   2.546  10.979  0.0324  0.3855  0.4028
  334TMC3    H2 5018   4.692   2.531  10.600 -0.5452 -0.1755  0.7498
  334TMC3    C7 5019   4.664   2.688  10.816 -0.3984  0.6003  0.4176
  334TMC3    C8 5020   0.026   2.267  10.610 -0.4414  0.3334  0.3131
  334TMC3    O1 5021   4.656   2.734  10.932 -0.5518  0.0178 -0.5218
  334TMC3    O2 5022   4.719   2.152  10.591 -0.1514  0.0579  0.1747
  335TMC3    C1 5023   4.555   3.658  17.580  0.2934  0.8117  0.2064
  335TMC3    C2 5024   4.443   3.639  17.505  0.8791 -0.5529 -0.4841
  335TMC3    C3 5025   4.449   3.669  17.369 -0.7907 -1.2301 -0.2615
  335TMC3    C4 5026   4.670   3.715  17.525  0.4430 -0.2202  0.3303
  335TMC3    C5 5027   4.673   3.743  17.393  0.1124 -0.3847  0.4266
  335TMC3    C6 5028   4.566   3.720  17.313 -0.4428 -0.3471  0.1680
  335TMC3     C 5029   4.573   3.585   0.018 -0.2765 -0.4404  0.4031
  335TMC3     O 5030   4.487   3.503   0.049 -0.2991  0.2219 -0.5981
  335TMC3     H 5031   4.349   3.623  17.555  1.0095  0.7275  0.1996
  335TMC3    H1 5032   0.040   3.719  17.584  0.5431 -0.9298  0.2157
  335TMC3    H2 5033   4.567   3.744  17.207 -1.7964  0.2140  0.2817
  335TMC3    C7 5034   0.075   3.788  17.325 -0.3246 -0.2402  0.0575
  335TMC3    C8 5035   4.335   3.642  17.284  0.6439 -0.0620 -0.4047
  335TMC3    O1 5036   0.081   3.796  17.203  0.5289 -0.0371  0.2037
  335TMC3    O2 5037   4.327   3.712  17.186 -0.6549  0.1973  0.7812
  336MPD2     C 5038   3.867   1.421  16.153 -0.6337  0.1842  0.0908
  336MPD2    C1 5039   3.792   1.342  16.072 -0.4509  0.3755  0.3847
  336MPD2    C2 5040   3.782   1.203  16.107  0.0627 -0.2399 -0.4318
  336MPD2    C3 5041   3.835   1.155  16.224 -0.2416  0.6396  0.2229
  336MPD2    C4 5042   3.885   1.241  16.317  0.0377  0.2261  0.2913
  336MPD2    C5 5043   3.911   1.369  16.273  0.5788  0.0518  0.4620
  336MPD2     H 5044   3.734   1.139  16.034  1.5123 -0.0073 -1.5977
  336MPD2    H1 5045   3.921   1.215  16.416 -0.4171 -0.3894  0.2950
  336MPD2    H2 5046   3.884   1.526  16.130 -1.6699 -0.1642 -2.1980
  336MPD2    H3 5047   3.970   1.438  16.332 -0.0434 -0.6205  1.8606
  336MPD2     N 5048   3.820   1.019  16.259 -0.0885  0.1400  0.1720
  336MPD2    H5 5049   3.841   0.990  16.354  0.9643  2.1137  0.5388
  336MPD2    N1 5050   3.720   1.393  15.961 -0.1815 -0.2785 -0.3294
  336MPD2    H7 5051   3.650   1.329  15.924 -0.3808 -0.6912  0.7928
  337TMC3    C1 5052   3.630   1.557  15.816  0.0331 -0.1898 -0.0973
  337TMC3    C2 5053   3.501   1.522  15.855 -0.5728  0.2522 -0.7679
  337TMC3    C3 5054   3.395   1.595  15.808  0.1969 -0.0559 -0.2378
  337TMC3    C4 5055   3.650   1.666  15.739  0.3726  0.2238  0.3121
  337TMC3    C5 5056   3.543   1.742  15.707 -0.0996 -0.0357 -0.1170
  337TMC3    C6 5057   3.415   1.710  15.739  0.1659 -0.1342 -0.0264
  337TMC3     C 5058   3.737   1.514  15.903 -0.7492  0.9663 -0.0602
  337TMC3     O 5059   3.837   1.583  15.888  0.1560 -0.1320  0.1887
  337TMC3     H 5060   3.479   1.450  15.933  0.0364  1.4560  0.5161
  337TMC3    H1 5061   3.750   1.706  15.725  0.6067 -0.1405  0.9379
  337TMC3    H2 5062   3.340   1.783  15.712 -0.9077 -0.4651  2.0873
  337TMC3    C7 5063   3.566   1.870  15.648  0.5334 -0.5241  0.0877
  337TMC3    C8 5064   3.265   1.537  15.818 -0.0322 -0.1137 -0.7655
  337TMC3    O1 5065   3.642   1.868  15.550 -0.0050  0.1218  0.2096
  337TMC3    O2 5066   3.255   1.436  15.890 -0.1525  0.1968 -0.2327
  338MPD2     C 5067   4.201   1.346   1.088  0.0675 -0.1636  0.8816
  338MPD2    C1 5068   4.155   1.311   0.966  0.9483  0.3304 -0.7468
  338MPD2    C2 5069   4.021   1.330   0.932 -0.1814 -0.2563 -1.0126
  338MPD2    C3 5070   3.927   1.380   1.030  0.1899 -0.2153  0.6989
  338MPD2    C4 5071   3.979   1.406   1.158  0.8777 -0.4663  1.2433
  338MPD2    C5 5072   4.113   1.392   1.180  1.0077 -0.6104 -0.4141
  338MPD2     H 5073   3.978   1.298   0.838 -0.5697 -1.4517 -0.4281
  338MPD2    H1 5074   3.924   1.453   1.239  1.1881  1.0901  0.5610
  338MPD2    H2 5075   4.303   1.334   1.122  0.0284  0.5914  1.2565
  338MPD2    H3 5076   4.142   1.409   1.283 -0.5786 -0.2417 -0.0258
  338MPD2     N 5077   3.787   1.387   1.006  0.2469  0.6886 -0.1225
  338MPD2    H5 5078   3.753   1.367   0.913 -0.9916  1.2103  0.2196
  338MPD2    N1 5079   4.234   1.255   0.868 -0.0550  0.2255  0.2407
  338MPD2    H7 5080   4.181   1.240   0.783 -1.2813 -1.6343  1.3412
  339TMC3    C1 5081   3.557   1.392   1.031 -0.2436 -0.0461  0.4481
  339TMC3    C2 5082   3.481   1.294   1.090  0.6307 -0.0541 -0.2851
  339TMC3    C3 5083   3.405   1.219   1.001 -0.4599 -0.0898 -0.1306
  339TMC3    C4 5084   3.570   1.407   0.897  0.2951  0.2631  0.3526
  339TMC3    C5 5085   3.506   1.327   0.812  0.2153 -0.1842 -0.8709
  339TMC3    C6 5086   3.425   1.231   0.860 -0.1787  0.4398 -0.1388
  339TMC3     C 5087   3.684   1.407   1.098 -0.2983 -0.4211  0.3787
  339TMC3     O 5088   3.691   1.402   1.222  0.3857 -0.0365  0.5079
  339TMC3     H 5089   3.477   1.275   1.197 -2.8957 -1.4502 -0.6582
  339TMC3    H1 5090   3.623   1.491   0.855 -0.2137  1.4112  2.0054
  339TMC3    H2 5091   3.371   1.172   0.787  0.0561 -0.7102  0.6094
  339TMC3    C7 5092   3.588   1.299   0.695  0.0355  0.6541 -1.0816
  339TMC3    C8 5093   3.309   1.118   1.039 -0.4310 -0.1564  0.4909
  339TMC3    O1 5094   3.710   1.282   0.716 -0.4697  0.2859 -0.0641
  339TMC3    O2 5095   3.262   1.053   0.944 -0.7150  0.3595  0.7685
  340MPD2     C 5096   3.855   2.879   9.915  0.1140  0.4666 -0.1498
  340MPD2    C1 5097   3.882   2.763   9.978 -0.2484  0.0846 -1.1243
  340MPD2    C2 5098   3.954   2.773  10.099  0.3268 -0.0920  1.0837
  340MPD2    C3 5099   3.984   2.894  10.152 -0.5203  0.4679 -0.3410
  340MPD2    C4 5100   3.950   3.009  10.086 -0.7646  0.6536  0.6226
  340MPD2    C5 5101   3.882   3.002   9.971  0.7140 -0.1196 -0.1700
  340MPD2     H 5102   4.000   2.682  10.136  1.9914  0.0321 -0.6983
  340MPD2    H1 5103   3.978   3.105  10.126 -1.0115 -0.5288  3.6325
  340MPD2    H2 5104   3.810   2.878   9.817  0.7357  3.0762 -0.4524
  340MPD2    H3 5105   3.867   3.094   9.915  0.1130 -0.0895  0.0376
  340MPD2     N 5106   4.051   2.912  10.273 -0.8332 -0.2220  0.2700
  340MPD2    H5 5107   4.099   2.999  10.289  1.2787 -1.4268  0.3827
  340MPD2    N1 5108   3.869   2.636   9.907 -0.3885  0.0922  0.1929
  340MPD2    H7 5109   3.828   2.641   9.814 -0.6766  1.5610  0.3889
  341TMC3    C1 5110   3.884   2.404   9.856 -0.2547 -0.6095 -0.1960
  341TMC3    C2 5111   3.915   2.282   9.904 -0.2026 -0.4810  0.2635
  341TMC3    C3 5112   3.957   2.180   9.821  0.1033  0.9034 -0.5738
  341TMC3    C4 5113   3.919   2.432   9.730 -0.4733  0.0277  1.0225
  341TMC3    C5 5114   3.965   2.328   9.648  0.5967 -0.5422  0.7280
  341TMC3    C6 5115   3.966   2.194   9.687 -0.5403  0.2610  0.0884
  341TMC3     C 5116   3.910   2.511   9.954 -0.5027  1.1068 -0.1603
  341TMC3     O 5117   3.931   2.474  10.069  0.1664 -0.8421 -0.2458
  341TMC3     H 5118   3.912   2.261  10.010 -3.3067  3.7830  1.0345
  341TMC3    H1 5119   3.928   2.532   9.689 -5.2633  1.5616  3.6762
  341TMC3    H2 5120   3.993   2.112   9.622  0.7786  0.3862  0.4932
  341TMC3    C7 5121   4.036   2.357   9.526  0.0437 -0.3203  0.1856
  341TMC3    C8 5122   3.989   2.046   9.887 -0.4261 -0.3498 -0.3237
  341TMC3    O1 5123   4.128   2.287   9.486 -0.0228 -0.2047 -0.3825
  341TMC3    O2 5124   3.938   2.027   9.998  0.3342  0.1100 -0.3296
  342MPD2     C 5125   2.040   1.869   0.346 -0.1648  0.6338 -0.1325
  342MPD2    C1 5126   2.123   1.865   0.234 -0.1464  1.0644  0.0194
  342MPD2    C2 5127   2.186   1.981   0.198 -0.5824 -0.5226  0.0198
  342MPD2    C3 5128   2.150   2.101   0.266 -0.3296 -0.0483 -0.1073
  342MPD2    C4 5129   2.056   2.095   0.361 -0.0047  1.0564 -0.0224
  342MPD2    C5 5130   1.988   1.984   0.394 -0.3669  0.2511  0.2999
  342MPD2     H 5131   2.254   1.979   0.114  0.5670  2.5859  0.8387
  342MPD2    H1 5132   2.021   2.185   0.411  3.3839  1.0298  2.3948
  342MPD2    H2 5133   1.984   1.784   0.384  1.1194  0.8712  2.3030
  342MPD2    H3 5134   1.911   1.977   0.471 -0.9040  1.4977 -0.1179
  342MPD2     N 5135   2.201   2.233   0.246  0.5591  0.3364  0.3273
  342MPD2    H5 5136   2.165   2.312   0.297 -1.0268  0.0560 -0.3567
  342MPD2    N1 5137   2.171   1.747   0.185  0.4938  0.2953  0.2653
  342MPD2    H7 5138   2.251   1.755   0.122 -0.9191  0.1205 -1.5559
  343TMC3    C1 5139   2.174   1.520   0.113 -1.1964 -0.0717  0.3508
  343TMC3    C2 5140   2.310   1.533   0.082  0.1228  0.2708 -0.2226
  343TMC3    C3 5141   2.374   1.427   0.023 -0.0561 -0.5635  0.0628
  343TMC3    C4 5142   2.111   1.397   0.102  0.2616  0.1006 -0.7481
  343TMC3    C5 5143   2.179   1.303   0.039 -0.5175  0.1311 -0.2146
  343TMC3    C6 5144   2.310   1.307  17.686 -0.1960  0.6132  0.2414
  343TMC3     C 5145   2.113   1.620   0.193  0.2390  0.7797  0.2190
  343TMC3     O 5146   2.012   1.585   0.255  0.0105  0.1387  0.5321
  343TMC3     H 5147   2.369   1.623   0.096  0.5597 -0.0125 -0.2587
  343TMC3    H1 5148   2.007   1.400   0.134 -0.3734  0.1855 -2.8207
  343TMC3    H2 5149   2.357   1.225  17.634  0.7337  1.5225 -0.3656
  343TMC3    C7 5150   2.130   1.172   0.077 -0.3492  0.2376 -0.5388
  343TMC3    C8 5151   2.517   1.437  17.678  0.1926 -0.1236  0.2680
  343TMC3    O1 5152   2.012   1.155   0.089 -0.8693  0.3793  0.1959
  343TMC3    O2 5153   2.566   1.542   0.031 -0.7025 -0.9346 -0.5403
  344MPD2     C 5154   2.999   1.159  10.489 -0.9295 -0.3930  0.0701
  344MPD2    C1 5155   2.899   1.217  10.569  0.4199 -0.3007  0.2286
  344MPD2    C2 5156   2.914   1.344  10.628  0.0949 -0.4633 -0.1398
  344MPD2    C3 5157   3.033   1.415  10.612 -0.5717  0.0010  0.2859
  344MPD2    C4 5158   3.134   1.344  10.550  0.2422  0.1436 -0.4545
  344MPD2    C5 5159   3.120   1.220  10.491 -0.0180 -0.2950  0.4498
  344MPD2     H 5160   2.830   1.383  10.685  0.8990 -1.0145  1.4142
  344MPD2    H1 5161   3.229   1.393  10.534  0.3831  0.6769  1.9336
  344MPD2    H2 5162   2.998   1.060  10.447 -1.9342 -0.5104  0.3806
  344MPD2    H3 5163   3.202   1.182  10.431 -0.3561  0.1908 -0.3308
  344MPD2     N 5164   3.058   1.541  10.669 -0.5660  0.0912 -0.0522
  344MPD2    H5 5165   3.157   1.561  10.668 -0.3373 -0.9867  0.1824
  344MPD2    N1 5166   2.781   1.146  10.593 -0.0242 -0.8268  0.1081
  344MPD2    H7 5167   2.714   1.191  10.654  2.0055  1.4181  0.7022
  345TMC3    C1 5168   3.027   1.762  10.683  0.3091 -1.1135 -0.1542
  345TMC3    C2 5169   3.148   1.757  10.748 -0.0184  0.2475 -0.4776
  345TMC3    C3 5170   3.263   1.802  10.688 -0.0553  0.6471  0.0410
  345TMC3    C4 5171   3.030   1.810  10.556  0.2641 -0.4239 -0.0569
  345TMC3    C5 5172   3.148   1.856  10.492 -0.0694 -0.7275 -0.3251
  345TMC3    C6 5173   3.263   1.851  10.567 -0.2996 -0.7087  0.4292
  345TMC3     C 5174   2.964   1.633  10.691  0.3899 -0.3565  0.9505
  345TMC3     O 5175   2.840   1.624  10.686  0.0784 -0.0611  0.1261
  345TMC3     H 5176   3.146   1.722  10.851  3.0253  2.1807  0.2220
  345TMC3    H1 5177   2.939   1.795  10.498 -0.1125  2.1415 -0.0964
  345TMC3    H2 5178   3.356   1.879  10.520 -1.2941 -0.0659 -1.1782
  345TMC3    C7 5179   3.125   1.970  10.410 -0.7104  0.2239  0.0720
  345TMC3    C8 5180   3.363   1.866  10.769  0.4359 -0.7777  0.2136
  345TMC3    O1 5181   3.214   2.035  10.357 -0.4810 -0.2752  0.0506
  345TMC3    O2 5182   3.434   1.943  10.703 -0.1469 -0.0909 -0.4980
  346MPD2     C 5183   3.155   2.823  14.088  0.3732  0.2382  0.0614
  346MPD2    C1 5184   3.170   2.951  14.033  0.3944 -0.7384  0.2788
  346MPD2    C2 5185   3.191   3.052  14.122  0.1305  0.2805 -0.4591
  346MPD2    C3 5186   3.229   3.028  14.256 -0.1007 -0.1894  0.6952
  346MPD2    C4 5187   3.223   2.898  14.308  0.0656 -0.0080 -0.4191
  346MPD2    C5 5188   3.181   2.801  14.220  0.4826 -1.0825 -0.3267
  346MPD2     H 5189   3.190   3.150  14.076  0.6279  0.1402 -0.7733
  346MPD2    H1 5190   3.236   2.882  14.414  2.0478 -2.0304 -0.9643
  346MPD2    H2 5191   3.118   2.746  14.021  2.0302  0.4814 -1.1369
  346MPD2    H3 5192   3.165   2.698  14.250  1.8862 -1.3338 -0.4274
  346MPD2     N 5193   3.265   3.140  14.337 -0.2005 -0.5557 -0.6606
  346MPD2    H5 5194   3.250   3.232  14.295 -1.0864 -1.1079 -1.5564
  346MPD2    N1 5195   3.151   2.985  13.899 -0.2509 -0.5225 -0.0698
  346MPD2    H7 5196   3.174   3.082  13.878  1.0538 -0.8623 -0.2384
  347TMC3    C1 5197   3.392   3.254  14.501 -0.4552 -0.0583  0.3799
  347TMC3    C2 5198   3.525   3.243  14.514 -0.2188  0.4605  0.4169
  347TMC3    C3 5199   3.605   3.349  14.489  0.1454 -0.8399  0.4340
  347TMC3    C4 5200   3.336   3.364  14.447  1.0724  0.3762 -0.8412
  347TMC3    C5 5201   3.412   3.468  14.411 -0.1067  0.0443 -0.7034
  347TMC3    C6 5202   3.551   3.466  14.437 -0.2333 -0.4859  0.8366
  347TMC3     C 5203   3.344   3.128  14.451  0.4410  0.0443  0.4022
  347TMC3     O 5204   3.403   3.025  14.486  0.4921 -0.4104  0.0029
  347TMC3     H 5205   3.566   3.159  14.569 -0.1572  0.8973  1.0385
  347TMC3    H1 5206   3.228   3.364  14.444  1.0896  2.8602 -0.9453
  347TMC3    H2 5207   3.598   3.561  14.413 -1.2641 -0.8014 -2.4794
  347TMC3    C7 5208   3.349   3.606  14.398  0.5480 -0.7576 -0.3844
  347TMC3    C8 5209   3.746   3.340  14.508 -0.5561 -0.1099  0.8003
  347TMC3    O1 5210   3.418   3.702  14.412  0.1992 -0.0018 -0.0493
  347TMC3    O2 5211   3.776   3.223  14.525 -0.9831  0.5117  0.3688
  348MPD2     C 5212   1.878   2.433  12.406  0.1927  0.0311 -0.2569
  348MPD2    C1 5213   1.994   2.467  12.344  0.3146  0.3468 -0.3236
  348MPD2    C2 5214   1.989   2.539  12.222  0.0774  0.1887  1.0230
  348MPD2    C3 5215   1.873   2.566  12.151  0.8488 -0.4531  0.5396
  348MPD2    C4 5216   1.758   2.523  12.218 -0.4769 -0.9924  0.3666
  348MPD2    C5 5217   1.766   2.457  12.338  0.2420  0.2170 -0.0784
  348MPD2     H 5218   2.083   2.576  12.182 -2.2060  3.2315 -1.5534
  348MPD2    H1 5219   1.662   2.529  12.167 -0.4379  1.4600  0.5855
  348MPD2    H2 5220   1.867   2.382  12.501  0.4971  0.2192 -0.1228
  348MPD2    H3 5221   1.678   2.412  12.383  1.1221 -2.8585 -1.3490
  348MPD2     N 5222   1.880   2.630  12.030 -0.1187  0.1002 -0.7721
  348MPD2    H5 5223   1.968   2.644  11.982  0.7563  1.5386  1.2506
  348MPD2    N1 5224   2.121   2.446  12.407  0.2836  0.0528  0.1254
  348MPD2    H7 5225   2.205   2.482  12.365 -0.8605  0.2939 -1.9591
  349TMC3    C1 5226   2.291   2.373  12.544 -0.7841  0.3774 -0.2633
  349TMC3    C2 5227   2.317   2.244  12.584 -0.2865 -0.6818  0.5765
  349TMC3    C3 5228   2.402   2.166  12.512 -0.2103  0.0008  0.0707
  349TMC3    C4 5229   2.369   2.424  12.442 -0.1846 -0.3819 -0.7514
  349TMC3    C5 5230   2.443   2.345  12.364  0.0938  0.0606  0.6590
  349TMC3    C6 5231   2.463   2.207  12.400  0.3642 -0.7658 -0.8428
  349TMC3     C 5232   2.148   2.379  12.527  0.1188  0.1918  1.0593
  349TMC3     O 5233   2.070   2.306  12.587 -0.8711 -0.0160 -0.1088
  349TMC3     H 5234   2.254   2.198  12.659 -1.7850  2.2980  1.1450
  349TMC3    H1 5235   2.377   2.531  12.428 -1.0895 -0.2793 -0.4658
  349TMC3    H2 5236   2.503   2.128  12.337 -0.8011 -2.1396  0.1297
  349TMC3    C7 5237   2.444   2.372  12.217 -0.0413 -0.0842  0.3974
  349TMC3    C8 5238   2.411   2.024  12.545 -0.1487 -0.5595  0.3393
  349TMC3    O1 5239   2.425   2.273  12.143  0.0462 -0.2293  0.1299
  349TMC3    O2 5240   2.309   1.980  12.599  0.4384 -0.2792 -0.0620
  350MPD2     C 5241   0.344   0.603   9.672  0.5557  0.1368 -0.1477
  350MPD2    C1 5242   0.400   0.516   9.767 -0.0483  0.3190 -0.8734
  350MPD2    C2 5243   0.475   0.568   9.868 -0.0589  0.0094  0.2343
  350MPD2    C3 5244   0.501   0.701   9.879 -0.1573 -0.9128  0.1036
  350MPD2    C4 5245   0.456   0.789   9.783  0.3634  0.5512 -0.5919
  350MPD2    C5 5246   0.376   0.741   9.684  0.2822 -0.1773 -0.3380
  350MPD2     H 5247   0.524   0.499   9.937  0.1513  0.2656  0.3411
  350MPD2    H1 5248   0.473   0.896   9.777 -3.0531  1.0438 -1.0950
  350MPD2    H2 5249   0.285   0.565   9.590 -0.3587  0.0836  0.5267
  350MPD2    H3 5250   0.329   0.802   9.607 -2.3319  1.2140  2.3154
  350MPD2     N 5251   0.576   0.741   9.993  0.0594  0.2021  0.4150
  350MPD2    H5 5252   0.618   0.673  10.055  1.7588 -1.4695 -2.5452
  350MPD2    N1 5253   0.379   0.379   9.779 -0.5293 -0.2258  0.5497
  350MPD2    H7 5254   0.433   0.328   9.849  1.0594  0.7154  0.0103
  351TMC3    C1 5255   0.279   0.167   9.746 -0.0700 -0.0777 -0.2627
  351TMC3    C2 5256   0.378   0.104   9.821 -0.2890  0.5259 -0.4166
  351TMC3    C3 5257   0.361   4.690   9.843  0.5036  0.1429  0.5587
  351TMC3    C4 5258   0.163   0.103   9.712 -0.9095 -0.9224  0.3344
  351TMC3    C5 5259   0.140   4.691   9.733 -0.1717 -0.0970  1.0802
  351TMC3    C6 5260   0.248   4.618   9.794  0.6919 -0.7244 -0.1316
  351TMC3     C 5261   0.283   0.307   9.706  0.2900 -0.2608  0.0662
  351TMC3     O 5262   0.209   0.344   9.621  0.3609  0.4074  0.0986
  351TMC3     H 5263   0.476   0.148   9.839 -0.8525  0.7931  1.9868
  351TMC3    H1 5264   0.081   0.155   9.663  0.3486 -1.3006 -2.1590
  351TMC3    H2 5265   0.252   4.509   9.794 -0.8077 -0.7716 -0.0890
  351TMC3    C7 5266   0.059   4.617   9.627 -0.0417 -0.0205 -0.2697
  351TMC3    C8 5267   0.481   4.603   9.864  0.0165  0.2143  0.0199
  351TMC3    O1 5268   0.019   4.689   9.533 -0.2934  0.0582 -0.4039
  351TMC3    O2 5269   0.472   4.489   9.830  0.2918  0.1102  0.1948
  352MPD2     C 5270   4.719   3.031   1.495 -0.5323 -0.5920 -0.2074
  352MPD2    C1 5271   0.036   3.074   1.375 -0.3520  0.6095  0.4707
  352MPD2    C2 5272   0.170   3.067   1.342 -0.2259 -0.1254  0.8170
  352MPD2    C3 5273   0.267   3.018   1.435 -1.0004  0.4523 -0.3990
  352MPD2    C4 5274   0.219   2.984   1.563 -0.4531  0.6324 -0.0122
  352MPD2    C5 5275   0.088   2.998   1.591  0.3054 -0.5433  0.0180
  352MPD2     H 5276   0.192   3.078   1.237 -0.7097 -1.8501  0.5451
  352MPD2    H1 5277   0.290   2.946   1.636 -3.0607 -0.6121  1.8620
  352MPD2    H2 5278   4.616   3.042   1.527 -0.7114  1.7735 -1.5929
  352MPD2    H3 5279   0.059   2.975   1.693 -0.2641 -1.0260 -0.2499
  352MPD2     N 5280   0.403   2.992   1.405  0.7464 -0.1072  0.2927
  352MPD2    H5 5281   0.457   2.933   1.468  0.4367  0.1680  0.8205
  352MPD2    N1 5282   4.658   3.109   1.288  0.0741 -0.1927 -0.4338
  352MPD2    H7 5283   4.562   3.092   1.317 -0.6542  3.4856 -0.6916
  353TMC3    C1 5284   0.592   2.970   1.262  0.7934  0.5971  0.4520
  353TMC3    C2 5285   0.684   2.953   1.358  0.7434  0.5915  0.4179
  353TMC3    C3 5286   0.791   2.874   1.324  0.1140  0.1501  0.1178
  353TMC3    C4 5287   0.595   2.910   1.141  0.1522 -0.6605 -1.0912
  353TMC3    C5 5288   0.709   2.849   1.102 -0.1916  1.0735  0.1647
  353TMC3    C6 5289   0.804   2.821   1.195 -0.0557 -0.3548  0.8442
  353TMC3     C 5290   0.458   3.026   1.287 -0.3062 -0.4138  0.9294
  353TMC3     O 5291   0.416   3.105   1.205 -0.1074  0.4568 -0.3122
  353TMC3     H 5292   0.673   2.980   1.463 -2.7628 -0.0820  0.2564
  353TMC3    H1 5293   0.522   2.926   1.064  0.6326  1.1290 -1.1817
  353TMC3    H2 5294   0.892   2.765   1.165 -0.3363 -1.7068  2.6024
  353TMC3    C7 5295   0.679   2.749   1.001  0.4888 -0.0493  0.0913
  353TMC3    C8 5296   0.882   2.821   1.423 -0.1163 -0.4186  0.0606
  353TMC3    O1 5297   0.567   2.750   0.953 -0.0746 -0.4958 -0.1060
  353TMC3    O2 5298   0.898   2.893   1.522  0.4645 -0.0178  0.1734
  354TMC3    C1 5299   0.817   3.743  13.128  0.1182 -0.2927 -0.7890
  354TMC3    C2 5300   0.775   3.875  13.140  0.4787  0.2608 -0.0431
  354TMC3    C3 5301   0.822   3.959  13.033 -0.6995 -0.0835  0.1678
  354TMC3    C4 5302   0.889   3.687  13.026 -0.7010 -0.7222 -0.2965
  354TMC3    C5 5303   0.921   3.777  12.929  0.7569 -0.6752  0.3921
  354TMC3    C6 5304   0.887   3.910  12.925 -0.1573 -0.2365 -0.2499
  354TMC3     C 5305   0.816   3.656  13.242  0.8270  0.0279 -0.6202
  354TMC3     O 5306   0.822   3.532  13.230  0.2028 -0.0982  0.9363
  354TMC3     H 5307   0.730   3.919  13.228  1.0539 -0.7554  0.7578
  354TMC3    H1 5308   0.933   3.589  13.037 -0.4225 -0.4368  1.1665
  354TMC3    H2 5309   0.907   3.971  12.837 -0.3995  1.2173  0.7056
  354TMC3    C7 5310   0.997   3.724  12.828 -0.2986  0.6860 -0.1615
  354TMC3    C8 5311   0.878   4.086  13.063  0.1758 -0.2778  0.7982
  354TMC3    O1 5312   0.961   3.614  12.781 -0.1917  0.1321 -0.0700
  354TMC3    O2 5313   0.988   4.098  13.010 -0.2815  0.2369  0.3413
  355MPD2     C 5314   1.107   0.248  12.157  0.1551 -0.0992 -0.0045
  355MPD2    C1 5315   1.146   0.186  12.039 -0.2917 -0.1345  0.3333
  355MPD2    C2 5316   1.270   0.136  12.029  0.2057 -0.0329 -0.4074
  355MPD2    C3 5317   1.361   0.151  12.128  0.5979  0.3084 -0.0776
  355MPD2    C4 5318   1.322   0.216  12.246 -0.7276 -0.2718  0.1578
  355MPD2    C5 5319   1.193   0.266  12.258 -0.1374  0.5901 -0.1202
  355MPD2     H 5320   1.294   0.075  11.943 -0.5418  0.8653 -1.2484
  355MPD2    H1 5321   1.392   0.228  12.328 -0.9296  0.8200  0.1631
  355MPD2    H2 5322   1.011   0.296  12.171  0.2392  0.2502 -0.6409
  355MPD2    H3 5323   1.169   0.320  12.348  2.5602  0.8889  0.4298
  355MPD2     N 5324   1.502   0.147  12.105  0.2314  0.6151 -0.3067
  355MPD2    H5 5325   1.558   0.178  12.184  2.9274 -1.7773 -1.2844
  355MPD2    N1 5326   1.054   0.189  11.932 -0.6863  0.5941  0.0484
  355MPD2    H7 5327   0.966   0.236  11.948 -1.1160 -0.4923  0.8760
  356TMC3    C1 5328   1.711   0.082  11.990 -0.0480 -0.5591 -0.1338
  356TMC3    C2 5329   1.775   0.130  11.871  0.0904 -0.1700  0.7237
  356TMC3    C3 5330   1.895   0.192  11.886 -0.2659 -0.1876 -0.0331
  356TMC3    C4 5331   1.778   0.100  12.109 -0.6459  0.4475 -0.4976
  356TMC3    C5 5332   1.892   0.178  12.115  0.1433  0.5892  0.7210
  356TMC3    C6 5333   1.958   0.220  12.001 -0.0879 -0.6934  1.1523
  356TMC3     C 5334   1.563   0.108  11.985  0.3134  0.4073  0.4672
  356TMC3     O 5335   1.506   0.088  11.882 -0.2899  0.0719  0.0916
  356TMC3     H 5336   1.710   0.132  11.785  1.4240  1.0478 -0.2725
  356TMC3    H1 5337   1.726   0.079  12.201  1.7445  0.3660  0.8258
  356TMC3    H2 5338   2.062   0.248  12.005  0.3190 -1.6893 -2.3966
  356TMC3    C7 5339   1.950   0.209  12.249 -0.7385  0.2126  1.0725
  356TMC3    C8 5340   1.957   0.236  11.772  0.3300 -0.0303 -0.0876
  356TMC3    O1 5341   1.911   0.144  12.345 -0.6789 -0.3316  0.2783
  356TMC3    O2 5342   1.947   0.178  11.667 -0.0877  0.2767 -0.0852
  357MPD2     C 5343   1.221   4.291   1.599  0.2220 -0.3524  0.2137
  357MPD2    C1 5344   1.336   4.217   1.572 -0.0020 -0.2540  0.3636
  357MPD2    C2 5345   1.452   4.260   1.638  0.1435 -0.2032  1.1582
  357MPD2    C3 5346   1.460   4.365   1.722 -0.1631  0.0829 -0.6004
  357MPD2    C4 5347   1.345   4.438   1.743  0.1191 -0.0373 -0.2816
  357MPD2    C5 5348   1.229   4.404   1.686 -0.1651 -0.9082 -1.1139
  357MPD2     H 5349   1.537   4.197   1.615  0.1704  0.0685  0.5080
  357MPD2    H1 5350   1.336   4.516   1.818 -3.4645  0.1461 -0.9187
  357MPD2    H2 5351   1.119   4.263   1.577  0.3704 -1.3542  0.7715
  357MPD2    H3 5352   1.138   4.453   1.720 -0.1471 -1.9776  0.4618
  357MPD2     N 5353   1.581   4.397   1.789 -0.1439  0.2649  0.3892
  357MPD2    H5 5354   1.575   4.478   1.849 -0.1447 -0.9179  1.9903
  357MPD2    N1 5355   1.327   4.100   1.498  0.2021  0.1313 -0.4443
  357MPD2    H7 5356   1.242   4.080   1.445 -0.3842 -0.5368  0.7507
  358TMC3    C1 5357   1.415   3.911   1.382  0.2895 -0.7962  0.4064
  358TMC3    C2 5358   1.337   3.941   1.274  0.0741 -0.3917  0.1849
  358TMC3    C3 5359   1.378   3.884   1.158 -0.1954 -0.3708 -0.1510
  358TMC3    C4 5360   1.525   3.830   1.380  0.1963  0.4211  0.2822
  358TMC3    C5 5361   1.569   3.791   1.254  0.3615 -0.1552 -0.0592
  358TMC3    C6 5362   1.504   3.828   1.142 -0.8365 -0.5485 -0.0013
  358TMC3     C 5363   1.432   4.011   1.482 -0.5191  0.3212  0.7071
  358TMC3     O 5364   1.533   3.990   1.549 -0.3209  0.5091  0.1670
  358TMC3     H 5365   1.253   4.009   1.287  1.4937  1.4797 -0.3476
  358TMC3    H1 5366   1.569   3.793   1.472  1.4773  1.3506  0.0443
  358TMC3    H2 5367   1.532   3.809   1.039 -1.6076 -0.1697 -0.2803
  358TMC3    C7 5368   1.710   3.807   1.232  0.0941  0.9003  0.5944
  358TMC3    C8 5369   1.273   3.866   1.061  0.2260  1.0882 -0.2632
  358TMC3    O1 5370   1.742   3.777   1.118 -0.1874 -0.6477  0.2210
  358TMC3    O2 5371   1.177   3.944   1.051  0.8002 -0.0332 -0.0766
  359MPD2     C 5372   1.639   2.717  12.676  0.0279  0.8804  0.0677
  359MPD2    C1 5373   1.605   2.693  12.545  0.3987  0.4217  0.3242
  359MPD2    C2 5374   1.495   2.613  12.513  0.0107 -0.3006  0.5280
  359MPD2    C3 5375   1.423   2.552  12.615 -0.5481  0.4897  0.0545
  359MPD2    C4 5376   1.462   2.574  12.741  0.0225 -1.1858  0.5104
  359MPD2    C5 5377   1.571   2.648  12.777  0.8432 -0.4611  0.7118
  359MPD2     H 5378   1.475   2.613  12.407 -2.6589  0.2384  1.0194
  359MPD2    H1 5379   1.394   2.539  12.818 -1.8444  1.4634  0.0481
  359MPD2    H2 5380   1.721   2.779  12.711  1.0594  0.0717 -0.9017
  359MPD2    H3 5381   1.609   2.673  12.875  1.9430 -1.3982  0.5178
  359MPD2     N 5382   1.310   2.471  12.599  0.0885 -0.9838  0.3228
  359MPD2    H5 5383   1.264   2.424  12.676 -1.3881  0.4625  0.3219
  359MPD2    N1 5384   1.669   2.761  12.444 -0.3374 -0.1170 -0.1903
  359MPD2    H7 5385   1.631   2.743  12.351  0.8212 -2.7863 -0.1427
  360TMC3    C1 5386   1.821   2.898  12.322 -0.2564 -0.1171  0.3662
  360TMC3    C2 5387   1.950   2.936  12.310  0.0190  0.6555  0.3098
  360TMC3    C3 5388   1.979   3.010  12.202  0.3960 -0.5151  0.5839
  360TMC3    C4 5389   1.720   2.920  12.228 -0.4970  0.8493 -0.1522
  360TMC3    C5 5390   1.759   2.995  12.120 -0.3302 -0.2624 -0.8789
  360TMC3    C6 5391   1.886   3.042  12.115 -0.1812 -0.6542  0.0939
  360TMC3     C 5392   1.782   2.838  12.450  0.5318  0.1556  0.2792
  360TMC3     O 5393   1.847   2.857  12.551 -0.2334  0.4491 -0.3726
  360TMC3     H 5394   2.021   2.923  12.391 -1.3131 -1.1737  1.2097
  360TMC3    H1 5395   1.615   2.911  12.253 -0.5177  0.8433 -0.2410
  360TMC3    H2 5396   1.916   3.094  12.024 -0.4740 -2.7495 -1.2132
  360TMC3    C7 5397   1.667   3.024  12.011  0.1763  0.3577 -0.4892
  360TMC3    C8 5398   2.106   3.076  12.192 -0.2535  0.1485 -0.0888
  360TMC3    O1 5399   1.685   3.120  11.945  0.4744  0.2887 -1.1067
  360TMC3    O2 5400   2.200   3.022  12.244 -0.2417 -0.2396  0.0056
  361MPD2     C 5401   2.936   1.943  17.148  0.3735  0.3978 -0.5346
  361MPD2    C1 5402   3.029   2.046  17.172  0.3649 -0.0651 -0.3325
  361MPD2    C2 5403   3.158   2.039  17.149  0.3792  0.7305 -0.4851
  361MPD2    C3 5404   3.209   1.924  17.092  0.0873 -0.2066 -0.1540
  361MPD2    C4 5405   3.117   1.821  17.066  0.9713  0.0432 -0.4719
  361MPD2    C5 5406   2.987   1.824  17.107 -0.4435 -0.4512  0.1629
  361MPD2     H 5407   3.219   2.128  17.164  1.5900 -0.7800  3.7540
  361MPD2    H1 5408   3.149   1.724  17.032 -0.4199 -0.5912 -0.0004
  361MPD2    H2 5409   2.828   1.950  17.156  0.1531  2.0486 -4.7638
  361MPD2    H3 5410   2.926   1.737  17.087  1.0121 -1.1199 -1.3412
  361MPD2     N 5411   3.346   1.889  17.084  0.1073 -1.1548 -0.7342
  361MPD2    H5 5412   3.362   1.792  17.057  1.7281 -0.6200 -1.7595
  361MPD2    N1 5413   2.974   2.175  17.210  0.2140  0.3088  0.2061
  361MPD2    H7 5414   3.040   2.252  17.207  1.3830 -0.7237 -0.5829
  362TMC3    C1 5415   2.819   2.336  17.271 -0.0849  0.1221  0.0069
  362TMC3    C2 5416   2.717   2.367  17.360 -0.4388 -0.0642 -0.1729
  362TMC3    C3 5417   2.655   2.477  17.324  0.6252 -0.4167 -0.4287
  362TMC3    C4 5418   2.854   2.404  17.160 -0.3728 -0.5348  0.2271
  362TMC3    C5 5419   2.789   2.520  17.135 -0.5454 -0.5472  0.5574
  362TMC3    C6 5420   2.688   2.559  17.218 -0.2303  0.1311  0.6082
  362TMC3     C 5421   2.844   2.194  17.259  0.4021  0.4241  0.3326
  362TMC3     O 5422   2.762   2.112  17.298  0.0314 -0.1331 -0.4730
  362TMC3     H 5423   2.693   2.290  17.433 -0.2046  0.7120  0.7280
  362TMC3    H1 5424   2.936   2.383  17.093  0.0466  2.0637 -0.0994
  362TMC3    H2 5425   2.630   2.639  17.174  0.3117 -1.2208 -2.5566
  362TMC3    C7 5426   2.783   2.552  16.992 -0.1264 -0.6467 -0.3889
  362TMC3    C8 5427   2.530   2.500  17.391  0.2645  0.6438 -0.1726
  362TMC3    O1 5428   2.761   2.671  16.975  0.4075  0.0912 -0.1577
  362TMC3    O2 5429   2.481   2.403  17.449  0.0406 -0.0744 -0.6806
  363TMC3    C1 5430   0.927   4.097   9.180 -0.7698  0.3876 -0.2479
  363TMC3    C2 5431   1.020   4.112   9.275 -0.2110  0.1399 -0.5194
  363TMC3    C3 5432   1.038   4.229   9.339 -0.0613 -0.0837 -0.8155
  363TMC3    C4 5433   0.847   4.204   9.150 -0.0562 -0.0879 -0.0899
  363TMC3    C5 5434   0.870   4.317   9.216  0.1153 -0.8303 -0.0508
  363TMC3    C6 5435   0.972   4.335   9.303  0.5951 -0.2377 -0.3080
  363TMC3     C 5436   0.907   3.967   9.107  0.5026 -0.0190  0.2170
  363TMC3     O 5437   0.998   3.883   9.121 -0.2797  0.2327 -0.1160
  363TMC3     H 5438   1.065   4.021   9.312 -1.8381 -0.4149  0.0520
  363TMC3    H1 5439   0.771   4.207   9.073  2.2530  2.3147 -2.2365
  363TMC3    H2 5440   1.004   4.428   9.350  0.3900  1.2190 -3.0152
  363TMC3    C7 5441   0.802   4.439   9.160  0.9226  0.3835 -0.0945
  363TMC3    C8 5442   1.134   4.241   9.441 -0.6899 -0.2102 -0.3491
  363TMC3    O1 5443   0.699   4.419   9.095  0.1886 -0.0960  0.0267
  363TMC3    O2 5444   1.110   4.320   9.528 -0.0843  0.2853  0.2388
  364MPD2     C 5445   0.090   4.139  10.542  0.9530  0.2301 -0.2190
  364MPD2    C1 5446   0.211   4.107  10.496  0.0202  0.6139  0.2288
  364MPD2    C2 5447   0.283   4.000  10.556 -0.0940  0.0941 -0.3460
  364MPD2    C3 5448   0.221   3.933  10.658  0.4326  0.5891 -0.5001
  364MPD2    C4 5449   0.094   3.972  10.700  0.5771  0.6395 -0.4571
  364MPD2    C5 5450   0.028   4.070  10.639  0.1467 -0.7074  0.2650
  364MPD2     H 5451   0.391   3.990  10.546 -0.2462 -3.2660  1.4570
  364MPD2    H1 5452   0.048   3.925  10.786 -0.3163 -0.0379 -1.2980
  364MPD2    H2 5453   0.029   4.217  10.498  1.0993 -1.0168 -2.6374
  364MPD2    H3 5454   4.655   4.111  10.675  0.7713 -0.5939  1.7559
  364MPD2     N 5455   0.283   3.833  10.735  0.6709  0.4120  0.7841
  364MPD2    H5 5456   0.239   3.794  10.818 -1.1781  0.6015 -0.1090
  364MPD2    N1 5457   0.282   4.205  10.427  0.3088 -0.0609 -0.2871
  364MPD2    H7 5458   0.228   4.286  10.398 -0.3907  0.4284  2.4231
  365TMC3    C1 5459   0.467   4.321  10.319 -0.6268 -0.1697  0.1627
  365TMC3    C2 5460   0.576   4.297  10.242  0.2414 -0.8232  0.1959
  365TMC3    C3 5461   0.655   4.402  10.204  0.1020  1.1264 -0.5792
  365TMC3    C4 5462   0.435   4.448  10.355 -0.2509 -0.6290  0.4069
  365TMC3    C5 5463   0.518   4.547  10.327 -0.0438 -0.8203 -0.4815
  365TMC3    C6 5464   0.626   4.525  10.244 -0.6575 -0.7465  0.7461
  365TMC3     C 5465   0.403   4.191  10.368  0.4264  0.1460  0.7759
  365TMC3     O 5466   0.464   4.088  10.339  0.0056 -0.4015  0.6960
  365TMC3     H 5467   0.607   4.197  10.214 -0.5109 -1.4656  1.6022
  365TMC3    H1 5468   0.351   4.459  10.423 -1.1051  1.8219 -1.0630
  365TMC3    H2 5469   0.690   4.609  10.218 -2.0631  1.0938  3.1439
  365TMC3    C7 5470   0.489   4.687  10.349 -0.4272  0.3032  0.6244
  365TMC3    C8 5471   0.798   4.377  10.198  0.2308 -0.0593 -0.1218
  365TMC3    O1 5472   0.520   0.057  10.273 -0.8969  0.3066 -0.0434
  365TMC3    O2 5473   0.872   4.471  10.221  0.0544  0.6731  0.3380
  366MPD2     C 5474   3.220   0.220  15.538 -0.0648 -0.1173 -0.8355
  366MPD2    C1 5475   3.291   0.311  15.473 -0.4513 -0.6228 -0.9637
  366MPD2    C2 5476   3.422   0.281  15.429  0.3792 -0.4184  0.3625
  366MPD2    C3 5477   3.478   0.156  15.445  0.5534  0.3270  0.0096
  366MPD2    C4 5478   3.401   0.060  15.507 -0.0614 -0.3623  0.7456
  366MPD2    C5 5479   3.274   0.094  15.556  0.1390  0.1464  0.7834
  366MPD2     H 5480   3.489   0.351  15.380 -1.5924  2.3677  1.6331
  366MPD2    H1 5481   3.436   4.680  15.528 -0.0377 -0.1598  1.6563
  366MPD2    H2 5482   3.127   0.248  15.585  1.7465  0.0252  2.6595
  366MPD2    H3 5483   3.208   0.020  15.601  1.4887 -0.9605  0.9279
  366MPD2     N 5484   3.612   0.128  15.407 -0.3584 -0.3212  0.1094
  366MPD2    H5 5485   3.655   0.203  15.354 -0.3975 -1.8097 -2.0071
  366MPD2    N1 5486   3.259   0.447  15.461  0.4779  0.4991  0.2823
  366MPD2    H7 5487   3.335   0.508  15.433  0.7349  1.1189  2.3207
  367TMC3    C1 5488   3.168   0.649  15.500  0.3337 -0.5735 -0.2740
  367TMC3    C2 5489   3.287   0.696  15.541  0.1595 -0.4795 -0.2204
  367TMC3    C3 5490   3.338   0.810  15.506 -0.1965 -0.5641  0.0317
  367TMC3    C4 5491   3.103   0.713  15.404  0.5970 -0.2093  0.0820
  367TMC3    C5 5492   3.160   0.827  15.362  0.0063 -1.1211  0.0581
  367TMC3    C6 5493   3.276   0.877  15.408 -0.0562 -0.2135 -0.2433
  367TMC3     C 5494   3.145   0.508  15.499 -0.4079 -0.0164  0.8820
  367TMC3     O 5495   3.031   0.472  15.505  0.4083  0.0492 -0.4618
  367TMC3     H 5496   3.348   0.634  15.607  0.3219 -0.5232 -0.4141
  367TMC3    H1 5497   3.024   0.662  15.350 -2.9374  3.6572  1.5755
  367TMC3    H2 5498   3.315   0.964  15.356 -0.5506 -0.3607 -0.8648
  367TMC3    C7 5499   3.079   0.921  15.286  0.5035 -0.2541  0.2557
  367TMC3    C8 5500   3.466   0.847  15.552 -0.1057 -0.3309  0.6480
  367TMC3    O1 5501   3.105   1.041  15.310 -0.0280 -0.4500  0.0645
  367TMC3    O2 5502   3.519   0.771  15.637 -0.0976 -0.2269  0.2770
  368MPD2     C 5503   4.463   2.295  13.499  0.4374  0.3998 -0.0725
  368MPD2    C1 5504   4.450   2.356  13.375  0.0183  0.3590 -0.2972
  368MPD2    C2 5505   4.512   2.293  13.263 -0.3950  0.3459 -0.6386
  368MPD2    C3 5506   4.590   2.175  13.275 -0.2531 -0.6451 -0.1421
  368MPD2    C4 5507   4.610   2.129  13.403 -0.2708  0.4592  0.1164
  368MPD2    C5 5508   4.535   2.181  13.506 -0.8244  0.5825 -0.7677
  368MPD2     H 5509   4.506   2.345  13.168 -2.8805 -0.8907 -1.1729
  368MPD2    H1 5510   4.668   2.040  13.427 -1.4159  0.4035  2.6167
  368MPD2    H2 5511   4.426   2.339  13.591 -1.0500 -4.8778  1.8569
  368MPD2    H3 5512   4.546   2.130  13.601  0.4743  1.1929 -0.5937
  368MPD2     N 5513   4.679   2.117  13.174  0.4984 -0.0257 -0.0420
  368MPD2    H5 5514   0.018   2.043  13.206  0.1563  0.2921  1.3318
  368MPD2    N1 5515   4.375   2.476  13.366  0.4081  0.6205  0.1326
  368MPD2    H7 5516   4.341   2.525  13.448 -1.4330 -2.0379  0.9500
  369TMC3    C1 5517   4.294   2.677  13.283 -0.7860  1.2940  0.0391
  369TMC3    C2 5518   4.347   2.802  13.245  0.2121 -0.0374 -0.1638
  369TMC3    C3 5519   4.272   2.916  13.277  0.3713  0.4760 -0.7978
  369TMC3    C4 5520   4.185   2.668  13.364 -0.5619 -0.3380 -0.7461
  369TMC3    C5 5521   4.120   2.786  13.389  0.2460 -0.0536  0.3157
  369TMC3    C6 5522   4.160   2.911  13.352 -0.7889  0.5445 -0.1602
  369TMC3     C 5523   4.359   2.555  13.253  0.5334  0.0984  0.0635
  369TMC3     O 5524   4.426   2.561  13.150  0.2282  0.4872  0.2539
  369TMC3     H 5525   4.441   2.804  13.192 -0.3593  0.1421 -1.1562
  369TMC3    H1 5526   4.148   2.569  13.390 -1.5814  0.3464  0.4296
  369TMC3    H2 5527   4.123   3.006  13.389  1.3489  0.4837  2.1698
  369TMC3    C7 5528   4.013   2.764  13.484  0.5348 -0.3636 -0.3384
  369TMC3    C8 5529   4.321   3.041  13.226  0.0963  0.3161 -0.8075
  369TMC3    O1 5530   3.991   2.650  13.525 -0.4884 -0.2339  0.0230
  369TMC3    O2 5531   4.243   3.110  13.165 -0.2782 -0.6439 -0.3868
  370TMC3    C1 5532   4.458   2.982  16.250  0.5253  0.7610 -0.5309
  370TMC3    C2 5533   4.404   2.912  16.350  0.4506  0.4784 -0.0200
  370TMC3    C3 5534   4.318   2.811  16.319  0.0214 -0.4295  0.3735
  370TMC3    C4 5535   4.453   2.940  16.115  0.1199 -0.1189  0.2383
  370TMC3    C5 5536   4.377   2.826  16.100  0.3068 -0.6382  0.5835
  370TMC3    C6 5537   4.314   2.757  16.196 -0.2856  0.1922 -0.2637
  370TMC3     C 5538   4.582   3.051  16.295  0.2608 -0.1824 -0.0270
  370TMC3     O 5539   4.621   3.013  16.404 -0.0263 -0.2617 -0.1353
  370TMC3     H 5540   4.410   2.950  16.451 -1.3115 -0.2670  0.3636
  370TMC3    H1 5541   4.503   2.986  16.031 -0.3251 -1.1859 -0.6155
  370TMC3    H2 5542   4.244   2.680  16.165 -0.7080 -0.2364  1.7365
  370TMC3    C7 5543   4.380   2.759  15.968  0.0935  0.5444 -0.1336
  370TMC3    C8 5544   4.258   2.732  16.425 -0.1944  0.8676 -0.1871
  370TMC3    O1 5545   4.369   2.813  15.860  0.1376 -0.0198  0.0473
  370TMC3    O2 5546   4.227   2.618  16.394  0.6891  0.5759 -0.0042
  371TMC3    C1 5547   0.950   1.020  15.700  0.0075 -0.1830  0.1339
  371TMC3    C2 5548   0.827   1.033  15.764  0.2456 -0.6993 -1.2366
  371TMC3    C3 5549   0.765   1.153  15.755 -0.5428 -1.0545  0.6976
  371TMC3    C4 5550   1.007   1.124  15.637 -0.8016  0.7554 -0.2646
  371TMC3    C5 5551   0.951   1.242  15.639  0.0784 -0.3667 -0.0835
  371TMC3    C6 5552   0.824   1.265  15.694 -0.8384 -0.0220  0.4337
  371TMC3     C 5553   1.020   0.898  15.696 -0.2969 -0.9417 -0.4738
  371TMC3     O 5554   1.098   0.888  15.601  0.0436 -0.3431  0.4844
  371TMC3     H 5555   0.775   0.946  15.802  0.3119 -1.4343 -2.8435
  371TMC3    H1 5556   1.104   1.114  15.590  0.1460  1.4028  1.5508
  371TMC3    H2 5557   0.778   1.363  15.688  1.0174  0.6744 -2.5202
  371TMC3    C7 5558   0.998   1.344  15.538 -0.7056  0.7991 -0.2779
  371TMC3    C8 5559   0.620   1.141  15.763 -0.1151  0.7634 -0.0251
  371TMC3    O1 5560   0.971   1.459  15.568 -0.0641 -0.0219 -0.9754
  371TMC3    O2 5561   0.567   1.041  15.713  0.0048  0.1964 -0.3076
  372MPD2     C 5562   4.713   2.709  13.654 -0.0038 -0.2755  0.1854
  372MPD2    C1 5563   4.690   2.575  13.635  0.1422  0.3013  1.3802
  372MPD2    C2 5564   4.625   2.510  13.737  0.3550  0.4424 -0.3867
  372MPD2    C3 5565   4.577   2.564  13.852 -0.7764  0.0355 -0.1677
  372MPD2    C4 5566   4.594   2.706  13.870  0.3831 -0.1728  0.6396
  372MPD2    C5 5567   4.659   2.775  13.767 -0.8161  0.1435 -0.4387
  372MPD2     H 5568   4.594   2.407  13.721  0.4124  0.2429  0.8058
  372MPD2    H1 5569   4.552   2.768  13.948  1.0531 -1.0219  1.6732
  372MPD2    H2 5570   0.063   2.765  13.594 -0.6642  1.1262  0.7135
  372MPD2    H3 5571   4.678   2.880  13.784  0.2746  0.0386 -1.0384
  372MPD2     N 5572   4.501   2.486  13.942  0.2217 -0.1467 -0.1545
  372MPD2    H5 5573   4.473   2.392  13.915 -1.4185  0.0712  0.8296
  372MPD2    N1 5574   0.030   2.498  13.527 -0.2778  0.0072  0.5325
  372MPD2    H7 5575   0.042   2.397  13.534  0.1969  0.0909  0.9664
  373TMC3    C1 5576   4.385   2.418  14.126  0.4715 -0.4558 -0.6014
  373TMC3    C2 5577   4.406   2.414  14.255 -0.0685  0.3289  0.7579
  373TMC3    C3 5578   4.386   2.301  14.328  0.5835  0.8401  0.7935
  373TMC3    C4 5579   4.344   2.316  14.050  0.0752 -0.1141  0.5845
  373TMC3    C5 5580   4.331   2.197  14.122 -0.4701  0.4372  0.0093
  373TMC3    C6 5581   4.350   2.189  14.258 -0.3119  0.3374 -0.7292
  373TMC3     C 5582   4.453   2.528  14.066  0.4244 -0.6897 -0.3340
  373TMC3     O 5583   4.489   2.620  14.133 -0.1396  0.4262 -0.6672
  373TMC3     H 5584   4.433   2.504  14.309  0.1816  1.0211 -0.5286
  373TMC3    H1 5585   4.316   2.321  13.945  2.0714  2.4664  0.1754
  373TMC3    H2 5586   4.356   2.091  14.305  0.7003  1.1507  0.8605
  373TMC3    C7 5587   4.377   2.090  14.042  0.1996 -0.4699 -0.0018
  373TMC3    C8 5588   4.493   2.274  14.421  0.0554 -0.1382  0.1251
  373TMC3    O1 5589   4.435   2.125  13.939  0.5441 -0.1812 -0.1361
  373TMC3    O2 5590   4.556   2.173  14.391 -0.3089 -0.1684  0.0530
  374TMC3    C1 5591   0.693   2.293   9.891  0.8737 -0.4681  0.3012
  374TMC3    C2 5592   0.730   2.320  10.019  1.5249 -0.3013 -1.0414
  374TMC3    C3 5593   0.829   2.419  10.029  1.5823 -0.7058  0.5839
  374TMC3    C4 5594   0.751   2.347   9.777 -0.2959 -0.0347  0.3561
  374TMC3    C5 5595   0.851   2.440   9.795  0.9269  0.3765  0.2956
  374TMC3    C6 5596   0.891   2.477   9.922 -0.6471  0.4789  0.3564
  374TMC3     C 5597   0.608   2.181   9.868  1.1722 -0.1794  0.1347
  374TMC3     O 5598   0.545   2.180   9.763  0.2431 -0.1514  0.7822
  374TMC3     H 5599   0.670   2.283  10.101 -0.4923 -0.1062 -2.4287
  374TMC3    H1 5600   0.708   2.325   9.680  1.7762 -3.1996  0.1666
  374TMC3    H2 5601   0.971   2.547   9.940  0.8847 -0.9215 -1.0322
  374TMC3    C7 5602   0.883   2.541   9.698 -0.6558  0.1079  0.9924
  374TMC3    C8 5603   0.830   2.480  10.157 -0.7660  0.6776 -0.6735
  374TMC3    O1 5604   0.928   2.647   9.742  0.1468  0.1521  0.6788
  374TMC3    O2 5605   0.725   2.466  10.220  0.0189 -0.0291  0.3172
  375MPD2     C 5606   1.206   3.354  17.084  0.4455  0.2584 -0.5154
  375MPD2    C1 5607   1.154   3.382  16.954 -0.5283  0.4857 -0.5637
  375MPD2    C2 5608   1.195   3.291  16.859 -1.2412  0.8533  0.4180
  375MPD2    C3 5609   1.292   3.196  16.886  1.1815 -0.1518  0.4034
  375MPD2    C4 5610   1.344   3.172  17.013  0.1020  0.3261  0.2120
  375MPD2    C5 5611   1.304   3.256  17.114 -0.9833  0.8125  0.4329
  375MPD2     H 5612   1.171   3.318  16.757  0.4819  0.1605 -0.1658
  375MPD2    H1 5613   1.431   3.109  17.031  0.4659  0.4039 -1.2863
  375MPD2    H2 5614   1.192   3.425  17.165 -2.0125 -1.0810  0.2471
  375MPD2    H3 5615   1.355   3.255  17.210  0.9358 -1.3640 -0.6166
  375MPD2     N 5616   1.356   3.121  16.780  0.2902 -0.8675 -0.3732
  375MPD2    H5 5617   1.448   3.080  16.795  0.5569  0.0331  0.4521
  375MPD2    N1 5618   1.070   3.492  16.922 -0.2614 -0.3374 -0.1248
  375MPD2    H7 5619   1.023   3.488  16.832  1.3471  1.7104 -1.0549
  376TMC3    C1 5620   1.410   3.078  16.549  0.2908  0.6197 -0.6741
  376TMC3    C2 5621   1.533   3.131  16.572  0.0158  0.4763 -0.0018
  376TMC3    C3 5622   1.617   3.130  16.465 -0.1415 -0.4403  0.6415
  376TMC3    C4 5623   1.373   3.015  16.438 -0.2685 -0.2707  0.0913
  376TMC3    C5 5624   1.457   3.037  16.332 -0.0734  0.5319 -0.2466
  376TMC3    C6 5625   1.576   3.088  16.340  0.4466 -0.4054  0.3001
  376TMC3     C 5626   1.306   3.110  16.653 -0.2990  0.2866  0.2475
  376TMC3     O 5627   1.196   3.135  16.608 -0.4028  0.2762  0.1537
  376TMC3     H 5628   1.550   3.179  16.668 -1.0333  0.6957  0.0691
  376TMC3    H1 5629   1.272   2.986  16.412  0.1249 -2.1556  0.6719
  376TMC3    H2 5630   1.649   3.063  16.263  1.4308 -0.7352  1.3344
  376TMC3    C7 5631   1.413   2.999  16.199 -0.2333 -0.0957  0.0369
  376TMC3    C8 5632   1.723   3.224  16.475 -0.0232  0.6033  1.0239
  376TMC3    O1 5633   1.454   3.068  16.108 -0.1310  0.2167  0.2139
  376TMC3    O2 5634   1.757   3.260  16.584  0.2710  0.3359  0.3933
  377MPD2     C 5635   3.297   3.498  12.687 -0.5177  0.2143  0.0989
  377MPD2    C1 5636   3.327   3.368  12.729 -0.5227  0.4452 -0.2406
  377MPD2    C2 5637   3.230   3.287  12.789 -0.1514 -0.7043  0.1312
  377MPD2    C3 5638   3.103   3.342  12.804  0.2518  0.4065 -0.7022
  377MPD2    C4 5639   3.074   3.472  12.763  0.1704 -0.0405  0.7093
  377MPD2    C5 5640   3.168   3.548  12.700  0.1695 -0.6480 -0.1193
  377MPD2     H 5641   3.248   3.187  12.827  2.1487 -0.6695 -0.8601
  377MPD2    H1 5642   2.974   3.513  12.775  0.1992  0.2703 -0.1199
  377MPD2    H2 5643   3.370   3.551  12.627 -1.2090  1.0336 -0.0229
  377MPD2    H3 5644   3.153   3.647  12.660  0.3370 -0.8508 -0.6769
  377MPD2     N 5645   3.003   3.257  12.863 -0.3671 -0.2454  0.0917
  377MPD2    H5 5646   3.032   3.161  12.879  1.7179  0.4922  0.7165
  377MPD2    N1 5647   3.459   3.325  12.693  0.4546  1.1755 -0.0899
  377MPD2    H7 5648   3.504   3.373  12.616  0.4108  0.4583 -0.5649
  378TMC3    C1 5649   3.774   3.189  12.479 -0.4241 -0.1152 -0.2928
  378TMC3    C2 5650   3.658   3.207  12.540  0.4172  0.0738 -0.1418
  378TMC3    C3 5651   3.643   3.184  12.670 -0.0402  0.3951 -0.7104
  378TMC3    C4 5652   3.891   3.139  12.541 -0.3746  0.1889  0.1485
  378TMC3    C5 5653   3.870   3.116  12.673  0.0648  0.9771  0.0488
  378TMC3    C6 5654   3.751   3.131  12.741  0.1124 -0.7081  0.1393
  378TMC3     C 5655   3.774   3.217  12.338  0.1645  0.1554 -0.2976
  378TMC3     O 5656   3.662   3.236  12.283  0.0699  0.1779  0.4368
  378TMC3     H 5657   3.575   3.250  12.485  0.4799 -0.4800 -0.6716
  378TMC3    H1 5658   3.982   3.126  12.484 -0.1222 -0.5415  0.7202
  378TMC3    H2 5659   3.737   3.114  12.847  1.0332 -1.9453  0.0623
  378TMC3    C7 5660   3.979   3.054  12.749  0.4957  0.5657  0.0667
  378TMC3    C8 5661   3.520   3.207  12.737 -0.0996 -0.0815 -0.1220
  378TMC3    O1 5662   3.947   2.977  12.840 -0.6748 -0.9250  0.4607
  378TMC3    O2 5663   3.490   3.131  12.826 -0.1631  0.1256  0.2363
  379MPD2     C 5664   4.683   0.867  16.006 -0.1189 -0.0830  1.0043
  379MPD2    C1 5665   4.598   0.782  16.072 -0.1978  0.5429 -0.3938
  379MPD2    C2 5666   4.643   0.711  16.174  0.2011  0.3148  0.1073
  379MPD2    C3 5667   0.058   0.712  16.205 -0.0124  0.2731  0.2539
  379MPD2    C4 5668   0.142   0.796  16.135 -0.7508 -0.3193 -1.0615
  379MPD2    C5 5669   0.095   0.871  16.041  0.3063  0.0124  0.2365
  379MPD2     H 5670   4.567   0.645  16.215  2.5172 -2.1516  0.4488
  379MPD2    H1 5671   0.249   0.802  16.154 -1.3847 -0.3024  2.4501
  379MPD2    H2 5672   4.645   0.941  15.935 -2.7637 -0.9290  1.5519
  379MPD2    H3 5673   0.155   0.948  15.994 -2.9441  1.9808 -0.7517
  379MPD2     N 5674   0.112   0.629  16.307 -0.1391  0.0926 -0.4666
  379MPD2    H5 5675   0.213   0.642  16.305 -0.3857  2.2562  0.4970
  379MPD2    N1 5676   4.461   0.779  16.036  0.2547  0.3872  0.5998
  379MPD2    H7 5677   4.443   0.831  15.951  4.9928  0.5411 -0.2914
  380TMC3    C1 5678   4.251   0.712  16.007 -0.1292 -0.1736 -0.1859
  380TMC3    C2 5679   4.285   0.622  15.910  0.3028 -0.3550  0.5931
  380TMC3    C3 5680   4.239   0.645  15.783  0.3135 -0.3061 -0.0957
  380TMC3    C4 5681   4.176   0.820  15.981 -0.7119 -0.1182  0.1837
  380TMC3    C5 5682   4.122   0.829  15.861  0.3932 -0.1907 -0.1379
  380TMC3    C6 5683   4.148   0.749  15.764 -0.5770 -0.3529  0.5900
  380TMC3     C 5684   4.357   0.727  16.105 -0.2085  0.8069  0.3099
  380TMC3     O 5685   4.340   0.708  16.223 -0.1480  0.3351  0.0472
  380TMC3     H 5686   4.346   0.538  15.941  1.3612 -0.3356 -1.4109
  380TMC3    H1 5687   4.163   0.900  16.053  0.5598 -1.5948  2.0347
  380TMC3    H2 5688   4.113   0.769  15.663 -0.9937  2.0719  1.2004
  380TMC3    C7 5689   4.047   0.952  15.829  0.1342  0.2574 -0.2260
  380TMC3    C8 5690   4.360   0.674  15.702 -0.2741 -0.3106 -0.7638
  380TMC3    O1 5691   4.073   1.057  15.888  0.0417  0.4036 -0.1698
  380TMC3    O2 5692   4.350   0.763  15.625 -0.1077  0.3014 -0.1709
  381TMC3    C1 5693   4.215   2.218  16.018  0.1118 -0.7046  0.2176
  381TMC3    C2 5694   4.331   2.198  16.078 -0.5073  0.0344 -0.4753
  381TMC3    C3 5695   4.357   2.247  16.201  0.1621 -0.5678 -0.0033
  381TMC3    C4 5696   4.112   2.289  16.074  0.5369 -0.4465 -0.8887
  381TMC3    C5 5697   4.138   2.336  16.202 -0.1802 -0.4182  0.8818
  381TMC3    C6 5698   4.255   2.313  16.267  0.1944 -0.6719  0.5671
  381TMC3     C 5699   4.200   2.166  15.883 -0.3434  0.4717 -0.4330
  381TMC3     O 5700   4.271   2.079  15.834  1.1488  0.3070  0.7242
  381TMC3     H 5701   4.403   2.157  16.008  1.8752  1.4820  1.1730
  381TMC3    H1 5702   4.015   2.298  16.024  0.1430  1.6939  0.2401
  381TMC3    H2 5703   4.262   2.352  16.367 -1.0834 -0.8489  0.7350
  381TMC3    C7 5704   4.012   2.352  16.283 -0.0959 -0.3217  0.5576
  381TMC3    C8 5705   4.500   2.276  16.230 -0.2197 -0.3386  0.5192
  381TMC3    O1 5706   3.913   2.299  16.242  0.5623 -0.2907  0.2565
  381TMC3    O2 5707   4.583   2.232  16.142  0.2666  0.5238  0.1474
  382MPD2     C 5708   3.335   0.394  17.470  0.1577 -0.4183  0.4201
  382MPD2    C1 5709   3.455   0.356  17.525 -0.1160  0.7381  0.6273
  382MPD2    C2 5710   3.472   0.220  17.559 -0.3909 -0.0453  0.0756
  382MPD2    C3 5711   3.368   0.133  17.535 -1.1342  0.0878  0.4740
  382MPD2    C4 5712   3.248   0.170  17.480  0.1411 -0.2272 -0.5408
  382MPD2    C5 5713   3.232   0.307  17.460 -0.5519  0.5562  0.5506
  382MPD2     H 5714   3.563   0.183  17.605  0.2970 -0.0677 -1.3187
  382MPD2    H1 5715   3.161   0.106  17.473  1.1092 -1.3140 -2.5778
  382MPD2    H2 5716   3.304   0.495  17.447  0.5732 -0.6998 -1.3901
  382MPD2    H3 5717   3.144   0.356  17.420 -2.0565 -3.8726 -1.6020
  382MPD2     N 5718   3.379   4.715  17.555 -0.0699  0.4833  0.0840
  382MPD2    H5 5719   3.301   4.653  17.532  0.6909 -0.4485  0.0101
  382MPD2    N1 5720   3.547   0.457  17.560  0.0596  0.2411  0.3839
  382MPD2    H7 5721   3.631   0.432  17.612  0.6927  1.9326  0.2016
  383TMC3    C1 5722   3.470   4.506  17.584  0.5010  0.0981 -0.3077
  383TMC3    C2 5723   3.353   4.462  17.527  0.3727 -0.3164 -0.2454
  383TMC3    C3 5724   3.360   4.346  17.457  0.2701  0.1532 -0.0966
  383TMC3    C4 5725   3.585   4.431  17.559  0.1936 -0.0250  0.3237
  383TMC3    C5 5726   3.586   4.325  17.478  0.2233  0.6572 -0.4069
  383TMC3    C6 5727   3.471   4.275  17.419  0.3434  0.1076 -0.3880
  383TMC3     C 5728   3.485   4.645  17.607  0.3718 -0.1165 -0.5867
  383TMC3     O 5729   3.594   4.682  17.648  0.2658 -0.0443 -0.2527
  383TMC3     H 5730   3.252   4.501  17.539  0.6498  0.2213  0.3469
  383TMC3    H1 5731   3.683   4.462  17.594  0.6317 -2.8643  1.6321
  383TMC3    H2 5732   3.475   4.192  17.349 -2.8008  0.2520 -0.7317
  383TMC3    C7 5733   3.714   4.263  17.435 -0.4800  0.0851 -0.2230
  383TMC3    C8 5734   3.241   4.285  17.421  0.3019 -0.5647  0.4393
  383TMC3    O1 5735   3.813   4.329  17.473 -0.4674 -0.2371  0.0174
  383TMC3    O2 5736   3.145   4.356  17.384 -0.4146  0.2742  0.4472
  384MPD2     C 5737   0.189   1.102  11.931 -0.9280 -0.0982 -0.5247
  384MPD2    C1 5738   0.248   1.063  12.050 -0.0698 -0.1108  0.3721
  384MPD2    C2 5739   0.355   0.978  12.049  0.2132  0.1511  0.4675
  384MPD2    C3 5740   0.408   0.932  11.929 -1.3176 -0.5422  0.9655
  384MPD2    C4 5741   0.345   0.973  11.814  0.3469 -0.0738  0.1801
  384MPD2    C5 5742   0.236   1.055  11.811 -0.5169 -0.0132  0.5885
  384MPD2     H 5743   0.413   0.962  12.139  1.2265  1.2334  0.0184
  384MPD2    H1 5744   0.383   0.946  11.716 -0.0683  1.7164 -0.4715
  384MPD2    H2 5745   0.111   1.177  11.934 -1.4413 -0.5453 -2.8626
  384MPD2    H3 5746   0.189   1.083  11.718  0.9619  3.0041  0.7601
  384MPD2     N 5747   0.524   0.853  11.937 -0.1234 -0.0666  1.2670
  384MPD2    H5 5748   0.556   0.838  12.033  1.4284 -2.4388  0.3830
  384MPD2    N1 5749   0.211   1.106  12.179  0.4941  0.5464 -0.2428
  384MPD2    H7 5750   0.252   1.052  12.254 -2.5833 -0.3019  0.8466
  385TMC3    C1 5751   0.689   0.688  11.881 -0.1530 -0.0074  0.3816
  385TMC3    C2 5752   0.674   0.566  11.824  0.0500 -0.1515 -0.6074
  385TMC3    C3 5753   0.663   0.459  11.914  0.0490 -0.3962  0.6689
  385TMC3    C4 5754   0.714   0.704  12.016 -0.2154 -0.5121 -0.6052
  385TMC3    C5 5755   0.694   0.602  12.108 -0.1043 -0.1544 -0.0082
  385TMC3    C6 5756   0.678   0.480  12.048 -0.5239 -0.0697  0.2875
  385TMC3     C 5757   0.582   0.779  11.838  0.0090  0.2715  0.2854
  385TMC3     O 5758   0.562   0.786  11.715 -0.3426  0.3467  0.4731
  385TMC3     H 5759   0.673   0.548  11.717 -0.0056  1.0407 -0.8009
  385TMC3    H1 5760   0.732   0.808  12.042  0.3620 -0.6805 -0.3371
  385TMC3    H2 5761   0.658   0.396  12.114 -0.8258 -1.1068 -1.1117
  385TMC3    C7 5762   0.585   0.645  12.194  0.1719 -1.0450  0.5395
  385TMC3    C8 5763   0.702   0.325  11.869 -0.0383  0.9473  0.4285
  385TMC3    O1 5764   0.574   0.765  12.191  0.4529 -0.2792 -0.0937
  385TMC3    O2 5765   0.787   0.270  11.936  0.4215 -1.0569 -0.6282
  386TMC3    C1 5766   0.704   3.350  12.236 -0.2334 -1.0782  0.2143
  386TMC3    C2 5767   0.752   3.378  12.108  0.7267 -0.3349  0.4532
  386TMC3    C3 5768   0.708   3.493  12.051 -0.1991 -0.3335 -1.2340
  386TMC3    C4 5769   0.613   3.438  12.291  0.2863 -0.5402  0.2542
  386TMC3    C5 5770   0.577   3.552  12.236  0.5321 -0.0155  0.4168
  386TMC3    C6 5771   0.624   3.576  12.113 -0.2730 -0.2361 -0.2404
  386TMC3     C 5772   0.708   3.216  12.296  0.3099  0.0220  0.0012
  386TMC3     O 5773   0.699   3.211  12.417 -0.1156  0.1895 -0.7133
  386TMC3     H 5774   0.808   3.298  12.061 -0.4654 -0.9604  0.1027
  386TMC3    H1 5775   0.560   3.409  12.381 -0.3580 -1.3424 -0.3811
  386TMC3    H2 5776   0.619   3.679  12.081 -1.0913 -0.3112 -0.3407
  386TMC3    C7 5777   0.438   3.581  12.252 -0.1144  0.3973  0.1310
  386TMC3    C8 5778   0.672   3.494  11.912  0.1029 -0.2977  0.5008
  386TMC3    O1 5779   0.392   3.579  12.368  0.5351 -0.3693  0.5117
  386TMC3    O2 5780   0.560   3.543  11.900 -0.0491 -0.7891 -0.0058
  387MPD2     C 5781   3.017   3.363   9.642 -0.0209 -0.2397  0.5200
  387MPD2    C1 5782   3.134   3.350   9.723 -0.5414  0.4605 -0.3731
  387MPD2    C2 5783   3.187   3.226   9.743 -0.1734 -0.0695  0.3341
  387MPD2    C3 5784   3.129   3.115   9.698  0.4972 -0.1349 -0.0669
  387MPD2    C4 5785   3.013   3.125   9.614 -0.1691  0.8635  0.4740
  387MPD2    C5 5786   2.958   3.250   9.595 -0.6634  0.4466  0.3510
  387MPD2     H 5787   3.275   3.217   9.805  1.1090 -0.3330 -1.5448
  387MPD2    H1 5788   2.956   3.040   9.577  0.0238  0.0524  2.0371
  387MPD2    H2 5789   2.955   3.447   9.614  0.3117 -0.0325  0.4071
  387MPD2    H3 5790   2.866   3.261   9.538  1.0507  2.4530 -2.0508
  387MPD2     N 5791   3.164   2.992   9.762  0.8151  0.2464  0.4359
  387MPD2    H5 5792   3.244   3.005   9.823  1.9968  0.0796 -1.0769
  387MPD2    N1 5793   3.196   3.454   9.799  0.0302 -0.0102 -0.0296
  387MPD2    H7 5794   3.275   3.417   9.851  0.8715  2.0259  0.1892
  388TMC3    C1 5795   3.198   3.663   9.919  0.4472 -0.1760 -0.6198
  388TMC3    C2 5796   3.143   3.782   9.942  0.2027 -0.3612 -0.2520
  388TMC3    C3 5797   3.154   3.841  10.067  1.0435  0.7324  0.1320
  388TMC3    C4 5798   3.263   3.595  10.015  0.1377 -0.6629  0.2068
  388TMC3    C5 5799   3.264   3.652  10.138  0.2612  0.1621  0.2753
  388TMC3    C6 5800   3.210   3.776  10.174 -0.3348 -0.6843 -0.2640
  388TMC3     C 5801   3.131   3.576   9.818  0.1682  0.2944 -0.6632
  388TMC3     O 5802   3.033   3.619   9.759  0.0424 -0.2502  0.0410
  388TMC3     H 5803   3.093   3.826   9.857  2.4985  1.0260 -0.8583
  388TMC3    H1 5804   3.316   3.501  10.006  0.5184 -0.5450  1.1972
  388TMC3    H2 5805   3.219   3.809  10.276  0.6187  1.4123 -1.0231
  388TMC3    C7 5806   3.301   3.555  10.243  0.4293 -0.1299  0.3763
  388TMC3    C8 5807   3.066   3.955  10.085 -0.6879  0.4434 -0.0482
  388TMC3    O1 5808   3.387   3.597  10.320 -0.5731 -0.1591  0.4724
  388TMC3    O2 5809   3.021   4.002   9.984  0.1156 -0.0171  0.1934
  389MPD2     C 5810   1.831   0.862  10.572  0.2392  0.2526 -0.0341
  389MPD2    C1 5811   1.867   0.954  10.663 -0.4902  0.0612 -0.1180
  389MPD2    C2 5812   1.899   0.910  10.794  0.1482 -0.3002 -0.2338
  389MPD2    C3 5813   1.902   0.776  10.830 -0.2756  0.2626 -0.2827
  389MPD2    C4 5814   1.855   0.688  10.734 -0.3135 -0.2887 -0.0006
  389MPD2    C5 5815   1.819   0.729  10.604 -0.7956 -0.1333  0.4097
  389MPD2     H 5816   1.926   0.988  10.865  0.6380 -0.4952 -0.2085
  389MPD2    H1 5817   1.818   0.588  10.755  2.3982 -1.3806 -0.5350
  389MPD2    H2 5818   1.809   0.886  10.468  1.1246  1.4316  0.0489
  389MPD2    H3 5819   1.779   0.664  10.527  0.2351 -1.2371  0.7796
  389MPD2     N 5820   1.918   0.732  10.961 -0.5269  0.3074  0.3264
  389MPD2    H5 5821   1.877   0.640  10.977  0.0968 -0.1034 -0.4214
  389MPD2    N1 5822   1.870   1.094  10.628  0.0633  0.0795 -0.4217
  389MPD2    H7 5823   1.849   1.116  10.530  0.0875  0.0339 -0.4369
  390TMC3    C1 5824   1.948   0.742  11.199 -0.5726 -0.1498 -0.4433
  390TMC3    C2 5825   1.817   0.710  11.219 -0.0469  0.3959  0.7838
  390TMC3    C3 5826   1.761   0.737  11.341  0.3624 -0.2724 -0.2171
  390TMC3    C4 5827   2.021   0.794  11.306  0.5074  0.1726  0.2786
  390TMC3    C5 5828   1.960   0.812  11.424 -0.3241  0.1828 -0.3076
  390TMC3    C6 5829   1.823   0.796  11.445  0.2096 -0.6250 -0.8941
  390TMC3     C 5830   1.981   0.795  11.066 -0.1687 -1.0011  0.2850
  390TMC3     O 5831   2.056   0.890  11.056  0.5830 -0.0843 -0.0913
  390TMC3     H 5832   1.754   0.661  11.146 -0.6438 -0.6010  1.9692
  390TMC3    H1 5833   2.126   0.802  11.282  0.1297 -0.1151 -1.5352
  390TMC3    H2 5834   1.785   0.811  11.546  2.3365  0.4646 -0.2498
  390TMC3    C7 5835   2.025   0.923  11.498 -0.7985 -0.4437  0.5385
  390TMC3    C8 5836   1.618   0.707  11.351  0.2323  0.6486 -0.0135
  390TMC3    O1 5837   2.117   0.981  11.442  0.0353 -0.1969  0.3260
  390TMC3    O2 5838   1.587   0.595  11.318  0.5564  0.4067  0.5296
  391MPD2     C 5839   1.360   2.630  11.431  0.7408 -0.1591  0.7952
  391MPD2    C1 5840   1.476   2.688  11.398  0.1627 -0.3722  0.1602
  391MPD2    C2 5841   1.506   2.713  11.267  0.8566  0.0847 -0.4386
  391MPD2    C3 5842   1.415   2.687  11.167  0.0390 -0.0127 -0.4224
  391MPD2    C4 5843   1.297   2.632  11.201  0.1280 -0.3447 -0.1734
  391MPD2    C5 5844   1.267   2.613  11.332 -0.2648  0.4855 -0.1096
  391MPD2     H 5845   1.604   2.743  11.235  0.8455  0.9056  0.3049
  391MPD2    H1 5846   1.221   2.608  11.127  0.7986 -1.4283 -0.4971
  391MPD2    H2 5847   1.329   2.602  11.531  0.1040  1.1911  0.9720
  391MPD2    H3 5848   1.176   2.559  11.357 -0.7135  0.8320 -0.9936
  391MPD2     N 5849   1.461   2.708  11.037  0.0540 -0.2150  0.3182
  391MPD2    H5 5850   1.554   2.746  11.026  0.1832 -0.5367  0.2962
  391MPD2    N1 5851   1.568   2.713  11.506  0.1563  0.0309  0.2246
  391MPD2    H7 5852   1.543   2.693  11.602  0.9102  0.0324  0.4215
  392TMC3    C1 5853   1.435   2.755  10.808 -0.0892 -0.3387  0.5315
  392TMC3    C2 5854   1.379   2.719  10.689  0.6332 -0.0712 -0.2435
  392TMC3    C3 5855   1.427   2.788  10.581  0.1310 -0.0823 -0.4038
  392TMC3    C4 5856   1.541   2.849  10.812  0.1374 -0.8834 -0.2089
  392TMC3    C5 5857   1.583   2.915  10.697 -0.3048  0.1663 -0.2517
  392TMC3    C6 5858   1.519   2.890  10.579  0.3027 -0.2350  0.2779
  392TMC3     C 5859   1.387   2.689  10.928 -0.4129  0.1209  0.0648
  392TMC3     O 5860   1.278   2.633  10.913 -0.1113  0.4733 -0.0818
  392TMC3     H 5861   1.312   2.634  10.684 -1.4505  1.4769  1.3236
  392TMC3    H1 5862   1.569   2.883  10.911 -0.7036 -0.3147 -0.1612
  392TMC3    H2 5863   1.540   2.936  10.483  0.4290  2.3401  1.5110
  392TMC3    C7 5864   1.665   3.036  10.714 -0.0082 -0.0534 -0.1219
  392TMC3    C8 5865   1.341   2.776  10.469 -0.2741 -0.3001  0.1529
  392TMC3    O1 5866   1.725   3.035  10.822  0.0822  0.7514  0.6150
  392TMC3    O2 5867   1.387   2.737  10.364 -0.2913 -0.0362 -0.8380
  393TMC3    C1 5868   0.518   1.082  11.064 -0.1238  0.5657 -0.6066
  393TMC3    C2 5869   0.401   1.145  11.080  0.3731  0.0596 -0.1037
  393TMC3    C3 5870   0.301   1.083  11.142  0.0897  0.8486  0.3727
  393TMC3    C4 5871   0.529   0.953  11.099  1.1768 -0.1546 -0.3804
  393TMC3    C5 5872   0.419   0.888  11.150 -0.6779 -0.3702 -0.0083
  393TMC3    C6 5873   0.304   0.951  11.176 -0.2549  0.0890 -0.1913
  393TMC3     C 5874   0.588   1.111  10.936  0.1120  0.7293  0.5391
  393TMC3     O 5875   0.614   1.020  10.862 -0.0275  0.0012  0.3158
  393TMC3     H 5876   0.387   1.251  11.060  1.5159  0.7062  2.4366
  393TMC3    H1 5877   0.623   0.900  11.087  0.2974 -1.4149 -1.6956
  393TMC3    H2 5878   0.212   0.912  11.217 -0.5041 -0.4840 -1.2866
  393TMC3    C7 5879   0.404   0.753  11.100  0.2360  0.4586 -0.0389
  393TMC3    C8 5880   0.169   1.147  11.155 -0.3588 -0.1458 -0.0798
  393TMC3    O1 5881   0.316   0.685  11.144  0.1342  0.2690 -0.1417
  393TMC3    O2 5882   0.142   1.234  11.071  0.0351 -0.4139 -0.5777
  394TMC3    C1 5883   1.875   1.328  10.658  0.3804 -0.3675 -0.1161
  394TMC3    C2 5884   1.762   1.350  10.586  0.3514 -1.0591 -0.4643
  394TMC3    C3 5885   1.753   1.470  10.516 -1.2619 -0.3556  0.0743
  394TMC3    C4 5886   1.971   1.431  10.676  0.4437 -0.0425  0.7416
  394TMC3    C5 5887   1.941   1.558  10.629  0.8171  0.6187 -0.5230
  394TMC3    C6 5888   1.831   1.577  10.546 -0.1480 -0.0898 -0.2055
  394TMC3     C 5889   1.907   1.199  10.708 -0.8265  0.5749 -0.0050
  394TMC3     O 5890   1.994   1.195  10.792  0.6472  0.1356  0.6731
  394TMC3     H 5891   1.687   1.272  10.576  0.4084 -1.0741 -0.7918
  394TMC3    H1 5892   2.054   1.409  10.742 -0.3900 -1.5589  1.2910
  394TMC3    H2 5893   1.826   1.664  10.482  1.0713  0.4706  0.4709
  394TMC3    C7 5894   2.051   1.660  10.628  0.6835  0.1700  0.0651
  394TMC3    C8 5895   1.654   1.475  10.412 -0.4264  0.4130  0.3101
  394TMC3    O1 5896   2.059   1.733  10.531  1.0203  0.3647 -0.0075
  394TMC3    O2 5897   1.593   1.580  10.395  0.2570  0.3479  0.5413
  395TMC3    C1 5898   2.147   3.229  14.206  0.4760  0.0143 -0.2975
  395TMC3    C2 5899   2.013   3.193  14.216 -0.5252  0.7071 -0.3961
  395TMC3    C3 5900   1.906   3.280  14.216 -0.0259 -0.5168  0.3311
  395TMC3    C4 5901   2.176   3.355  14.185  0.0558  0.2868  0.2736
  395TMC3    C5 5902   2.067   3.444  14.190  0.4394  0.2930 -0.1912
  395TMC3    C6 5903   1.935   3.411  14.198  0.0377  0.1029  0.0320
  395TMC3     C 5904   2.227   3.147  14.303  0.5623 -0.3429 -0.3517
  395TMC3     O 5905   2.276   3.201  14.397 -0.1000  0.5227  0.1697
  395TMC3     H 5906   1.990   3.092  14.246 -0.4278  0.4247 -1.2604
  395TMC3    H1 5907   2.280   3.384  14.192  0.5361 -0.5906 -3.2932
  395TMC3    H2 5908   1.860   3.489  14.209  0.1139  0.0086  1.2776
  395TMC3    C7 5909   2.101   3.583  14.197 -0.0750 -0.1441  0.0528
  395TMC3    C8 5910   1.818   3.272  14.335  0.3868  0.1114 -0.3713
  395TMC3    O1 5911   2.196   3.610  14.275 -0.0827 -0.2935  0.4809
  395TMC3    O2 5912   1.798   3.374  14.402 -0.1392  0.8780 -0.2572
  396MPD2     C 5913   2.498   4.138  17.476 -0.0487 -0.1247  0.2770
  396MPD2    C1 5914   2.399   4.240  17.491 -0.3249 -0.0867  0.2017
  396MPD2    C2 5915   2.434   4.371  17.458 -0.3074  0.0337  0.3757
  396MPD2    C3 5916   2.549   4.395  17.392  0.4703  0.3620  0.7087
  396MPD2    C4 5917   2.634   4.291  17.359  0.9992 -0.2668 -0.7744
  396MPD2    C5 5918   2.616   4.168  17.424 -0.4164  0.4073  0.3396
  396MPD2     H 5919   2.358   4.448  17.459 -2.4480 -2.0578  0.7303
  396MPD2    H1 5920   2.724   4.294  17.299  1.2107 -1.4645 -0.5323
  396MPD2    H2 5921   2.473   4.038  17.510  0.2610 -1.1417 -2.5633
  396MPD2    H3 5922   2.689   4.090  17.410 -1.7627 -1.0348  1.3289
  396MPD2     N 5923   2.559   4.525  17.338 -0.4618  0.0634  0.2691
  396MPD2    H5 5924   2.492   4.595  17.369  0.4509  1.4604 -0.8943
  396MPD2    N1 5925   2.270   4.190  17.508  0.4981  0.5271 -0.3904
  396MPD2    H7 5926   2.268   4.089  17.504  0.8760  0.4973  0.2710
  397TMC3    C1 5927   2.048   4.225  17.457  0.1895 -0.0139 -0.3802
  397TMC3    C2 5928   2.084   4.252  17.328  0.6047  0.1490  0.3209
  397TMC3    C3 5929   2.063   4.156  17.238  0.9402 -0.2606 -0.1494
  397TMC3    C4 5930   1.996   4.097  17.487  0.3337 -0.6424 -0.3286
  397TMC3    C5 5931   1.974   4.002  17.384 -0.1570  0.3837 -0.0062
  397TMC3    C6 5932   2.008   4.032  17.256  0.0535 -0.3089  0.6200
  397TMC3     C 5933   2.161   4.266  17.538  0.0008  0.1447  0.1017
  397TMC3     O 5934   2.153   4.385  17.567  0.1762  0.7151  0.2450
  397TMC3     H 5935   2.115   4.354  17.314 -1.7574  0.4598 -2.5275
  397TMC3    H1 5936   1.970   4.069  17.588  0.6215 -0.2047 -0.1303
  397TMC3    H2 5937   1.987   3.967  17.172 -2.0505  0.3048  0.6736
  397TMC3    C7 5938   1.938   3.868  17.423 -0.0702  0.5022 -0.2242
  397TMC3    C8 5939   2.142   4.172  17.112  0.2425  0.5263 -0.3836
  397TMC3    O1 5940   1.949   3.794  17.332  0.3242 -0.9548  0.3433
  397TMC3    O2 5941   2.128   4.094  17.020  0.2851  0.2784 -0.2049
  398MPD2     C 5942   4.398   0.457   0.350 -0.5651 -0.1271  0.1810
  398MPD2    C1 5943   4.516   0.392   0.392 -1.1161 -0.1544  0.0574
  398MPD2    C2 5944   4.630   0.462   0.419  0.1102  0.1516  0.1606
  398MPD2    C3 5945   4.629   0.597   0.409 -0.2215 -0.6398 -0.3075
  398MPD2    C4 5946   4.514   0.660   0.367  0.0451  0.7467  0.3489
  398MPD2    C5 5947   4.400   0.590   0.343 -0.0726 -0.1682  1.1573
  398MPD2     H 5948   4.720   0.407   0.444  0.5908  1.4975  1.3499
  398MPD2    H1 5949   4.503   0.766   0.353 -0.9312  0.9291  2.6977
  398MPD2    H2 5950   4.307   0.405   0.324 -0.8278  0.1124  0.6028
  398MPD2    H3 5951   4.312   0.649   0.318  0.9927  1.1057  0.4219
  398MPD2     N 5952   0.026   0.671   0.428 -0.5492 -0.1296 -0.1553
  398MPD2    H5 5953   0.116   0.626   0.444  0.3061  0.8185 -2.3072
  398MPD2    N1 5954   4.526   0.252   0.404  0.2033 -0.1944  0.3620
  398MPD2    H7 5955   4.616   0.223   0.440  0.2992 -1.3920 -0.8659
  399TMC3    C1 5956   4.486   0.031   0.400 -0.4018 -0.0136 -0.1202
  399TMC3    C2 5957   4.554   0.022   0.523 -0.2765 -0.4761  0.1152
  399TMC3    C3 5958   4.553   4.619   0.581 -0.8521 -0.1627 -0.5934
  399TMC3    C4 5959   4.418   4.651   0.350  0.3296  0.5509 -0.2049
  399TMC3    C5 5960   4.433   4.527   0.411 -0.0945  0.5544 -0.2979
  399TMC3    C6 5961   4.500   4.505   0.531 -0.6734  0.0589 -0.0507
  399TMC3     C 5962   4.435   0.156   0.366 -0.3221  0.0273  0.0820
  399TMC3     O 5963   4.312   0.155   0.348  0.4174 -0.5667 -0.1447
  399TMC3     H 5964   4.581   0.107   0.585 -1.0157 -0.0770 -0.1065
  399TMC3    H1 5965   4.343   4.668   0.273 -0.0939 -2.5091 -0.4802
  399TMC3    H2 5966   4.505   4.414   0.590 -1.5382 -1.5602 -2.4869
  399TMC3    C7 5967   4.363   4.408   0.359  0.1003 -0.7159 -0.8071
  399TMC3    C8 5968   4.625   4.603   0.710  0.0293 -0.1975  0.0986
  399TMC3    O1 5969   4.371   4.309   0.436  0.7148 -0.2105 -0.1796
  399TMC3    O2 5970   4.596   4.499   0.766 -0.7327  0.2374  0.0417
  400TMC3    C1 5971   3.198   3.897  17.019 -0.1444 -0.4979  0.1987
  400TMC3    C2 5972   3.087   3.819  17.004 -0.3478  0.1615  0.1415
  400TMC3    C3 5973   3.002   3.839  16.897 -0.9119  0.3092 -0.4241
  400TMC3    C4 5974   3.223   4.017  16.951  0.2740 -0.2414  0.0299
  400TMC3    C5 5975   3.130   4.036  16.852  0.4071  0.2493  0.3001
  400TMC3    C6 5976   3.024   3.951  16.822 -0.0381  0.0939 -0.1886
  400TMC3     C 5977   3.293   3.867  17.123  0.1867  0.1864  0.3415
  400TMC3     O 5978   3.358   3.959  17.175  0.2016 -0.2987 -0.1010
  400TMC3     H 5979   3.059   3.729  17.057  0.6713 -0.8159 -0.9735
  400TMC3    H1 5980   3.321   4.062  16.959 -0.3546  1.0495  0.5406
  400TMC3    H2 5981   2.960   3.973  16.737  1.6546  0.9818 -1.2488
  400TMC3    C7 5982   3.135   4.161  16.777 -0.1418  0.1777 -0.1920
  400TMC3    C8 5983   2.874   3.783  16.898 -0.0405 -0.6016 -0.0352
  400TMC3    O1 5984   3.060   4.159  16.680 -0.1219  0.6772  0.0843
  400TMC3    O2 5985   2.823   3.755  17.008 -0.4533  0.6798  0.7220
  401MPD2     C 5986   2.500   3.401   1.586  0.1776  0.3057  0.5756
  401MPD2    C1 5987   2.544   3.307   1.499  0.0957 -0.3567 -0.2522
  401MPD2    C2 5988   2.455   3.226   1.427 -0.2744  0.4156  0.2794
  401MPD2    C3 5989   2.316   3.241   1.452  0.2502 -0.0961  0.5072
  401MPD2    C4 5990   2.275   3.325   1.553  0.2229 -0.5728  0.0803
  401MPD2    C5 5991   2.365   3.401   1.620 -0.1398 -0.0085 -0.8010
  401MPD2     H 5992   2.489   3.155   1.352  0.0396  0.8908 -0.0215
  401MPD2    H1 5993   2.175   3.310   1.592 -0.8909  2.7224 -1.4866
  401MPD2    H2 5994   2.564   3.466   1.645 -0.7038  0.9383  0.8378
  401MPD2    H3 5995   2.339   3.457   1.709 -2.7645 -2.7595  0.1812
  401MPD2     N 5996   2.225   3.161   1.378  0.5480 -0.3400  0.0297
  401MPD2    H5 5997   2.267   3.092   1.317  1.4113  1.0838 -1.0094
  401MPD2    N1 5998   2.684   3.289   1.479  0.2711  0.1702 -0.1329
  401MPD2    H7 5999   2.711   3.220   1.409 -0.1490 -0.0565 -0.0721
  402TMC3    C1 6000   2.028   3.084   1.290  0.2831  0.0540  0.0958
  402TMC3    C2 6001   2.085   2.971   1.250  0.2123 -0.5290  0.8305
  402TMC3    C3 6002   2.024   2.897   1.154 -0.0081 -0.2506 -0.1600
  402TMC3    C4 6003   1.911   3.130   1.236  0.7847  0.8405 -0.1445
  402TMC3    C5 6004   1.855   3.051   1.142 -0.2511  0.2713  0.4796
  402TMC3    C6 6005   1.899   2.928   1.108  0.2112 -0.0525  0.6888
  402TMC3     C 6006   2.089   3.179   1.379  0.2856  0.0978 -0.5647
  402TMC3     O 6007   2.023   3.270   1.436 -0.1320  0.3763 -0.6834
  402TMC3     H 6008   2.181   2.938   1.289  1.1607 -0.6096 -1.5850
  402TMC3    H1 6009   1.856   3.215   1.273 -0.1466  0.5679 -0.9047
  402TMC3    H2 6010   1.843   2.857   1.049  1.0548  1.1144 -1.5255
  402TMC3    C7 6011   1.732   3.098   1.084 -0.5996 -0.0832  0.2469
  402TMC3    C8 6012   2.081   2.768   1.140  1.2080 -0.2652  0.4386
  402TMC3    O1 6013   1.654   3.168   1.152 -0.3966 -0.6158 -0.5668
  402TMC3    O2 6014   2.165   2.731   1.221 -0.2094  0.3018  0.5302
  403MPD2     C 6015   4.658   0.748  13.303 -1.2519  0.1397 -0.2290
  403MPD2    C1 6016   4.593   0.708  13.413 -0.5957  0.2963 -0.9665
  403MPD2    C2 6017   4.600   0.778  13.532 -0.3151  0.7276 -0.1599
  403MPD2    C3 6018   4.668   0.895  13.546  0.2823 -0.0243  0.6023
  403MPD2    C4 6019   0.006   0.942  13.422  0.0177 -0.3064 -0.4186
  403MPD2    C5 6020   4.716   0.866  13.310 -0.4613 -0.0216 -0.7222
  403MPD2     H 6021   4.552   0.741  13.622  0.5297 -0.1282 -0.0596
  403MPD2    H1 6022   0.066   1.032  13.419 -0.1220 -0.2975 -2.8447
  403MPD2    H2 6023   4.664   0.679  13.219 -0.3820  0.4823 -0.4484
  403MPD2    H3 6024   0.054   0.899  13.225 -1.3400 -0.4924 -1.5129
  403MPD2     N 6025   4.669   0.974  13.665  0.8063 -0.0509 -0.1344
  403MPD2    H5 6026   4.621   0.939  13.747  0.6250  0.5467  0.0131
  403MPD2    N1 6027   4.522   0.582  13.396 -1.0803  0.0143  0.0215
  403MPD2    H7 6028   4.533   0.534  13.307 -0.3988  1.6558 -0.7791
  404TMC3    C1 6029   4.403   0.384  13.455 -0.5233  0.3098  0.4013
  404TMC3    C2 6030   4.385   0.293  13.554 -0.4300  0.0393  0.4608
  404TMC3    C3 6031   4.388   0.154  13.530  0.1386 -0.5425 -0.9631
  404TMC3    C4 6032   4.404   0.339  13.323  1.3696  0.4699  0.2786
  404TMC3    C5 6033   4.404   0.200  13.303  0.3726  0.3786 -0.6229
  404TMC3    C6 6034   4.401   0.110  13.403  0.0018  0.6292 -0.2660
  404TMC3     C 6035   4.460   0.509  13.494  0.6190 -0.5344 -0.4444
  404TMC3     O 6036   4.450   0.541  13.611  0.5996 -0.0625 -0.4847
  404TMC3     H 6037   4.390   0.325  13.658  0.5802 -1.0359  0.7434
  404TMC3    H1 6038   4.401   0.413  13.245 -0.3362 -0.1972 -0.3073
  404TMC3    H2 6039   4.398   0.005  13.376  0.3435  0.2700  1.1216
  404TMC3    C7 6040   4.416   0.149  13.170  0.2157  0.2409  0.7819
  404TMC3    C8 6041   4.436   0.064  13.632 -0.5547 -0.4239 -0.3606
  404TMC3    O1 6042   4.435   0.028  13.157  0.1503 -0.7984  0.1601
  404TMC3    O2 6043   4.517   4.700  13.604  0.1221  0.5885  0.0967
  405MPD2     C 6044   0.450   1.183  15.052  0.4502  0.3483 -0.6426
  405MPD2    C1 6045   0.414   1.112  14.942  0.1650  0.9213  0.6580
  405MPD2    C2 6046   0.373   1.174  14.828  0.3205  0.5135 -0.0087
  405MPD2    C3 6047   0.388   1.310  14.812 -0.1638  0.2022  0.1310
  405MPD2    C4 6048   0.451   1.380  14.916 -0.2937 -0.0630 -0.0477
  405MPD2    C5 6049   0.469   1.315  15.036  0.0073 -1.0980  0.2985
  405MPD2     H 6050   0.330   1.122  14.743  1.5939 -0.4735 -0.0423
  405MPD2    H1 6051   0.467   1.487  14.910  0.6566 -0.2576 -0.9767
  405MPD2    H2 6052   0.475   1.133  15.144 -0.0935  0.8736 -0.2112
  405MPD2    H3 6053   0.495   1.375  15.122 -0.0667 -0.4570 -0.1281
  405MPD2     N 6054   0.348   1.369  14.688 -0.0271 -0.8791 -0.1985
  405MPD2    H5 6055   0.322   1.302  14.617 -3.8145  0.4230 -0.0245
  405MPD2    N1 6056   0.393   0.968  14.959  0.4584 -0.4436 -0.2027
  405MPD2    H7 6057   0.416   0.929  15.050 -3.8742 -0.4078  0.9087
  406TMC3    C1 6058   0.059   1.630  14.445 -0.3192  0.4109  0.4808
  406TMC3    C2 6059   0.037   1.518  14.362 -0.3306  0.0059  0.1303
  406TMC3    C3 6060   0.126   1.414  14.375 -0.0657  0.4466  0.4228
  406TMC3    C4 6061   0.160   1.624  14.543  0.1779  0.1503  0.0246
  406TMC3    C5 6062   0.246   1.524  14.550  0.5224 -0.1927 -0.3006
  406TMC3    C6 6063   0.234   1.418  14.462 -0.0431 -0.2550  0.5768
  406TMC3     C 6064   4.676   1.725  14.479 -0.5094 -0.8465 -1.2486
  406TMC3     O 6065   4.706   1.843  14.503 -0.3965  0.2811 -0.3781
  406TMC3     H 6066   4.672   1.514  14.297  0.4468  1.0946 -0.9541
  406TMC3    H1 6067   0.158   1.701  14.619 -0.5126 -1.1439  1.3304
  406TMC3    H2 6068   0.310   1.341  14.460 -0.6369 -0.7920 -1.4869
  406TMC3    C7 6069   0.328   1.503  14.670 -0.5871  0.3478  0.4040
  406TMC3    C8 6070   0.080   1.291  14.323  0.2952  0.6418 -0.1315
  406TMC3    O1 6071   0.322   1.593  14.752  0.1805  0.9420  0.2930
  406TMC3    O2 6072   0.000   1.289  14.231  0.9727  0.0156 -0.2710
  407MPD2     C 6073   2.500   2.592   9.720 -0.6227  0.0234  0.1570
  407MPD2    C1 6074   2.608   2.598   9.803 -0.3697  0.0739 -0.1927
  407MPD2    C2 6075   2.618   2.715   9.875  0.0517 -0.4051  0.0462
  407MPD2    C3 6076   2.528   2.824   9.865 -0.2384  0.2807  0.4747
  407MPD2    C4 6077   2.422   2.810   9.774  0.6006 -0.1416 -1.0192
  407MPD2    C5 6078   2.413   2.697   9.704 -0.2110 -0.5735  0.0126
  407MPD2     H 6079   2.708   2.730   9.933 -0.1931 -1.2318  0.6399
  407MPD2    H1 6080   2.351   2.890   9.760 -0.2670 -1.0503 -1.7497
  407MPD2    H2 6081   2.476   2.503   9.665  3.6338  0.1276 -1.8686
  407MPD2    H3 6082   2.323   2.688   9.645  1.1846 -1.3565 -1.9842
  407MPD2     N 6083   2.534   2.934   9.944 -0.5908  0.4694 -0.1779
  407MPD2    H5 6084   2.472   3.008   9.912  0.0888  1.7010  1.3794
  407MPD2    N1 6085   2.695   2.490   9.832 -0.2255 -0.2568  0.1174
  407MPD2    H7 6086   2.766   2.509   9.902 -0.4041 -0.2048  0.2851
  408TMC3    C1 6087   2.803   2.280   9.791  0.6528  0.0490 -0.4570
  408TMC3    C2 6088   2.930   2.323   9.779 -0.1441 -0.4799 -0.4172
  408TMC3    C3 6089   3.037   2.236   9.801 -0.0854  0.6748 -0.5238
  408TMC3    C4 6090   2.772   2.151   9.836 -0.0474 -0.1919 -0.6821
  408TMC3    C5 6091   2.877   2.073   9.883 -0.3439 -0.0049 -0.3667
  408TMC3    C6 6092   3.011   2.113   9.861  0.9076  0.3363 -0.8617
  408TMC3     C 6093   2.687   2.369   9.768 -1.3648 -0.1666  0.5652
  408TMC3     O 6094   2.607   2.329   9.685 -0.0654  0.4603  0.6122
  408TMC3     H 6095   2.950   2.424   9.746  0.2391 -0.9088 -1.4953
  408TMC3    H1 6096   2.668   2.121   9.844  0.4462 -2.0677 -1.0842
  408TMC3    H2 6097   3.091   2.052   9.900  1.1904  1.5406  0.4130
  408TMC3    C7 6098   2.846   1.959   9.963  0.2821  0.6314  0.3178
  408TMC3    C8 6099   3.169   2.291   9.818 -0.1668  0.2474  0.1362
  408TMC3    O1 6100   2.726   1.935   9.968  0.2759  0.1172  0.0165
  408TMC3    O2 6101   3.242   2.210   9.873  0.2225  0.4735 -0.2595
  409MPD2     C 6102   2.115   3.537  16.987  0.5275  0.1553 -0.4809
  409MPD2    C1 6103   2.194   3.587  17.095  0.6180 -0.1420  0.0071
  409MPD2    C2 6104   2.276   3.695  17.087  0.3360 -0.2042  0.0063
  409MPD2    C3 6105   2.276   3.766  16.963 -0.1720  0.7064  0.0344
  409MPD2    C4 6106   2.197   3.719  16.861 -0.3979  0.4709  0.5119
  409MPD2    C5 6107   2.116   3.615  16.872  0.0276  0.3364  0.1288
  409MPD2     H 6108   2.324   3.744  17.171 -0.3993 -1.4477  1.1485
  409MPD2    H1 6109   2.205   3.763  16.763 -1.5553 -0.5393 -0.0335
  409MPD2    H2 6110   2.050   3.451  17.002 -1.5135  1.8248  0.2526
  409MPD2    H3 6111   2.059   3.586  16.785  2.3266 -2.6670 -0.3938
  409MPD2     N 6112   2.358   3.878  16.933 -0.5289  0.3698  0.0193
  409MPD2    H5 6113   2.360   3.904  16.835 -3.4848 -1.2060 -0.4292
  409MPD2    N1 6114   2.186   3.535  17.225 -0.0679 -0.1217  0.3928
  409MPD2    H7 6115   2.241   3.582  17.297 -0.7769  0.5975  0.4723
  410TMC3    C1 6116   2.534   4.036  16.964  0.0407 -0.1495  0.0534
  410TMC3    C2 6117   2.618   4.093  17.056  0.7411  0.0070  0.1745
  410TMC3    C3 6118   2.737   4.153  17.013  0.0441  0.6708  0.1591
  410TMC3    C4 6119   2.569   4.021  16.833 -0.5351 -0.2499  0.1487
  410TMC3    C5 6120   2.680   4.093  16.785  0.1623  0.6054 -0.1788
  410TMC3    C6 6121   2.774   4.147  16.877  0.3766  0.1737 -0.3232
  410TMC3     C 6122   2.444   3.941  17.022  0.7747  0.0162 -0.5177
  410TMC3     O 6123   2.444   3.940  17.146  0.1154 -0.4001 -0.3092
  410TMC3     H 6124   2.586   4.114  17.158  1.0660  0.4429  0.1891
  410TMC3    H1 6125   2.499   3.985  16.759 -0.3694 -0.1195 -0.0715
  410TMC3    H2 6126   2.863   4.201  16.846  0.4614 -0.3634 -1.0071
  410TMC3    C7 6127   2.689   4.087  16.637 -0.0591 -0.9201  0.2446
  410TMC3    C8 6128   2.842   4.156  17.108  0.2410  0.5919  0.2358
  410TMC3    O1 6129   2.623   3.998  16.592 -0.2738  0.0631  0.1188
  410TMC3    O2 6130   2.927   4.243  17.093 -0.4999  0.1640 -0.2076
  411MPD2     C 6131   2.483   4.324  14.032 -0.4180  0.7374  0.1006
  411MPD2    C1 6132   2.363   4.348  13.973 -0.3814 -0.3886 -0.7786
  411MPD2    C2 6133   2.294   4.249  13.906 -0.1196 -0.5775  0.2362
  411MPD2    C3 6134   2.350   4.120  13.910  0.2061 -0.5139  0.4958
  411MPD2    C4 6135   2.466   4.099  13.985 -0.2120  1.0739 -0.1252
  411MPD2    C5 6136   2.534   4.199  14.033  0.5171  0.8741  0.4750
  411MPD2     H 6137   2.196   4.258  13.860 -0.8468 -0.5487  1.8036
  411MPD2    H1 6138   2.514   4.002  13.987 -0.8030  0.7919  0.2137
  411MPD2    H2 6139   2.537   4.406  14.080 -1.2407  1.0129  0.5563
  411MPD2    H3 6140   2.635   4.181  14.066  0.8442 -1.3765 -1.7948
  411MPD2     N 6141   2.298   4.011  13.838  0.2818 -0.6111 -0.2261
  411MPD2    H5 6142   2.339   3.924  13.870  0.7364 -0.2838  0.0764
  411MPD2    N1 6143   2.314   4.477  13.983  0.0239  0.5920 -0.2068
  411MPD2    H7 6144   2.368   4.541  14.038  3.0768 -1.6294 -0.6159
  412TMC3    C1 6145   2.165   3.873  13.698 -0.0628  0.4806  0.6027
  412TMC3    C2 6146   2.214   3.764  13.768  0.1704  0.9017 -0.4600
  412TMC3    C3 6147   2.207   3.639  13.706  0.0854  0.1525 -0.1829
  412TMC3    C4 6148   2.127   3.863  13.566 -0.0054  0.4790  0.7022
  412TMC3    C5 6149   2.140   3.738  13.502  0.5768  0.3622  0.5845
  412TMC3    C6 6150   2.176   3.625  13.571 -0.1840  0.2250  1.2949
  412TMC3     C 6151   2.188   4.007  13.757 -0.3125  0.7053 -0.0672
  412TMC3     O 6152   2.132   4.104  13.701  0.2181  0.3598 -0.2931
  412TMC3     H 6153   2.213   3.764  13.876  1.0383 -2.9708 -0.4557
  412TMC3    H1 6154   2.072   3.943  13.516  0.1637 -0.2329 -0.6067
  412TMC3    H2 6155   2.202   3.529  13.527  2.8409  1.5487  0.1813
  412TMC3    C7 6156   2.043   3.703  13.403 -0.4512 -0.3180 -0.1545
  412TMC3    C8 6157   2.129   3.542  13.779  0.3994  0.7715  0.1689
  412TMC3    O1 6158   2.017   3.586  13.409 -0.0357  0.6309 -0.0317
  412TMC3    O2 6159   2.160   3.517  13.891  0.0497  0.4963 -0.2061
  413MPD2     C 6160   4.391   2.761  15.410 -0.0729  0.0448  0.3984
  413MPD2    C1 6161   4.301   2.678  15.357 -1.0629 -0.6714 -0.0652
  413MPD2    C2 6162   4.336   2.553  15.316 -0.2392 -0.5476 -0.0756
  413MPD2    C3 6163   4.465   2.507  15.329 -0.2795 -0.1111  1.2121
  413MPD2    C4 6164   4.557   2.605  15.374 -0.4659 -0.2275  0.1571
  413MPD2    C5 6165   4.519   2.731  15.408 -0.0904 -0.1811  0.6824
  413MPD2     H 6166   4.264   2.481  15.279 -0.7639 -0.6258  1.1129
  413MPD2    H1 6167   4.663   2.589  15.389 -0.6494  0.6214  2.2607
  413MPD2    H2 6168   4.356   2.853  15.456  2.0010  2.1891 -2.3634
  413MPD2    H3 6169   4.595   2.804  15.436  0.6773 -0.5624 -0.4000
  413MPD2     N 6170   4.488   2.378  15.292  0.1251  0.0382  0.6292
  413MPD2    H5 6171   4.415   2.312  15.268 -0.3552  0.8264 -0.0717
  413MPD2    N1 6172   4.167   2.720  15.356  0.3305 -0.5661  0.4788
  413MPD2    H7 6173   4.145   2.797  15.418 -0.4506  0.1167 -0.6651
  414TMC3    C1 6174   4.598   2.172  15.275  0.0552 -0.8474  0.7860
  414TMC3    C2 6175   4.646   2.076  15.363  0.6487 -0.7330 -0.4203
  414TMC3    C3 6176   4.626   1.951  15.321 -0.2376 -0.3028  0.3955
  414TMC3    C4 6177   4.511   2.143  15.165  0.3493  0.3075  0.1937
  414TMC3    C5 6178   4.488   2.010  15.139  0.8611  0.1066 -0.5878
  414TMC3    C6 6179   4.544   1.915  15.218  0.0989 -0.8358  1.1264
  414TMC3     C 6180   4.603   2.309  15.325  0.2384 -1.1140  0.1112
  414TMC3     O 6181   4.712   2.341  15.378  0.4170 -0.1652 -0.5516
  414TMC3     H 6182   4.693   2.110  15.455 -1.7247  0.8877  0.1962
  414TMC3    H1 6183   4.457   2.217  15.106  0.3073 -1.4272 -1.9358
  414TMC3    H2 6184   4.539   1.816  15.173  1.9419  0.8117 -2.6956
  414TMC3    C7 6185   4.374   1.979  15.064 -0.6319  0.3524 -0.5254
  414TMC3    C8 6186   4.691   1.838  15.375 -0.8255 -0.0218 -0.7346
  414TMC3    O1 6187   4.282   2.057  15.058 -0.8603 -0.3046 -0.2255
  414TMC3    O2 6188   4.618   1.742  15.391  0.1906 -0.4209 -0.2376
  415TMC3    C1 6189   4.334   4.527   9.591 -0.2473  0.1554  0.4292
  415TMC3    C2 6190   4.336   4.644   9.523  0.2585 -0.3347 -0.6222
  415TMC3    C3 6191   4.271   4.646   9.404  0.2521 -0.3971 -0.3061
  415TMC3    C4 6192   4.265   4.420   9.533  0.1328 -0.0746 -0.2041
  415TMC3    C5 6193   4.194   4.432   9.419  0.5813 -0.7945 -0.7359
  415TMC3    C6 6194   4.189   4.550   9.349  0.2229  0.1776 -1.5434
  415TMC3     C 6195   4.415   4.498   9.710  0.3510 -0.8107  0.1933
  415TMC3     O 6196   4.448   4.382   9.729  0.1296 -0.2316  0.1851
  415TMC3     H 6197   4.385   0.012   9.558 -0.6706 -0.3242  0.6865
  415TMC3    H1 6198   4.256   4.325   9.583 -0.2778 -0.8656 -1.7712
  415TMC3    H2 6199   4.138   4.546   9.254 -2.4708  2.3423 -0.2002
  415TMC3    C7 6200   4.151   4.309   9.349  0.0639  0.3557 -0.5217
  415TMC3    C8 6201   4.294   0.037   9.314 -0.3982  0.7646 -0.0289
  415TMC3    O1 6202   4.081   4.325   9.250  0.0246 -0.4785 -0.1390
  415TMC3    O2 6203   4.205   0.050   9.231 -0.6570  0.3062 -0.1296
  416MPD2     C 6204   1.566   3.897  11.883 -0.5146 -0.1913  0.1289
  416MPD2    C1 6205   1.454   3.909  11.803  0.3769  0.3834  0.0997
  416MPD2    C2 6206   1.442   3.809  11.700  0.6425  0.0633 -0.3723
  416MPD2    C3 6207   1.543   3.728  11.668 -0.8407  0.5603 -0.2697
  416MPD2    C4 6208   1.652   3.708  11.748 -0.4013 -0.3420  0.4552
  416MPD2    C5 6209   1.664   3.796  11.858 -0.3736 -0.2301 -0.2140
  416MPD2     H 6210   1.359   3.826  11.632 -3.4674  1.0505  4.8307
  416MPD2    H1 6211   1.728   3.630  11.738  0.0894 -0.1712  2.7656
  416MPD2    H2 6212   1.587   3.962  11.968 -2.4433 -0.9794  1.2215
  416MPD2    H3 6213   1.752   3.791  11.922 -0.3593 -1.0917 -0.2928
  416MPD2     N 6214   1.529   3.650  11.552  0.4551  0.1022 -0.3302
  416MPD2    H5 6215   1.437   3.628  11.516 -0.3368 -0.3581  2.0054
  416MPD2    N1 6216   1.357   4.009  11.830 -0.4289  0.4341  0.1036
  416MPD2    H7 6217   1.376   4.066  11.911 -1.8974  0.6953  0.2705
  417TMC3    C1 6218   1.205   4.184  11.759  0.1295 -0.2288 -0.2052
  417TMC3    C2 6219   1.287   4.272  11.834  0.2798  0.3730 -0.0351
  417TMC3    C3 6220   1.260   4.404  11.829  0.1940  0.1623  0.0712
  417TMC3    C4 6221   1.103   4.220  11.676  0.1490 -0.0322 -0.2780
  417TMC3    C5 6222   1.075   4.354  11.689 -0.5047  0.1609  0.2538
  417TMC3    C6 6223   1.155   4.443  11.755 -0.2250 -0.5623  0.4049
  417TMC3     C 6224   1.257   4.049  11.739  0.2532  0.1389 -0.0823
  417TMC3     O 6225   1.212   3.993  11.637 -0.1277  0.1165  0.0444
  417TMC3     H 6226   1.368   4.233  11.893 -0.5058 -1.7590 -0.3771
  417TMC3    H1 6227   1.049   4.150  11.613  0.0323  0.6549 -0.9381
  417TMC3    H2 6228   1.130   4.549  11.759 -0.7303 -0.7369  1.7560
  417TMC3    C7 6229   0.981   4.415  11.596  0.5004 -0.3561 -0.5356
  417TMC3    C8 6230   1.287   4.470  11.953  0.5125  0.4732 -0.2642
  417TMC3    O1 6231   0.993   4.534  11.564  0.5542 -0.1137  0.3364
  417TMC3    O2 6232   1.192   4.531  12.007 -0.4254 -0.8370  0.1051
  418TMC3    C1 6233   0.368   0.851   0.311  0.7628 -0.0079 -0.0797
  418TMC3    C2 6234   0.248   0.793   0.337 -0.3429  0.1139  0.7241
  418TMC3    C3 6235   0.166   0.848   0.428  0.2679 -0.2253  0.1010
  418TMC3    C4 6236   0.407   0.964   0.383  0.3433 -0.9765 -0.2938
  418TMC3    C5 6237   0.323   1.018   0.477 -0.0127 -0.1278  0.5485
  418TMC3    C6 6238   0.202   0.957   0.502 -0.9040 -0.6394  0.4334
  418TMC3     C 6239   0.465   0.781   0.234  0.0461 -1.3393  0.2189
  418TMC3     O 6240   0.504   0.848   0.140  0.6363 -0.4712  0.2785
  418TMC3     H 6241   0.214   0.699   0.295  1.0542  0.0711 -0.3345
  418TMC3    H1 6242   0.501   1.008   0.351 -1.9703  1.0131 -4.3921
  418TMC3    H2 6243   0.126   0.989   0.573  0.0810  0.3640  1.0188
  418TMC3    C7 6244   0.378   1.092   0.592 -0.3888 -0.2141 -0.4896
  418TMC3    C8 6245   0.034   0.807   0.439 -0.1291  0.6719  0.0449
  418TMC3    O1 6246   0.314   1.092   0.696 -0.1684 -0.5015  0.7227
  418TMC3    O2 6247   4.673   0.894   0.452  0.1344 -0.3163  0.5638
  419MPD2     C 6248   3.863   4.025  11.996 -0.2700  0.0767  0.2182
  419MPD2    C1 6249   3.798   4.136  12.031 -0.6970  0.4924  0.2987
  419MPD2    C2 6250   3.736   4.139  12.155 -0.0756 -0.0164  0.1409
  419MPD2    C3 6251   3.781   4.043  12.248 -0.3368 -0.0452 -0.2776
  419MPD2    C4 6252   3.866   3.939  12.216 -0.1257  0.2859 -0.1489
  419MPD2    C5 6253   3.896   3.926  12.084  0.1001  0.1731 -0.7003
  419MPD2     H 6254   3.676   4.218  12.199  1.2116  0.4537  1.0493
  419MPD2    H1 6255   3.897   3.853  12.275  1.7229  0.8435 -0.3161
  419MPD2    H2 6256   3.895   4.003  11.895  0.4563  1.3963  0.1710
  419MPD2    H3 6257   3.969   3.852  12.056 -0.5145 -1.0296  0.8688
  419MPD2     N 6258   3.721   4.045  12.377  0.6442 -0.3305  0.2767
  419MPD2    H5 6259   3.645   4.111  12.388 -0.1340 -1.5994  2.4427
  419MPD2    N1 6260   3.795   4.248  11.949  0.3453 -0.7827 -0.1429
  419MPD2    H7 6261   3.742   4.332  11.966  1.2538 -0.8507  2.9047
  420TMC3    C1 6262   3.651   4.000  12.603  0.3448 -0.5290 -0.2535
  420TMC3    C2 6263   3.531   4.062  12.583  0.2310 -0.2930 -0.7240
  420TMC3    C3 6264   3.467   4.109  12.692  0.5167  0.1191  0.2520
  420TMC3    C4 6265   3.714   3.994  12.727 -0.1874  0.6295 -0.0365
  420TMC3    C5 6266   3.651   4.047  12.836 -0.0683 -0.3474 -0.5139
  420TMC3    C6 6267   3.526   4.109  12.819  0.1939 -0.0574  0.3847
  420TMC3     C 6268   3.745   3.971  12.495 -0.2167 -0.1435  0.4250
  420TMC3     O 6269   3.849   3.912  12.524  0.5263  0.6333  0.1209
  420TMC3     H 6270   3.474   4.046  12.492  1.3891  3.9399 -2.1668
  420TMC3    H1 6271   3.805   3.935  12.732 -1.3482 -0.8843  2.6360
  420TMC3    H2 6272   3.499   4.178  12.898 -0.9609 -1.1394  0.9480
  420TMC3    C7 6273   3.715   4.066  12.964  0.1187  0.2197 -0.0927
  420TMC3    C8 6274   3.342   4.179  12.684  0.0929  0.1638 -0.1352
  420TMC3    O1 6275   3.643   4.095  13.058  0.2473  0.1047 -0.1872
  420TMC3    O2 6276   3.282   4.193  12.579 -0.2387  0.0667  0.3792
  421TMC3    C1 6277   0.049   1.116  13.821 -0.6741 -0.0008  0.3701
  421TMC3    C2 6278   0.091   1.237  13.842  0.4764 -0.4173  0.4632
  421TMC3    C3 6279   0.174   1.262  13.950  0.8959 -0.3310 -0.5811
  421TMC3    C4 6280   0.092   1.014  13.904  0.5034 -0.1704 -0.1717
  421TMC3    C5 6281   0.179   1.046  14.005  0.5445 -0.2906  0.7306
  421TMC3    C6 6282   0.225   1.165  14.032 -0.9045  0.2293  0.8475
  421TMC3     C 6283   0.021   1.086  13.683 -0.0918 -0.1428 -0.0776
  421TMC3     O 6284   0.057   1.170  13.602  0.2116  0.4091 -0.3317
  421TMC3     H 6285   0.041   1.318  13.790 -0.5753 -1.2804  0.1441
  421TMC3    H1 6286   0.064   0.911  13.887 -0.5403 -0.2037  1.8465
  421TMC3    H2 6287   0.285   1.181  14.121 -0.6287  1.3775  0.4601
  421TMC3    C7 6288   0.262   0.937  14.052  0.3797 -0.6265 -0.3360
  421TMC3    C8 6289   0.190   1.397  13.986 -0.2576  0.6050  0.3248
  421TMC3    O1 6290   0.381   0.964  14.072  0.5009  0.2596  0.6593
  421TMC3    O2 6291   0.109   1.476  13.934 -0.1288  0.4240  0.0298
  422TMC3    C1 6292   2.498   2.074  12.891  0.3759  0.2404 -0.5947
  422TMC3    C2 6293   2.431   2.192  12.902 -0.4643 -0.0127  0.7622
  422TMC3    C3 6294   2.300   2.196  12.940 -0.0243  0.8491  0.9953
  422TMC3    C4 6295   2.435   1.954  12.920 -0.1519  0.9173 -0.9040
  422TMC3    C5 6296   2.312   1.960  12.975 -0.2624  0.2977  0.2256
  422TMC3    C6 6297   2.235   2.074  12.978  0.0518  0.1628 -0.5181
  422TMC3     C 6298   2.624   2.074  12.815 -0.2460  0.5909 -0.2514
  422TMC3     O 6299   2.645   2.172  12.744  0.4423 -0.3683 -0.2925
  422TMC3     H 6300   2.480   2.287  12.888 -1.8156  0.6190  0.3264
  422TMC3    H1 6301   2.490   1.861  12.926 -1.6304  0.0383 -0.8181
  422TMC3    H2 6302   2.128   2.068  12.991  0.3039 -0.8898  1.1732
  422TMC3    C7 6303   2.240   1.840  12.958  0.7064 -0.3091  0.5366
  422TMC3    C8 6304   2.245   2.317  12.989 -0.5720 -1.2116  0.8413
  422TMC3    O1 6305   2.294   1.753  12.893 -0.0441  0.3301 -0.3299
  422TMC3    O2 6306   2.295   2.418  12.943  0.0841  0.2188 -0.1512
  423MPD2     C 6307   4.396   3.285   0.472 -0.1213  0.1416  0.5653
  423MPD2    C1 6308   4.392   3.153   0.511  0.3362 -0.3058  0.2430
  423MPD2    C2 6309   4.351   3.055   0.420 -0.2490 -0.0395  0.2348
  423MPD2    C3 6310   4.345   3.088   0.289  0.3188  0.1039  0.2591
  423MPD2    C4 6311   4.365   3.219   0.246  0.1580 -0.6185  0.5786
  423MPD2    C5 6312   4.385   3.317   0.344 -0.1862  0.7682 -0.0824
  423MPD2     H 6313   4.346   2.950   0.447  0.5077  0.4386  2.2694
  423MPD2    H1 6314   4.366   3.241   0.140 -2.2271 -0.5004  0.5831
  423MPD2    H2 6315   4.416   3.365   0.542 -1.5790 -0.3794  1.5822
  423MPD2    H3 6316   4.405   3.418   0.310  2.1310  0.0596 -0.8723
  423MPD2     N 6317   4.324   3.000   0.183 -0.9036  0.3420 -0.8622
  423MPD2    H5 6318   4.310   3.036   0.089 -1.9444  3.1568  0.3750
  423MPD2    N1 6319   4.411   3.112   0.642  0.0680  0.4273 -0.0225
  423MPD2    H7 6320   4.412   3.014   0.667  0.7206  0.9401  1.9505
  424TMC3    C1 6321   4.464   3.127   0.869  0.0208 -0.1470  0.3740
  424TMC3    C2 6322   4.552   3.190   0.958  0.3729  0.1476 -0.8973
  424TMC3    C3 6323   4.553   3.133   1.081  0.4291 -0.5306 -0.2465
  424TMC3    C4 6324   4.385   3.024   0.901  0.5686  0.7635 -0.7630
  424TMC3    C5 6325   4.379   2.989   1.032 -0.2292  0.2558 -0.2469
  424TMC3    C6 6326   4.465   3.040   1.123  0.6177  0.5085  0.3679
  424TMC3     C 6327   4.473   3.188   0.737  0.9918  0.0971 -0.8236
  424TMC3     O 6328   4.525   3.299   0.730 -0.0418 -0.3896 -0.1649
  424TMC3     H 6329   4.632   3.259   0.935  0.6524  0.5061  1.1406
  424TMC3    H1 6330   4.322   2.971   0.831  0.0737  0.0624  0.2107
  424TMC3    H2 6331   4.467   2.991   1.220 -1.8619 -1.3259 -0.4988
  424TMC3    C7 6332   4.269   2.911   1.080  0.4537 -0.6355 -0.0265
  424TMC3    C8 6333   4.670   3.160   1.166 -0.1204 -0.1119  0.2507
  424TMC3    O1 6334   4.228   2.821   1.007 -0.1223 -0.1917 -0.7337
  424TMC3    O2 6335   0.046   3.204   1.112  0.3663  0.1567 -0.6923
  425MPD2     C 6336   3.104   2.417  17.554 -0.5416 -0.6653 -0.4666
  425MPD2    C1 6337   3.032   2.298  17.592  0.7288  0.4661  0.0289
  425MPD2    C2 6338   2.901   2.321  17.644  0.1896  0.1629 -0.2477
  425MPD2    C3 6339   2.843   2.447  17.645 -0.3550 -0.0815  0.6886
  425MPD2    C4 6340   2.910   2.558  17.594  0.1160  0.1689 -0.0880
  425MPD2    C5 6341   3.041   2.537  17.553 -0.4964 -0.1995  0.0047
  425MPD2     H 6342   2.846   2.236  17.683 -0.5352  1.6095  1.8451
  425MPD2    H1 6343   2.869   2.658  17.587 -2.3289 -0.7054  1.7363
  425MPD2    H2 6344   3.206   2.410  17.518 -0.2189 -0.0695  0.3540
  425MPD2    H3 6345   3.104   2.623  17.534 -0.4387 -0.3862 -0.6272
  425MPD2     N 6346   2.710   2.448  17.683  0.1476  0.1013  0.3055
  425MPD2    H5 6347   2.665   2.358  17.679  2.1898 -0.7277 -3.9385
  425MPD2    N1 6348   3.078   2.167  17.565  0.3810  0.1102  0.0150
  425MPD2    H7 6349   3.171   2.163  17.525  0.5347  1.7231  0.2220
  426TMC3    C1 6350   3.100   1.933  17.584  0.3714  0.2127 -0.8708
  426TMC3    C2 6351   3.040   1.829  17.515 -0.4610 -0.1079  0.1222
  426TMC3    C3 6352   3.121   1.731  17.465  0.2355 -0.3269 -0.1677
  426TMC3    C4 6353   3.237   1.954  17.585 -0.0453 -0.0465 -0.3908
  426TMC3    C5 6354   3.307   1.855  17.529  0.3070 -0.1100  0.3123
  426TMC3    C6 6355   3.256   1.739  17.472  0.6185  0.3174 -0.9040
  426TMC3     C 6356   3.012   2.047  17.592  0.5165 -0.7613  0.4496
  426TMC3     O 6357   2.896   2.031  17.625 -0.2886 -0.3072  0.7150
  426TMC3     H 6358   2.932   1.828  17.517 -0.4895  1.0193 -0.7979
  426TMC3    H1 6359   3.286   2.046  17.614 -2.4025  0.3482  2.3512
  426TMC3    H2 6360   3.317   1.658  17.435  1.9297  1.3276 -0.9330
  426TMC3    C7 6361   3.453   1.867  17.542  0.7831  0.3244 -0.8400
  426TMC3    C8 6362   3.056   1.636  17.377  1.1122  0.7518 -0.4865
  426TMC3    O1 6363   3.522   1.789  17.481 -0.1240  0.7410 -0.1540
  426TMC3    O2 6364   3.129   1.593  17.288 -0.2560  0.0069  0.3347
  427MPD2     C 6365   1.499   4.026  14.350 -0.0438 -0.3113 -0.4694
  427MPD2    C1 6366   1.509   3.980  14.482  0.0221 -0.8533 -0.4238
  427MPD2    C2 6367   1.392   3.967  14.552  0.0903  1.1866  0.3973
  427MPD2    C3 6368   1.270   4.009  14.502 -0.0238  0.0907 -0.2236
  427MPD2    C4 6369   1.264   4.056  14.379 -0.6886  0.5289  0.4210
  427MPD2    C5 6370   1.377   4.067  14.304  0.2851  0.6725 -0.4220
  427MPD2     H 6371   1.397   3.927  14.653 -1.2389  1.9280  0.7535
  427MPD2    H1 6372   1.172   4.096  14.337  0.3239  1.9734 -0.3999
  427MPD2    H2 6373   1.588   4.035  14.289  0.4383  0.7175  0.3919
  427MPD2    H3 6374   1.386   4.121  14.211 -0.1046  1.0952 -0.2113
  427MPD2     N 6375   1.148   4.002  14.573  0.2057  0.0645 -0.3785
  427MPD2    H5 6376   1.065   4.037  14.526 -0.0341 -1.0773 -0.8126
  427MPD2    N1 6377   1.636   3.950  14.539 -0.7905  0.2494 -0.1224
  427MPD2    H7 6378   1.716   3.983  14.486  0.7131 -2.6154  0.3711
  428TMC3    C1 6379   1.784   3.896  14.711 -0.3488 -0.4322  0.5786
  428TMC3    C2 6380   1.808   3.804  14.814 -0.3435 -0.0467 -0.1307
  428TMC3    C3 6381   1.907   3.835  14.901  0.4723  0.3262  0.5358
  428TMC3    C4 6382   1.860   4.012  14.697  0.4174 -0.3443 -0.1005
  428TMC3    C5 6383   1.961   4.030  14.790 -0.0560  0.2293 -0.5209
  428TMC3    C6 6384   1.983   3.948  14.901  0.4488 -0.4355  0.0471
  428TMC3     C 6385   1.652   3.895  14.659  0.2580  0.1569  0.0439
  428TMC3     O 6386   1.566   3.834  14.724 -0.3307  0.0150  0.6265
  428TMC3     H 6387   1.741   3.722  14.837 -0.5678 -0.1987 -1.3093
  428TMC3    H1 6388   1.832   4.084  14.621 -1.0118 -0.7229  0.0735
  428TMC3    H2 6389   2.075   3.960  14.958  0.6410 -1.5460 -0.0271
  428TMC3    C7 6390   2.025   4.158  14.811  0.2527 -0.1322  0.3375
  428TMC3    C8 6391   1.962   3.717  14.965 -0.7003  0.7345 -0.1974
  428TMC3    O1 6392   2.044   4.195  14.925  0.1358 -0.1270  0.2680
  428TMC3    O2 6393   1.894   3.615  14.947  0.3074 -0.4019 -0.2190
  429MPD2     C 6394   2.741   0.005  17.644  0.6327  0.2136  0.4704
  429MPD2    C1 6395   2.819   4.632  17.572 -0.2059  0.4321  0.2513
  429MPD2    C2 6396   2.884   4.684  17.460  0.2878  0.7086  0.5117
  429MPD2    C3 6397   2.884   0.101  17.435  0.6610 -0.5125  0.0946
  429MPD2    C4 6398   2.804   0.189  17.509 -1.3221 -0.7958 -0.3631
  429MPD2    C5 6399   2.725   0.134  17.610  0.2395 -0.1272 -0.4490
  429MPD2     H 6400   2.936   4.608  17.404  2.4807  2.4235  0.2025
  429MPD2    H1 6401   2.796   0.296  17.494  2.5926 -0.7718 -2.3493
  429MPD2    H2 6402   2.678   4.696   0.039  2.9277 -1.6338  1.5469
  429MPD2    H3 6403   2.672   0.195  17.683  0.0811 -1.3455  0.4669
  429MPD2     N 6404   2.949   0.140  17.306  0.0454 -0.8091  0.5716
  429MPD2    H5 6405   3.006   0.069  17.261  0.1103 -0.6831  0.4506
  429MPD2    N1 6406   2.827   4.497  17.601  0.0193 -0.0699 -0.0474
  429MPD2    H7 6407   2.890   4.441  17.545 -0.5674  0.8545 -1.6261
  430TMC3    C1 6408   3.034   0.272  17.133 -0.0685 -0.0332 -0.1811
  430TMC3    C2 6409   2.996   0.355  17.027  0.2102  0.4872  0.1104
  430TMC3    C3 6410   3.080   0.356  16.914 -0.1657  0.1787  0.0238
  430TMC3    C4 6411   3.148   0.193  17.129  0.1668 -0.2167  0.3117
  430TMC3    C5 6412   3.209   0.190  17.010 -0.3242  0.0652  0.7255
  430TMC3    C6 6413   3.193   0.278  16.908 -0.2198 -0.0014 -0.2710
  430TMC3     C 6414   2.938   0.261  17.240  0.5089 -1.2390  0.3420
  430TMC3     O 6415   2.867   0.354  17.261 -0.8610 -0.3568  0.6755
  430TMC3     H 6416   2.902   0.409  17.032 -1.4207 -2.3992  0.8280
  430TMC3    H1 6417   3.178   0.130  17.213  2.1527 -1.4268 -1.2883
  430TMC3    H2 6418   3.268   0.286  16.831  0.3341  0.8949  0.3676
  430TMC3    C7 6419   3.265   0.053  16.976 -0.0083  0.2068 -0.5626
  430TMC3    C8 6420   3.042   0.428  16.793  0.1603  0.0237  0.1002
  430TMC3    O1 6421   3.272   4.693  17.066  0.0547  0.1905 -0.4623
  430TMC3    O2 6422   3.121   0.421  16.703 -0.0344  0.2631  0.0699
  431MPD2     C 6423   3.565   0.234  12.294 -0.3251 -0.1087  0.5585
  431MPD2    C1 6424   3.698   0.248  12.251 -0.1482 -0.1370 -0.6936
  431MPD2    C2 6425   3.750   0.161  12.153  0.7606 -0.1605 -0.4155
  431MPD2    C3 6426   3.673   0.050  12.124 -0.7257 -0.5604 -0.8233
  431MPD2    C4 6427   3.558   0.024  12.183  0.6297 -1.2141  0.1677
  431MPD2    C5 6428   3.494   0.114  12.266  0.0508  0.4979  0.1389
  431MPD2     H 6429   3.850   0.174  12.112  0.2323  0.7274 -1.4286
  431MPD2    H1 6430   3.505   4.652  12.171 -1.0489  0.0208 -2.1502
  431MPD2    H2 6431   3.521   0.301  12.367 -1.1428 -1.3408  1.1899
  431MPD2    H3 6432   3.402   0.092  12.318 -1.3162  2.8479 -1.2418
  431MPD2     N 6433   3.714   4.685  12.021 -0.0924 -0.1892  0.1701
  431MPD2    H5 6434   3.680   4.589  12.020 -1.0876  0.1622  0.6089
  431MPD2    N1 6435   3.789   0.339  12.296  0.1147  0.7895 -0.7990
  431MPD2    H7 6436   3.886   0.325  12.269  0.4703  0.5564  0.6020
  432TMC3    C1 6437   3.830   4.624  11.831  0.0740 -0.0964 -0.2577
  432TMC3    C2 6438   3.913   4.660  11.734  0.1926 -0.1816 -0.3942
  432TMC3    C3 6439   3.958   4.562  11.649 -0.4144  0.7471  0.5237
  432TMC3    C4 6440   3.795   4.491  11.855 -0.5705 -0.3583  0.2305
  432TMC3    C5 6441   3.845   4.394  11.772  0.1097  0.6771 -0.0686
  432TMC3    C6 6442   3.920   4.427  11.666 -0.6612  0.4897  0.3290
  432TMC3     C 6443   3.797   0.012  11.919 -0.1289  0.2929 -0.1668
  432TMC3     O 6444   3.849   0.120  11.890  0.1181  0.2470 -0.3830
  432TMC3     H 6445   3.941   0.040  11.706 -1.9425  0.1974 -1.2133
  432TMC3    H1 6446   3.715   4.458  11.921 -1.0224 -1.3078 -0.8039
  432TMC3    H2 6447   3.956   4.353  11.595 -0.0424  0.7319  0.3886
  432TMC3    C7 6448   3.858   4.254  11.823  0.6740  0.0754 -0.5388
  432TMC3    C8 6449   4.077   4.607  11.574 -0.8824 -0.6185  1.4517
  432TMC3    O1 6450   3.940   4.183  11.768 -0.8857  0.4029  0.0418
  432TMC3    O2 6451   4.089   4.583  11.453 -0.1363 -0.1706 -1.3374
  433MPD2     C 6452   2.484   3.226  11.022 -0.4555  0.1366 -0.1160
  433MPD2    C1 6453   2.469   3.099  11.080  0.0162  0.0538  0.1267
  433MPD2    C2 6454   2.505   3.086  11.218 -0.6171  0.0006  0.7522
  433MPD2    C3 6455   2.565   3.193  11.286 -0.2899  0.4247 -0.1169
  433MPD2    C4 6456   2.572   3.310  11.220  0.6179 -0.1958 -0.1754
  433MPD2    C5 6457   2.542   3.330  11.089 -0.8946 -0.5739 -0.0803
  433MPD2     H 6458   2.505   2.990  11.269  3.2163  0.8571  2.3232
  433MPD2    H1 6459   2.629   3.393  11.262  2.0854 -0.3946 -1.7810
  433MPD2    H2 6460   2.467   3.239  10.916 -1.5387 -0.6054 -0.0370
  433MPD2    H3 6461   2.563   3.424  11.038  0.8179 -0.3697  0.9938
  433MPD2     N 6462   2.621   3.169  11.412  0.2097 -0.4371 -0.0020
  433MPD2    H5 6463   2.609   3.076  11.450 -1.1115  0.2316  1.2477
  433MPD2    N1 6464   2.435   2.996  10.986 -0.4325 -0.4365 -0.2064
  433MPD2    H7 6465   2.420   3.032  10.892 -0.1368  0.2281  0.0053
  434TMC3    C1 6466   2.458   2.787  10.891 -0.0243 -0.8100  0.1797
  434TMC3    C2 6467   2.551   2.691  10.904  0.6074 -0.0746 -0.1958
  434TMC3    C3 6468   2.647   2.679  10.810 -0.1572  1.6458 -0.1859
  434TMC3    C4 6469   2.453   2.862  10.775  0.6293  0.0720 -1.0007
  434TMC3    C5 6470   2.544   2.832  10.679 -0.3039 -0.4047 -0.0081
  434TMC3    C6 6471   2.650   2.752  10.698  0.6961  0.4879 -0.0791
  434TMC3     C 6472   2.444   2.862  11.010 -0.0787  0.0199  0.2379
  434TMC3     O 6473   2.461   2.799  11.116 -0.6146 -0.0630  0.0977
  434TMC3     H 6474   2.550   2.630  10.993 -0.9662 -0.5012 -0.5119
  434TMC3    H1 6475   2.371   2.931  10.755  1.3241  1.0622 -0.4250
  434TMC3    H2 6476   2.719   2.729  10.617 -0.5541  2.5772 -1.7553
  434TMC3    C7 6477   2.528   2.891  10.543  0.0188  0.9457 -0.0437
  434TMC3    C8 6478   2.763   2.616  10.857 -0.2727  0.6031  0.0281
  434TMC3    O1 6479   2.616   2.969  10.505 -0.1540 -0.5588  0.5598
  434TMC3    O2 6480   2.743   2.529  10.942  0.4719  0.2802  0.1750
  435MPD2     C 6481   4.556   3.079  15.512  0.8064  0.3286 -0.3123
  435MPD2    C1 6482   4.509   2.997  15.618  0.3627  0.2447 -0.2511
  435MPD2    C2 6483   4.601   2.915  15.680  0.9502 -0.1722  0.4923
  435MPD2    C3 6484   0.015   2.905  15.647  0.4479 -0.3751  0.2772
  435MPD2    C4 6485   0.062   2.979  15.542  0.4612  0.2756 -0.0486
  435MPD2    C5 6486   4.692   3.063  15.480 -0.2379 -0.2559 -0.9244
  435MPD2     H 6487   4.564   2.860  15.765 -0.4202  0.0604  0.0518
  435MPD2    H1 6488   0.164   2.976  15.506  1.1012  0.4228  1.7303
  435MPD2    H2 6489   4.510   3.167  15.470  0.9438  0.7997  0.5271
  435MPD2    H3 6490   0.004   3.116  15.391 -0.1454  2.5626  0.7636
  435MPD2     N 6491   0.101   2.813  15.712  0.3795  0.1852 -0.1580
  435MPD2    H5 6492   0.068   2.776  15.800  1.8591 -1.1895 -0.1792
  435MPD2    N1 6493   4.382   3.007  15.673 -0.0748  0.8571 -0.5188
  435MPD2    H7 6494   4.360   2.948  15.753  2.5869  0.1881 -0.2939
  436TMC3    C1 6495   4.009   3.033  15.877  0.8228 -0.0032 -0.3618
  436TMC3    C2 6496   4.130   3.025  15.817  0.7248 -0.0645 -0.4108
  436TMC3    C3 6497   4.151   3.089  15.699  0.0699 -0.2127 -0.2747
  436TMC3    C4 6498   3.909   3.111  15.831 -0.3101  0.3216  1.0043
  436TMC3    C5 6499   3.928   3.172  15.711  0.4270 -0.2725  0.0212
  436TMC3    C6 6500   4.049   3.159  15.642  0.6243 -0.1341  0.5343
  436TMC3     C 6501   4.004   2.993  16.008 -0.4235 -0.0233  0.2746
  436TMC3     O 6502   4.078   2.897  16.042  0.3168  0.7046 -0.3027
  436TMC3     H 6503   4.210   2.962  15.853  1.6062  2.0142  1.2554
  436TMC3    H1 6504   3.811   3.106  15.876 -0.3663 -1.9579  0.6437
  436TMC3    H2 6505   4.056   3.207  15.545  1.1852 -1.0849  0.0950
  436TMC3    C7 6506   3.816   3.233  15.642  0.9014 -0.6429 -0.1831
  436TMC3    C8 6507   4.282   3.096  15.634 -0.6788 -0.2365 -0.3429
  436TMC3    O1 6508   3.815   3.235  15.520 -0.5337  0.1612  0.3683
  436TMC3    O2 6509   4.295   3.175  15.542 -0.0763  0.0611 -0.2645
  437TMC3    C1 6510   2.915   0.472  13.016 -0.2167 -0.1342  0.1712
  437TMC3    C2 6511   2.818   0.526  13.101 -0.1764  0.3476 -0.4203
  437TMC3    C3 6512   2.780   0.651  13.065  0.5828 -0.2662  0.6731
  437TMC3    C4 6513   2.952   0.536  12.900 -0.7471  0.3655 -0.2779
  437TMC3    C5 6514   2.883   0.647  12.860  0.7442  0.4885 -0.5371
  437TMC3    C6 6515   2.791   0.709  12.939  0.6349 -0.0411 -0.3763
  437TMC3     C 6516   2.967   0.340  13.034  0.0575  0.1708 -0.0550
  437TMC3     O 6517   3.072   0.314  12.979  0.6033  0.0277 -0.3122
  437TMC3     H 6518   2.784   0.486  13.196 -0.4336  0.7052 -0.3646
  437TMC3    H1 6519   3.020   0.487  12.832  1.3194  0.5928  1.6565
  437TMC3    H2 6520   2.741   0.798  12.903 -1.1321  0.4088  3.1882
  437TMC3    C7 6521   2.935   0.728  12.750  0.2834 -0.6077  0.3011
  437TMC3    C8 6522   2.672   0.715  13.140 -0.3758 -0.5873 -0.2843
  437TMC3    O1 6523   2.860   0.801  12.695 -0.0239  1.0120  0.2594
  437TMC3    O2 6524   2.657   0.835  13.111  0.0538  0.5874  0.4617
  438MPD2     C 6525   0.776   1.061  16.892 -0.4677 -0.1616  0.1174
  438MPD2    C1 6526   0.823   1.030  17.016 -0.1544 -0.3090 -0.3135
  438MPD2    C2 6527   0.760   1.068  17.136 -0.4591 -0.1201  0.6064
  438MPD2    C3 6528   0.643   1.143  17.132  0.6957 -0.5424  0.3273
  438MPD2    C4 6529   0.596   1.174  17.002 -0.3453  0.5223  0.3349
  438MPD2    C5 6530   0.668   1.140  16.888 -0.0321 -0.0205 -0.2411
  438MPD2     H 6531   0.809   1.035  17.227  0.6790 -1.3317 -0.4481
  438MPD2    H1 6532   0.516   1.239  16.971  0.6169  1.1097 -0.9457
  438MPD2    H2 6533   0.815   1.032  16.795  0.4027  1.5456 -0.0426
  438MPD2    H3 6534   0.631   1.158  16.788  2.7280 -0.2291 -1.2965
  438MPD2     N 6535   0.575   1.177  17.244 -0.6633  0.7093 -0.1045
  438MPD2    H5 6536   0.489   1.230  17.234  0.3316  2.1368 -1.0292
  438MPD2    N1 6537   0.939   0.946  17.022 -1.0322  1.0777 -0.4593
  438MPD2    H7 6538   0.961   0.903  17.112  0.3553  0.8424 -0.9184
  439TMC3    C1 6539   1.136   0.823  16.963  0.3352  0.3768 -0.8056
  439TMC3    C2 6540   1.214   0.769  16.860  0.8242 -0.1491 -0.7925
  439TMC3    C3 6541   1.325   0.691  16.895  0.7268  0.0078  0.0620
  439TMC3    C4 6542   1.152   0.789  17.089  0.3519 -0.5320 -0.8723
  439TMC3    C5 6543   1.254   0.699  17.112  0.5817 -0.5072 -0.0148
  439TMC3    C6 6544   1.342   0.648  17.021 -0.1042  0.2340  0.0314
  439TMC3     C 6545   1.024   0.914  16.924  0.4614 -0.3503  0.7431
  439TMC3     O 6546   1.022   0.951  16.805  0.0796 -0.2605 -0.5012
  439TMC3     H 6547   1.198   0.798  16.757  1.5523  0.0324 -0.8561
  439TMC3    H1 6548   1.102   0.846  17.167 -0.8794 -0.2440 -1.8798
  439TMC3    H2 6549   1.419   0.575  17.043 -0.3021  0.2738  0.8440
  439TMC3    C7 6550   1.290   0.675  17.246 -0.5353  0.6309 -0.0929
  439TMC3    C8 6551   1.398   0.613  16.795  0.0954 -0.2403  0.1150
  439TMC3    O1 6552   1.399   0.625  17.268 -0.1963 -0.5379 -0.6373
  439TMC3    O2 6553   1.514   0.575  16.815 -0.4652  0.2678 -0.2054
  440MPD2     C 6554   4.246   1.472  14.976  0.6262 -0.2643 -0.2875
  440MPD2    C1 6555   4.303   1.521  15.098 -0.2487 -0.5807 -0.9186
  440MPD2    C2 6556   4.416   1.458  15.149 -0.6582  0.7017  0.4639
  440MPD2    C3 6557   4.484   1.366  15.072 -1.2686 -0.3573  0.1249
  440MPD2    C4 6558   4.428   1.324  14.961  0.8096  0.1113  0.1241
  440MPD2    C5 6559   4.307   1.365  14.916  0.6013 -0.2069 -0.5854
  440MPD2     H 6560   4.456   1.487  15.246  0.8327  2.5954 -0.7163
  440MPD2    H1 6561   4.481   1.246  14.907  0.2748 -0.8294  0.9407
  440MPD2    H2 6562   4.152   1.509  14.939 -0.3581 -2.5247 -0.0367
  440MPD2    H3 6563   4.276   1.324  14.820  0.8374  0.7103 -1.0608
  440MPD2     N 6564   4.602   1.307  15.126 -0.4310  0.2379 -0.0093
  440MPD2    H5 6565   4.634   1.330  15.220 -0.4468 -0.0269  0.0605
  440MPD2    N1 6566   4.241   1.628  15.171 -0.0385  0.1879  0.0854
  440MPD2    H7 6567   4.287   1.647  15.259 -0.3709  1.2283  0.0354
  441TMC3    C1 6568   0.044   1.147  15.171  0.0681 -0.9144 -0.1517
  441TMC3    C2 6569   0.141   1.236  15.218 -0.0056  0.1917  0.2758
  441TMC3    C3 6570   0.228   1.193  15.319  0.4062  0.4726 -0.2324
  441TMC3    C4 6571   0.049   1.013  15.217  0.0748 -0.1216  0.3535
  441TMC3    C5 6572   0.125   0.988  15.330  0.3970  0.0407 -0.0938
  441TMC3    C6 6573   0.227   1.068  15.377 -0.1628 -0.3097  0.1655
  441TMC3     C 6574   4.657   1.186  15.084 -0.0334  0.4972 -0.0193
  441TMC3     O 6575   4.603   1.091  15.022 -0.6469  0.1651 -0.2273
  441TMC3     H 6576   0.150   1.337  15.177 -0.0865  1.0130  2.3017
  441TMC3    H1 6577   4.678   0.957  15.212  0.8162 -1.7873  4.8954
  441TMC3    H2 6578   0.282   1.040  15.466 -1.1718 -2.3179  0.1525
  441TMC3    C7 6579   0.048   0.916  15.428 -0.2641 -0.5661 -0.3436
  441TMC3    C8 6580   0.291   1.293  15.389 -0.2020  0.2108  0.3387
  441TMC3    O1 6581   4.645   0.918  15.422 -0.4545 -0.1760 -0.2968
  441TMC3    O2 6582   0.402   1.274  15.437  0.7857  0.3572  0.6542
  442MPD2     C 6583   2.808   1.968  16.820 -0.2420 -1.0819 -0.3656
  442MPD2    C1 6584   2.686   1.917  16.852 -0.0249  0.0604  0.5001
  442MPD2    C2 6585   2.637   1.798  16.806  0.3483 -0.6884  0.1763
  442MPD2    C3 6586   2.721   1.713  16.740 -0.0609 -0.7552 -0.6848
  442MPD2    C4 6587   2.842   1.761  16.695  0.1058  0.0240  0.3384
  442MPD2    C5 6588   2.885   1.887  16.738  0.5037  0.5195  0.0825
  442MPD2     H 6589   2.533   1.776  16.830  0.4160  1.1019  2.0763
  442MPD2    H1 6590   2.917   1.710  16.636  0.0038  0.9246 -0.5818
  442MPD2    H2 6591   2.840   2.062  16.864  1.4409 -1.0354 -1.6982
  442MPD2    H3 6592   2.988   1.915  16.716 -0.1250  1.6197 -1.4678
  442MPD2     N 6593   2.682   1.582  16.705  0.0552 -0.3911 -0.2224
  442MPD2    H5 6594   2.754   1.519  16.670  1.3945  0.7341  0.5292
  442MPD2    N1 6595   2.594   2.001  16.927  1.1664 -0.4948  0.1222
  442MPD2    H7 6596   2.497   1.973  16.937  1.5359 -1.2031  1.7809
  443TMC3    C1 6597   2.508   2.147  17.078 -0.6218  0.4438  0.5621
  443TMC3    C2 6598   2.449   2.266  17.059 -0.1007 -0.8558  0.5787
  443TMC3    C3 6599   2.324   2.279  17.111  0.5114  0.3710  0.4532
  443TMC3    C4 6600   2.444   2.045  17.134 -0.1476  0.2679 -0.4056
  443TMC3    C5 6601   2.325   2.064  17.197  0.2249 -0.2211 -0.1541
  443TMC3    C6 6602   2.259   2.181  17.184  0.0163  0.2613  0.3340
  443TMC3     C 6603   2.618   2.122  16.991  0.2219 -0.4544 -0.7792
  443TMC3     O 6604   2.710   2.205  16.985 -0.0436 -0.0807  0.1689
  443TMC3     H 6605   2.501   2.345  17.007 -0.2387 -1.3117 -0.2621
  443TMC3    H1 6606   2.499   1.955  17.158  0.9852  0.1624 -3.3325
  443TMC3    H2 6607   2.169   2.200  17.242  0.9414 -0.1201  1.8940
  443TMC3    C7 6608   2.270   1.954  17.274  0.0591  0.5761  0.1660
  443TMC3    C8 6609   2.259   2.411  17.106 -0.5981  0.1564 -0.1970
  443TMC3    O1 6610   2.295   1.839  17.249 -0.1148  0.2797  0.2187
  443TMC3    O2 6611   2.176   2.425  17.192  0.2284  0.2417 -0.1934
  444MPD2     C 6612   2.809   1.364  17.656 -0.0577  0.2460 -0.0139
  444MPD2    C1 6613   2.708   1.296  17.590 -0.5842 -0.8967  0.3784
  444MPD2    C2 6614   2.740   1.209  17.492 -0.0436 -0.5376 -0.1952
  444MPD2    C3 6615   2.868   1.174  17.461 -0.0173  0.6428 -0.2743
  444MPD2    C4 6616   2.972   1.231  17.535  0.5244  0.0594 -0.1742
  444MPD2    C5 6617   2.939   1.330  17.626 -0.4548 -0.4042 -0.1381
  444MPD2     H 6618   2.653   1.174  17.437 -0.6612  0.7776 -0.0550
  444MPD2    H1 6619   3.080   1.227  17.523  0.3727 -1.3459 -1.0414
  444MPD2    H2 6620   2.801   1.437   0.048  0.6496  0.5294 -0.2045
  444MPD2    H3 6621   3.017   1.389  17.673  1.0541 -1.3394 -1.4941
  444MPD2     N 6622   2.883   1.080  17.352 -0.1554 -0.2117 -0.0469
  444MPD2    H5 6623   2.800   1.041  17.310 -1.6888  2.8867  0.1583
  444MPD2    N1 6624   2.570   1.330  17.607 -0.0289  0.4910  0.0047
  444MPD2    H7 6625   2.496   1.275  17.566 -1.9132  3.9114 -1.2269
  445TMC3    C1 6626   2.987   0.936  17.195 -0.2729  0.3284 -0.6299
  445TMC3    C2 6627   2.877   0.851  17.183  0.1659 -0.1136 -0.3899
  445TMC3    C3 6628   2.864   0.777  17.072  0.0128  0.2798  0.2809
  445TMC3    C4 6629   3.093   0.928  17.108 -0.3284  0.0073 -0.1278
  445TMC3    C5 6630   3.079   0.836  17.006 -0.0767  0.6749 -1.6103
  445TMC3    C6 6631   2.966   0.762  16.976 -0.3295 -0.3854  0.1835
  445TMC3     C 6632   3.000   1.032  17.300 -0.0452  0.1551 -0.2619
  445TMC3     O 6633   3.112   1.064  17.336  0.8112 -0.4218  0.3164
  445TMC3     H 6634   2.805   0.848  17.264 -1.1308  0.3235 -1.5231
  445TMC3    H1 6635   3.184   0.984  17.121 -2.1722  2.9466  0.1149
  445TMC3    H2 6636   2.961   0.693  16.892  1.7380 -1.3711  0.8447
  445TMC3    C7 6637   3.199   0.796  16.928  0.3091  0.0939  0.6413
  445TMC3    C8 6638   2.749   0.700  17.044  0.3991  0.1903 -0.0941
  445TMC3    O1 6639   3.177   0.731  16.829  0.1547 -0.2878  0.4818
  445TMC3    O2 6640   2.768   0.602  16.968  0.1700 -0.5448 -0.0855
  446MPD2     C 6641   2.459   2.250  11.316  0.9319 -0.1439  0.0038
  446MPD2    C1 6642   2.396   2.355  11.251  0.3967  0.3846  0.0391
  446MPD2    C2 6643   2.471   2.464  11.214 -0.1471  0.1375 -1.1900
  446MPD2    C3 6644   2.602   2.479  11.260  0.6889 -0.4154 -0.3064
  446MPD2    C4 6645   2.655   2.382  11.342  0.1319  0.0215  0.0572
  446MPD2    C5 6646   2.586   2.265  11.356  0.1966  0.1159 -0.0200
  446MPD2     H 6647   2.412   2.538  11.162  1.0663  0.4050 -2.1766
  446MPD2    H1 6648   2.757   2.382  11.378  0.5191 -4.4705 -1.0522
  446MPD2    H2 6649   2.408   2.156  11.335  1.8012 -0.4636  0.8076
  446MPD2    H3 6650   2.630   2.174  11.397  1.7486  0.3797 -1.1305
  446MPD2     N 6651   2.681   2.598  11.238 -0.8533  0.3936  0.5602
  446MPD2    H5 6652   2.635   2.676  11.192 -1.2900 -0.4597 -0.4276
  446MPD2    N1 6653   2.256   2.353  11.219  0.0197 -0.2265  0.3819
  446MPD2    H7 6654   2.219   2.426  11.159  1.9210 -2.1316 -3.1202
  447TMC3    C1 6655   2.856   2.763  11.266  1.1412  0.1183 -1.1517
  447TMC3    C2 6656   2.810   2.829  11.157  0.3677  0.6124 -0.3991
  447TMC3    C3 6657   2.889   2.929  11.111 -0.1221 -0.4970 -0.1698
  447TMC3    C4 6658   2.973   2.800  11.321  0.0281 -0.3837 -0.2778
  447TMC3    C5 6659   3.040   2.914  11.283 -0.0142 -0.3333  0.6906
  447TMC3    C6 6660   3.001   2.977  11.172 -0.1429  0.5002  0.2990
  447TMC3     C 6661   2.816   2.620  11.278 -0.5385 -0.3182  0.2554
  447TMC3     O 6662   2.908   2.549  11.318 -0.0955  0.2109 -0.6661
  447TMC3     H 6663   2.726   2.786  11.104  1.2484 -0.9444 -0.5362
  447TMC3    H1 6664   3.020   2.741  11.398  1.5125  0.1449 -0.7792
  447TMC3    H2 6665   3.055   3.062  11.132 -1.5883  0.3427 -1.9860
  447TMC3    C7 6666   3.174   2.920  11.332 -0.0591 -0.0410  0.6745
  447TMC3    C8 6667   2.859   2.971  10.967 -0.4383 -0.5332  0.9221
  447TMC3    O1 6668   3.273   2.934  11.262  0.6867  0.0186 -0.0859
  447TMC3    O2 6669   2.746   2.956  10.918 -0.1848 -0.5522 -0.7979
  448TMC3    C1 6670   1.082   2.331  16.778  0.1322 -0.2961 -0.0065
  448TMC3    C2 6671   1.009   2.225  16.741 -0.3257 -0.0159  0.4387
  448TMC3    C3 6672   0.956   2.143  16.842 -0.0286  0.1955 -0.8524
  448TMC3    C4 6673   1.115   2.361  16.911  0.2903  0.2740  0.3031
  448TMC3    C5 6674   1.070   2.265  17.002 -0.3730 -0.3653 -0.3770
  448TMC3    C6 6675   0.999   2.155  16.972  0.6006 -0.2204 -0.8405
  448TMC3     C 6676   1.157   2.404  16.671 -0.3267 -0.1246  0.7516
  448TMC3     O 6677   1.103   2.389  16.559 -0.0603 -0.8389 -0.0984
  448TMC3     H 6678   0.984   2.208  16.637  2.0595  1.3382 -0.3602
  448TMC3    H1 6679   1.173   2.445  16.949  0.1152  0.5281  0.0059
  448TMC3    H2 6680   0.973   2.076  17.042 -1.8175  0.2829 -1.1426
  448TMC3    C7 6681   1.107   2.283  17.138 -0.7411 -0.1161 -0.4155
  448TMC3    C8 6682   0.908   2.015  16.796  0.2197  0.4436 -0.6254
  448TMC3    O1 6683   1.203   2.365  17.157 -0.3276  0.2053  0.5892
  448TMC3    O2 6684   0.920   1.921  16.876 -0.2927  0.1655  0.3215
  449MPD2     C 6685   1.907   1.259  14.145  0.3196  0.1768 -0.7234
  449MPD2    C1 6686   1.877   1.231  14.018 -0.1194 -0.3430  0.0679
  449MPD2    C2 6687   1.791   1.126  13.985  0.4477 -0.8490 -1.3673
  449MPD2    C3 6688   1.750   1.034  14.083 -0.4676  0.2588 -0.6759
  449MPD2    C4 6689   1.785   1.063  14.213  0.7735  0.3408 -0.2568
  449MPD2    C5 6690   1.863   1.173  14.242 -0.0554  0.3262 -0.4630
  449MPD2     H 6691   1.771   1.114  13.879 -1.1489 -1.0382 -1.0317
  449MPD2    H1 6692   1.754   1.007  14.301  1.6225 -0.7270 -0.6324
  449MPD2    H2 6693   1.967   1.343  14.177 -1.7348  1.8350 -1.3040
  449MPD2    H3 6694   1.896   1.179  14.345  1.4480  1.7986 -1.0251
  449MPD2     N 6695   1.667   0.929  14.037  0.2726 -0.1546 -0.0673
  449MPD2    H5 6696   1.658   0.924  13.936  1.7570  0.9292 -0.2568
  449MPD2    N1 6697   1.918   1.312  13.913 -1.1357 -0.6165  0.4957
  449MPD2    H7 6698   1.893   1.278  13.820 -1.6781  0.3113  0.3091
  450TMC3    C1 6699   2.064   1.446  13.785 -0.3068 -0.1086  0.7173
  450TMC3    C2 6700   2.197   1.457  13.782 -0.5323 -0.7600  0.3015
  450TMC3    C3 6701   2.257   1.371  13.688 -0.4469  0.1313  0.0916
  450TMC3    C4 6702   1.989   1.386  13.691 -0.2901 -0.2180  0.6337
  450TMC3    C5 6703   2.046   1.305  13.598 -0.0988  0.0804  0.0051
  450TMC3    C6 6704   2.185   1.297  13.591  0.2194  0.0191 -0.1989
  450TMC3     C 6705   2.010   1.413  13.921 -0.4697 -0.7869  0.9133
  450TMC3     O 6706   2.069   1.471  14.012 -0.5205  0.1119 -0.1066
  450TMC3     H 6707   2.255   1.514  13.853 -0.9216  1.2438 -0.9908
  450TMC3    H1 6708   1.882   1.404  13.694  0.0278  1.5907  0.6692
  450TMC3    H2 6709   2.231   1.225  13.524  1.5155 -0.3023  1.0237
  450TMC3    C7 6710   1.969   1.178  13.584 -0.0251  0.1488 -0.5226
  450TMC3    C8 6711   2.387   1.418  13.641  0.5375  0.4069  0.2724
  450TMC3    O1 6712   1.869   1.162  13.656  0.0222  0.1838  0.0406
  450TMC3    O2 6713   2.453   1.476  13.726 -0.2526  0.3790 -0.0368
  451MPD2     C 6714   3.907   4.203   1.800  0.5294 -0.4950  0.0253
  451MPD2    C1 6715   3.868   4.181   1.664 -0.2537  0.9189  0.0796
  451MPD2    C2 6716   3.954   4.106   1.589 -0.1385 -0.8005 -0.3839
  451MPD2    C3 6717   4.076   4.059   1.629 -0.0924  0.1632  0.2661
  451MPD2    C4 6718   4.118   4.095   1.753 -0.1774 -0.1682  0.3556
  451MPD2    C5 6719   4.029   4.159   1.835  0.3956 -0.3944 -0.2758
  451MPD2     H 6720   3.922   4.072   1.491 -2.1273  2.1570 -0.7397
  451MPD2    H1 6721   4.214   4.072   1.796 -0.7786 -1.2193  1.1316
  451MPD2    H2 6722   3.843   4.251   1.874  0.2988  1.8432 -1.7025
  451MPD2    H3 6723   4.057   4.179   1.938 -0.4920  0.1124 -0.1304
  451MPD2     N 6724   4.153   3.970   1.560  0.3489 -0.1383  0.7683
  451MPD2    H5 6725   4.213   3.905   1.610  3.2676  2.5716  0.8115
  451MPD2    N1 6726   3.742   4.225   1.616  0.2501  0.1253 -0.3123
  451MPD2    H7 6727   3.690   4.256   1.696  1.9820  2.3374 -0.0450
  452TMC3    C1 6728   4.218   3.834   1.372 -0.2588  0.9222 -0.5916
  452TMC3    C2 6729   4.314   3.777   1.453 -0.0802 -0.1236  0.0807
  452TMC3    C3 6730   4.356   3.660   1.407  0.8342  0.8299 -0.3714
  452TMC3    C4 6731   4.163   3.766   1.273 -0.6933 -0.1890 -0.8112
  452TMC3    C5 6732   4.202   3.639   1.239 -0.2652  0.3265 -0.2682
  452TMC3    C6 6733   4.301   3.576   1.312 -0.3179 -0.5096  0.3363
  452TMC3     C 6734   4.141   3.943   1.424  0.0298  0.5544 -0.5303
  452TMC3     O 6735   4.080   4.007   1.339  0.3188  0.0724  0.1527
  452TMC3     H 6736   4.370   3.828   1.530  1.7823  0.3379 -1.5597
  452TMC3    H1 6737   4.079   3.813   1.223  0.8448  3.1423 -0.2169
  452TMC3    H2 6738   4.319   3.470   1.294 -1.3130 -0.7620  0.7591
  452TMC3    C7 6739   4.184   3.605   1.093  0.2833  0.0049 -0.2227
  452TMC3    C8 6740   4.447   3.596   1.494  0.0197  0.4231 -0.0839
  452TMC3    O1 6741   4.161   3.695   1.016  0.7897 -0.5662  0.0510
  452TMC3    O2 6742   4.445   3.625   1.615 -0.1068  0.1117  0.2157
  453TMC3    C1 6743   0.158   1.775  11.770 -0.0600 -0.1235  0.8697
  453TMC3    C2 6744   0.046   1.734  11.833  0.1505  0.0772  0.4281
  453TMC3    C3 6745   4.645   1.777  11.784 -0.4508  0.1075 -0.2939
  453TMC3    C4 6746   0.152   1.846  11.659 -0.0011  0.0031  0.3857
  453TMC3    C5 6747   0.033   1.891  11.612 -0.0930 -0.4456 -0.3794
  453TMC3    C6 6748   4.634   1.857  11.676 -0.1030 -0.4065  0.3665
  453TMC3     C 6749   0.290   1.788  11.842 -0.5341 -0.4114 -0.4151
  453TMC3     O 6750   0.365   1.878  11.802  0.6304  0.2922  0.3235
  453TMC3     H 6751   0.052   1.707  11.938  2.7307 -1.0664 -0.0141
  453TMC3    H1 6752   0.247   1.863  11.610  1.1927 -2.2063  1.9164
  453TMC3    H2 6753   4.535   1.890  11.645  1.0004  2.0127 -0.5698
  453TMC3    C7 6754   0.014   1.908  11.473 -0.5772 -0.5093  0.0567
  453TMC3    C8 6755   4.530   1.742  11.856  0.1648  0.3931  0.1677
  453TMC3    O1 6756   4.623   1.924  11.433  0.1341  0.1375 -0.4889
  453TMC3    O2 6757   4.429   1.813  11.838 -0.4345  0.2390  0.1120
  454MPD2     C 6758   3.529   1.300  16.321  0.4755 -0.1332  0.3152
  454MPD2    C1 6759   3.456   1.178  16.311 -0.0295  0.3539 -0.0311
  454MPD2    C2 6760   3.380   1.143  16.412  0.2791  0.1908  0.0643
  454MPD2    C3 6761   3.401   1.194  16.540  0.3855 -0.1619 -0.0939
  454MPD2    C4 6762   3.487   1.298  16.550 -1.2149 -0.4489 -0.1032
  454MPD2    C5 6763   3.556   1.350  16.444  0.2137  0.2494  0.7578
  454MPD2     H 6764   3.310   1.061  16.397  0.3058  0.2957 -0.6619
  454MPD2    H1 6765   3.501   1.335  16.651 -1.5441 -1.9962  0.5141
  454MPD2    H2 6766   3.576   1.350  16.237 -1.1921  1.2062  0.1639
  454MPD2    H3 6767   3.624   1.434  16.445 -0.3057  0.6571  1.5496
  454MPD2     N 6768   3.305   1.169  16.642 -0.0928 -0.7011 -0.1243
  454MPD2    H5 6769   3.293   1.235  16.718 -0.6383 -0.0542 -0.7660
  454MPD2    N1 6770   3.428   1.117  16.186 -1.0232 -0.2612 -0.6051
  454MPD2    H7 6771   3.439   1.168  16.099  1.9000 -0.2253 -0.2224
  455TMC3    C1 6772   3.098   1.075  16.719 -0.7348 -0.1527 -0.2380
  455TMC3    C2 6773   3.090   1.181  16.805 -0.3197 -0.4231  0.1786
  455TMC3    C3 6774   2.970   1.194  16.867  0.4485 -0.0432 -0.2193
  455TMC3    C4 6775   2.993   0.992  16.684 -0.6882  0.6203  0.3775
  455TMC3    C5 6776   2.870   1.028  16.725  0.5948 -0.4970 -0.2111
  455TMC3    C6 6777   2.864   1.121  16.828  0.1332  0.1527  0.1083
  455TMC3     C 6778   3.222   1.056  16.637  0.2559 -0.7100  1.2984
  455TMC3     O 6779   3.228   0.953  16.568 -0.7649  0.0397  0.2349
  455TMC3     H 6780   3.179   1.235  16.836 -1.2441  1.1690  0.0979
  455TMC3    H1 6781   3.014   0.906  16.622  1.9863  1.1615  0.5609
  455TMC3    H2 6782   2.770   1.129  16.882 -0.4101  1.9459 -1.1215
  455TMC3    C7 6783   2.748   0.976  16.656  0.4741  0.0420  0.4982
  455TMC3    C8 6784   2.965   1.284  16.980 -0.7115  0.1882 -0.6034
  455TMC3    O1 6785   2.640   0.978  16.718  0.0735 -0.4240 -0.3819
  455TMC3    O2 6786   3.076   1.323  17.020  0.1175  0.4419 -0.2325
  456MPD2     C 6787   1.218   0.686  16.115 -0.3489  0.1809  0.1615
  456MPD2    C1 6788   1.330   0.720  16.194 -0.4617  0.2690  0.1425
  456MPD2    C2 6789   1.315   0.820  16.289  0.0556 -0.4084 -0.2340
  456MPD2    C3 6790   1.204   0.894  16.303 -0.7138  0.3599  0.6977
  456MPD2    C4 6791   1.098   0.862  16.221 -0.8544  0.2999 -0.5296
  456MPD2    C5 6792   1.107   0.764  16.126 -0.0645  0.0735  0.6460
  456MPD2     H 6793   1.400   0.846  16.351 -0.7480  0.6272  0.4165
  456MPD2    H1 6794   1.003   0.914  16.222 -0.2276  1.4544 -0.0509
  456MPD2    H2 6795   1.227   0.614  16.034  0.4072  0.5094 -0.0527
  456MPD2    H3 6796   1.014   0.747  16.074 -0.0926 -0.0422  0.7345
  456MPD2     N 6797   1.213   1.004  16.398 -0.1518  0.1047 -0.4081
  456MPD2    H5 6798   1.305   1.019  16.440 -1.1967 -0.9062  2.2548
  456MPD2    N1 6799   1.448   0.648  16.179 -0.2258  0.3648  0.1544
  456MPD2    H7 6800   1.449   0.587  16.097 -1.0178  0.9047 -0.2493
  457TMC3    C1 6801   1.131   1.184  16.529 -0.2768 -0.9095 -0.6651
  457TMC3    C2 6802   1.067   1.306  16.526  0.6265  0.1553  0.3269
  457TMC3    C3 6803   1.077   1.391  16.636 -0.0648 -0.5668 -0.5628
  457TMC3    C4 6804   1.202   1.143  16.642  0.4173  0.8402  0.1759
  457TMC3    C5 6805   1.209   1.233  16.749 -0.1870  0.4109  0.3440
  457TMC3    C6 6806   1.138   1.350  16.756  0.8372 -0.0482 -0.4122
  457TMC3     C 6807   1.108   1.090  16.419 -0.3353  0.0349  0.2322
  457TMC3     O 6808   1.006   1.101  16.349 -0.1541  0.0576 -0.0022
  457TMC3     H 6809   1.008   1.323  16.436  1.1178 -0.6863 -0.1549
  457TMC3    H1 6810   1.237   1.042  16.660 -0.3530  0.6151  0.4609
  457TMC3    H2 6811   1.139   1.413  16.844  1.1123  0.4169 -0.7511
  457TMC3    C7 6812   1.285   1.209  16.867  0.2457 -0.3100  0.4549
  457TMC3    C8 6813   1.021   1.524  16.644 -0.4599  0.3900  0.1384
  457TMC3    O1 6814   1.265   1.271  16.970  0.3588  0.1325 -0.2735
  457TMC3    O2 6815   1.047   1.593  16.744  0.3020 -0.5026 -0.3291
  458MPD2     C 6816   3.354   0.843  12.456  0.1377 -0.3388 -0.4475
  458MPD2    C1 6817   3.390   0.799  12.581  0.1670  0.4254  0.0760
  458MPD2    C2 6818   3.297   0.751  12.672 -0.0021  0.0754 -0.2676
  458MPD2    C3 6819   3.161   0.768  12.654  0.0065  0.1340  0.2133
  458MPD2    C4 6820   3.122   0.825  12.535 -0.0009 -0.6786  0.1183
  458MPD2    C5 6821   3.215   0.860  12.439 -0.4209  0.0747  0.2332
  458MPD2     H 6822   3.339   0.713  12.764 -0.4260  0.6355  0.1525
  458MPD2    H1 6823   3.017   0.838  12.514  0.3886  2.1574 -0.0791
  458MPD2    H2 6824   3.418   0.876  12.375  0.5014 -0.8512 -0.3685
  458MPD2    H3 6825   3.184   0.888  12.339  0.6616  1.1243  0.1998
  458MPD2     N 6826   3.072   0.712  12.746  0.1073  0.5126  0.4445
  458MPD2    H5 6827   3.111   0.657  12.822 -1.6895 -2.8924 -1.0988
  458MPD2    N1 6828   3.526   0.795  12.614 -0.6036 -0.0826 -0.2764
  458MPD2    H7 6829   3.590   0.795  12.535 -0.3248  0.8791 -0.0440
  459TMC3    C1 6830   3.729   0.742  12.718 -0.1869 -0.2814 -0.3471
  459TMC3    C2 6831   3.804   0.851  12.701  0.7718  0.3661 -0.0391
  459TMC3    C3 6832   3.909   0.872  12.785 -0.1548  0.1896  0.1066
  459TMC3    C4 6833   3.757   0.653  12.818  0.1218  0.1766  0.5104
  459TMC3    C5 6834   3.868   0.676  12.896 -0.7114 -0.1571 -0.6564
  459TMC3    C6 6835   3.947   0.785  12.882 -0.3700  0.0697 -0.4111
  459TMC3     C 6836   3.585   0.771  12.741 -0.2270 -0.2750  0.1987
  459TMC3     O 6837   3.544   0.768  12.856 -0.1744 -0.4666 -0.2233
  459TMC3     H 6838   3.780   0.917  12.618 -1.2439 -0.8763 -0.4556
  459TMC3    H1 6839   3.687   0.572  12.836  1.1083 -0.5509  1.0874
  459TMC3    H2 6840   4.045   0.795  12.926 -1.1006 -0.6047  1.3805
  459TMC3    C7 6841   3.905   0.574  12.999 -0.1153 -0.4936 -0.1610
  459TMC3    C8 6842   4.021   0.934  12.719 -0.1107 -0.1780  0.1468
  459TMC3    O1 6843   3.856   0.468  12.973 -0.4965  0.0900  0.5137
  459TMC3    O2 6844   4.123   0.866  12.735 -0.3943 -0.1236 -0.2921
  460MPD2     C 6845   3.095   3.136  10.763 -0.3103 -1.2453  0.2010
  460MPD2    C1 6846   2.966   3.096  10.788 -0.2153  0.2878 -0.1254
  460MPD2    C2 6847   2.865   3.104  10.690  0.0680  0.0395  0.3327
  460MPD2    C3 6848   2.885   3.162  10.572  0.1543 -0.0602  0.3102
  460MPD2    C4 6849   3.017   3.204  10.547  0.4143 -0.1181  0.5073
  460MPD2    C5 6850   3.117   3.195  10.636 -0.3793  0.1535  0.3991
  460MPD2     H 6851   2.769   3.059  10.712 -0.1526  0.4908  0.2723
  460MPD2    H1 6852   3.044   3.249  10.452 -1.6315  0.5743  0.2441
  460MPD2    H2 6853   3.179   3.126  10.831 -0.3337  1.0593  0.5560
  460MPD2    H3 6854   3.220   3.217  10.613 -1.2027  1.8764 -1.6669
  460MPD2     N 6855   2.787   3.181  10.478  0.2865  0.1670 -0.1249
  460MPD2    H5 6856   2.707   3.120  10.491  1.4519 -0.0947  5.6918
  460MPD2    N1 6857   2.964   3.032  10.913  0.0425  0.6608 -0.2167
  460MPD2    H7 6858   3.056   3.011  10.950 -1.6822  0.0289  3.6923
  461TMC3    C1 6859   2.688   3.228  10.272 -0.7103 -0.0488  0.5553
  461TMC3    C2 6860   2.676   3.101  10.225  0.5678  0.3465  0.1383
  461TMC3    C3 6861   2.603   3.084  10.115  0.1557  0.6779 -0.7908
  461TMC3    C4 6862   2.643   3.334  10.199  0.4231  0.5055  0.0781
  461TMC3    C5 6863   2.558   3.307  10.096  0.2040  0.1203  0.8180
  461TMC3    C6 6864   2.533   3.183  10.050 -0.1951 -0.2645 -0.2516
  461TMC3     C 6865   2.797   3.254  10.365 -0.5770  0.4612 -1.0516
  461TMC3     O 6866   2.868   3.355  10.344  0.5198 -0.0289 -0.1203
  461TMC3     H 6867   2.720   3.019  10.281  1.3596  1.4873  1.1790
  461TMC3    H1 6868   2.666   3.435  10.231 -1.4132  0.4032  1.7008
  461TMC3    H2 6869   2.470   3.164   9.965 -1.4696 -0.5721  0.7677
  461TMC3    C7 6870   2.472   3.411  10.032  0.1020  0.4001 -0.1813
  461TMC3    C8 6871   2.609   2.951  10.054 -0.4133  0.1588 -0.3727
  461TMC3    O1 6872   2.381   3.365   9.966 -0.2637  0.0993 -0.0355
  461TMC3    O2 6873   2.684   2.874  10.110 -0.6242 -0.1003  0.5636
  462TMC3    C1 6874   2.706   0.004   0.575 -0.7773 -0.0720  0.1479
  462TMC3    C2 6875   2.840   0.029   0.538  0.6216  0.9552 -0.1615
  462TMC3    C3 6876   2.897   4.663   0.449  0.8826 -0.1688 -0.0824
  462TMC3    C4 6877   2.641   4.606   0.543  0.1455  0.2685 -0.1458
  462TMC3    C5 6878   2.702   4.522   0.450 -0.2585 -0.0194  0.0744
  462TMC3    C6 6879   2.830   4.551   0.405 -0.4087 -0.0317 -0.5178
  462TMC3     C 6880   2.645   0.071   0.687 -0.1139  0.3477  0.2422
  462TMC3     O 6881   2.731   0.114   0.763 -0.0134 -0.2181 -0.3486
  462TMC3     H 6882   2.894   0.110   0.585 -0.6505  0.2376  2.5519
  462TMC3    H1 6883   2.552   4.569   0.592  0.4644  0.2232  0.3944
  462TMC3    H2 6884   2.873   4.488   0.328  2.4828  0.2308  0.8915
  462TMC3    C7 6885   2.647   4.388   0.427 -0.0526  0.1002 -0.0717
  462TMC3    C8 6886   3.034   4.679   0.410  0.1600 -0.4297 -0.4725
  462TMC3    O1 6887   2.730   4.297   0.426 -0.2051 -0.7325  0.4843
  462TMC3    O2 6888   3.069   0.073   0.416 -0.6113  0.1874 -0.2979
  463MPD2     C 6889   4.415   2.850   2.888  0.2348  0.1900 -0.6223
  463MPD2    C1 6890   4.415   2.829   2.751 -0.5826 -0.1446 -0.5351
  463MPD2    C2 6891   4.521   2.878   2.682 -0.2232 -0.3518  0.1974
  463MPD2    C3 6892   4.626   2.943   2.743  0.2991  0.0909 -0.2168
  463MPD2    C4 6893   4.618   2.976   2.879  0.2122 -0.4533  0.2829
  463MPD2    C5 6894   4.514   2.925   2.948  0.3123  0.6465 -0.4887
  463MPD2     H 6895   4.523   2.858   2.576  1.0242 -1.0327  0.3493
  463MPD2    H1 6896   4.696   3.024   2.937  0.9920  0.9723 -1.9397
  463MPD2    H2 6897   4.336   2.818   2.955 -0.4821 -0.0751 -1.6027
  463MPD2    H3 6898   4.507   2.953   3.053  1.3529 -1.2401  0.0854
  463MPD2     N 6899   0.016   2.985   2.673 -0.2663 -0.6447  0.2758
  463MPD2    H5 6900   0.097   3.014   2.726  0.5290  1.9312 -2.3278
  463MPD2    N1 6901   4.310   2.773   2.674 -0.8086 -0.3131  0.0453
  463MPD2    H7 6902   4.336   2.745   2.580 -0.9243 -1.0504  0.2290
  464TMC3    C1 6903   4.104   2.676   2.619  0.2601 -0.3103 -1.1038
  464TMC3    C2 6904   4.111   2.713   2.492  0.2650 -0.8217  0.0690
  464TMC3    C3 6905   4.011   2.680   2.408 -0.1483 -0.3799  0.2408
  464TMC3    C4 6906   4.006   2.595   2.665  0.0982  0.4473 -0.5031
  464TMC3    C5 6907   3.906   2.555   2.573 -0.2111  0.8011 -0.6716
  464TMC3    C6 6908   3.907   2.601   2.447 -0.2552  0.6360  0.2378
  464TMC3     C 6909   4.192   2.732   2.721 -0.7705 -0.1639 -0.6196
  464TMC3     O 6910   4.142   2.745   2.832 -0.4228  0.0777 -0.9354
  464TMC3     H 6911   4.182   2.790   2.462  0.6740 -1.7737 -1.4255
  464TMC3    H1 6912   4.017   2.555   2.765 -1.5152  3.5485  0.9148
  464TMC3    H2 6913   3.831   2.576   2.374 -0.2434  2.7766 -0.5048
  464TMC3    C7 6914   3.803   2.469   2.618 -0.8686 -0.0144  0.2922
  464TMC3    C8 6915   4.030   2.721   2.275  1.3185  0.0553  0.2365
  464TMC3    O1 6916   3.783   2.463   2.740  0.2134 -0.1454  0.1122
  464TMC3    O2 6917   4.136   2.696   2.218  0.4445 -0.0294  0.1555
  465MPD2     C 6918   0.718   1.331  16.618  0.2049 -0.0717  0.7669
  465MPD2    C1 6919   0.620   1.421  16.644  0.1762 -0.7424  0.7243
  465MPD2    C2 6920   0.522   1.441  16.551  0.2186 -0.5333  0.2553
  465MPD2    C3 6921   0.512   1.360  16.442  0.3302  0.7812  0.1938
  465MPD2    C4 6922   0.603   1.253  16.423 -0.0637  0.3741  0.6450
  465MPD2    C5 6923   0.705   1.243  16.511 -0.0136  0.0911 -0.3392
  465MPD2     H 6924   0.441   1.508  16.577  0.8429  1.0912 -1.9702
  465MPD2    H1 6925   0.606   1.187  16.337  0.1441  0.5749  0.4955
  465MPD2    H2 6926   0.799   1.320  16.689  0.4697 -3.0447  0.0026
  465MPD2    H3 6927   0.783   1.172  16.484 -0.8703 -0.3004 -1.7615
  465MPD2     N 6928   0.401   1.364  16.354  0.4843  0.2644  0.1771
  465MPD2    H5 6929   0.329   1.424  16.393 -0.0901 -0.4520  0.2195
  465MPD2    N1 6930   0.613   1.494  16.773 -0.3434  1.1158  0.8335
  465MPD2    H7 6931   0.540   1.565  16.776  1.5388  3.1015 -0.1934
  466TMC3    C1 6932   0.047   1.231  16.081  0.0202 -0.3082 -0.0536
  466TMC3    C2 6933   4.718   1.362  16.075 -0.1221 -0.0877 -0.5164
  466TMC3    C3 6934   0.064   1.462  16.143 -0.1609  0.3938 -0.3163
  466TMC3    C4 6935   0.179   1.217  16.123  0.0269 -0.0417  0.4432
  466TMC3    C5 6936   0.245   1.322  16.180 -0.1275 -0.1859  0.7422
  466TMC3    C6 6937   0.189   1.441  16.206 -0.2930  0.4597 -0.2353
  466TMC3     C 6938   4.674   1.154  16.156 -0.3089  0.4833  0.1291
  466TMC3     O 6939   0.006   1.103  16.252  0.2197  0.3417 -0.3429
  466TMC3     H 6940   4.620   1.384  16.034 -0.5623 -0.1373  0.4853
  466TMC3    H1 6941   0.219   1.116  16.122 -0.0045 -0.0520 -0.3185
  466TMC3    H2 6942   0.254   1.525  16.228  0.9805 -0.4548 -0.5143
  466TMC3    C7 6943   0.379   1.297  16.232 -0.2751 -0.4554 -0.4790
  466TMC3    C8 6944   4.707   1.578  16.197  0.2147  0.7332  0.9157
  466TMC3    O1 6945   0.448   1.222  16.167 -0.3922  0.4281 -0.2063
  466TMC3    O2 6946   4.714   1.595  16.319 -0.4249 -0.6577  0.4717
  467TMC3    C1 6947   0.973   4.507  13.631 -0.0728 -0.0596 -0.1294
  467TMC3    C2 6948   0.906   4.620  13.613  0.0199 -0.7118  0.2264
  467TMC3    C3 6949   0.789   4.645  13.683 -0.0256  0.1264  0.0821
  467TMC3    C4 6950   0.927   4.418  13.726  0.5188  0.3728  0.5804
  467TMC3    C5 6951   0.823   4.457  13.812  0.7091  0.6199  0.0507
  467TMC3    C6 6952   0.750   4.568  13.785  0.3221  0.1153 -0.4250
  467TMC3     C 6953   1.110   4.509  13.589 -0.1344  0.0638 -0.5132
  467TMC3     O 6954   1.160   4.619  13.583  0.4255  0.0936 -0.1870
  467TMC3     H 6955   0.941   4.691  13.539  1.5425 -2.6291 -0.8826
  467TMC3    H1 6956   0.981   4.326  13.742 -0.3786 -0.3404 -0.5143
  467TMC3    H2 6957   0.663   4.596  13.843  1.0308 -0.7022  1.0600
  467TMC3    C7 6958   0.783   4.363  13.920 -0.0456 -1.0857  0.0752
  467TMC3    C8 6959   0.747   0.067  13.678  0.8411  1.1439 -0.6704
  467TMC3    O1 6960   0.857   4.263  13.924 -0.0439  0.1358  0.1361
  467TMC3    O2 6961   0.814   0.138  13.606 -0.2574 -0.3672  0.1044
  468MPD2     C 6962   0.177   3.129  10.674 -0.1275  0.1575 -1.1041
  468MPD2    C1 6963   0.132   3.089  10.798  0.1679 -0.2284  0.3502
  468MPD2    C2 6964   0.087   2.957  10.812 -0.2409  0.3379  0.3246
  468MPD2    C3 6965   0.058   2.872  10.702 -0.3492  0.4971  0.3500
  468MPD2    C4 6966   0.093   2.930  10.584 -0.1789 -0.8460  0.0124
  468MPD2    C5 6967   0.147   3.053  10.571  0.0165 -0.9990  0.0338
  468MPD2     H 6968   0.088   2.923  10.915 -0.9528 -2.0451 -0.4578
  468MPD2    H1 6969   0.054   2.888  10.492 -0.2178  0.8299 -0.7348
  468MPD2    H2 6970   0.216   3.230  10.667  0.1802 -0.0014 -1.6387
  468MPD2    H3 6971   0.173   3.095  10.474  2.0399  1.2834  1.5655
  468MPD2     N 6972   4.713   2.746  10.704  0.4660  0.2538 -0.0893
  468MPD2    H5 6973   4.703   2.702  10.614 -2.7209 -1.1996  0.9518
  468MPD2    N1 6974   0.144   3.162  10.923 -0.6067  0.0353 -0.7229
  468MPD2    H7 6975   0.126   3.110  11.009  1.0513  0.5790 -0.0563
  469TMC3    C1 6976   0.220   3.330  11.076 -0.3204  0.0251  0.5141
  469TMC3    C2 6977   0.339   3.376  11.119 -0.0394  0.1109  0.0900
  469TMC3    C3 6978   0.343   3.402  11.254  0.2849 -0.3725 -0.2613
  469TMC3    C4 6979   0.116   3.317  11.155  1.0060  0.0557  0.5975
  469TMC3    C5 6980   0.125   3.354  11.286 -0.0953  0.5176 -0.0180
  469TMC3    C6 6981   0.237   3.399  11.339 -0.6191  0.5344  0.3670
  469TMC3     C 6982   0.214   3.282  10.938  0.1484  0.0956 -0.1940
  469TMC3     O 6983   0.291   3.340  10.861  0.2808 -0.0039 -0.8532
  469TMC3     H 6984   0.421   3.370  11.047  0.0460  0.2956  0.1713
  469TMC3    H1 6985   0.022   3.282  11.115  1.4387 -0.4210 -0.0049
  469TMC3    H2 6986   0.237   3.415  11.447  0.1388 -3.0654  0.8916
  469TMC3    C7 6987   0.009   3.327  11.370 -0.8140  0.1699 -0.6692
  469TMC3    C8 6988   0.482   3.384  11.293 -0.5942  0.5581  0.2812
  469TMC3    O1 6989   4.651   3.242  11.335 -0.2021 -0.2710  0.0394
  469TMC3    O2 6990   0.561   3.337  11.211 -0.3992 -0.2611  0.1426
  470TMC3    C1 6991   2.515   4.217   0.819 -0.2304 -0.7446 -0.0828
  470TMC3    C2 6992   2.452   4.327   0.875  0.2207  0.4892  0.2789
  470TMC3    C3 6993   2.523   4.440   0.894  0.2816 -0.2459 -0.4444
  470TMC3    C4 6994   2.646   4.220   0.768  0.3082  0.0971 -0.3006
  470TMC3    C5 6995   2.717   4.330   0.811  0.0371  1.0997  0.4620
  470TMC3    C6 6996   2.656   4.441   0.872  0.1965  0.3463  0.0186
  470TMC3     C 6997   2.449   4.090   0.811 -0.6055  0.5079 -0.1236
  470TMC3     O 6998   2.328   4.094   0.841 -0.1712  0.4014  0.9747
  470TMC3     H 6999   2.347   4.319   0.901 -0.4602  1.8771 -2.0419
  470TMC3    H1 7000   2.700   4.138   0.722 -0.9717 -1.1996  0.5195
  470TMC3    H2 7001   2.712   4.528   0.906  0.6795 -0.5542  1.5130
  470TMC3    C7 7002   2.861   4.337   0.786  0.2477  0.3391 -0.2130
  470TMC3    C8 7003   2.475   4.530   0.996 -0.1259  0.6147  0.1569
  470TMC3    O1 7004   2.899   4.454   0.787  0.1214 -0.4153  0.4172
  470TMC3    O2 7005   2.562   4.596   1.050 -0.7495 -0.2686  0.3388
  471MPD2     C 7006   2.676   0.408  16.430 -0.2129  0.0747  0.0477
  471MPD2    C1 7007   2.814   0.383  16.425  0.3472 -0.7746  0.2369
  471MPD2    C2 7008   2.889   0.409  16.538 -0.2947 -0.5848 -0.0847
  471MPD2    C3 7009   2.830   0.437  16.661  0.1939 -0.6931 -0.4958
  471MPD2    C4 7010   2.699   0.460  16.667 -0.4407  0.0777 -0.1097
  471MPD2    C5 7011   2.621   0.449  16.556 -0.1183 -0.3123  0.4684
  471MPD2     H 7012   2.993   0.380  16.531 -0.0959  0.4590 -1.4736
  471MPD2    H1 7013   2.660   0.506  16.757 -1.6526 -1.1599 -0.0120
  471MPD2    H2 7014   2.614   0.389  16.344 -0.2064 -1.4103  0.3721
  471MPD2    H3 7015   2.515   0.471  16.566  0.3487  2.1949 -0.2240
  471MPD2     N 7016   2.910   0.447  16.784  0.6630  0.2045  0.2572
  471MPD2    H5 7017   2.862   0.454  16.872 -1.7761 -1.0752 -0.9713
  471MPD2    N1 7018   2.877   0.313  16.321  0.3151  0.1741 -0.3015
  471MPD2    H7 7019   2.975   0.291  16.332  0.1701 -0.1245  0.4287
  472TMC3    C1 7020   2.897   0.159  16.131  0.2654  0.3041 -0.8131
  472TMC3    C2 7021   2.849   0.118  16.011  0.6159  0.2969 -0.1317
  472TMC3    C3 7022   2.895   0.002  15.956 -1.2937  0.1237  0.1308
  472TMC3    C4 7023   2.976   0.084  16.207 -0.6529  0.4537 -0.3982
  472TMC3    C5 7024   3.008   4.678  16.156 -0.0943 -0.7118 -0.1050
  472TMC3    C6 7025   2.979   4.645  16.029  0.7163 -0.1429 -0.4423
  472TMC3     C 7026   2.813   0.264  16.208  0.4959 -0.6189 -0.3742
  472TMC3     O 7027   2.700   0.276  16.166 -0.9180  0.6933 -0.1985
  472TMC3     H 7028   2.778   0.182  15.960 -0.1774  1.2537  2.2001
  472TMC3    H1 7029   2.996   0.102  16.313  0.5986 -2.0086 -0.2120
  472TMC3    H2 7030   3.019   4.552  15.990 -0.2816 -1.4433  1.6762
  472TMC3    C7 7031   2.971   4.571  16.251 -0.1764 -0.5805  0.7453
  472TMC3    C8 7032   2.787   4.637  15.907 -0.1480 -0.0186  0.3921
  472TMC3    O1 7033   2.975   4.590  16.372 -0.1535  0.0295  0.5680
  472TMC3    O2 7034   2.809   4.521  15.938 -0.4452  0.1477  0.0525
  473MPD2     C 7035   2.521   1.827  13.823  0.4358 -0.0776 -0.0991
  473MPD2    C1 7036   2.467   1.943  13.777 -0.1421  0.0967 -0.4546
  473MPD2    C2 7037   2.524   2.060  13.811  0.2118  0.4452 -0.1725
  473MPD2    C3 7038   2.635   2.066  13.897  0.7048  0.7839 -1.2062
  473MPD2    C4 7039   2.683   1.945  13.947  0.0965 -0.2851 -0.5865
  473MPD2    C5 7040   2.625   1.828  13.906  0.5832  0.0074  0.3022
  473MPD2     H 7041   2.481   2.151  13.770  0.2774 -1.0116 -3.5048
  473MPD2    H1 7042   2.754   1.933  14.029 -1.9669 -0.8339  1.1046
  473MPD2    H2 7043   2.471   1.735  13.797  0.5680  0.4054 -2.1268
  473MPD2    H3 7044   2.655   1.732  13.946 -0.0210  0.5372  2.0360
  473MPD2     N 7045   2.696   2.182  13.948 -0.1304 -0.1367  0.2709
  473MPD2    H5 7046   2.765   2.181  14.023 -1.8679  0.8937  1.8800
  473MPD2    N1 7047   2.341   1.955  13.713 -0.2036  0.2989 -0.4378
  473MPD2    H7 7048   2.320   2.034  13.653 -0.3029  0.8686  0.3445
  474TMC3    C1 7049   2.724   2.420  13.981  0.4495 -0.3095 -0.1282
  474TMC3    C2 7050   2.704   2.548  13.945  0.4363 -0.5038 -0.1344
  474TMC3    C3 7051   2.780   2.646  13.994  0.4831  0.4574  0.5312
  474TMC3    C4 7052   2.818   2.387  14.075 -0.2632 -0.1947  0.3318
  474TMC3    C5 7053   2.889   2.492  14.140 -0.3622  0.4520  0.0499
  474TMC3    C6 7054   2.873   2.624  14.095  0.0371  0.0701 -0.3812
  474TMC3     C 7055   2.654   2.312  13.915 -0.3508  0.6961 -0.5912
  474TMC3     O 7056   2.581   2.351  13.827 -0.1236 -0.0374 -0.4302
  474TMC3     H 7057   2.637   2.572  13.864  0.5994  2.1496  0.5238
  474TMC3    H1 7058   2.846   2.285  14.099  0.5247  0.6010  2.7812
  474TMC3    H2 7059   2.929   2.705  14.139 -2.1968  1.2028  0.3790
  474TMC3    C7 7060   2.886   2.469  14.282 -0.2218  0.0181  0.4046
  474TMC3    C8 7061   2.820   2.737  13.892 -1.1485 -0.0253  0.5276
  474TMC3    O1 7062   2.860   2.358  14.321  0.5868 -0.4512 -0.0013
  474TMC3    O2 7063   2.844   2.680  13.785 -0.0868  0.0487  0.2116
  475MPD2     C 7064   0.304   0.656  10.600 -0.4141 -0.3131 -0.3360
  475MPD2    C1 7065   0.435   0.698  10.608  0.1397 -0.3285  0.2042
  475MPD2    C2 7066   0.483   0.723  10.732  0.4817  0.1752  0.4046
  475MPD2    C3 7067   0.409   0.712  10.846  1.0758 -0.3047  0.1021
  475MPD2    C4 7068   0.281   0.663  10.840 -0.6356  0.4774 -0.4178
  475MPD2    C5 7069   0.232   0.643  10.715 -0.4801  0.4682 -0.4194
  475MPD2     H 7070   0.582   0.764  10.745  1.4024 -1.5483 -1.1708
  475MPD2    H1 7071   0.216   0.661  10.927  1.3770 -0.2912  1.0868
  475MPD2    H2 7072   0.263   0.634  10.502  1.7509 -0.5268 -1.1994
  475MPD2    H3 7073   0.131   0.605  10.703  1.0008 -3.8561  0.7688
  475MPD2     N 7074   0.460   0.754  10.975  0.0913 -0.5022 -0.1613
  475MPD2    H5 7075   0.536   0.821  10.961  1.0640 -1.7474 -0.8895
  475MPD2    N1 7076   0.513   0.719  10.487  0.1340  0.1294 -0.2300
  475MPD2    H7 7077   0.472   0.720  10.395  1.0560 -2.2788 -0.6701
  476TMC3    C1 7078   0.712   0.787  10.356 -0.3640  0.3200 -0.4759
  476TMC3    C2 7079   0.637   0.800  10.238  0.3146 -0.1048 -0.3420
  476TMC3    C3 7080   0.696   0.875  10.143  0.1016 -0.9939 -0.0010
  476TMC3    C4 7081   0.832   0.858  10.373 -0.1242 -0.1983 -0.4752
  476TMC3    C5 7082   0.869   0.945  10.276 -0.2975 -0.5417 -0.5204
  476TMC3    C6 7083   0.802   0.956  10.158  0.5137  0.3808  0.2049
  476TMC3     C 7084   0.648   0.747  10.484  0.1094  0.1158  0.1891
  476TMC3     O 7085   0.723   0.724  10.580  0.3431  0.0121  0.2672
  476TMC3     H 7086   0.542   0.749  10.223  0.7266 -1.3329  1.1578
  476TMC3    H1 7087   0.886   0.835  10.464 -0.1473  0.4242 -0.3032
  476TMC3    H2 7088   0.831   1.024  10.079  1.9581 -0.3992  0.0572
  476TMC3    C7 7089   0.963   1.053  10.309 -0.3149  0.3897  0.1958
  476TMC3    C8 7090   0.637   0.864  10.014  0.2508  0.0303 -0.0522
  476TMC3    O1 7091   0.987   1.128  10.214  0.0774  0.3624  0.4692
  476TMC3    O2 7092   0.669   0.954   9.934 -0.3074  0.4869  0.0322
  477MPD2     C 7093   3.411   2.487  11.890  0.3304  0.0009 -0.3912
  477MPD2    C1 7094   3.436   2.360  11.848 -0.5433 -0.3191 -0.2817
  477MPD2    C2 7095   3.466   2.260  11.939 -0.1170  0.5901  0.0327
  477MPD2    C3 7096   3.455   2.285  12.078 -0.3238 -0.0770  0.2916
  477MPD2    C4 7097   3.428   2.412  12.116  0.7305  0.3079  0.9766
  477MPD2    C5 7098   3.408   2.513  12.024 -0.1734 -0.5749  0.5219
  477MPD2     H 7099   3.495   2.166  11.893  0.5162  0.1710  1.2759
  477MPD2    H1 7100   3.408   2.448  12.216 -0.3737  1.6284  0.2828
  477MPD2    H2 7101   3.370   2.557  11.819  0.3031  0.3766 -0.0019
  477MPD2    H3 7102   3.370   2.612  12.044 -0.5272 -0.4882 -0.5547
  477MPD2     N 7103   3.497   2.185  12.172  0.3432 -0.6163 -0.0809
  477MPD2    H5 7104   3.526   2.098  12.130  0.6666 -0.6706  0.2555
  477MPD2    N1 7105   3.430   2.341  11.706 -0.6483 -0.3552  0.2721
  477MPD2    H7 7106   3.418   2.428  11.655  0.0823 -0.7209 -0.5262
  478TMC3    C1 7107   3.341   2.234  11.526 -0.6043  0.1892  0.8656
  478TMC3    C2 7108   3.222   2.176  11.554  0.1081  0.1552  0.8777
  478TMC3    C3 7109   3.113   2.219  11.488 -0.4923  0.2661 -0.0036
  478TMC3    C4 7110   3.356   2.336  11.439  0.0212 -0.3779 -0.1061
  478TMC3    C5 7111   3.243   2.376  11.370  0.0653 -0.3926  0.6396
  478TMC3    C6 7112   3.123   2.324  11.393  1.3841 -0.3289  0.3594
  478TMC3     C 7113   3.430   2.222  11.636 -0.3674  0.5426 -0.5200
  478TMC3     O 7114   3.444   2.106  11.671  0.2394 -0.2420 -0.5688
  478TMC3     H 7115   3.209   2.102  11.632  0.0735 -0.1488  0.5856
  478TMC3    H1 7116   3.453   2.378  11.414  0.5658 -1.2123  0.6067
  478TMC3    H2 7117   3.030   2.350  11.343  0.0697 -1.6541  2.1431
  478TMC3    C7 7118   3.269   2.458  11.249  0.6797 -0.8916 -0.4512
  478TMC3    C8 7119   3.001   2.241  11.580  0.1311  0.3661 -0.1215
  478TMC3    O1 7120   3.382   2.475  11.209  0.6393  0.1152  0.1747
  478TMC3    O2 7121   2.952   2.144  11.633  0.0965 -0.0782  0.3221
  479MPD2     C 7122   2.099   4.396  14.548 -0.7130  0.4901  0.4950
  479MPD2    C1 7123   2.095   4.350  14.674 -0.7593 -0.9334 -0.2342
  479MPD2    C2 7124   2.164   4.417  14.772  0.4189 -0.2658 -0.1951
  479MPD2    C3 7125   2.223   4.539  14.746  0.2015  0.0383 -0.1096
  479MPD2    C4 7126   2.226   4.586  14.619  0.6104  0.0611  0.0403
  479MPD2    C5 7127   2.167   4.513  14.519  0.1502  0.4723 -0.3751
  479MPD2     H 7128   2.177   4.375  14.871 -0.2782 -2.0991 -0.8958
  479MPD2    H1 7129   2.274   4.679  14.590 -1.1600  1.4511  1.6288
  479MPD2    H2 7130   2.049   4.342  14.468 -0.8141  0.9389  0.2559
  479MPD2    H3 7131   2.170   4.546  14.416  1.6751  2.2234  0.2342
  479MPD2     N 7132   2.289   4.615  14.842 -0.5189  0.3053  0.2430
  479MPD2    H5 7133   2.370   4.669  14.814 -1.2953  0.9124 -0.7985
  479MPD2    N1 7134   2.036   4.225  14.693  0.4727  0.3946 -0.6149
  479MPD2    H7 7135   2.008   4.177  14.607 -1.8612  0.0105  0.3713
  480TMC3    C1 7136   2.012   4.457  15.160  0.1036 -0.1994 -0.9759
  480TMC3    C2 7137   1.912   4.458  15.061  0.1038 -0.1045 -0.1947
  480TMC3    C3 7138   1.920   4.552  14.960 -1.2693 -0.3559  0.5319
  480TMC3    C4 7139   2.133   4.512  15.136 -0.2067 -0.3873 -0.5428
  480TMC3    C5 7140   2.141   4.587  15.021 -0.1384 -0.2018 -0.8494
  480TMC3    C6 7141   2.034   4.628  14.948 -0.4443  0.1477  0.3177
  480TMC3     C 7142   2.016   4.337  15.247  0.0598  0.5521  0.0602
  480TMC3     O 7143   2.074   4.354  15.355 -0.1441  0.5080 -0.2651
  480TMC3     H 7144   1.828   4.390  15.067  0.1088 -0.2408 -1.5823
  480TMC3    H1 7145   2.218   4.476  15.193 -0.7952 -0.1559  0.4912
  480TMC3    H2 7146   2.042   4.714  14.884  1.2833 -0.6206 -0.4944
  480TMC3    C7 7147   2.274   4.612  14.975  0.4971 -0.0259  0.9002
  480TMC3    C8 7148   1.831   4.531  14.845  0.2962  0.1004 -0.2415
  480TMC3    O1 7149   2.346   4.668  15.054  0.2354 -0.3494  0.2825
  480TMC3    O2 7150   1.721   4.485  14.863  0.5583 -0.3449 -0.0688
  481MPD2     C 7151   4.374   3.935  14.097  0.0072  1.1245  0.1484
  481MPD2    C1 7152   4.241   3.911  14.110 -0.1511 -0.1170  0.3879
  481MPD2    C2 7153   4.193   3.899  14.239  0.4284 -0.1709 -0.0791
  481MPD2    C3 7154   4.272   3.913  14.355  0.0414  0.0979  0.0379
  481MPD2    C4 7155   4.404   3.932  14.336  0.0627 -0.0120 -0.2059
  481MPD2    C5 7156   4.455   3.948  14.213  0.0975  0.3569 -0.1372
  481MPD2     H 7157   4.087   3.882  14.258 -0.1508 -0.8749 -3.9458
  481MPD2    H1 7158   4.464   3.942  14.426 -0.4038 -0.2297  0.1265
  481MPD2    H2 7159   4.421   3.932  13.999 -0.8509  0.5422 -0.2440
  481MPD2    H3 7160   4.563   3.960  14.203  0.1692 -0.3614 -0.1793
  481MPD2     N 7161   4.231   3.885  14.483 -0.2817  0.4513 -0.3357
  481MPD2    H5 7162   4.313   3.877  14.542 -0.9730  1.4411  0.7547
  481MPD2    N1 7163   4.168   3.880  13.991 -0.6806  0.3236  0.3185
  481MPD2    H7 7164   4.222   3.888  13.906  1.7657  0.6169  1.8856
  482TMC3    C1 7165   3.977   3.844  13.861  0.0466 -0.3258 -0.3733
  482TMC3    C2 7166   3.867   3.763  13.845  0.5426 -0.2096  0.5235
  482TMC3    C3 7167   3.787   3.801  13.735  0.1101 -0.0019 -0.1953
  482TMC3    C4 7168   4.007   3.946  13.782  0.6930 -0.5510  0.1210
  482TMC3    C5 7169   3.928   3.978  13.677 -0.0058 -0.2355 -0.3219
  482TMC3    C6 7170   3.813   3.911  13.655 -0.2352 -0.0012  0.2900
  482TMC3     C 7171   4.041   3.839  13.987  0.2442 -0.0809  0.2589
  482TMC3     O 7172   3.960   3.814  14.080 -0.2628  0.2345 -0.1281
  482TMC3     H 7173   3.852   3.670  13.899 -1.1386 -1.0239 -1.3360
  482TMC3    H1 7174   4.101   3.999  13.786 -0.9181  2.4015 -0.8028
  482TMC3    H2 7175   3.749   3.946  13.575  1.5512 -0.2891 -1.2590
  482TMC3    C7 7176   3.993   4.050  13.561 -0.6194  0.3884  0.0244
  482TMC3    C8 7177   3.679   3.715  13.704 -0.2368  0.2237 -0.3993
  482TMC3    O1 7178   4.106   4.085  13.588  0.3221 -0.3075 -0.2390
  482TMC3    O2 7179   3.675   3.594  13.742 -0.2770  0.8624 -0.4107
  483TMC3    C1 7180   2.912   3.281   1.506  0.3617 -0.6609  0.6507
  483TMC3    C2 7181   2.931   3.295   1.369 -0.6298 -0.0251 -0.1876
  483TMC3    C3 7182   3.036   3.236   1.313 -0.0572  0.2573 -0.3354
  483TMC3    C4 7183   2.992   3.197   1.587  0.0035  0.1578 -0.2055
  483TMC3    C5 7184   3.097   3.140   1.523 -0.7326 -0.0499 -0.3600
  483TMC3    C6 7185   3.122   3.167   1.392 -0.6049  0.5925  0.0504
  483TMC3     C 7186   2.784   3.337   1.556 -0.1360  0.1493  0.0876
  483TMC3     O 7187   2.787   3.368   1.674 -0.4870 -0.3666  0.3259
  483TMC3     H 7188   2.866   3.368   1.324  1.4432  2.2690  0.5044
  483TMC3    H1 7189   2.967   3.188   1.692 -2.3573  1.7971 -0.6151
  483TMC3    H2 7190   3.211   3.122   1.349 -1.2598  0.6763 -1.4154
  483TMC3    C7 7191   3.184   3.048   1.593 -0.0614  0.4104  0.5884
  483TMC3    C8 7192   3.090   3.287   1.189 -0.0109  0.0210 -0.1007
  483TMC3    O1 7193   3.257   2.976   1.525 -0.1684 -0.0684 -0.3390
  483TMC3    O2 7194   3.212   3.292   1.183 -0.0258  0.3270 -0.1517
  484MPD2     C 7195   4.018   1.240  12.517 -0.1406  0.2819 -0.4000
  484MPD2    C1 7196   4.079   1.133  12.579 -0.3161  0.2038  0.4109
  484MPD2    C2 7197   4.214   1.110  12.571 -0.0549  0.2805  0.1662
  484MPD2    C3 7198   4.284   1.185  12.474  0.0426  0.2000 -0.4230
  484MPD2    C4 7199   4.223   1.287  12.406 -1.2273  0.0024 -0.3401
  484MPD2    C5 7200   4.092   1.315  12.434 -0.3500 -0.7429 -0.1802
  484MPD2     H 7201   4.261   1.041  12.639  1.6445  1.8964  0.6343
  484MPD2    H1 7202   4.273   1.348  12.332 -2.7881 -0.2118 -1.5632
  484MPD2    H2 7203   3.911   1.252  12.521 -0.0526  1.2111 -0.6698
  484MPD2    H3 7204   4.054   1.392  12.368 -1.4776 -2.9072 -2.0633
  484MPD2     N 7205   4.426   1.166  12.462  0.6208 -0.7703  0.1704
  484MPD2    H5 7206   4.464   1.216  12.382  1.8741 -1.1356  0.5394
  484MPD2    N1 7207   3.995   1.059  12.666  0.7968  1.0352  0.4814
  484MPD2    H7 7208   3.900   1.093  12.678  0.8959  0.7075  2.2632
  485TMC3    C1 7209   4.648   1.082  12.467  0.1694 -0.3661  0.2882
  485TMC3    C2 7210   0.022   1.016  12.542 -0.0105 -0.5221  0.2508
  485TMC3    C3 7211   0.150   1.057  12.520  0.0150 -0.7993 -0.2478
  485TMC3    C4 7212   4.683   1.166  12.360 -0.4175 -0.0330  0.3790
  485TMC3    C5 7213   0.092   1.197  12.351 -0.2922 -0.1076  0.1790
  485TMC3    C6 7214   0.187   1.157  12.434  0.2202  0.1685 -0.0109
  485TMC3     C 7215   4.510   1.081  12.528  0.9079  0.1067  0.2411
  485TMC3     O 7216   4.488   0.999  12.615  0.1968  0.0454 -0.7208
  485TMC3     H 7217   4.714   0.947  12.620  0.0034  0.9593  1.5844
  485TMC3    H1 7218   4.616   1.206  12.285  0.4374  0.6678 -0.0079
  485TMC3    H2 7219   0.289   1.189  12.416  0.6400 -1.4962 -0.6036
  485TMC3    C7 7220   0.127   1.206  12.210 -0.0294 -0.1457 -0.1202
  485TMC3    C8 7221   0.243   0.945  12.495  0.4103 -0.1856 -0.5711
  485TMC3    O1 7222   0.063   1.277  12.129  0.3058 -0.0732  0.2688
  485TMC3    O2 7223   0.348   0.975  12.443 -0.6510  0.1202  0.2276
  486MPD2     C 7224   1.219   4.590  13.232  0.6414  0.3379  0.2421
  486MPD2    C1 7225   1.324   4.581  13.147 -0.0189  0.5173  1.0460
  486MPD2    C2 7226   1.405   4.690  13.125 -0.0160  0.0537 -0.1889
  486MPD2    C3 7227   1.376   0.093  13.175  0.3157 -0.3828  0.2920
  486MPD2    C4 7228   1.259   0.098  13.250  0.2093 -1.0174 -0.2444
  486MPD2    C5 7229   1.182   4.714  13.280  0.0831  0.7340 -0.6055
  486MPD2     H 7230   1.493   4.688  13.062 -1.7107  1.4249 -2.6231
  486MPD2    H1 7231   1.234   0.186  13.309  0.1884 -1.1104 -0.1145
  486MPD2    H2 7232   1.160   4.503  13.259  0.0171  0.3234 -1.1707
  486MPD2    H3 7233   1.104   0.014  13.353  1.1557  1.4662  0.3138
  486MPD2     N 7234   1.459   0.197  13.135 -0.2140 -0.1102 -0.1585
  486MPD2    H5 7235   1.533   0.173  13.070 -0.0363 -1.4180  0.5218
  486MPD2    N1 7236   1.349   4.455  13.093  0.4106  0.4840 -0.2116
  486MPD2    H7 7237   1.291   4.388  13.142 -0.8410  1.4998 -0.3256
  487TMC3    C1 7238   1.436   4.292  12.950  0.3002  0.0750 -0.0286
  487TMC3    C2 7239   1.452   4.267  12.816  0.1845 -0.2811  0.7573
  487TMC3    C3 7240   1.452   4.136  12.780  0.2820 -0.2044 -0.5215
  487TMC3    C4 7241   1.396   4.192  13.036 -0.7411  0.5788  0.4658
  487TMC3    C5 7242   1.408   4.057  12.991 -0.5409 -0.0364  0.1396
  487TMC3    C6 7243   1.453   4.025  12.867 -0.2391  0.2464  0.5485
  487TMC3     C 7244   1.426   4.430  12.983 -0.1689  0.4245  0.0569
  487TMC3     O 7245   1.480   4.508  12.905 -0.0399 -0.0706  0.4787
  487TMC3     H 7246   1.479   4.345  12.746 -2.9412 -0.9455 -1.1967
  487TMC3    H1 7247   1.385   4.213  13.142 -1.5908 -1.2832  0.7423
  487TMC3    H2 7248   1.441   3.922  12.837 -0.1388  1.2451 -2.8809
  487TMC3    C7 7249   1.327   3.952  13.059  0.2317 -0.3589  0.3250
  487TMC3    C8 7250   1.493   4.108  12.641 -0.0620  0.6767  0.3649
  487TMC3    O1 7251   1.336   3.839  13.012  0.6751 -0.2417 -0.3707
  487TMC3    O2 7252   1.563   4.192  12.593  0.3234  0.1046 -0.1134
  488MPD2     C 7253   2.105   1.398  16.579 -0.0524  0.0686  0.1912
  488MPD2    C1 7254   2.123   1.499  16.674  0.2836  0.2494 -0.8236
  488MPD2    C2 7255   2.083   1.478  16.804 -0.1784  0.4223  0.1135
  488MPD2    C3 7256   2.002   1.372  16.842  0.1348 -0.1173  0.1384
  488MPD2    C4 7257   1.986   1.268  16.748  0.6102 -0.2680 -0.1445
  488MPD2    C5 7258   2.040   1.286  16.622  0.0787 -0.2313 -0.4653
  488MPD2     H 7259   2.103   1.559  16.872  0.8844  0.2203  0.0394
  488MPD2    H1 7260   1.925   1.183  16.777 -1.8418  1.3424 -0.5557
  488MPD2    H2 7261   2.131   1.394  16.474  0.0197  1.0088  0.1716
  488MPD2    H3 7262   2.030   1.209  16.546  0.0711 -1.4165  0.7308
  488MPD2     N 7263   1.955   1.367  16.978 -0.2046 -0.3036 -0.3275
  488MPD2    H5 7264   1.992   1.440  17.037  2.3934 -2.4649  0.6862
  488MPD2    N1 7265   2.186   1.625  16.640  0.2865 -0.5800  0.5699
  488MPD2    H7 7266   2.190   1.692  16.715 -1.4530 -0.2486  0.3731
  489TMC3    C1 7267   1.848   1.287  17.167  0.0085 -0.2128  0.3603
  489TMC3    C2 7268   1.952   1.334  17.242  0.1379 -0.6976  0.3836
  489TMC3    C3 7269   1.920   1.378  17.369  1.1058 -0.3743  0.0341
  489TMC3    C4 7270   1.722   1.257  17.219  0.9132 -0.7447  0.0522
  489TMC3    C5 7271   1.690   1.306  17.346  0.1427  0.1105  0.6996
  489TMC3    C6 7272   1.790   1.366  17.413  0.2024 -1.0493  0.1165
  489TMC3     C 7273   1.862   1.281  17.025 -0.7815  0.2282 -0.4444
  489TMC3     O 7274   1.782   1.217  16.956 -0.0029  0.3183 -0.0120
  489TMC3     H 7275   2.052   1.352  17.202 -0.6009  2.3741 -0.0368
  489TMC3    H1 7276   1.656   1.193  17.160  1.1534 -0.7417 -0.2180
  489TMC3    H2 7277   1.771   1.395  17.516  2.0416  1.9559 -0.3846
  489TMC3    C7 7278   1.558   1.309  17.402  0.5336  0.0284 -0.1781
  489TMC3    C8 7279   2.021   1.472  17.433 -0.0037  0.3609 -0.2236
  489TMC3    O1 7280   1.463   1.286  17.327  0.2757 -0.4779  0.5857
  489TMC3    O2 7281   2.127   1.480  17.377  0.2758 -0.2672  0.5390
  490MPD2     C 7282   2.926   1.240   0.379  0.2333 -0.5046 -0.4839
  490MPD2    C1 7283   3.017   1.213   0.279  0.5876  0.5652 -0.7808
  490MPD2    C2 7284   3.114   1.304   0.248  0.1290  0.8881 -0.0134
  490MPD2    C3 7285   3.120   1.422   0.315 -0.5769 -0.0549  0.2574
  490MPD2    C4 7286   3.028   1.453   0.417  0.5226 -0.0808  0.7780
  490MPD2    C5 7287   2.928   1.365   0.436 -0.3790  0.3289  0.9558
  490MPD2     H 7288   3.186   1.281   0.170 -2.7724 -1.7722 -1.9245
  490MPD2    H1 7289   3.030   1.549   0.468 -1.0671 -0.0810  0.8280
  490MPD2    H2 7290   2.838   1.180   0.396  0.4250 -1.0687 -1.4803
  490MPD2    H3 7291   2.849   1.382   0.508  0.7236 -0.0986  2.2704
  490MPD2     N 7292   3.217   1.524   0.295 -0.4105  0.8845 -0.6650
  490MPD2    H5 7293   3.215   1.593   0.370 -0.3569  0.3015 -0.1297
  490MPD2    N1 7294   3.016   1.086   0.210 -0.1685  0.1400  0.5825
  490MPD2    H7 7295   3.081   1.073   0.133 -0.2307  1.0282  0.3752
  491TMC3    C1 7296   2.977   0.860   0.180  0.0566 -0.1085 -0.0794
  491TMC3    C2 7297   2.999   0.745   0.249  0.2028  0.5491  0.2893
  491TMC3    C3 7298   3.037   0.640   0.181 -0.1174  0.4839  0.3431
  491TMC3    C4 7299   2.992   0.871   0.041  0.1380  0.4325  0.8333
  491TMC3    C5 7300   3.039   0.763  17.663 -0.8791 -0.0138  0.5329
  491TMC3    C6 7301   3.070   0.647   0.050 -0.3698  0.0315 -0.3861
  491TMC3     C 7302   2.950   0.979   0.258  0.4841 -0.6553 -0.0299
  491TMC3     O 7303   2.901   0.964   0.365 -0.2429 -0.3268  0.4250
  491TMC3     H 7304   3.001   0.745   0.357  0.2913  2.5093  0.3009
  491TMC3    H1 7305   2.978   0.965  17.677 -0.4105 -0.3085 -0.3773
  491TMC3    H2 7306   3.092   0.553  17.687  2.2040  1.1305 -1.2441
  491TMC3    C7 7307   2.960   0.732  17.548 -0.0843 -0.3958  0.4663
  491TMC3    C8 7308   2.987   0.512   0.227  0.4108  0.3010 -0.1182
  491TMC3    O1 7309   3.000   0.636  17.483  0.0063  1.2021  0.3618
  491TMC3    O2 7310   3.032   0.410   0.181 -0.1022  0.1836  0.6847
  492MPD2     C 7311   2.971   0.755  11.017  0.8854 -0.0950  0.1169
  492MPD2    C1 7312   2.838   0.717  11.006 -0.8357 -0.2204  0.3477
  492MPD2    C2 7313   2.772   0.665  11.114  0.9143  0.2624 -0.2024
  492MPD2    C3 7314   2.840   0.650  11.234 -0.0225  0.1016 -0.0679
  492MPD2    C4 7315   2.974   0.691  11.242  0.1014  0.5872  0.0707
  492MPD2    C5 7316   3.037   0.744  11.135  0.2272  1.1721  0.1152
  492MPD2     H 7317   2.667   0.641  11.104  0.8814  0.6293 -0.7384
  492MPD2    H1 7318   3.033   0.682  11.333 -1.1715 -0.8823  0.7557
  492MPD2    H2 7319   3.014   0.809  10.933  2.8729 -0.5441  0.8538
  492MPD2    H3 7320   3.138   0.782  11.136 -0.3425  2.7879 -3.1034
  492MPD2     N 7321   2.772   0.597  11.351 -0.2431  0.8210  0.2262
  492MPD2    H5 7322   2.827   0.606  11.435  1.5795  0.3765 -0.9116
  492MPD2    N1 7323   2.768   0.753  10.884  0.8048 -0.2977  0.4752
  492MPD2    H7 7324   2.828   0.791  10.811 -2.0188  1.8955 -0.6910
  493TMC3    C1 7325   2.601   0.799  10.730 -0.3978  0.6019 -0.6427
  493TMC3    C2 7326   2.661   0.913  10.692 -0.5160 -0.8090 -0.0875
  493TMC3    C3 7327   2.619   0.971  10.571  0.9705  0.0867  0.0611
  493TMC3    C4 7328   2.497   0.743  10.654 -1.1426 -0.3311 -0.0951
  493TMC3    C5 7329   2.481   0.794  10.531  0.2340 -0.2194  0.4081
  493TMC3    C6 7330   2.537   0.905  10.488  0.3622  0.0728  0.3439
  493TMC3     C 7331   2.641   0.730  10.851 -0.1679 -0.7961 -0.0704
  493TMC3     O 7332   2.557   0.659  10.906  0.5480 -0.2091 -0.4177
  493TMC3     H 7333   2.714   0.968  10.769 -0.5251 -1.0556  0.0926
  493TMC3    H1 7334   2.454   0.648  10.682 -1.9842  0.7180  2.1594
  493TMC3    H2 7335   2.524   0.942  10.387  0.8027 -1.7539 -0.3712
  493TMC3    C7 7336   2.366   0.751  10.453 -0.4311 -0.9669  0.1600
  493TMC3    C8 7337   2.725   1.048  10.507 -0.3308 -0.6732 -0.1839
  493TMC3    O1 7338   2.359   0.790  10.337 -0.5161 -0.4185 -0.3402
  493TMC3    O2 7339   2.753   1.009  10.393  0.2387 -0.1263  0.3563
  494TMC3    C1 7340   4.016   2.370   0.580 -0.5631 -0.5770  0.1018
  494TMC3    C2 7341   4.133   2.298   0.566 -0.2341  0.0988 -0.1232
  494TMC3    C3 7342   4.183   2.277   0.443 -0.0168  0.3904 -0.5369
  494TMC3    C4 7343   3.963   2.436   0.475  0.3168 -0.4162 -0.1575
  494TMC3    C5 7344   4.023   2.414   0.349  0.3064 -0.3792 -0.3833
  494TMC3    C6 7345   4.134   2.335   0.329  0.1092  0.3216  0.0548
  494TMC3     C 7346   3.963   2.379   0.717 -0.0899  0.3846 -0.3948
  494TMC3     O 7347   4.030   2.349   0.810  0.0951 -0.8544 -0.0344
  494TMC3     H 7348   4.164   2.235   0.648 -0.4762 -0.6300 -0.5922
  494TMC3    H1 7349   3.874   2.497   0.490  0.1243 -0.2495 -1.9882
  494TMC3    H2 7350   4.182   2.334   0.232 -1.1642 -0.5679 -0.5600
  494TMC3    C7 7351   3.958   2.485   0.238 -0.3026 -0.1294 -0.3514
  494TMC3    C8 7352   4.306   2.202   0.426  1.0085  0.2485 -0.1563
  494TMC3    O1 7353   3.944   2.421   0.138 -0.2947 -0.0556  0.7925
  494TMC3    O2 7354   4.374   2.198   0.526  0.5526 -0.1251 -0.4190
  495TMC3    C1 7355   2.174   4.667  13.954 -0.4961  0.1928 -0.1219
  495TMC3    C2 7356   2.100   0.006  13.858 -0.5076  0.1114 -0.3060
  495TMC3    C3 7357   1.999   0.090  13.897 -0.6734 -0.1117 -0.8807
  495TMC3    C4 7358   2.144   4.689  14.091  0.4144  0.4016 -0.1119
  495TMC3    C5 7359   2.028   0.038  14.123  0.0312 -0.0767  0.7040
  495TMC3    C6 7360   1.963   0.107  14.030 -0.8575  0.0621 -0.3481
  495TMC3     C 7361   2.201   4.525  13.919  0.1776  0.1699 -0.2368
  495TMC3     O 7362   2.155   4.481  13.815 -0.4897  0.4785 -0.2767
  495TMC3     H 7363   2.122   4.708  13.754 -0.0447 -1.4299  0.0838
  495TMC3    H1 7364   2.200   4.653  14.176  0.3912 -3.4631 -1.7425
  495TMC3    H2 7365   1.883   0.168  14.070 -0.5298 -0.4068  1.0122
  495TMC3    C7 7366   1.992   0.048  14.260  0.6086  0.4993  0.2050
  495TMC3    C8 7367   1.917   0.138  13.785 -0.7829 -0.1371  0.1905
  495TMC3    O1 7368   2.080   0.049  14.345  0.1375 -0.5055 -0.1463
  495TMC3    O2 7369   1.949   0.137  13.670  0.1834 -0.3526  0.1358
  496MPD2     C 7370   4.039   4.373  15.520  0.6600 -0.5644 -0.2587
  496MPD2    C1 7371   4.147   4.400  15.600 -0.5285 -0.2007 -0.3159
  496MPD2    C2 7372   4.132   4.438  15.734  0.0410  0.9093 -0.0574
  496MPD2    C3 7373   4.003   4.451  15.788  0.2129  0.4083 -0.5526
  496MPD2    C4 7374   3.891   4.415  15.705 -0.4690  0.4385 -0.1413
  496MPD2    C5 7375   3.909   4.379  15.575 -0.1444 -0.2356 -0.7066
  496MPD2     H 7376   4.221   4.460  15.791  1.3996 -0.4326 -1.6461
  496MPD2    H1 7377   3.785   4.417  15.728 -0.8681 -1.9004 -1.8342
  496MPD2    H2 7378   4.055   4.353  15.415  2.0424 -0.2228 -0.1207
  496MPD2    H3 7379   3.830   4.361  15.503 -3.1472  3.0373  1.7685
  496MPD2     N 7380   3.971   4.502  15.911  0.5794  0.0612 -0.5367
  496MPD2    H5 7381   3.873   4.505  15.938  0.1864  1.3527 -2.1560
  496MPD2    N1 7382   4.274   4.383  15.534  0.1613 -0.2994 -0.3148
  496MPD2    H7 7383   4.274   4.356  15.436  0.6556 -0.6327 -0.2236
  497TMC3    C1 7384   4.003   4.623  16.125 -0.2724 -0.3154  0.0717
  497TMC3    C2 7385   3.913   0.001  16.099 -0.5481 -0.4122 -1.5265
  497TMC3    C3 7386   3.861   0.067  16.208 -0.3809  0.1224  0.5116
  497TMC3    C4 7387   4.043   4.583  16.247 -0.3462  0.3256 -0.6052
  497TMC3    C5 7388   4.002   4.661  16.351 -1.1707  0.2459 -0.5194
  497TMC3    C6 7389   3.907   0.033  16.335  0.0053 -0.3394 -0.1074
  497TMC3     C 7390   4.066   4.547  16.003 -0.4901  0.3545 -0.3869
  497TMC3     O 7391   4.186   4.551  15.986 -0.5137  0.1347  0.3086
  497TMC3     H 7392   3.885   0.036  16.000  0.0819  1.6471 -0.9735
  497TMC3    H1 7393   4.125   4.513  16.248 -0.8399 -0.2554 -1.0038
  497TMC3    H2 7394   3.863   0.077  16.424  0.8730 -0.9759  0.6436
  497TMC3    C7 7395   4.029   4.620  16.487 -0.4381  0.7208 -0.3145
  497TMC3    C8 7396   3.801   0.199  16.192  0.5261  0.1534 -0.2956
  497TMC3    O1 7397   3.948   4.657  16.570  0.0027 -0.1891  0.3140
  497TMC3    O2 7398   3.800   0.255  16.302  0.0583  0.1520  0.5108
  498MPD2     C 7399   4.588   0.412   9.121 -0.2295 -0.1273 -0.3489
  498MPD2    C1 7400   4.657   0.347   9.221  0.1354 -0.4052  0.4263
  498MPD2    C2 7401   4.592   0.244   9.286 -0.2476 -0.5708 -0.8220
  498MPD2    C3 7402   4.468   0.199   9.249 -0.1201 -0.0544 -0.5136
  498MPD2    C4 7403   4.402   0.254   9.142  0.5046  0.0351 -0.1236
  498MPD2    C5 7404   4.465   0.365   9.077 -0.4038 -0.2662 -0.4202
  498MPD2     H 7405   4.642   0.193   9.367 -2.9238 -2.6131 -0.4694
  498MPD2    H1 7406   4.302   0.228   9.110  0.6648  0.4535 -0.9931
  498MPD2    H2 7407   4.633   0.498   9.070 -0.6974  1.7349  2.3798
  498MPD2    H3 7408   4.412   0.408   8.993  0.6529 -0.6212 -1.2740
  498MPD2     N 7409   4.413   0.099   9.329 -0.0381  0.2580  0.0009
  498MPD2    H5 7410   4.478   0.071   9.402  0.6128 -1.1079 -1.0913
  498MPD2    N1 7411   0.062   0.384   9.269  0.5893  0.3212  0.7321
  498MPD2    H7 7412   0.106   0.330   9.342 -1.0256  0.0814  1.5269
  499TMC3    C1 7413   0.260   0.497   9.317  0.6366 -0.3145 -0.0860
  499TMC3    C2 7414   0.321   0.389   9.361 -0.1524  0.0461 -0.1703
  499TMC3    C3 7415   0.448   0.396   9.413 -0.1631 -0.0211 -0.1087
  499TMC3    C4 7416   0.319   0.618   9.319  0.7778 -0.0007  0.5926
  499TMC3    C5 7417   0.447   0.625   9.373 -0.7157 -0.4319 -0.2308
  499TMC3    C6 7418   0.514   0.517   9.428 -0.2117  0.3184  0.2263
  499TMC3     C 7419   0.146   0.487   9.230  0.1199 -0.3908 -0.2479
  499TMC3     O 7420   0.114   0.578   9.151 -0.0199 -0.7899  0.7532
  499TMC3     H 7421   0.287   0.292   9.328 -1.2177  0.3551  0.0044
  499TMC3    H1 7422   0.269   0.708   9.283  1.0992 -0.3039 -0.5887
  499TMC3    H2 7423   0.614   0.529   9.467 -0.2476 -1.1617  0.7717
  499TMC3    C7 7424   0.533   0.742   9.351  0.1208  1.0865  0.2744
  499TMC3    C8 7425   0.525   0.268   9.439 -0.4608 -0.7554 -0.2887
  499TMC3    O1 7426   0.644   0.738   9.401 -0.3706 -0.3502  0.8785
  499TMC3    O2 7427   0.645   0.280   9.451  0.0293  0.5363  0.5314
  500MPD2     C 7428   1.908   1.851  10.927  0.4544  0.2062 -0.4709
  500MPD2    C1 7429   1.946   1.951  10.836  0.0673 -0.1944 -0.2533
  500MPD2    C2 7430   1.868   1.985  10.731  0.2567  0.2670  0.6458
  500MPD2    C3 7431   1.745   1.924  10.712  0.1201  0.8347 -0.7188
  500MPD2    C4 7432   1.705   1.837  10.801  0.0172  0.0522 -0.5647
  500MPD2    C5 7433   1.789   1.791  10.904  0.3609  0.2557  0.6285
  500MPD2     H 7434   1.909   2.044  10.650 -0.7390  0.9149  0.6084
  500MPD2    H1 7435   1.609   1.788  10.786  1.2832 -2.2887 -0.9489
  500MPD2    H2 7436   1.970   1.807  11.003 -2.4274 -2.1828  0.4996
  500MPD2    H3 7437   1.746   1.718  10.972 -1.4418  0.4931 -0.2463
  500MPD2     N 7438   1.654   1.959  10.606 -0.1974 -0.8660  0.1121
  500MPD2    H5 7439   1.567   1.907  10.611 -0.1988 -0.8149  0.6674
  500MPD2    N1 7440   2.063   2.027  10.847  0.1475  0.3411 -0.5729
  500MPD2    H7 7441   2.092   2.085  10.769 -1.0793 -0.8850 -1.9431
  501TMC3    C1 7442   2.255   2.114  10.934  0.3492 -0.6318 -0.5844
  501TMC3    C2 7443   2.245   2.220  10.853  0.4095  0.3205 -0.4682
  501TMC3    C3 7444   2.354   2.304  10.842 -0.0287  0.7590  0.0262
  501TMC3    C4 7445   2.376   2.091  11.009  0.9233 -0.7726 -0.1034
  501TMC3    C5 7446   2.479   2.168  10.989  0.3930  0.2962  0.4894
  501TMC3    C6 7447   2.471   2.283  10.910  0.4878 -0.2126  0.2547
  501TMC3     C 7448   2.148   2.025  10.954 -0.3202  0.1636 -0.2541
  501TMC3     O 7449   2.147   1.960  11.059  0.8631 -0.3094 -0.2599
  501TMC3     H 7450   2.147   2.241  10.811  0.1588  0.3623  0.1434
  501TMC3    H1 7451   2.384   1.999  11.064  2.4727 -0.3482  0.3796
  501TMC3    H2 7452   2.552   2.355  10.900 -0.3012  1.0691  3.2472
  501TMC3    C7 7453   2.610   2.111  11.032 -0.0813  0.2868 -0.1960
  501TMC3    C8 7454   2.369   2.402  10.741  0.4636 -0.4678  0.0163
  501TMC3    O1 7455   2.612   2.007  11.096 -0.1200 -0.2345  0.1054
  501TMC3    O2 7456   2.483   2.435  10.716  0.0200 -0.2079 -0.4794
  502TMC3    C1 7457   1.953   0.506  15.412  0.4369 -0.5573  0.2255
  502TMC3    C2 7458   1.912   0.636  15.408 -0.9750  1.0358  0.4072
  502TMC3    C3 7459   1.777   0.649  15.425  0.0839 -0.2109  0.4829
  502TMC3    C4 7460   1.866   0.405  15.419 -0.0267  0.9666 -0.0076
  502TMC3    C5 7461   1.734   0.426  15.411  0.3584  0.3229 -0.4341
  502TMC3    C6 7462   1.678   0.554  15.423 -0.3788 -0.4335 -0.0007
  502TMC3     C 7463   2.074   0.484  15.479  0.5018 -0.2322  0.8176
  502TMC3     O 7464   2.172   0.549  15.438 -0.5626  0.7652 -0.1089
  502TMC3     H 7465   1.981   0.712  15.442 -1.8561  1.1791  1.8397
  502TMC3    H1 7466   1.906   0.305  15.412 -0.3553  0.8219  0.1703
  502TMC3    H2 7467   1.573   0.575  15.406 -0.6886 -2.7669 -0.9433
  502TMC3    C7 7468   1.663   0.298  15.440  0.5375 -0.1910 -0.6638
  502TMC3    C8 7469   1.728   0.783  15.455  0.5069 -0.5030 -0.8046
  502TMC3    O1 7470   1.715   0.187  15.436  0.0991 -0.5604  0.1902
  502TMC3    O2 7471   1.792   0.873  15.406  0.1958  0.2832 -0.0678
  503MPD2     C 7472   3.735   1.349  16.864  0.2519  0.1245 -0.2383
  503MPD2    C1 7473   3.815   1.397  16.974  0.5920  1.0101  0.1184
  503MPD2    C2 7474   3.882   1.312  17.051 -0.1001  0.1668  0.2642
  503MPD2    C3 7475   3.872   1.181  17.022  0.3971 -0.4526 -0.4984
  503MPD2    C4 7476   3.805   1.128  16.913  0.7558  0.0004 -0.0671
  503MPD2    C5 7477   3.728   1.215  16.835  0.0877 -0.5459  0.6767
  503MPD2     H 7478   3.938   1.349  17.136 -1.1583 -0.6130  1.3046
  503MPD2    H1 7479   3.787   1.023  16.892 -1.3092  0.3665 -0.0929
  503MPD2    H2 7480   3.673   1.409  16.799  0.5612  0.5459 -0.1400
  503MPD2    H3 7481   3.667   1.179  16.754 -1.0168 -0.0429  1.2877
  503MPD2     N 7482   3.942   1.092  17.111 -0.3710 -0.1739 -0.5500
  503MPD2    H5 7483   3.998   1.130  17.187 -0.1005 -1.5385 -0.0612
  503MPD2    N1 7484   3.819   1.540  17.005  0.3276 -0.2856  0.1291
  503MPD2    H7 7485   3.870   1.569  17.087 -0.9763  2.0621  0.1100
  504TMC3    C1 7486   4.070   0.922  17.178  0.5185  0.1107 -0.0237
  504TMC3    C2 7487   4.042   0.933  17.312  0.1790  0.7663  0.7665
  504TMC3    C3 7488   4.133   0.875  17.402 -0.4561  0.1315 -0.6115
  504TMC3    C4 7489   4.169   0.840  17.127 -0.2205  0.3914 -0.7480
  504TMC3    C5 7490   4.239   0.768  17.214 -0.0327 -0.4637 -0.2092
  504TMC3    C6 7491   4.222   0.788  17.351 -0.3430  0.1336 -0.0025
  504TMC3     C 7492   3.967   0.963  17.085 -0.3984 -0.0711 -0.1754
  504TMC3     O 7493   3.965   0.895  16.982  0.1070  0.7079 -0.3612
  504TMC3     H 7494   3.950   0.983  17.341 -1.8834 -0.9692 -2.7028
  504TMC3    H1 7495   4.185   0.838  17.019 -1.5277  0.9220 -0.9465
  504TMC3    H2 7496   4.257   0.703  17.409 -1.8522 -0.3235  0.2419
  504TMC3    C7 7497   4.346   0.693  17.154 -0.1332 -0.2538  0.0999
  504TMC3    C8 7498   4.080   0.818  17.524 -0.3904  0.3985  0.3679
  504TMC3    O1 7499   4.333   0.657  17.039  0.3609  0.0764 -0.1973
  504TMC3    O2 7500   3.989   0.740  17.507 -0.2176 -0.1621  0.1143
  505MPD2     C 7501   4.400   3.605  10.031  0.1886  0.0457  0.5110
  505MPD2    C1 7502   4.499   3.624   9.936  0.0397 -0.1467 -0.5654
  505MPD2    C2 7503   4.608   3.706   9.963  0.2815  0.1741  1.0080
  505MPD2    C3 7504   4.620   3.773  10.082 -0.2384  0.0411 -0.1577
  505MPD2    C4 7505   4.517   3.758  10.173  0.3103 -0.0559  0.4350
  505MPD2    C5 7506   4.403   3.684  10.145 -0.0642 -0.1907  0.1933
  505MPD2     H 7507   4.685   3.730   9.890 -0.5623  1.6818  0.5980
  505MPD2    H1 7508   4.515   3.795  10.275 -2.2224 -1.9923  1.0992
  505MPD2    H2 7509   4.320   3.532  10.028 -0.1208  0.4707 -1.9083
  505MPD2    H3 7510   4.321   3.675  10.216  0.9820 -0.7167  1.3437
  505MPD2     N 7511   0.013   3.857  10.099 -0.0848  0.1298  0.5810
  505MPD2    H5 7512   0.082   3.858  10.025 -2.0364  0.0845 -1.2385
  505MPD2    N1 7513   4.494   3.548   9.812  0.2135 -0.7345 -0.1137
  505MPD2    H7 7514   4.405   3.506   9.790 -1.2597  0.9994  2.5526
  506TMC3    C1 7515   4.569   3.472   9.595 -0.1967  0.1775  1.2473
  506TMC3    C2 7516   4.475   3.537   9.530  0.2525 -0.1953  0.0566
  506TMC3    C3 7517   4.491   3.555   9.393 -0.3681  0.2205 -0.0925
  506TMC3    C4 7518   4.685   3.439   9.532 -0.1915 -0.0861 -0.4705
  506TMC3    C5 7519   4.704   3.474   9.400 -0.0669  0.3569 -0.3428
  506TMC3    C6 7520   4.599   3.506   9.327 -0.2626 -0.7444 -0.4286
  506TMC3     C 7521   4.601   3.517   9.733 -0.2110 -0.5739  0.0347
  506TMC3     O 7522   0.000   3.539   9.751  0.0630 -0.2666  0.2129
  506TMC3     H 7523   4.381   3.560   9.578  0.4136  1.1610 -0.2990
  506TMC3    H1 7524   0.046   3.395   9.586  0.3122 -0.1503 -1.2963
  506TMC3    H2 7525   4.610   3.545   9.227 -2.1833  3.2209  0.8836
  506TMC3    C7 7526   0.103   3.551   9.374 -0.2949  0.0442 -0.7047
  506TMC3    C8 7527   4.400   3.637   9.324 -0.0480 -0.3534  0.7435
  506TMC3    O1 7528   0.120   3.587   9.255  0.1314 -0.2331  0.3834
  506TMC3    O2 7529   4.396   3.617   9.204 -0.4392 -0.3287 -0.1590
  507TMC3    C1 7530   0.118   0.669  14.995  0.0276 -0.1223  0.2037
  507TMC3    C2 7531   0.084   0.599  14.887  0.6181  0.2100 -0.8175
  507TMC3    C3 7532   0.168   0.606  14.782  0.3896 -0.2606 -0.6849
  507TMC3    C4 7533   0.234   0.739  15.001 -0.1417  0.1168 -0.0763
  507TMC3    C5 7534   0.322   0.741  14.899 -0.6845  0.4684 -0.3422
  507TMC3    C6 7535   0.287   0.671  14.784 -0.0794 -0.0573  0.0539
  507TMC3     C 7536   0.024   0.674  15.102 -0.0775 -0.6312  0.0846
  507TMC3     O 7537   0.072   0.695  15.214 -0.2804 -0.0863  0.4674
  507TMC3     H 7538   4.703   0.563  14.875  0.9907 -0.2865 -2.5475
  507TMC3    H1 7539   0.238   0.824  15.069  1.8459 -0.2554  0.2810
  507TMC3    H2 7540   0.359   0.661  14.703 -0.8245 -0.5855 -0.5457
  507TMC3    C7 7541   0.359   0.878  14.864 -0.6936  0.7556 -0.0220
  507TMC3    C8 7542   0.106   0.633  14.657 -0.0507 -0.3667  0.5471
  507TMC3    O1 7543   0.366   0.887  14.742 -0.2244  0.1537  0.3647
  507TMC3    O2 7544   0.014   0.565  14.618  0.3862 -0.0560 -0.4714
  508MPD2     C 7545   1.201   2.725  16.080 -0.3697  0.0604  0.5663
  508MPD2    C1 7546   1.260   2.851  16.084  0.2171  0.1064  0.2436
  508MPD2    C2 7547   1.229   2.942  15.984  0.6062 -0.3964 -0.0312
  508MPD2    C3 7548   1.133   2.915  15.888 -0.4290 -1.2954 -0.2925
  508MPD2    C4 7549   1.083   2.785  15.879 -0.1482  0.0194 -0.0356
  508MPD2    C5 7550   1.120   2.692  15.977 -0.2500 -0.5065 -0.1383
  508MPD2     H 7551   1.271   3.042  15.982 -1.1075  0.3942  2.6382
  508MPD2    H1 7552   1.015   2.757  15.800  0.6598 -0.7788 -0.4430
  508MPD2    H2 7553   1.216   2.653  16.160 -0.5329  1.2511  1.6607
  508MPD2    H3 7554   1.085   2.589  15.972  0.2185 -0.6155 -1.1717
  508MPD2     N 7555   1.114   3.009  15.783 -0.8674  0.5898 -0.1444
  508MPD2    H5 7556   1.171   3.092  15.786  1.5953 -1.0921  0.0676
  508MPD2    N1 7557   1.333   2.888  16.194  1.0349 -0.1479  0.3880
  508MPD2    H7 7558   1.349   2.826  16.272  0.1962 -3.6666 -2.2281
  509TMC3    C1 7559   0.932   3.266  15.474 -0.0459 -0.4806 -0.5380
  509TMC3    C2 7560   1.052   3.314  15.427  0.8967 -0.1508  0.0942
  509TMC3    C3 7561   1.167   3.260  15.481  0.7979  0.7493 -0.1499
  509TMC3    C4 7562   0.928   3.150  15.551 -0.0032 -0.3743  0.6088
  509TMC3    C5 7563   1.050   3.101  15.583 -0.1296  0.4549 -0.1346
  509TMC3    C6 7564   1.177   3.146  15.558 -0.3183  0.3495 -0.0889
  509TMC3     C 7565   0.804   3.305  15.412  0.2711 -0.3523  0.0425
  509TMC3     O 7566   0.715   3.222  15.417  0.4076  0.1037 -0.2818
  509TMC3     H 7567   1.064   3.397  15.357  0.8524  1.0782  1.5445
  509TMC3    H1 7568   0.835   3.103  15.582 -1.4031  1.3934 -0.9276
  509TMC3    H2 7569   1.267   3.101  15.598 -0.0656  1.4651  0.6167
  509TMC3    C7 7570   1.036   2.989  15.671  0.6024  0.3564  0.7022
  509TMC3    C8 7571   1.295   3.322  15.460  0.8750 -0.0335 -0.2662
  509TMC3    O1 7572   0.950   2.907  15.647  0.0719  0.0948  0.0708
  509TMC3    O2 7573   1.394   3.254  15.428 -0.2939  0.1113 -0.2048
  510MPD2     C 7574   3.454   0.400  14.410  0.5570  0.2985 -0.9296
  510MPD2    C1 7575   3.487   0.348  14.532  1.0029  0.9245  0.1823
  510MPD2    C2 7576   3.618   0.318  14.558 -0.2689  0.2932 -0.3441
  510MPD2    C3 7577   3.718   0.345  14.467  0.2071 -0.9103 -0.2661
  510MPD2    C4 7578   3.681   0.378  14.339  0.1590 -0.4125 -0.2746
  510MPD2    C5 7579   3.548   0.397  14.308  0.0112 -0.1680 -0.1914
  510MPD2     H 7580   3.651   0.265  14.647 -1.0138 -1.3944 -1.0675
  510MPD2    H1 7581   3.746   0.376  14.252  0.3880 -0.7529 -0.1000
  510MPD2    H2 7582   3.350   0.423  14.392  0.5867  0.8308 -0.4143
  510MPD2    H3 7583   3.522   0.421  14.206 -3.0365  1.5165  1.0135
  510MPD2     N 7584   3.847   0.305  14.503  0.3899  0.0149  0.3781
  510MPD2    H5 7585   3.853   0.263  14.595 -2.1700  1.9967  1.4374
  510MPD2    N1 7586   3.381   0.321  14.616 -0.9332 -0.3519 -0.2726
  510MPD2    H7 7587   3.287   0.320  14.576 -0.2750  1.1045 -1.8763
  511TMC3    C1 7588   3.264   0.239  14.792 -0.7484  0.5391  0.4977
  511TMC3    C2 7589   3.231   0.258  14.921  0.6342 -0.1976  0.2717
  511TMC3    C3 7590   3.146   0.164  14.980 -0.4276  0.2249  0.0877
  511TMC3    C4 7591   3.228   0.121  14.729  0.3307  0.3236 -0.1909
  511TMC3    C5 7592   3.156   0.027  14.794  0.0879 -0.3583 -0.0575
  511TMC3    C6 7593   3.108   0.047  14.920  0.2287  0.5538  0.6482
  511TMC3     C 7594   3.393   0.300  14.749  0.0617 -0.3253  0.3139
  511TMC3     O 7595   3.489   0.294  14.828 -0.4725  0.2139 -0.8583
  511TMC3     H 7596   3.264   0.351  14.965  2.0764  0.2001 -1.6669
  511TMC3    H1 7597   3.260   0.102  14.627 -0.7464  1.4791 -0.7497
  511TMC3    H2 7598   3.046   4.691  14.963  0.1811  0.4584  0.4063
  511TMC3    C7 7599   3.116   4.619  14.719  0.0025  0.2256 -0.1944
  511TMC3    C8 7600   3.087   0.195  15.105  0.5568  0.8835 -0.9094
  511TMC3    O1 7601   3.186   4.590  14.625  0.4776 -0.3227 -0.3178
  511TMC3    O2 7602   3.106   0.306  15.151 -0.3293 -0.2441  0.2653
  512TMC3    C1 7603   2.550   4.248  12.895 -0.5439  0.3522 -0.2659
  512TMC3    C2 7604   2.633   4.218  12.994  0.3101 -0.2608  0.2066
  512TMC3    C3 7605   2.662   4.090  13.017  0.3541  0.1039  0.1101
  512TMC3    C4 7606   2.491   4.149  12.818  0.3303 -0.7660  0.5698
  512TMC3    C5 7607   2.518   4.015  12.848  0.6215  0.5141  0.5919
  512TMC3    C6 7608   2.604   3.984  12.949  0.0358  0.4009  0.8076
  512TMC3     C 7609   2.507   4.382  12.883  0.0172  0.5135 -0.6591
  512TMC3     O 7610   2.572   4.477  12.929 -0.6503 -0.5806  0.5733
  512TMC3     H 7611   2.667   4.305  13.049  0.9040 -0.5796  0.3499
  512TMC3    H1 7612   2.427   4.182  12.737  1.2788  2.0687  0.9697
  512TMC3    H2 7613   2.645   3.884  12.953 -0.6556  0.0791  0.0168
  512TMC3    C7 7614   2.453   3.903  12.772  0.5579 -0.0847  0.0877
  512TMC3    C8 7615   2.746   4.049  13.130  0.1874 -0.2256 -0.7031
  512TMC3    O1 7616   2.391   3.942  12.673  0.1324 -0.1485 -0.2647
  512TMC3    O2 7617   2.802   3.939  13.124  0.0359 -0.7938  0.2809
  513MPD2     C 7618   4.424   3.757  13.249 -0.1978 -0.7243  0.1519
  513MPD2    C1 7619   4.493   3.872  13.234  0.0706 -0.2906 -0.8403
  513MPD2    C2 7620   4.490   3.966  13.341 -0.5610 -0.2344 -0.5249
  513MPD2    C3 7621   4.421   3.941  13.456 -0.1544 -0.5276 -0.0129
  513MPD2    C4 7622   4.367   3.819  13.474 -0.3225  0.5576 -0.0457
  513MPD2    C5 7623   4.361   3.738  13.369 -0.7875  0.1227 -0.0020
  513MPD2     H 7624   4.555   4.053  13.345  1.1315 -1.5068 -0.7832
  513MPD2    H1 7625   4.310   3.791  13.562 -0.3535 -1.9423 -0.8521
  513MPD2    H2 7626   4.426   3.689  13.164  0.9204 -0.4439 -0.0450
  513MPD2    H3 7627   4.312   3.641  13.380  0.6635 -0.3666  2.1299
  513MPD2     N 7628   4.420   4.043  13.552 -0.0364  0.6796  0.3934
  513MPD2    H5 7629   4.451   4.133  13.518  1.7628 -0.7907 -1.8459
  513MPD2    N1 7630   4.567   3.890  13.117 -0.4005 -0.2528  0.0363
  513MPD2    H7 7631   4.551   3.820  13.046 -2.1792 -1.2165  1.3701
  514TMC3    C1 7632   4.721   4.013  12.973  0.4693  0.5370  0.3866
  514TMC3    C2 7633   4.626   4.053  12.884 -0.4211 -0.5186  0.2486
  514TMC3    C3 7634   4.670   4.137  12.783  0.4823 -0.4054  0.3407
  514TMC3    C4 7635   0.118   4.075  12.980 -0.1531 -0.7034  0.1479
  514TMC3    C5 7636   0.151   4.177  12.905  0.2300  0.2241 -0.3225
  514TMC3    C6 7637   0.071   4.201  12.793  0.7272  0.2212 -0.1205
  514TMC3     C 7638   4.671   3.982  13.108 -0.1634 -0.1855 -0.3576
  514TMC3     O 7639   0.003   4.048  13.198  0.1804  0.0348  0.3123
  514TMC3     H 7640   4.526   4.010  12.879 -0.9807  0.7139  0.9369
  514TMC3    H1 7641   0.194   4.041  13.050 -0.4424 -1.5578  0.0358
  514TMC3    H2 7642   0.095   4.293  12.740 -1.3203  0.4159 -0.6992
  514TMC3    C7 7643   0.185   4.293  12.970  0.0655 -0.2648 -0.5851
  514TMC3    C8 7644   4.569   4.182  12.689  0.3001 -0.5546 -0.0917
  514TMC3    O1 7645   0.225   4.385  12.904  0.2736 -0.0567 -0.2513
  514TMC3    O2 7646   4.448   4.173  12.709  0.1814 -0.1316 -0.1497
  515MPD2     C 7647   1.830   1.315  15.377  0.2675  0.9040  0.1212
  515MPD2    C1 7648   1.882   1.302  15.249 -0.5671  0.3895 -0.4986
  515MPD2    C2 7649   2.011   1.347  15.225  0.3046  0.3731  0.5370
  515MPD2    C3 7650   2.094   1.399  15.326  0.5245 -0.1934  0.2199
  515MPD2    C4 7651   2.032   1.417  15.450  0.1882  0.3270 -0.3384
  515MPD2    C5 7652   1.905   1.372  15.476 -0.4787  0.4697  0.6161
  515MPD2     H 7653   2.057   1.348  15.127 -0.9909  0.2291 -0.0774
  515MPD2    H1 7654   2.094   1.449  15.533 -0.5018  1.5346 -0.2859
  515MPD2    H2 7655   1.736   1.277  15.416  0.3899  1.1245  0.6376
  515MPD2    H3 7656   1.870   1.379  15.578 -1.2863 -0.9208  0.4244
  515MPD2     N 7657   2.231   1.443  15.305  0.1218  0.3187  0.1400
  515MPD2    H5 7658   2.280   1.491  15.380  0.5937 -3.8183  2.4666
  515MPD2    N1 7659   1.817   1.239  15.142  0.2230  0.1155 -0.4378
  515MPD2    H7 7660   1.880   1.216  15.067  0.2654  1.4334 -0.8056
  516TMC3    C1 7661   1.665   1.114  15.029  0.1225  0.4106 -0.1832
  516TMC3    C2 7662   1.716   1.160  14.913 -0.1719 -1.1672 -0.7659
  516TMC3    C3 7663   1.711   1.073  14.811  0.7310  0.3084 -0.6072
  516TMC3    C4 7664   1.604   0.998  15.054 -0.8342  0.1375 -0.0236
  516TMC3    C5 7665   1.595   0.916  14.945  0.3945  0.1002  0.1422
  516TMC3    C6 7666   1.657   0.949  14.827 -0.4626  0.4902  0.5701
  516TMC3     C 7667   1.695   1.179  15.151 -0.2767 -0.8642  0.0091
  516TMC3     O 7668   1.623   1.168  15.245  0.1924 -0.3847 -0.5800
  516TMC3     H 7669   1.741   1.263  14.892  1.5890 -1.8419 -2.0165
  516TMC3    H1 7670   1.571   0.969  15.153  0.8657  1.2958  0.8850
  516TMC3    H2 7671   1.655   0.877  14.746  2.2382 -0.9163  1.7716
  516TMC3    C7 7672   1.601   0.777  14.982  0.0943  0.1048  0.4250
  516TMC3    C8 7673   1.708   1.122  14.676 -0.0231  0.4867  0.1668
  516TMC3    O1 7674   1.628   0.751  15.098  0.1113  0.2883 -0.6000
  516TMC3    O2 7675   1.645   1.052  14.595  0.1182  0.4236  0.9683
  517MPD2     C 7676   2.093   3.006   0.150  0.6121 -0.0137 -0.7336
  517MPD2    C1 7677   2.225   2.980   0.187  0.1337  0.2015  0.2765
  517MPD2    C2 7678   2.308   3.081   0.230  0.8938  0.5521 -0.0332
  517MPD2    C3 7679   2.259   3.203   0.265 -0.4662  0.5861 -0.0990
  517MPD2    C4 7680   2.120   3.215   0.248  0.1436  0.3510  0.5560
  517MPD2    C5 7681   2.049   3.126   0.177 -0.0978 -0.3763  0.1570
  517MPD2     H 7682   2.414   3.062   0.243  1.0585  0.9871 -0.7448
  517MPD2    H1 7683   2.065   3.307   0.266 -0.3010 -0.0770  1.3681
  517MPD2    H2 7684   2.027   2.928   0.115  1.3851 -1.4100  0.9365
  517MPD2    H3 7685   1.945   3.147   0.155  0.3594 -0.1606 -1.7320
  517MPD2     N 7686   2.331   3.315   0.324 -0.0027  0.1384  0.4506
  517MPD2    H5 7687   2.279   3.399   0.345  2.5137  1.0799  2.8244
  517MPD2    N1 7688   2.282   2.851   0.173  0.3066 -0.0508 -0.3694
  517MPD2    H7 7689   2.382   2.852   0.189  0.3466  2.1562 -0.7090
  518TMC3    C1 7690   2.285   2.626   0.123  0.2311 -0.4258 -0.2999
  518TMC3    C2 7691   2.246   2.498   0.165 -0.5149 -0.5304 -0.0443
  518TMC3    C3 7692   2.344   2.403   0.161  0.5354  0.3406  0.1064
  518TMC3    C4 7693   2.418   2.650   0.078 -0.1357 -0.2518 -0.0461
  518TMC3    C5 7694   2.504   2.545   0.069  0.0226  0.1047 -0.8522
  518TMC3    C6 7695   2.469   2.422   0.107 -0.5279  0.2003 -0.5577
  518TMC3     C 7696   2.211   2.736   0.163  0.7691 -0.0614  0.3590
  518TMC3     O 7697   2.095   2.719   0.194  0.3403 -0.3296  0.0416
  518TMC3     H 7698   2.141   2.478   0.183  0.0622 -2.7117  0.8538
  518TMC3    H1 7699   2.444   2.746   0.038 -1.9169  0.4464  0.4456
  518TMC3    H2 7700   2.535   2.340   0.137  1.8611  1.7751 -1.5111
  518TMC3    C7 7701   2.638   2.559   0.022 -0.5499 -0.5158  0.6607
  518TMC3    C8 7702   2.304   2.265   0.157  0.3035  0.2343  0.7672
  518TMC3    O1 7703   2.685   2.666   0.050  0.5617 -0.2008  0.6620
  518TMC3    O2 7704   2.371   2.195   0.085 -0.4948 -0.3261  0.1369
  519MPD2     C 7705   3.704   1.294  14.527 -0.7944 -0.3689  0.1763
  519MPD2    C1 7706   3.734   1.313  14.393  0.5844 -0.1131  0.0124
  519MPD2    C2 7707   3.826   1.228  14.333 -0.3240 -0.1431  0.1864
  519MPD2    C3 7708   3.865   1.111  14.399  0.2968  0.3327  0.1762
  519MPD2    C4 7709   3.833   1.092  14.532 -0.5308 -0.6921 -0.2322
  519MPD2    C5 7710   3.759   1.187  14.596 -0.2084  0.2447  0.3536
  519MPD2     H 7711   3.863   1.248  14.234 -0.0085 -0.7262  0.1869
  519MPD2    H1 7712   3.862   1.001  14.584 -0.9167 -1.1781 -0.8736
  519MPD2    H2 7713   3.635   1.361  14.577 -0.4208  0.3643 -0.2904
  519MPD2    H3 7714   3.741   1.171  14.701 -1.4831 -1.1714 -0.0861
  519MPD2     N 7715   3.928   1.007  14.335  0.6514 -0.1439 -0.1533
  519MPD2    H5 7716   3.967   0.932  14.392 -2.9451  0.3234  2.9218
  519MPD2    N1 7717   3.677   1.429  14.332  0.2060  0.1048 -0.0351
  519MPD2    H7 7718   3.616   1.490  14.385  1.4531  1.2936  0.0362
  520TMC3    C1 7719   3.950   0.859  14.154  1.0152  0.0674 -0.3114
  520TMC3    C2 7720   3.883   0.823  14.040  1.3196  0.1135 -0.4074
  520TMC3    C3 7721   3.932   0.717  13.967  0.3013 -0.2653  0.5751
  520TMC3    C4 7722   4.063   0.805  14.203 -1.0317 -0.2831  0.3934
  520TMC3    C5 7723   4.109   0.695  14.128 -0.8633 -0.0167  0.1327
  520TMC3    C6 7724   4.050   0.657  14.007  0.2353  0.3937  0.0935
  520TMC3     C 7725   3.899   0.982  14.199  0.5564  0.0121  0.7549
  520TMC3     O 7726   3.837   1.047  14.117  0.4615  0.2967  0.0962
  520TMC3     H 7727   3.786   0.865  14.016  0.9596 -0.1329  0.6034
  520TMC3    H1 7728   4.111   0.841  14.293  1.2406  0.4003 -1.0930
  520TMC3    H2 7729   4.092   0.575  13.949 -0.1279  1.6077 -1.8852
  520TMC3    C7 7730   4.212   0.611  14.192  0.4162  0.7035  0.4658
  520TMC3    C8 7731   3.902   0.721  13.826  0.1594 -0.8423  0.1621
  520TMC3    O1 7732   4.251   0.639  14.306 -0.1037 -0.0234 -0.7360
  520TMC3    O2 7733   3.994   0.684  13.754  0.4429 -0.2316  0.0223
  521MPD2     C 7734   0.335   3.993  17.481 -0.1950  0.6638 -0.5535
  521MPD2    C1 7735   0.293   3.893  17.390  0.5802 -0.6900 -0.5099
  521MPD2    C2 7736   0.363   3.864  17.271  0.2831 -0.4973  0.1282
  521MPD2    C3 7737   0.488   3.923  17.257 -0.0411  1.1859  0.4639
  521MPD2    C4 7738   0.529   4.024  17.344 -0.0205 -0.4247  0.8025
  521MPD2    C5 7739   0.453   4.056  17.449  0.2865  0.0272  0.4605
  521MPD2     H 7740   0.330   3.777  17.216 -1.7335  1.6946 -2.0889
  521MPD2    H1 7741   0.626   4.072  17.335  0.8090 -1.9917  1.1921
  521MPD2    H2 7742   0.277   4.019  17.569  0.8027 -1.2794  0.6646
  521MPD2    H3 7743   0.498   4.119  17.525  1.7425  0.0793 -0.4432
  521MPD2     N 7744   0.565   3.876  17.146  0.2489  0.3497  0.1942
  521MPD2    H5 7745   0.518   3.817  17.078  0.7514 -1.3578  1.3143
  521MPD2    N1 7746   0.158   3.837  17.416  0.1312  0.0079 -0.5012
  521MPD2    H7 7747   0.131   3.840  17.514 -1.6493 -0.1722 -0.9829
  522TMC3    C1 7748   0.759   3.823  17.037  0.6407  0.4925 -0.2680
  522TMC3    C2 7749   0.882   3.768  17.063  0.1758 -0.0028  0.3464
  522TMC3    C3 7750   0.932   3.687  16.965 -0.1386 -0.4592  0.2231
  522TMC3    C4 7751   0.689   3.811  16.915 -0.2543 -0.1681 -0.0276
  522TMC3    C5 7752   0.759   3.740  16.818  0.3652 -0.1271 -0.3332
  522TMC3    C6 7753   0.875   3.670  16.840 -0.3409 -0.4983  0.2305
  522TMC3     C 7754   0.701   3.891  17.147 -0.9408 -0.4182  0.1050
  522TMC3     O 7755   0.772   3.924  17.245 -0.2647  0.3299 -0.2889
  522TMC3     H 7756   0.925   3.771  17.163 -0.6592 -0.7001  0.7289
  522TMC3    H1 7757   0.604   3.876  16.899  0.3858  0.5089 -0.6571
  522TMC3    H2 7758   0.921   3.618  16.757  1.1472  0.2552  0.6039
  522TMC3    C7 7759   0.719   3.752  16.669 -0.2212  0.4731 -1.2993
  522TMC3    C8 7760   1.029   3.591  17.009 -1.4671 -0.0738 -0.3198
  522TMC3    O1 7761   0.793   3.699  16.592 -0.3133 -0.3612 -0.0493
  522TMC3    O2 7762   1.086   3.616  17.114 -0.0208 -0.3051  0.0432
  523MPD2     C 7763   2.528   3.781  10.006 -0.1022 -0.6837 -0.5063
  523MPD2    C1 7764   2.468   3.660   9.982  0.0112  0.1305 -0.5752
  523MPD2    C2 7765   2.367   3.652   9.885 -0.2170  0.1955 -0.0013
  523MPD2    C3 7766   2.318   3.768   9.822  1.1585  0.1925  0.3096
  523MPD2    C4 7767   2.387   3.881   9.850  0.1307  0.4412 -0.3004
  523MPD2    C5 7768   2.494   3.895   9.936  0.0584  0.5798  0.0544
  523MPD2     H 7769   2.335   3.554   9.852  0.9884 -0.3161  0.3392
  523MPD2    H1 7770   2.365   3.973   9.796  2.2187  0.1615 -1.6155
  523MPD2    H2 7771   2.605   3.794  10.081 -1.6961  2.9753  0.5172
  523MPD2    H3 7772   2.540   3.992   9.950 -1.6476  1.7038 -2.1844
  523MPD2     N 7773   2.220   3.771   9.719 -0.6976 -0.1848 -0.4112
  523MPD2    H5 7774   2.197   3.857   9.669  1.1181  0.3053 -0.3875
  523MPD2    N1 7775   2.509   3.545  10.053 -0.1117  0.0745  0.0222
  523MPD2    H7 7776   2.595   3.560  10.104 -0.2252 -1.0797  0.5514
  524TMC3    C1 7777   2.046   3.685   9.580 -0.2106 -0.3143  0.4022
  524TMC3    C2 7778   2.014   3.605   9.469 -0.1720 -0.3589 -1.1533
  524TMC3    C3 7779   1.894   3.625   9.406  0.2585 -0.5431  0.4908
  524TMC3    C4 7780   1.957   3.777   9.626  0.1647 -0.3549 -0.2826
  524TMC3    C5 7781   1.845   3.799   9.557  0.7190  0.4910 -0.2268
  524TMC3    C6 7782   1.803   3.719   9.450 -0.0633 -0.1785 -0.5603
  524TMC3     C 7783   2.163   3.654   9.665 -0.0412 -0.4222 -0.6848
  524TMC3     O 7784   2.187   3.536   9.674 -0.5705  0.7663  0.0277
  524TMC3     H 7785   2.095   3.551   9.420  2.4086  1.3451  1.2122
  524TMC3    H1 7786   1.991   3.848   9.700  0.7734 -1.4738  0.5100
  524TMC3    H2 7787   1.706   3.729   9.402  0.3219  2.5349 -0.7779
  524TMC3    C7 7788   1.764   3.917   9.600  0.2529  0.0087  0.0433
  524TMC3    C8 7789   1.861   3.527   9.298 -0.0500  0.3617 -0.6640
  524TMC3    O1 7790   1.813   3.966   9.699  0.2204 -0.5949 -0.1302
  524TMC3    O2 7791   1.954   3.463   9.251 -0.0250 -0.2652 -0.0332
  525MPD2     C 7792   0.430   0.259  14.650  0.3848  0.7304  0.1581
  525MPD2    C1 7793   0.564   0.253  14.686  0.0393  0.1489  0.3152
  525MPD2    C2 7794   0.657   0.355  14.656  0.3990 -0.0064  0.0075
  525MPD2    C3 7795   0.611   0.467  14.591 -0.1048 -0.1694 -0.2593
  525MPD2    C4 7796   0.478   0.476  14.550  0.3975 -1.0142  0.2436
  525MPD2    C5 7797   0.392   0.373  14.582 -0.9600 -0.0335  0.3840
  525MPD2     H 7798   0.756   0.361  14.700  1.1728 -3.7346 -1.2415
  525MPD2    H1 7799   0.444   0.556  14.485 -1.9217 -3.5146 -1.6410
  525MPD2    H2 7800   0.354   0.186  14.674  0.5896 -0.1860 -1.9779
  525MPD2    H3 7801   0.296   0.387  14.533 -0.1708 -1.8942 -1.6851
  525MPD2     N 7802   0.694   0.576  14.561 -0.6940  0.3746 -0.9418
  525MPD2    H5 7803   0.642   0.661  14.540 -0.8501  0.6288  0.4354
  525MPD2    N1 7804   0.605   0.141  14.766 -0.5329 -0.0569 -0.0521
  525MPD2    H7 7805   0.705   0.125  14.770 -0.1269  2.4128 -0.4372
  526TMC3    C1 7806   0.591   4.696  14.931 -0.1301  0.9239  0.0634
  526TMC3    C2 7807   0.538   4.671  15.057  0.6196  0.0799  0.2353
  526TMC3    C3 7808   0.616   4.614  15.153 -0.0344  1.3845 -0.9273
  526TMC3    C4 7809   0.712   4.645  14.897  0.3439 -0.7989  0.0434
  526TMC3    C5 7810   0.783   4.578  14.994  0.3760 -0.4849  0.3453
  526TMC3    C6 7811   0.739   4.568  15.123 -0.1726  0.1862  0.3990
  526TMC3     C 7812   0.519   0.064  14.842 -0.4129  0.2566 -0.4950
  526TMC3     O 7813   0.403   0.080  14.870 -0.2320 -0.1411  0.1784
  526TMC3     H 7814   0.441   4.714  15.078  0.3566  0.1517 -1.1677
  526TMC3    H1 7815   0.738   4.659  14.793 -0.5951  1.6914  0.1532
  526TMC3    H2 7816   0.801   4.507  15.187  2.1126 -0.3198 -2.2929
  526TMC3    C7 7817   0.914   4.519  14.966  0.0433 -0.1477  0.0642
  526TMC3    C8 7818   0.580   4.599  15.292  0.7668 -0.5232 -0.0824
  526TMC3    O1 7819   0.966   4.460  15.054 -0.1874 -0.0413  0.0044
  526TMC3    O2 7820   0.667   4.576  15.376  0.8549 -0.5729  0.6488
  527MPD2     C 7821   3.824   2.932   1.350  0.2710  0.3542 -0.2630
  527MPD2    C1 7822   3.926   2.978   1.430  0.6866 -0.4874  0.2936
  527MPD2    C2 7823   4.058   2.981   1.381  0.0520  0.0461  0.2062
  527MPD2    C3 7824   4.091   2.941   1.249 -0.4384 -0.1335 -0.3381
  527MPD2    C4 7825   3.987   2.899   1.169 -0.0203  0.0045  0.0533
  527MPD2    C5 7826   3.857   2.905   1.220  0.0081 -0.4227  0.3265
  527MPD2     H 7827   4.147   3.017   1.432  1.2569 -0.8819 -1.2507
  527MPD2    H1 7828   4.002   2.870   1.066  0.1644 -2.4662  0.7670
  527MPD2    H2 7829   3.721   2.929   1.383 -0.8926  0.6088 -3.8616
  527MPD2    H3 7830   3.776   2.882   1.152 -0.8027  0.6221  0.9293
  527MPD2     N 7831   4.223   2.958   1.198 -0.5141  0.6089  0.1904
  527MPD2    H5 7832   4.284   3.016   1.254  0.3215 -1.4497  1.4331
  527MPD2    N1 7833   3.906   3.030   1.559  0.3916 -0.2086 -0.2452
  527MPD2    H7 7834   3.983   3.057   1.620 -1.2622 -0.0576  1.8007
  528TMC3    C1 7835   3.787   3.115   1.749 -0.3293  0.4782  0.2966
  528TMC3    C2 7836   3.906   3.122   1.819  0.1791 -0.4333  0.0288
  528TMC3    C3 7837   3.895   3.160   1.949  0.6817 -0.7734  0.7845
  528TMC3    C4 7838   3.668   3.163   1.803 -0.2948  0.3223  0.2967
  528TMC3    C5 7839   3.671   3.207   1.933 -0.7951  0.4299 -0.4295
  528TMC3    C6 7840   3.784   3.212   2.007 -0.0980  0.2532  0.3691
  528TMC3     C 7841   3.782   3.066   1.611  0.3356  0.8126  1.2888
  528TMC3     O 7842   3.673   3.054   1.558 -0.1901 -0.2552 -0.1980
  528TMC3     H 7843   3.997   3.076   1.782 -0.2591 -1.0802 -0.2367
  528TMC3    H1 7844   3.594   3.202   1.734  0.3365 -0.7686 -1.0106
  528TMC3    H2 7845   3.791   3.277   2.093 -1.7104  0.9807 -0.0607
  528TMC3    C7 7846   3.583   3.318   1.952 -0.0787  0.2820 -0.1271
  528TMC3    C8 7847   4.011   3.147   2.032 -0.0120  0.2292  0.0167
  528TMC3    O1 7848   3.579   3.403   1.864 -0.2048  0.1204 -0.7475
  528TMC3    O2 7849   4.106   3.112   1.968 -0.4195  0.1263 -0.6258
  529MPD2     C 7850   0.382   1.452   0.685  0.2776 -0.6690 -0.5207
  529MPD2    C1 7851   0.474   1.551   0.703 -0.1127  0.0676  0.6107
  529MPD2    C2 7852   0.491   1.640   0.610 -0.1908 -0.2205 -0.6996
  529MPD2    C3 7853   0.421   1.642   0.493 -0.8851  0.1403 -0.1695
  529MPD2    C4 7854   0.313   1.552   0.479  0.8080 -0.8838 -0.3929
  529MPD2    C5 7855   0.292   1.458   0.577 -0.0716  0.1964 -0.2313
  529MPD2     H 7856   0.575   1.706   0.626  0.6778 -1.3181 -0.7204
  529MPD2    H1 7857   0.234   1.555   0.405 -0.3603  3.2523  1.0605
  529MPD2    H2 7858   0.362   1.376   0.759 -2.7714  1.0333  0.4101
  529MPD2    H3 7859   0.206   1.392   0.575 -1.2760  1.7220  1.0975
  529MPD2     N 7860   0.450   1.731   0.390  0.4271 -1.1906 -0.1480
  529MPD2    H5 7861   0.387   1.726   0.310  0.8819  1.2045 -0.6753
  529MPD2    N1 7862   0.562   1.557   0.816 -0.2962 -0.2521  0.4707
  529MPD2    H7 7863   0.631   1.632   0.823 -1.0640  0.6053 -1.1853
  530TMC3    C1 7864   0.676   1.477   1.012  0.4829 -0.2421  0.2666
  530TMC3    C2 7865   0.786   1.562   0.994 -0.0361  0.2496 -0.1493
  530TMC3    C3 7866   0.891   1.559   1.082  0.3682  0.5710 -0.0367
  530TMC3    C4 7867   0.662   1.390   1.117  0.2782  0.9500 -0.1157
  530TMC3    C5 7868   0.772   1.388   1.205 -0.3371  0.9531 -0.3955
  530TMC3    C6 7869   0.880   1.474   1.194 -0.7047 -0.0235  0.4424
  530TMC3     C 7870   0.553   1.486   0.933 -0.1421  0.0336  0.1050
  530TMC3     O 7871   0.461   1.416   0.970 -0.0516 -0.2367  0.2068
  530TMC3     H 7872   0.797   1.638   0.918 -0.9493 -0.6034 -1.1397
  530TMC3    H1 7873   0.580   1.322   1.132  2.0335 -1.4871 -1.5288
  530TMC3    H2 7874   0.953   1.485   1.273  1.5671  1.3374 -1.8481
  530TMC3    C7 7875   0.768   1.296   1.317  0.2599  0.1047 -0.4041
  530TMC3    C8 7876   0.992   1.666   1.076  0.1479 -0.1479 -0.9793
  530TMC3    O1 7877   0.666   1.229   1.330  0.3978  0.2270 -0.7769
  530TMC3    O2 7878   0.960   1.765   1.003 -0.4040  0.1920 -0.0271
  531MPD2     C 7879   0.005   4.631  13.314  0.0999 -0.3240  0.4526
  531MPD2    C1 7880   4.700   4.505  13.358  0.1557 -0.0853 -0.9162
  531MPD2    C2 7881   0.028   4.397  13.292 -0.7021  0.2872  0.5132
  531MPD2    C3 7882   0.090   4.413  13.173  0.3908 -0.5222  0.1064
  531MPD2    C4 7883   0.109   4.537  13.125 -1.0929  0.5192 -0.4070
  531MPD2    C5 7884   0.073   4.648  13.194 -0.0806  0.0035 -0.0052
  531MPD2     H 7885   4.719   4.296  13.315 -0.5764 -0.3082 -1.8718
  531MPD2    H1 7886   0.157   4.549  13.028 -0.9388  2.7255 -0.0608
  531MPD2    H2 7887   4.680   4.715  13.364  1.3049  0.8432 -0.3777
  531MPD2    H3 7888   0.081   0.021  13.140 -2.5159  0.1473 -0.1349
  531MPD2     N 7889   0.124   4.297  13.095 -0.1035 -0.3502 -0.1852
  531MPD2    H5 7890   0.081   4.211  13.127  0.4447 -1.4875 -2.4964
  531MPD2    N1 7891   4.627   4.489  13.479  0.3685  0.1822 -0.1015
  531MPD2    H7 7892   4.623   4.574  13.534 -3.6339  0.8808 -1.4674
  532TMC3    C1 7893   4.488   4.373  13.639 -0.1297  0.3837 -0.3031
  532TMC3    C2 7894   4.390   4.275  13.644  0.8251 -0.4896  0.1004
  532TMC3    C3 7895   4.387   4.176  13.745  0.0910  0.4258  0.1882
  532TMC3    C4 7896   4.583   4.376  13.739  0.1971 -1.0163 -0.0630
  532TMC3    C5 7897   4.578   4.279  13.836 -0.3770  0.0788  0.3953
  532TMC3    C6 7898   4.483   4.180  13.844 -0.3435  0.5216  1.2510
  532TMC3     C 7899   4.556   4.377  13.510 -0.6737  0.5473 -0.0622
  532TMC3     O 7900   4.517   4.290  13.436  0.2895 -0.4004  0.4687
  532TMC3     H 7901   4.322   4.268  13.560  0.6463  3.5383 -0.1222
  532TMC3    H1 7902   4.669   4.441  13.736  1.0046 -1.9887  1.8917
  532TMC3    H2 7903   4.470   4.113  13.928  2.8032 -1.0422  0.5028
  532TMC3    C7 7904   4.712   4.243  13.882 -0.2718 -0.2603  0.2121
  532TMC3    C8 7905   4.378   4.045  13.684  0.1385  0.0151  0.0028
  532TMC3    O1 7906   0.093   4.283  13.824 -0.6355 -0.0305  0.8629
  532TMC3    O2 7907   4.368   3.957  13.769 -0.1403  0.0375 -0.0468
  533TMC3    C1 7908   0.839   0.732  14.643 -0.3317  0.4046 -0.9496
  533TMC3    C2 7909   0.970   0.769  14.639 -0.1023  0.2762 -0.1733
  533TMC3    C3 7910   1.002   0.881  14.716 -0.8590  0.5204  0.4172
  533TMC3    C4 7911   0.746   0.784  14.725  0.1698  0.5210  0.1386
  533TMC3    C5 7912   0.780   0.886  14.812  0.9190 -1.2837  0.0120
  533TMC3    C6 7913   0.913   0.923  14.812  0.5344  0.5620  0.2880
  533TMC3     C 7914   0.824   0.597  14.602 -0.3855  0.3189  0.1146
  533TMC3     O 7915   0.916   0.520  14.618  0.7830  0.3229  0.7849
  533TMC3     H 7916   1.036   0.748  14.556 -1.9606  1.2154 -1.8850
  533TMC3    H1 7917   0.648   0.737  14.736 -0.0376  0.6439 -1.1908
  533TMC3    H2 7918   0.930   1.017  14.864  3.9116  0.3277 -0.3593
  533TMC3    C7 7919   0.739   0.843  14.947 -0.0745  0.0860  0.6604
  533TMC3    C8 7920   1.104   0.970  14.671 -0.0981 -0.0399  0.0860
  533TMC3    O1 7921   0.701   0.731  14.963  0.0852 -0.6699  0.4127
  533TMC3    O2 7922   1.126   0.977  14.548  0.3619  0.5868  0.7847
  534MPD2     C 7923   3.562   2.282   2.627  0.1390 -0.5319 -0.6147
  534MPD2    C1 7924   3.637   2.318   2.516 -0.8432  0.0848  0.7337
  534MPD2    C2 7925   3.607   2.264   2.395  0.8277 -0.2911 -0.0203
  534MPD2    C3 7926   3.492   2.186   2.381  0.4380 -0.5070 -0.3645
  534MPD2    C4 7927   3.406   2.164   2.484  0.5580  0.4475 -0.0454
  534MPD2    C5 7928   3.440   2.207   2.608  0.4141 -0.5085 -0.2135
  534MPD2     H 7929   3.667   2.296   2.311  0.4826 -0.4310 -0.3181
  534MPD2    H1 7930   3.317   2.103   2.474 -0.6631  2.0156  1.2976
  534MPD2    H2 7931   3.585   2.314   2.728 -1.2782  0.4278 -0.6000
  534MPD2    H3 7932   3.368   2.187   2.686 -0.2597  0.2360 -0.6449
  534MPD2     N 7933   3.466   2.127   2.253  0.3945  0.1717  0.7159
  534MPD2    H5 7934   3.377   2.078   2.247 -0.3046  1.1758  2.5430
  534MPD2    N1 7935   3.740   2.408   2.512 -0.1007  0.4872  0.4288
  534MPD2    H7 7936   3.788   2.420   2.424  1.1777  2.0926  1.3462
  535TMC3    C1 7937   3.505   2.059   2.028  0.0268  0.3955 -0.4434
  535TMC3    C2 7938   3.381   2.089   1.983  0.5031 -0.2993  0.9990
  535TMC3    C3 7939   3.361   2.067   1.848  0.3696 -0.6037 -0.8022
  535TMC3    C4 7940   3.602   1.995   1.949 -0.6900  0.4823 -0.6130
  535TMC3    C5 7941   3.582   1.982   1.820  0.0799  0.1808  0.3215
  535TMC3    C6 7942   3.464   2.022   1.763 -0.7580 -0.5595 -0.7329
  535TMC3     C 7943   3.561   2.107   2.152  0.0946 -0.0723 -0.3256
  535TMC3     O 7944   3.684   2.116   2.161  0.4063 -0.2970 -0.0478
  535TMC3     H 7945   3.305   2.132   2.047  1.4956  1.5565  0.9305
  535TMC3    H1 7946   3.691   1.955   1.996 -0.4784  0.5212 -0.9805
  535TMC3    H2 7947   3.446   2.008   1.657  1.8853 -0.9722 -1.1253
  535TMC3    C7 7948   3.681   1.931   1.725 -0.6938  0.3759 -0.0450
  535TMC3    C8 7949   3.272   2.169   1.789 -0.1887  0.3059 -0.3700
  535TMC3    O1 7950   3.647   1.909   1.611 -0.2928 -0.4137  0.3165
  535TMC3    O2 7951   3.267   2.277   1.853 -0.5312  0.0854  0.0219
  536MPD2     C 7952   2.739   0.063  16.587 -0.2410  0.0448  0.0279
  536MPD2    C1 7953   2.641   0.101  16.674  0.2107  0.9849  0.0199
  536MPD2    C2 7954   2.513   0.122  16.636  0.0793  0.1002 -0.2088
  536MPD2    C3 7955   2.481   0.117  16.504  0.3512 -0.2437  0.6521
  536MPD2    C4 7956   2.577   0.084  16.413  0.4697 -0.1313 -0.0489
  536MPD2    C5 7957   2.699   0.054  16.458  0.1047 -0.2405 -0.8815
  536MPD2     H 7958   2.444   0.158  16.712 -0.2049 -0.8445 -0.0189
  536MPD2    H1 7959   2.551   0.074  16.308  0.3740 -1.7273  0.1301
  536MPD2    H2 7960   2.841   0.066  16.623  0.1648 -0.0397 -1.1425
  536MPD2    H3 7961   2.771   0.041  16.379 -0.0131 -1.5291 -0.7864
  536MPD2     N 7962   2.355   0.147  16.458  1.0323  0.4960 -0.5242
  536MPD2    H5 7963   2.345   0.148  16.357 -3.7013 -1.7976 -0.1000
  536MPD2    N1 7964   2.681   0.117  16.811  0.0306 -0.7134  0.1167
  536MPD2    H7 7965   2.770   0.070  16.828  0.7821  0.5767 -0.2534
  537TMC3    C1 7966   2.678   0.154  17.041 -0.0740  0.6758 -0.1983
  537TMC3    C2 7967   2.620   0.247  17.123 -0.0198  0.1540  0.0323
  537TMC3    C3 7968   2.573   0.209  17.243  0.8019 -0.5005 -0.1767
  537TMC3    C4 7969   2.697   0.025  17.082  0.3021 -1.1561 -0.3578
  537TMC3    C5 7970   2.635   4.709  17.205  0.6640 -0.1613 -0.2074
  537TMC3    C6 7971   2.574   0.079  17.285  0.5151 -0.1577 -0.0736
  537TMC3     C 7972   2.611   0.169  16.914  0.1246 -0.0954 -0.2736
  537TMC3     O 7973   2.499   0.219  16.920 -0.9422  0.1338  0.7752
  537TMC3     H 7974   2.599   0.346  17.086  0.8936 -0.5404 -2.4099
  537TMC3    H1 7975   2.749   4.672  17.023  0.6720 -0.3755 -1.0056
  537TMC3    H2 7976   2.526   0.062  17.381  0.8230  4.1204  0.8016
  537TMC3    C7 7977   2.653   4.573  17.250  0.8636  0.2463  0.3444
  537TMC3    C8 7978   2.533   0.320  17.332 -0.2742  0.0368  0.3039
  537TMC3    O1 7979   2.734   4.510  17.188 -0.1450  0.3906  0.8882
  537TMC3    O2 7980   2.447   0.292  17.412 -0.2775 -0.2444  0.2442
  538TMC3    C1 7981   3.097   3.513  10.777 -0.1961  0.1445  0.1243
  538TMC3    C2 7982   3.220   3.560  10.797 -0.7077  0.2306 -0.9487
  538TMC3    C3 7983   3.271   3.639  10.696 -0.1447  0.0652  0.8608
  538TMC3    C4 7984   3.019   3.533  10.674  0.6561  0.2402  0.0057
  538TMC3    C5 7985   3.075   3.605  10.572 -0.4929 -0.1346  0.4380
  538TMC3    C6 7986   3.199   3.659  10.581 -0.0328 -0.0118  0.4623
  538TMC3     C 7987   3.027   3.457  10.895  0.1112 -0.5047 -0.4034
  538TMC3     O 7988   2.905   3.463  10.899 -0.1840  0.3108 -0.6997
  538TMC3     H 7989   3.272   3.546  10.891 -2.1693 -0.5089 -0.2585
  538TMC3    H1 7990   2.924   3.480  10.666  1.3043 -1.2210  2.0910
  538TMC3    H2 7991   3.243   3.714  10.499 -0.3377 -1.6267 -0.7910
  538TMC3    C7 7992   2.970   3.686  10.504  0.2372 -0.0468 -0.4256
  538TMC3    C8 7993   3.402   3.685  10.714 -0.0184  0.6771  0.0175
  538TMC3    O1 7994   2.997   3.732  10.395 -0.4854 -0.8742  0.2269
  538TMC3    O2 7995   3.439   3.690  10.831 -0.4303 -0.4039  0.4645
  539MPD2     C 7996   2.801   2.356  11.776  0.2588  0.2298 -0.1912
  539MPD2    C1 7997   2.874   2.429  11.677  0.0771  0.2155  0.3744
  539MPD2    C2 7998   2.858   2.565  11.674  0.2709 -0.5123  0.3553
  539MPD2    C3 7999   2.769   2.629  11.764 -0.3906  0.7299  0.7043
  539MPD2    C4 8000   2.718   2.554  11.867  0.8006 -0.1300  0.2137
  539MPD2    C5 8001   2.740   2.418  11.877  0.2737  0.4084  0.1833
  539MPD2     H 8002   2.918   2.616  11.599 -0.3598  1.4600  1.1874
  539MPD2    H1 8003   2.665   2.597  11.951 -0.0793 -1.6070  0.4266
  539MPD2    H2 8004   2.816   2.248  11.784 -0.9257  0.2197  2.0679
  539MPD2    H3 8005   2.694   2.361  11.957  2.2354 -0.2580  0.8297
  539MPD2     N 8006   2.753   2.772  11.767 -0.3229  0.5404 -0.7017
  539MPD2    H5 8007   2.690   2.815  11.834 -0.3452  1.6041 -1.4096
  539MPD2    N1 8008   2.964   2.370  11.583 -0.1651  0.1033  0.1938
  539MPD2    H7 8009   3.013   2.439  11.528  1.3216 -2.8241 -2.2022
  540TMC3    C1 8010   2.762   2.986  11.712 -1.0503  0.6873 -0.3466
  540TMC3    C2 8011   2.770   3.067  11.605  0.5245 -0.8278 -0.2180
  540TMC3    C3 8012   2.714   3.194  11.620  0.2352  0.8628  0.7937
  540TMC3    C4 8013   2.714   3.022  11.832 -0.5892 -0.6178  0.0667
  540TMC3    C5 8014   2.664   3.145  11.850 -0.4838  0.1734 -0.2047
  540TMC3    C6 8015   2.664   3.234  11.742  0.3984 -0.6742  0.8018
  540TMC3     C 8016   2.825   2.857  11.695  0.8202  0.1841  0.3918
  540TMC3     O 8017   2.910   2.840  11.612  0.1788 -0.1495  0.2554
  540TMC3     H 8018   2.802   3.037  11.507 -1.1412 -0.9442 -0.7381
  540TMC3    H1 8019   2.735   2.963  11.921  3.2303 -0.1571 -0.5037
  540TMC3    H2 8020   2.614   3.329  11.744 -1.0196 -1.3863 -1.0820
  540TMC3    C7 8021   2.596   3.178  11.975  0.7031 -0.0425 -1.0598
  540TMC3    C8 8022   2.668   3.263  11.500  0.6251  0.4545 -0.3552
  540TMC3    O1 8023   2.572   3.083  12.047 -0.7597 -0.2307 -0.4615
  540TMC3    O2 8024   2.667   3.387  11.491  0.1766  0.3262 -0.3578
  541MPD2     C 8025   0.772   4.366  13.273  0.7026  0.1765 -0.1383
  541MPD2    C1 8026   0.837   4.298  13.171 -0.4309  0.2873  0.4511
  541MPD2    C2 8027   0.923   4.375  13.086 -0.3346 -0.8708  0.7951
  541MPD2    C3 8028   0.943   4.512  13.099 -0.3626  0.0126 -0.0961
  541MPD2    C4 8029   0.874   4.569  13.200 -0.3843 -0.6240 -1.1114
  541MPD2    C5 8030   0.793   4.498  13.283 -0.0447 -0.1392 -0.9271
  541MPD2     H 8031   0.986   4.318  13.019 -0.7400  0.7242 -0.9595
  541MPD2    H1 8032   0.875   4.676  13.217 -1.6764 -1.0231  1.5711
  541MPD2    H2 8033   0.712   4.306  13.339 -0.3758  0.2637 -1.0444
  541MPD2    H3 8034   0.742   4.550  13.363 -1.2290  0.2305 -1.9118
  541MPD2     N 8035   1.011   4.590  13.003  0.8132 -0.1221 -0.3001
  541MPD2    H5 8036   1.025   4.689  13.019  0.0145 -0.0795  0.1297
  541MPD2    N1 8037   0.820   4.162  13.161  0.2979  0.7329  0.8891
  541MPD2    H7 8038   0.754   4.107  13.215  0.2390  0.0254  0.1035
  542TMC3    C1 8039   1.132   4.638  12.813 -0.4065 -0.0854  0.1146
  542TMC3    C2 8040   1.170   4.595  12.688 -0.5629 -0.4543 -0.8328
  542TMC3    C3 8041   1.261   4.666  12.621  0.0534 -0.4643 -0.2997
  542TMC3    C4 8042   1.188   0.033  12.868 -0.5463 -0.7866 -0.1448
  542TMC3    C5 8043   1.278   0.100  12.794 -0.3504  0.2457 -0.3223
  542TMC3    C6 8044   1.329   0.050  12.677  0.3427  0.7458  0.4533
  542TMC3     C 8045   1.054   4.545  12.885 -0.4980  0.0649 -0.2143
  542TMC3     O 8046   1.052   4.432  12.836  0.7473  0.1555 -0.1643
  542TMC3     H 8047   1.147   4.497  12.648  0.1017 -0.5246 -1.0481
  542TMC3    H1 8048   1.165   0.061  12.971 -0.2706  3.6979 -1.3146
  542TMC3    H2 8049   1.404   0.108  12.625 -0.8038  0.1879 -1.8271
  542TMC3    C7 8050   1.306   0.241  12.814 -1.1059  0.0804 -0.3186
  542TMC3    C8 8051   1.287   4.626  12.480  0.2824  0.0685  0.1392
  542TMC3    O1 8052   1.413   0.279  12.769  0.4557  0.1980 -0.1093
  542TMC3    O2 8053   1.194   4.556  12.440 -0.2323 -0.2822  0.0549
  543TMC3    C1 8054   0.533   1.222  17.466 -0.2445  0.0767  0.2532
  543TMC3    C2 8055   0.405   1.184  17.468  0.2203  0.0105  0.7855
  543TMC3    C3 8056   0.337   1.162  17.583  0.1633  0.5653  0.0912
  543TMC3    C4 8057   0.588   1.258  17.589 -0.0894  0.4331  0.4817
  543TMC3    C5 8058   0.521   1.226   0.014 -0.0656  0.1369 -0.2030
  543TMC3    C6 8059   0.393   1.182   0.017 -0.2351 -0.1573 -0.1376
  543TMC3     C 8060   0.623   1.176  17.368  0.5144 -0.1408 -0.9132
  543TMC3     O 8061   0.730   1.137  17.409  0.4573 -0.0772 -0.4947
  543TMC3     H 8062   0.352   1.152  17.379  2.4446 -0.7429 -0.2534
  543TMC3    H1 8063   0.694   1.274  17.604  0.5182 -1.2581 -1.9384
  543TMC3    H2 8064   0.352   1.134   0.105 -2.8141 -0.4310 -1.4790
  543TMC3    C7 8065   0.577   1.272   0.142 -0.8640 -0.0963 -0.2494
  543TMC3    C8 8066   0.259   1.033  17.579 -0.4053  0.3684 -0.3453
  543TMC3    O1 8067   0.528   1.240   0.245 -0.0167  0.2074 -0.1832
  543TMC3    O2 8068   0.296   0.962  17.489 -0.4767 -0.7005 -0.3004
  544MPD2     C 8069   4.669   0.675   0.067  0.7474 -0.1124  0.0229
  544MPD2    C1 8070   0.076   0.672   0.020 -1.1753 -0.3175  1.0603
  544MPD2    C2 8071   0.142   0.789  17.668  0.1406  0.4550 -0.2590
  544MPD2    C3 8072   0.075   0.915  17.670 -0.8937  0.6931  0.1784
  544MPD2    C4 8073   4.666   0.914   0.032 -0.2667 -0.1556  0.0629
  544MPD2    C5 8074   4.601   0.796   0.075  1.0238  0.0124 -0.6792
  544MPD2     H 8075   0.244   0.784  17.632 -0.0212  1.4793 -0.8353
  544MPD2    H1 8076   4.611   1.006   0.053  0.3827  0.0701  0.7587
  544MPD2    H2 8077   4.625   0.590   0.119 -3.3297  0.8337 -1.8771
  544MPD2    H3 8078   4.501   0.803   0.117 -0.0573  2.8420 -3.6981
  544MPD2     N 8079   0.138   1.037  17.643 -0.2615 -0.5154 -0.3345
  544MPD2    H5 8080   0.102   1.120   0.003 -0.3643 -2.7294  3.5005
  544MPD2    N1 8081   0.127   0.539   0.020 -0.8373  0.5562 -0.6776
  544MPD2    H7 8082   0.067   0.462   0.045  2.1170 -0.7530  2.3528
  545TMC3    C1 8083   0.310   0.387  17.686  0.7036  0.3778  0.0435
  545TMC3    C2 8084   0.403   0.336  17.601  0.1821  0.6875 -0.2694
  545TMC3    C3 8085   0.485   0.242  17.647 -0.7223  0.4381 -0.2209
  545TMC3    C4 8086   0.298   0.344   0.126  0.2550 -0.3470 -0.1087
  545TMC3    C5 8087   0.383   0.243   0.170  0.5049 -0.0572 -0.0209
  545TMC3    C6 8088   0.477   0.188   0.086 -0.1456 -0.2555  0.4174
  545TMC3     C 8089   0.251   0.512  17.654 -0.4460 -0.2875 -0.3414
  545TMC3     O 8090   0.335   0.578  17.592  0.3834  0.0177  0.9584
  545TMC3     H 8091   0.415   0.372  17.500 -0.0124  0.2125 -0.4595
  545TMC3    H1 8092   0.222   0.381   0.194  1.4118  1.2466  0.3037
  545TMC3    H2 8093   0.561   0.131   0.122 -0.0927  0.8267  1.9976
  545TMC3    C7 8094   0.360   0.181   0.300 -0.6162 -0.5317 -0.5942
  545TMC3    C8 8095   0.589   0.190  17.574  0.2086 -0.1101 -0.1657
  545TMC3    O1 8096   0.293   0.243   0.387 -0.1712  0.4640  0.4334
  545TMC3    O2 8097   0.616   0.071  17.582  0.0280 -0.4465 -0.2837
  546MPD2     C 8098   2.214   0.697   0.275 -0.1247  0.2573  0.8332
  546MPD2    C1 8099   2.100   0.755   0.222 -0.5492  0.0370  0.4867
  546MPD2    C2 8100   2.099   0.886   0.170  0.3513  0.4691 -0.1189
  546MPD2    C3 8101   2.212   0.968   0.181  0.5552 -0.1765 -0.3251
  546MPD2    C4 8102   2.324   0.906   0.239  0.5413  0.9415 -0.6235
  546MPD2    C5 8103   2.327   0.778   0.287 -0.9232  0.0927  0.4700
  546MPD2     H 8104   2.005   0.920   0.129  0.4295  1.2358  0.3323
  546MPD2    H1 8105   2.416   0.962   0.229  0.2519  1.2211 -1.7091
  546MPD2    H2 8106   2.232   0.592   0.293 -0.7372  0.1492  0.8055
  546MPD2    H3 8107   2.413   0.747   0.345 -1.0388 -2.4989 -0.7607
  546MPD2     N 8108   2.230   1.101   0.131  0.5651 -0.0334  0.6692
  546MPD2    H5 8109   2.319   1.147   0.149  1.5615 -1.5319 -0.4130
  546MPD2    N1 8110   1.980   0.686   0.212 -0.7084  0.2343  0.8914
  546MPD2    H7 8111   1.906   0.735   0.163  3.7673  3.1259 -2.9925
  547TMC3    C1 8112   1.816   0.531   0.257  0.0342 -0.2515  0.0221
  547TMC3    C2 8113   1.757   0.536   0.134 -0.3687 -0.5891  0.0712
  547TMC3    C3 8114   1.624   0.504   0.128 -0.3222  0.1796 -0.1255
  547TMC3    C4 8115   1.757   0.475   0.368  0.2074 -0.0041 -0.0494
  547TMC3    C5 8116   1.637   0.428   0.350 -0.1076 -0.0886 -0.4593
  547TMC3    C6 8117   1.564   0.444   0.233  0.6282  0.0881  0.1372
  547TMC3     C 8118   1.952   0.567   0.278  0.1361  0.1195 -0.0308
  547TMC3     O 8119   2.013   0.512   0.375  0.1664  0.6662  0.3087
  547TMC3     H 8120   1.804   0.587   0.051 -0.9242 -0.7859 -0.3600
  547TMC3    H1 8121   1.799   0.462   0.467 -1.1878  2.2080  0.8403
  547TMC3    H2 8122   1.460   0.416   0.216  0.6518 -0.0996  0.2927
  547TMC3    C7 8123   1.551   0.437   0.465 -0.0659 -0.0922 -0.0083
  547TMC3    C8 8124   1.540   0.555   0.021 -0.5218  0.0556 -0.3583
  547TMC3    O1 8125   1.555   0.543   0.527  0.0385  0.5831  0.4642
  547TMC3    O2 8126   1.584   0.562  17.596 -0.1359 -0.3582  0.6564
  548MPD2     C 8127   2.185   1.598  12.538 -0.0252 -0.6600  0.7838
  548MPD2    C1 8128   2.124   1.479  12.569  1.1715  0.2337  0.8063
  548MPD2    C2 8129   2.197   1.363  12.562  0.2487 -0.0336 -0.8126
  548MPD2    C3 8130   2.327   1.366  12.526  0.1988 -0.7267 -0.2091
  548MPD2    C4 8131   2.381   1.486  12.497 -0.0506  0.3336  0.3196
  548MPD2    C5 8132   2.305   1.597  12.487  0.4937 -0.1137  0.1744
  548MPD2     H 8133   2.155   1.263  12.569 -1.8200  0.9780  1.2060
  548MPD2    H1 8134   2.485   1.492  12.466 -0.7468  1.9600 -1.6672
  548MPD2    H2 8135   2.128   1.690  12.547  0.0420 -0.5289 -0.0598
  548MPD2    H3 8136   2.355   1.688  12.456 -0.2346  0.4975  0.8029
  548MPD2     N 8137   2.408   1.260  12.509  0.0405 -0.6889  0.1537
  548MPD2    H5 8138   2.495   1.292  12.467 -1.6352  0.8428 -2.1781
  548MPD2    N1 8139   1.986   1.484  12.591 -0.1380  0.1307 -0.6793
  548MPD2    H7 8140   1.946   1.577  12.602 -0.8832 -0.2909  0.1763
  549TMC3    C1 8141   1.755   1.431  12.575  0.0441  0.5665 -0.2112
  549TMC3    C2 8142   1.729   1.554  12.523 -0.6421 -0.1582 -0.1536
  549TMC3    C3 8143   1.619   1.621  12.566 -0.0370  0.5618  0.4167
  549TMC3    C4 8144   1.676   1.369  12.665  0.0248  0.1667  0.2416
  549TMC3    C5 8145   1.566   1.435  12.706 -0.2325  0.1866 -0.1348
  549TMC3    C6 8146   1.540   1.563  12.665  1.0824 -0.0190  0.4066
  549TMC3     C 8147   1.896   1.382  12.579  0.2665  0.5342  0.9422
  549TMC3     O 8148   1.920   1.263  12.592 -0.2420 -0.3740 -0.6668
  549TMC3     H 8149   1.798   1.596  12.451 -0.3201  2.4257  1.6911
  549TMC3    H1 8150   1.715   1.279  12.711 -1.9443 -1.4749 -1.3029
  549TMC3    H2 8151   1.452   1.617  12.697 -0.1576 -1.4297 -0.6400
  549TMC3    C7 8152   1.513   1.396  12.840 -0.6308  0.5775 -0.7453
  549TMC3    C8 8153   1.551   1.706  12.465  0.1843  0.3318 -0.0460
  549TMC3    O1 8154   1.468   1.484  12.910  0.1879 -0.4295  0.7629
  549TMC3    O2 8155   1.436   1.743  12.492 -0.9667 -0.1514 -0.1802
  550TMC3    C1 8156   1.141   4.055  12.336 -0.5040 -0.5601 -0.4533
  550TMC3    C2 8157   1.047   4.015  12.431 -0.3951  0.6347 -0.4364
  550TMC3    C3 8158   0.998   4.109  12.516 -0.4443 -0.1928  0.4683
  550TMC3    C4 8159   1.162   4.182  12.306  0.5666 -0.1267 -0.4188
  550TMC3    C5 8160   1.081   4.272  12.373 -0.1450 -0.1979 -0.8698
  550TMC3    C6 8161   1.029   4.241  12.496 -0.2355 -0.2023  0.5778
  550TMC3     C 8162   1.143   3.967  12.219  0.4261 -0.1154  0.6546
  550TMC3     O 8163   1.251   3.946  12.164  0.5154 -0.1577 -0.9293
  550TMC3     H 8164   1.032   3.911  12.457 -0.8936  1.0771  1.0967
  550TMC3    H1 8165   1.208   4.184  12.207 -0.4075  1.8292 -0.8320
  550TMC3    H2 8166   0.969   4.311  12.552 -0.6545  0.6650 -0.9630
  550TMC3    C7 8167   0.972   4.323  12.290 -0.4124 -0.5943  0.2300
  550TMC3    C8 8168   0.864   4.096  12.564  1.0017 -0.3321 -0.4321
  550TMC3    O1 8169   0.929   4.247  12.202 -0.2695  0.0090  0.5058
  550TMC3    O2 8170   0.815   4.172  12.645 -0.8865  0.1297  0.5635
  551TMC3    C1 8171   2.832   2.148  13.571  0.1538 -0.1083  0.6413
  551TMC3    C2 8172   2.881   2.240  13.476  0.1565  0.4551 -0.0244
  551TMC3    C3 8173   3.015   2.272  13.485 -0.1032  0.2835  0.1215
  551TMC3    C4 8174   2.911   2.095  13.669  0.3965  0.6851 -0.3255
  551TMC3    C5 8175   3.044   2.138  13.677  0.3255  0.0868  0.6967
  551TMC3    C6 8176   3.091   2.226  13.585  0.4851  0.3272  0.3651
  551TMC3     C 8177   2.724   2.062  13.523  0.5282  0.4122  0.0862
  551TMC3     O 8178   2.748   1.943  13.524  0.6880  0.0140  0.1391
  551TMC3     H 8179   2.813   2.280  13.402  0.3657 -0.7580 -0.8751
  551TMC3    H1 8180   2.863   2.037  13.747 -0.1275 -0.0026 -1.1497
  551TMC3    H2 8181   3.191   2.263  13.601  0.0116  1.5851  0.4371
  551TMC3    C7 8182   3.078   2.166  13.814 -0.0446  0.7747 -0.4638
  551TMC3    C8 8183   3.092   2.343  13.380 -0.2084  0.8539  0.1382
  551TMC3    O1 8184   3.016   2.097  13.896  0.0632 -0.4854 -0.3313
  551TMC3    O2 8185   3.216   2.327  13.380 -0.1305  0.0988  0.5417
  552MPD2     C 8186   0.016   3.456  14.175 -0.1397 -0.0635  0.1378
  552MPD2    C1 8187   0.079   3.557  14.107  0.0271  0.9372 -1.1537
  552MPD2    C2 8188   0.218   3.565  14.094  0.8679  0.5117  0.2583
  552MPD2    C3 8189   0.295   3.469  14.150 -0.1495 -0.3899  0.0149
  552MPD2    C4 8190   0.239   3.361  14.212  0.3749 -0.0806 -0.2581
  552MPD2    C5 8191   0.100   3.359  14.227 -0.0659 -0.7825  0.2975
  552MPD2     H 8192   0.261   3.650  14.041 -1.0093  0.8456 -0.7481
  552MPD2    H1 8193   0.301   3.280  14.251  0.2874  1.2040  2.4946
  552MPD2    H2 8194   4.630   3.447  14.174 -0.1664  0.2682 -0.0270
  552MPD2    H3 8195   0.067   3.270  14.280 -0.5292  0.3917  1.9987
  552MPD2     N 8196   0.436   3.472  14.150 -0.0082 -0.1058 -0.6520
  552MPD2    H5 8197   0.471   3.384  14.186  1.0694 -0.1963 -1.9224
  552MPD2    N1 8198   0.006   3.655  14.037 -0.0798  0.3876 -0.1097
  552MPD2    H7 8199   0.057   3.707  13.966 -0.1949  0.6226 -0.0193
  553TMC3    C1 8200   4.530   3.723  13.935 -0.9900  0.0008  0.0792
  553TMC3    C2 8201   4.611   3.765  13.832  0.0135 -0.0178  1.0041
  553TMC3    C3 8202   4.592   3.704  13.710  0.3534  0.0864  0.0969
  553TMC3    C4 8203   4.419   3.645  13.917  0.5341 -0.4636 -0.2841
  553TMC3    C5 8204   4.399   3.580  13.797  0.3573  0.1290  0.6952
  553TMC3    C6 8205   4.493   3.609  13.697  0.0331  0.0761 -0.5222
  553TMC3     C 8206   4.597   3.681  14.055 -0.1822  0.1821  0.8591
  553TMC3     O 8207   4.527   3.652  14.150 -0.3217 -0.3270  0.0207
  553TMC3     H 8208   4.691   3.836  13.849 -0.0028  0.3018 -0.2535
  553TMC3    H1 8209   4.350   3.612  13.994  0.0361  1.7063  0.1919
  553TMC3    H2 8210   4.484   3.564  13.598  0.9100 -0.1410 -0.5029
  553TMC3    C7 8211   4.387   3.447  13.827  0.1695 -0.0099 -0.0579
  553TMC3    C8 8212   4.693   3.724  13.605  0.2449 -0.0165 -0.3404
  553TMC3    O1 8213   4.287   3.418  13.896 -0.0547  0.2121  0.2705
  553TMC3    O2 8214   0.049   3.822  13.619 -0.6644  0.0971  0.0535
  554TMC3    C1 8215   1.824   2.707  11.818  1.0321 -0.2400  0.4941
  554TMC3    C2 8216   1.733   2.704  11.714  0.7225 -0.6455 -0.1809
  554TMC3    C3 8217   1.754   2.793  11.611  0.6169 -0.1189 -0.5703
  554TMC3    C4 8218   1.923   2.799  11.821 -0.4608  0.4622 -0.9962
  554TMC3    C5 8219   1.936   2.883  11.718 -0.5715 -0.0864 -0.5313
  554TMC3    C6 8220   1.857   2.883  11.610  0.7262  0.1021 -0.9772
  554TMC3     C 8221   1.774   2.647  11.944 -0.1667  0.0984 -0.3575
  554TMC3     O 8222   1.655   2.629  11.958 -0.3281 -0.0449  0.0065
  554TMC3     H 8223   1.637   2.657  11.733  0.0354  1.5689  1.7541
  554TMC3    H1 8224   1.986   2.810  11.909 -3.7680  1.8991  1.1902
  554TMC3    H2 8225   1.881   2.944  11.523  0.2532 -0.6027 -1.6020
  554TMC3    C7 8226   2.027   2.999  11.743 -0.4648 -0.2756 -0.4298
  554TMC3    C8 8227   1.680   2.783  11.489 -0.7459 -0.1733 -0.4232
  554TMC3    O1 8228   2.065   3.022  11.855  0.6364 -0.2762  0.2562
  554TMC3    O2 8229   1.729   2.848  11.394  0.0952  0.1103  0.8596
  555TMC3    C1 8230   1.158   2.086  15.042 -0.5815 -0.4623  0.1780
  555TMC3    C2 8231   1.117   2.175  15.136  0.1825 -0.1301  0.6922
  555TMC3    C3 8232   1.116   2.133  15.270 -0.4537  0.3891 -0.4057
  555TMC3    C4 8233   1.187   1.954  15.074  0.4327  0.0905  0.2249
  555TMC3    C5 8234   1.165   1.915  15.211 -0.1965  0.1816  0.2047
  555TMC3    C6 8235   1.126   2.005  15.310 -0.0766  0.3388  0.4311
  555TMC3     C 8236   1.222   2.151  14.929 -0.2281  0.0673  0.2753
  555TMC3     O 8237   1.307   2.084  14.873 -0.3717 -0.5148 -0.3226
  555TMC3     H 8238   1.128   2.282  15.125  0.3940 -0.1462  0.7320
  555TMC3    H1 8239   1.239   1.887  15.006  0.8068  1.1655 -0.5356
  555TMC3    H2 8240   1.126   1.979  15.415 -1.3348 -1.2192  0.0477
  555TMC3    C7 8241   1.151   1.775  15.243 -1.0398 -0.5609  0.6720
  555TMC3    C8 8242   1.123   2.236  15.372  0.3556 -0.7597  0.1190
  555TMC3    O1 8243   1.133   1.760  15.364 -0.1661 -0.3834  0.0860
  555TMC3    O2 8244   1.063   2.339  15.349 -0.2420  0.0333 -0.1342
  556MPD2     C 8245   3.884   4.714  10.391  0.3178  0.2963  0.5681
  556MPD2    C1 8246   3.900   4.599  10.456  0.5771 -0.3656 -0.0200
  556MPD2    C2 8247   3.898   4.483  10.385 -0.1319 -0.0161  0.5976
  556MPD2    C3 8248   3.858   4.476  10.249  0.6838  0.0800 -0.2625
  556MPD2    C4 8249   3.836   4.604  10.187  0.4652 -0.3824  0.1266
  556MPD2    C5 8250   3.852   4.720  10.261 -0.0224  0.2561  0.6611
  556MPD2     H 8251   3.916   4.390  10.437 -0.7881 -0.5485 -0.1338
  556MPD2    H1 8252   3.803   4.612  10.084  1.1845 -0.1741 -0.0933
  556MPD2    H2 8253   3.887   0.088  10.443  0.3838  0.0940  0.9330
  556MPD2    H3 8254   3.826   0.092  10.213 -0.2423 -0.5811 -0.8307
  556MPD2     N 8255   3.867   4.348  10.186 -0.0182  0.4031 -0.8648
  556MPD2    H5 8256   3.894   4.274  10.249  2.2768 -0.1571 -2.5443
  556MPD2    N1 8257   3.938   4.607  10.594 -0.0108 -0.0286  0.7704
  556MPD2    H7 8258   3.930   4.522  10.650 -0.6566 -1.3383 -1.2867
  557TMC3    C1 8259   3.844   4.182  10.022  0.3031  0.1338 -0.1065
  557TMC3    C2 8260   3.804   4.150   9.890 -0.4571 -1.1444 -0.6460
  557TMC3    C3 8261   3.766   4.024   9.855 -0.0776  0.4342 -0.0032
  557TMC3    C4 8262   3.835   4.082  10.120  0.4814  0.0669 -0.0198
  557TMC3    C5 8263   3.814   3.955  10.075  1.0311  0.6353  0.1274
  557TMC3    C6 8264   3.773   3.925   9.950  0.6569  0.3812  0.2780
  557TMC3     C 8265   3.824   4.324  10.060 -0.2970  0.4775  0.9127
  557TMC3     O 8266   3.799   4.408   9.972  0.2430  0.2526  0.0548
  557TMC3     H 8267   3.816   4.231   9.819  2.6214 -0.3824  0.7198
  557TMC3    H1 8268   3.829   4.107  10.226 -1.4159  1.3481 -0.4190
  557TMC3    H2 8269   3.749   3.823   9.923  2.0930  0.0392  0.2862
  557TMC3    C7 8270   3.758   3.873  10.178  1.2375 -0.1915  0.5953
  557TMC3    C8 8271   3.691   4.001   9.730  0.3087  0.5365  0.0038
  557TMC3    O1 8272   3.666   3.802  10.148 -0.5098  1.0444  0.4599
  557TMC3    O2 8273   3.664   4.107   9.666 -0.0836  0.3690 -0.1872
  558TMC3    C1 8274   1.548   2.053  10.435  0.1883 -0.0151 -0.1399
  558TMC3    C2 8275   1.424   2.028  10.494 -0.0860 -0.3087  0.3403
  558TMC3    C3 8276   1.316   2.025  10.422  0.5463 -0.4374 -0.1548
  558TMC3    C4 8277   1.554   2.079  10.302 -0.6139 -0.4794  0.1487
  558TMC3    C5 8278   1.443   2.076  10.229  0.1251  0.8722 -0.1215
  558TMC3    C6 8279   1.313   2.047  10.284 -0.6378 -0.1326 -0.9141
  558TMC3     C 8280   1.668   2.047  10.509  0.1309  0.1010 -0.1845
  558TMC3     O 8281   1.765   2.121  10.480 -0.9205 -0.5570  0.1661
  558TMC3     H 8282   1.425   2.024  10.602 -1.0495  1.4738  0.4061
  558TMC3    H1 8283   1.650   2.098  10.255 -0.3469 -1.3629  0.3407
  558TMC3    H2 8284   1.225   2.053  10.221 -0.6142  1.5547 -0.7987
  558TMC3    C7 8285   1.443   2.089  10.086 -0.1536 -0.2863 -0.3085
  558TMC3    C8 8286   1.196   1.997  10.487  0.1283 -0.1332 -0.5727
  558TMC3    O1 8287   1.544   2.141  10.038  0.3362 -0.6224  0.1744
  558TMC3    O2 8288   1.093   2.039  10.430 -0.1366  0.0063 -0.4893
  559MPD2     C 8289   1.506   2.399  10.534  0.3202  0.5511  0.3312
  559MPD2    C1 8290   1.442   2.371  10.654  0.0071 -0.1740  0.7645
  559MPD2    C2 8291   1.519   2.367  10.764 -0.1045  0.8750  0.1248
  559MPD2    C3 8292   1.656   2.376  10.769 -0.5909 -0.6881 -0.3707
  559MPD2    C4 8293   1.721   2.411  10.652  0.4630  0.0370  0.8869
  559MPD2    C5 8294   1.647   2.422  10.535  0.0689  0.0542 -0.0641
  559MPD2     H 8295   1.467   2.330  10.853  2.2204  2.7125  2.2381
  559MPD2    H1 8296   1.828   2.420  10.637 -0.1537  1.8945 -2.5092
  559MPD2    H2 8297   1.453   2.411  10.440 -0.0533  0.9291  0.5901
  559MPD2    H3 8298   1.694   2.450  10.442 -0.0416  0.9941  0.1644
  559MPD2     N 8299   1.725   2.361  10.890 -0.1952  0.7421  0.2889
  559MPD2    H5 8300   1.673   2.342  10.975  3.4619 -1.8047  1.9647
  559MPD2    N1 8301   1.302   2.362  10.671  0.1920  0.8689  0.4904
  559MPD2    H7 8302   1.283   2.338  10.768  0.3019 -1.6659 -0.1105
  560TMC3    C1 8303   1.895   2.306  11.030  0.4667 -0.5158  0.3912
  560TMC3    C2 8304   1.812   2.206  11.075  0.6853  0.2666 -0.0547
  560TMC3    C3 8305   1.847   2.133  11.184 -0.1252 -0.0464 -0.1501
  560TMC3    C4 8306   2.017   2.328  11.083 -0.6490  0.7335 -0.7219
  560TMC3    C5 8307   2.042   2.251  11.198  0.2394  0.7352  0.1761
  560TMC3    C6 8308   1.962   2.152  11.247 -0.5186  0.1903  0.2027
  560TMC3     C 8309   1.860   2.372  10.907 -0.0249  0.3039  0.2140
  560TMC3     O 8310   1.949   2.422  10.830  0.1653  0.1556  0.4493
  560TMC3     H 8311   1.714   2.186  11.034  0.4874  3.6892 -1.2049
  560TMC3    H1 8312   2.071   2.417  11.054  0.7187  1.0028  2.6263
  560TMC3    H2 8313   1.985   2.099  11.339 -2.1430  3.8842  2.6901
  560TMC3    C7 8314   2.167   2.258  11.267  0.3828  0.4413  0.6962
  560TMC3    C8 8315   1.770   2.017  11.207 -0.1528  0.1787  0.5683
  560TMC3    O1 8316   2.180   2.182  11.361 -0.4609 -0.1657 -0.3447
  560TMC3    O2 8317   1.649   2.014  11.193 -0.1153 -0.2661  0.1551
  561TMC3    C1 8318   4.054   1.685  11.362 -0.7442 -0.3058  0.6468
  561TMC3    C2 8319   4.012   1.618  11.471  0.0412  0.3651 -0.1657
  561TMC3    C3 8320   4.028   1.678  11.589  0.7002  0.7314  0.0530
  561TMC3    C4 8321   4.115   1.810  11.359  0.1453 -0.6541 -0.4087
  561TMC3    C5 8322   4.134   1.861  11.486  0.3733 -0.5421 -0.4460
  561TMC3    C6 8323   4.100   1.795  11.607 -0.2941 -0.3797 -0.3043
  561TMC3     C 8324   4.060   1.621  11.229 -0.7256  0.4487  0.2631
  561TMC3     O 8325   3.959   1.560  11.192 -0.0321  0.1915 -0.1039
  561TMC3     H 8326   3.980   1.514  11.467 -1.1106  0.6783  1.1923
  561TMC3    H1 8327   4.133   1.870  11.271  1.9298  0.4291  0.7021
  561TMC3    H2 8328   4.135   1.825  11.705 -1.4891 -0.0209  0.0097
  561TMC3    C7 8329   4.168   2.007  11.499  0.0763 -0.0079 -0.0446
  561TMC3    C8 8330   3.985   1.599  11.702  0.2177  0.0141 -0.7223
  561TMC3    O1 8331   4.135   2.065  11.603  0.5262  0.7638 -0.3210
  561TMC3    O2 8332   3.953   1.482  11.686 -0.6910  0.5884 -0.7608
  562TMC3    C1 8333   0.792   2.755  16.266  0.0856  0.4435 -0.5421
  562TMC3    C2 8334   0.750   2.853  16.183  0.5295  0.6144 -0.0186
  562TMC3    C3 8335   0.687   2.816  16.071 -0.3962 -0.2453 -0.5105
  562TMC3    C4 8336   0.786   2.617  16.238 -0.1654 -0.9642 -0.4781
  562TMC3    C5 8337   0.714   2.588  16.129  0.4310  0.2352 -0.1518
  562TMC3    C6 8338   0.665   2.684  16.045 -0.5061  0.0368  0.6379
  562TMC3     C 8339   0.889   2.787  16.370  1.0246 -0.6143  0.6678
  562TMC3     O 8340   0.980   2.861  16.333 -0.5241 -0.9551  0.0872
  562TMC3     H 8341   0.780   2.957  16.191 -0.0791  0.6654  1.5984
  562TMC3    H1 8342   0.800   2.536  16.309  2.1276 -1.0520 -1.0524
  562TMC3    H2 8343   0.630   2.657  15.946 -1.5105  1.1923  0.6885
  562TMC3    C7 8344   0.718   2.454  16.075 -0.5334  0.5790  0.5400
  562TMC3    C8 8345   0.583   2.907  16.035  0.1887 -0.2497 -0.9354
  562TMC3    O1 8346   0.646   2.431  15.979 -0.3525  0.1875  0.0512
  562TMC3    O2 8347   0.544   2.979  16.129  0.3955  0.0872 -0.3189
  563MPD2     C 8348   3.510   3.794  15.573 -0.7714  0.0341  0.0784
  563MPD2    C1 8349   3.498   3.916  15.638  0.2540  0.2442  0.2288
  563MPD2    C2 8350   3.607   3.988  15.671 -0.3288  0.0709  0.1753
  563MPD2    C3 8351   3.733   3.948  15.637 -0.3909  0.4727 -0.2086
  563MPD2    C4 8352   3.743   3.834  15.561 -0.0480  0.4898  0.7215
  563MPD2    C5 8353   3.636   3.753  15.541 -0.1782 -0.1272 -0.0466
  563MPD2     H 8354   3.601   4.082  15.725  0.0241 -1.1994  2.4314
  563MPD2    H1 8355   3.836   3.788  15.529 -1.7077 -2.1273 -0.3168
  563MPD2    H2 8356   3.427   3.725  15.568 -1.1906  0.4273  1.6017
  563MPD2    H3 8357   3.646   3.650  15.509 -1.1761 -0.1986 -0.1299
  563MPD2     N 8358   3.839   4.024  15.690 -0.7585 -0.3782 -0.1012
  563MPD2    H5 8359   3.819   4.088  15.766 -3.7483 -0.0809 -1.1777
  563MPD2    N1 8360   3.367   3.963  15.678  0.1831 -0.0735  0.1414
  563MPD2    H7 8361   3.297   3.892  15.659 -0.9176  0.9767  0.3145
  564TMC3    C1 8362   3.211   4.049  15.827 -0.3166 -0.2369 -0.2052
  564TMC3    C2 8363   3.176   3.917  15.862  0.1194 -0.5581 -0.0976
  564TMC3    C3 8364   3.088   3.901  15.966  0.2491 -0.2645  0.5542
  564TMC3    C4 8365   3.171   4.149  15.911  0.1792 -0.0141  0.3047
  564TMC3    C5 8366   3.098   4.128  16.024  0.1428 -0.0984 -0.8536
  564TMC3    C6 8367   3.049   3.999  16.047  0.0660 -0.1481  0.6251
  564TMC3     C 8368   3.332   4.074  15.756  0.5056 -0.2787 -0.7602
  564TMC3     O 8369   3.397   4.171  15.779 -0.1899 -0.6070 -0.2755
  564TMC3     H 8370   3.230   3.830  15.824  1.5769 -0.6177  2.0860
  564TMC3    H1 8371   3.208   4.251  15.912  1.6703 -0.5486 -0.8063
  564TMC3    H2 8372   2.976   3.978  16.125  1.4365  0.6466  2.1342
  564TMC3    C7 8373   3.175   4.175  16.147  0.3884  0.5498  0.1622
  564TMC3    C8 8374   3.037   3.765  15.998 -0.3738  0.5295 -0.1814
  564TMC3    O1 8375   3.220   4.288  16.145  0.1150 -0.4193 -0.0385
  564TMC3    O2 8376   2.985   3.754  16.107 -0.2942  0.0671  0.3909
  565TMC3    C1 8377   3.069   0.616  10.035 -0.7713  0.1014 -0.5189
  565TMC3    C2 8378   3.105   0.572  10.161 -0.1774  0.5253  0.2822
  565TMC3    C3 8379   3.053   0.460  10.209  0.3633 -0.4658 -0.9935
  565TMC3    C4 8380   2.971   0.553   9.966  0.3924 -0.4054 -0.2713
  565TMC3    C5 8381   2.912   0.444  10.028 -0.2418  0.4936 -0.0294
  565TMC3    C6 8382   2.960   0.389  10.145 -0.9138  0.3940 -0.8189
  565TMC3     C 8383   3.163   0.701   9.966 -0.3736  0.0371  0.3616
  565TMC3     O 8384   3.283   0.682   9.993 -0.4061 -0.0886 -0.0248
  565TMC3     H 8385   3.181   0.626  10.217 -0.1587 -0.1814  0.9381
  565TMC3    H1 8386   2.927   0.596   9.877 -2.7968  4.2071  3.4773
  565TMC3    H2 8387   2.921   0.303  10.199  0.6052  0.7108  0.7953
  565TMC3    C7 8388   2.784   0.387   9.985  0.4911 -0.4242  0.0272
  565TMC3    C8 8389   3.142   0.381  10.297 -0.4326 -0.2487 -0.0534
  565TMC3    O1 8390   2.729   0.303  10.052  0.2827 -0.4497 -0.0971
  565TMC3    O2 8391   3.114   0.260  10.310  0.1271  0.4729 -0.1414
  566MPD2     C 8392   0.197   2.520  14.563  0.5487 -0.5932  0.1078
  566MPD2    C1 8393   0.183   2.403  14.490  0.3598 -0.1116  0.1666
  566MPD2    C2 8394   0.050   2.349  14.472 -0.0042  0.1200 -0.4618
  566MPD2    C3 8395   4.659   2.418  14.525  0.5654  0.5844  0.8084
  566MPD2    C4 8396   4.674   2.526  14.604  0.8457  0.1320  1.1838
  566MPD2    C5 8397   0.081   2.578  14.616  0.3227 -0.0003 -0.0832
  566MPD2     H 8398   0.044   2.255  14.418  1.3383 -0.7963  0.9601
  566MPD2    H1 8399   4.591   2.577  14.651  0.3035 -0.5049  0.9220
  566MPD2    H2 8400   0.285   2.583  14.554  0.0556  0.3208  1.6919
  566MPD2    H3 8401   0.096   2.673  14.665 -0.0348  2.0398 -3.9500
  566MPD2     N 8402   4.527   2.382  14.494 -0.3549 -0.3669  0.0805
  566MPD2    H5 8403   4.450   2.446  14.508  1.7816  1.9175  1.6794
  566MPD2    N1 8404   0.290   2.364  14.399  0.1564 -0.7692  0.1704
  566MPD2    H7 8405   0.376   2.419  14.406  0.0967 -0.8745  1.7489
  567TMC3    C1 8406   0.413   2.235  14.247 -0.3336 -0.1713 -0.2486
  567TMC3    C2 8407   0.419   2.215  14.109 -0.8256  0.3547 -0.0618
  567TMC3    C3 8408   0.544   2.207  14.048 -0.8099 -0.0543  0.1833
  567TMC3    C4 8409   0.521   2.248  14.324 -0.3685 -0.5145  0.3234
  567TMC3    C5 8410   0.645   2.251  14.259 -0.2099 -0.1529  0.3475
  567TMC3    C6 8411   0.656   2.233  14.122 -0.0620  0.4022  0.6071
  567TMC3     C 8412   0.287   2.260  14.307  0.1457 -0.3192 -0.0747
  567TMC3     O 8413   0.193   2.193  14.268 -1.0211 -0.1942 -0.3213
  567TMC3     H 8414   0.329   2.206  14.050 -0.0009  2.1659 -1.6004
  567TMC3    H1 8415   0.512   2.251  14.432  3.3819 -0.7088  0.6533
  567TMC3    H2 8416   0.754   2.242  14.076  0.6891  1.9867  2.4865
  567TMC3    C7 8417   0.763   2.232  14.335 -0.7641 -0.6401  0.0082
  567TMC3    C8 8418   0.534   2.211  13.902 -1.1620  0.0558  0.3396
  567TMC3    O1 8419   0.868   2.268  14.283  0.1666  0.1939  0.2053
  567TMC3    O2 8420   0.422   2.237  13.858  0.2746  0.2753 -0.1876
  568MPD2     C 8421   2.730   2.368  16.681 -0.3157  0.7322  0.1998
  568MPD2    C1 8422   2.738   2.476  16.762  0.0302 -0.1755  0.2109
  568MPD2    C2 8423   2.717   2.602  16.703  0.2170 -0.3147 -0.3534
  568MPD2    C3 8424   2.710   2.615  16.565  0.7508 -0.5889 -0.1655
  568MPD2    C4 8425   2.711   2.500  16.482 -0.8175  0.7482  0.1989
  568MPD2    C5 8426   2.722   2.379  16.544  0.7285  0.1189 -0.0361
  568MPD2     H 8427   2.719   2.697  16.756 -0.3845  0.2631 -1.3638
  568MPD2    H1 8428   2.700   2.511  16.374  0.6773  1.7392  0.1435
  568MPD2    H2 8429   2.738   2.272  16.729 -1.6745  1.1698  1.3218
  568MPD2    H3 8430   2.724   2.289  16.483 -0.5253  0.5797 -0.7586
  568MPD2     N 8431   2.697   2.745  16.505  0.2018  0.1991  0.2714
  568MPD2    H5 8432   2.713   2.824  16.566  1.1432  1.5533 -1.7154
  568MPD2    N1 8433   2.772   2.452  16.899  0.2628  0.3023 -0.3131
  568MPD2    H7 8434   2.777   2.354  16.925 -0.0672  0.3815  0.0453
  569TMC3    C1 8435   2.722   2.920  16.341  0.2388  0.0718 -0.3044
  569TMC3    C2 8436   2.683   3.008  16.436 -0.2410  0.1753 -0.2888
  569TMC3    C3 8437   2.697   3.144  16.415  0.5890 -0.0926 -0.5312
  569TMC3    C4 8438   2.788   2.963  16.228 -0.2043  0.2369 -0.3484
  569TMC3    C5 8439   2.806   3.099  16.213  0.4014  0.0438  0.0194
  569TMC3    C6 8440   2.767   3.192  16.310 -0.0656 -0.1590 -0.0762
  569TMC3     C 8441   2.725   2.778  16.374 -0.2208  0.2822 -0.1047
  569TMC3     O 8442   2.760   2.705  16.285  0.7474 -0.0964  0.5296
  569TMC3     H 8443   2.614   2.982  16.516  0.0615  1.2449  0.3332
  569TMC3    H1 8444   2.812   2.898  16.145  0.4448 -0.7681  0.6293
  569TMC3    H2 8445   2.759   3.297  16.282  0.1666  0.2760  1.4852
  569TMC3    C7 8446   2.880   3.125  16.089 -0.7012 -0.2889  1.0181
  569TMC3    C8 8447   2.639   3.238  16.511 -0.1193  0.5840  0.0892
  569TMC3    O1 8448   2.904   3.041  16.009 -0.4603  0.1357  0.2174
  569TMC3    O2 8449   2.573   3.187  16.600 -0.7135  0.0753 -0.0479
  570TMC3    C1 8450   2.312   1.774  16.512  0.7822 -0.1048  0.3198
  570TMC3    C2 8451   2.392   1.792  16.401 -0.3680 -0.0893  0.2968
  570TMC3    C3 8452   2.476   1.906  16.395  1.1937  0.2822  0.1792
  570TMC3    C4 8453   2.294   1.874  16.600 -0.3383  0.4821  0.8019
  570TMC3    C5 8454   2.382   1.982  16.591 -0.1534  0.9501  0.2968
  570TMC3    C6 8455   2.469   2.006  16.487 -0.4095 -0.4939  0.8960
  570TMC3     C 8456   2.237   1.650  16.523  0.3941  0.4283 -0.7171
  570TMC3     O 8457   2.248   1.582  16.425  0.4706  0.4043 -0.4229
  570TMC3     H 8458   2.418   1.705  16.342 -2.3113 -0.8754  0.6076
  570TMC3    H1 8459   2.220   1.864  16.679 -1.5926 -0.0827 -0.4297
  570TMC3    H2 8460   2.533   2.093  16.478  2.3035 -2.3990  1.4116
  570TMC3    C7 8461   2.346   2.088  16.676 -0.2862 -0.5480  0.1616
  570TMC3    C8 8462   2.546   1.932  16.274 -0.0965 -0.4359  1.1845
  570TMC3    O1 8463   2.322   2.050  16.787  0.2103 -0.1104  0.4601
  570TMC3    O2 8464   2.615   2.034  16.272  0.1037  0.2017  0.2004
  571MPD2     C 8465   0.117   3.296  17.499 -0.3152 -0.2692 -0.0688
  571MPD2    C1 8466   0.114   3.258  17.633  1.1024  0.2028 -0.0886
  571MPD2    C2 8467   0.159   3.343   0.043 -0.2776  0.3164  0.2453
  571MPD2    C3 8468   0.219   3.462   0.002 -0.7448 -0.1604  0.3308
  571MPD2    C4 8469   0.235   3.489  17.557 -0.3732  0.3917  0.1116
  571MPD2    C5 8470   0.180   3.411  17.461  0.4183 -0.1643  0.1529
  571MPD2     H 8471   0.156   3.316   0.148 -0.8406  2.7689  0.8718
  571MPD2    H1 8472   0.292   3.579  17.537  0.0334 -0.0525 -0.7465
  571MPD2    H2 8473   0.080   3.237  17.416  1.7971 -2.1974  0.3633
  571MPD2    H3 8474   0.193   3.431  17.355  0.0451 -0.0767  0.1242
  571MPD2     N 8475   0.278   3.557   0.102  0.2893  0.1574  0.4510
  571MPD2    H5 8476   0.316   3.644   0.067 -0.7151  1.0744  1.6289
  571MPD2    N1 8477   0.030   3.145  17.669  0.9290  0.4680 -0.3838
  571MPD2    H7 8478   0.003   3.093  17.586  0.3280  1.0310 -0.5477
  572TMC3    C1 8479   0.393   3.626   0.281  0.6998  0.6134  0.1317
  572TMC3    C2 8480   0.455   3.583   0.390  0.4359 -0.7053  0.1430
  572TMC3    C3 8481   0.477   3.673   0.488  0.2109 -0.1563  0.1924
  572TMC3    C4 8482   0.335   3.746   0.269  0.0179 -0.8169  0.2100
  572TMC3    C5 8483   0.347   3.825   0.377 -0.0101 -0.1191 -0.1998
  572TMC3    C6 8484   0.420   3.793   0.486 -0.1158 -0.2789 -0.0499
  572TMC3     C 8485   0.318   3.522   0.225 -0.3366  0.7283  0.6066
  572TMC3     O 8486   0.319   3.409   0.270 -0.8993  0.2604  0.5506
  572TMC3     H 8487   0.509   3.489   0.380 -0.4040 -1.1387 -0.2826
  572TMC3    H1 8488   0.260   3.782   0.200 -1.2736 -0.2676  1.9122
  572TMC3    H2 8489   0.458   3.862   0.562 -1.9205 -1.0243  1.5304
  572TMC3    C7 8490   0.293   3.958   0.359 -0.4645 -0.5935 -0.8822
  572TMC3    C8 8491   0.589   3.657   0.581  0.9999  0.8293  0.1215
  572TMC3    O1 8492   0.267   3.992   0.246  0.3313  0.3752 -1.1016
  572TMC3    O2 8493   0.660   3.564   0.555  0.6859 -0.2491 -0.2704
  573MPD2     C 8494   1.304   3.594   0.809 -0.6051  0.5670 -0.2673
  573MPD2    C1 8495   1.247   3.702   0.874 -0.1360 -0.0371 -0.4315
  573MPD2    C2 8496   1.151   3.780   0.807  0.0439 -0.6992  0.7207
  573MPD2    C3 8497   1.101   3.742   0.681 -0.1129  0.6690 -0.7307
  573MPD2    C4 8498   1.156   3.636   0.621 -0.8000 -0.4015  0.0391
  573MPD2    C5 8499   1.265   3.569   0.675 -0.0389  0.5898 -0.3806
  573MPD2     H 8500   1.112   3.870   0.852  0.6882 -1.0958  2.0737
  573MPD2    H1 8501   1.133   3.609   0.518  1.3339 -0.8587 -0.3101
  573MPD2    H2 8502   1.391   3.550   0.856 -0.3516  1.2498 -0.1023
  573MPD2    H3 8503   1.311   3.487   0.621  1.0994  1.6979 -1.1073
  573MPD2     N 8504   0.991   3.817   0.618  0.0031 -0.0341  0.4280
  573MPD2    H5 8505   0.951   3.765   0.540 -0.7277  2.2948 -0.7440
  573MPD2    N1 8506   1.296   3.739   0.998  0.5749  0.5497  0.0734
  573MPD2    H7 8507   1.366   3.678   1.039 -0.1725  0.0792  0.6428
  574TMC3    C1 8508   0.824   3.981   0.577 -0.3148 -0.5572  0.3672
  574TMC3    C2 8509   0.749   4.081   0.629  0.4368  0.2822 -0.6055
  574TMC3    C3 8510   0.664   4.146   0.547  0.9780  0.3734 -0.2334
  574TMC3    C4 8511   0.806   3.946   0.447  0.2051  0.2256 -0.5743
  574TMC3    C5 8512   0.708   4.008   0.381 -0.5367  0.2814  0.3843
  574TMC3    C6 8513   0.635   4.113   0.422  0.0375  0.4417  0.2100
  574TMC3     C 8514   0.938   3.937   0.652 -0.4563 -0.4942 -0.1718
  574TMC3     O 8515   0.975   4.017   0.735 -0.1867  0.0924 -0.9141
  574TMC3     H 8516   0.763   4.115   0.731  0.0154 -0.2356 -0.3775
  574TMC3    H1 8517   0.885   3.892   0.396 -0.2336  0.7093 -1.7678
  574TMC3    H2 8518   0.561   4.166   0.363 -1.8975 -0.9345  1.3927
  574TMC3    C7 8519   0.667   3.957   0.254  0.1688  0.2953  0.7878
  574TMC3    C8 8520   0.600   4.274   0.594  0.0563 -0.6090 -0.5311
  574TMC3    O1 8521   0.572   4.020   0.204  0.3270  0.3430 -0.3831
  574TMC3    O2 8522   0.586   4.282   0.716  0.3587 -0.0698 -0.1915
  575TMC3    C1 8523   3.541   4.411  10.638  0.6732  0.1859 -0.9860
  575TMC3    C2 8524   3.563   4.316  10.543 -0.3200 -0.3272 -0.0593
  575TMC3    C3 8525   3.557   4.357  10.414 -0.2290 -0.2744 -0.3222
  575TMC3    C4 8526   3.532   4.543  10.610  0.2067 -0.0466 -0.0981
  575TMC3    C5 8527   3.535   4.582  10.477  0.3836  0.6679  0.7917
  575TMC3    C6 8528   3.559   4.490  10.374 -0.7265 -0.1574  0.1073
  575TMC3     C 8529   3.510   4.360  10.772  0.7096 -0.1252 -0.0261
  575TMC3     O 8530   3.501   4.239  10.780  0.4600  0.3442  0.7974
  575TMC3     H 8531   3.567   4.213  10.576  0.7535  0.7732  3.2377
  575TMC3    H1 8532   3.508   4.620  10.682  0.6457 -0.2411  0.2561
  575TMC3    H2 8533   3.576   4.514  10.270 -0.4787 -0.0296  0.1784
  575TMC3    C7 8534   3.511   4.716  10.436  0.2291  0.0320  0.5835
  575TMC3    C8 8535   3.525   4.257  10.314  0.2894  0.7702 -1.1462
  575TMC3    O1 8536   3.497   0.017  10.318  0.2330 -0.1643 -0.4970
  575TMC3    O2 8537   3.558   4.141  10.336 -0.1661  0.0780  0.1466
  576MPD2     C 8538   3.314   1.961  12.974 -0.2066 -0.2521 -0.8184
  576MPD2    C1 8539   3.286   2.036  12.858  0.0732  0.1303 -0.1181
  576MPD2    C2 8540   3.173   2.120  12.870  0.6210  0.3341  0.8359
  576MPD2    C3 8541   3.086   2.119  12.980 -0.1873 -0.3008 -0.2633
  576MPD2    C4 8542   3.117   2.048  13.093 -0.2690  0.5202  0.5744
  576MPD2    C5 8543   3.231   1.966  13.086  0.7751 -0.7418 -0.1380
  576MPD2     H 8544   3.140   2.172  12.781 -0.7352 -3.6382 -1.0106
  576MPD2    H1 8545   3.070   2.048  13.191 -0.5858 -0.5469  0.4154
  576MPD2    H2 8546   3.403   1.900  12.987  1.4969  2.6727  1.2462
  576MPD2    H3 8547   3.251   1.904  13.172  0.3956  0.5131  0.8614
  576MPD2     N 8548   2.976   2.206  12.969  0.1326 -0.4548  0.0860
  576MPD2    H5 8549   2.978   2.262  12.885  1.8002  0.7164  0.9080
  576MPD2    N1 8550   3.369   2.036  12.740 -0.2964  0.1417 -0.1406
  576MPD2    H7 8551   3.332   2.103  12.674  0.0919 -1.2004 -1.6973
  577TMC3    C1 8552   3.531   1.977  12.584 -0.8066  0.0397 -0.0975
  577TMC3    C2 8553   3.612   1.878  12.535  0.3177  0.5410 -0.0448
  577TMC3    C3 8554   3.665   1.897  12.411  0.0179  0.5337  0.0346
  577TMC3    C4 8555   3.506   2.087  12.513 -0.3866  1.0470 -0.3895
  577TMC3    C5 8556   3.550   2.098  12.385 -0.2331 -1.1571 -0.0493
  577TMC3    C6 8557   3.637   2.003  12.334 -0.7215 -0.0559  1.0084
  577TMC3     C 8558   3.471   1.955  12.715 -0.0337 -0.9814  0.8466
  577TMC3     O 8559   3.500   1.853  12.774 -0.5757 -0.0324  0.4036
  577TMC3     H 8560   3.627   1.790  12.597 -1.7314  0.8594  0.9160
  577TMC3    H1 8561   3.456   2.165  12.569 -1.5659 -0.9207  1.2923
  577TMC3    H2 8562   3.665   2.010  12.229 -0.6365 -0.8743  0.9745
  577TMC3    C7 8563   3.489   2.202  12.308 -0.9235 -0.4004 -0.0172
  577TMC3    C8 8564   3.729   1.784  12.351  0.4760  0.4128  0.2059
  577TMC3    O1 8565   3.440   2.288  12.379 -0.1802 -0.0859 -0.2604
  577TMC3    O2 8566   3.754   1.700  12.441  0.0942  0.1426 -0.2195
  578MPD2     C 8567   2.017   2.530   0.862 -0.5554  0.2830  0.2776
  578MPD2    C1 8568   2.074   2.578   0.981  0.3980  0.6586 -0.0694
  578MPD2    C2 8569   2.160   2.489   1.049  0.2182  0.7700  0.1199
  578MPD2    C3 8570   2.197   2.369   0.992  0.5543  0.3041 -0.1008
  578MPD2    C4 8571   2.124   2.319   0.885 -0.1627 -0.0812  0.3107
  578MPD2    C5 8572   2.048   2.405   0.816  0.9557 -0.0596  1.0623
  578MPD2     H 8573   2.193   2.517   1.148  0.1099  4.4726 -0.8836
  578MPD2    H1 8574   2.148   2.223   0.840  1.5407  1.1464 -1.3708
  578MPD2    H2 8575   1.949   2.591   0.805  1.1796  2.6879  0.7686
  578MPD2    H3 8576   1.999   2.359   0.731  1.7908  1.9889 -0.5552
  578MPD2     N 8577   2.286   2.291   1.069  0.0751 -0.2233  0.1765
  578MPD2    H5 8578   2.322   2.345   1.147  1.9145 -1.6569  0.3085
  578MPD2    N1 8579   2.033   2.700   1.025  0.4663 -0.4499 -0.1724
  578MPD2    H7 8580   1.964   2.754   0.974  0.0375 -1.7477 -0.9550
  579TMC3    C1 8581   2.410   2.114   1.156  0.2540 -0.5303 -0.5169
  579TMC3    C2 8582   2.528   2.188   1.169 -0.0984  0.1687 -0.1430
  579TMC3    C3 8583   2.619   2.136   1.251  0.0718 -0.3184 -0.3497
  579TMC3    C4 8584   2.382   1.994   1.211 -0.2156  1.0484  0.5317
  579TMC3    C5 8585   2.487   1.943   1.277  0.1631 -0.0998 -0.0206
  579TMC3    C6 8586   2.593   2.014   1.303 -1.1619  0.8519  0.7369
  579TMC3     C 8587   2.316   2.158   1.058 -0.2938  0.1275  0.1901
  579TMC3     O 8588   2.249   2.075   0.994 -0.1892 -0.1425  0.2272
  579TMC3     H 8589   2.537   2.284   1.120 -1.1499  0.3175 -0.0646
  579TMC3    H1 8590   2.286   1.946   1.195 -0.4614  1.0862  1.8936
  579TMC3    H2 8591   2.658   1.970   1.378 -0.7092 -1.0049 -0.7491
  579TMC3    C7 8592   2.475   1.811   1.341 -0.4932 -0.0718  0.1843
  579TMC3    C8 8593   2.725   2.224   1.298  0.1294 -0.6595  0.3354
  579TMC3    O1 8594   2.514   1.803   1.457  0.8736 -0.0578 -0.1127
  579TMC3    O2 8595   2.704   2.344   1.280  0.8113 -0.2785 -0.2701
  580TMC3    C1 8596   1.535   1.325  12.300 -0.2321  0.8902 -0.7813
  580TMC3    C2 8597   1.624   1.352  12.197  0.0348  0.2032 -0.2122
  580TMC3    C3 8598   1.734   1.267  12.203  0.2354 -0.5221 -0.0680
  580TMC3    C4 8599   1.556   1.216  12.382 -0.5694  0.2622 -0.0243
  580TMC3    C5 8600   1.664   1.136  12.383  0.3665 -0.2099  0.0952
  580TMC3    C6 8601   1.750   1.157  12.278 -0.0297 -0.1705  0.3084
  580TMC3     C 8602   1.407   1.385  12.301  0.7100  0.8112 -0.0741
  580TMC3     O 8603   1.342   1.374  12.407 -0.1422  0.0425 -0.1934
  580TMC3     H 8604   1.607   1.412  12.108 -0.3350 -1.7704 -1.4542
  580TMC3    H1 8605   1.477   1.189  12.451  1.3278 -2.5297  1.0784
  580TMC3    H2 8606   1.843   1.102  12.283  1.4180  2.3065  0.6569
  580TMC3    C7 8607   1.651   1.015  12.463 -0.2874  0.2441 -0.0176
  580TMC3    C8 8608   1.823   1.288  12.088  0.5030  0.0497 -0.5947
  580TMC3    O1 8609   1.577   1.020  12.560  0.0113 -0.0681 -0.1476
  580TMC3    O2 8610   1.847   1.407  12.062 -0.6759 -0.1610  0.2614
  581MPD2     C 8611   4.150   0.451  14.916 -0.3645  0.2857 -0.7647
  581MPD2    C1 8612   4.024   0.429  14.965 -0.4730 -0.8611  0.1811
  581MPD2    C2 8613   3.915   0.472  14.892 -0.2725 -0.7210 -0.3674
  581MPD2    C3 8614   3.926   0.536  14.775  0.5615  0.0730 -0.1693
  581MPD2    C4 8615   4.050   0.536  14.718 -0.7476  0.3324  0.0537
  581MPD2    C5 8616   4.159   0.494  14.786 -0.5877 -0.1169 -0.7261
  581MPD2     H 8617   3.815   0.452  14.928  1.1395  1.2028  4.7594
  581MPD2    H1 8618   4.073   0.573  14.619  3.0935 -0.3834  0.6823
  581MPD2    H2 8619   4.238   0.422  14.971 -0.5844 -0.2721 -0.7085
  581MPD2    H3 8620   4.258   0.502  14.742 -0.7735  0.0127 -1.1166
  581MPD2     N 8621   3.813   0.597  14.713  0.1257 -0.0314 -0.3171
  581MPD2    H5 8622   3.725   0.583  14.762  0.2104 -0.1776 -0.2114
  581MPD2    N1 8623   4.021   0.361  15.093  0.0029 -0.0366  0.2833
  581MPD2    H7 8624   4.108   0.338  15.139 -1.0922 -2.1649  1.2602
  582TMC3    C1 8625   3.917   0.229  15.262  1.2498  0.1526 -0.8627
  582TMC3    C2 8626   3.996   0.275  15.361 -0.0865 -0.0360 -0.2624
  582TMC3    C3 8627   3.988   0.212  15.480 -0.4222 -0.1571  0.1231
  582TMC3    C4 8628   3.836   0.122  15.277  0.8791  1.0091  0.1916
  582TMC3    C5 8629   3.830   0.063  15.405  0.4189 -0.0347  0.7032
  582TMC3    C6 8630   3.909   0.103  15.504 -0.2986  0.0200  0.8633
  582TMC3     C 8631   3.911   0.293  15.132  0.1832 -0.5746  0.4076
  582TMC3     O 8632   3.804   0.278  15.071 -0.1618 -0.0489  0.0161
  582TMC3     H 8633   4.061   0.360  15.346  0.5373 -0.7208 -1.4424
  582TMC3    H1 8634   3.769   0.082  15.202  0.5511 -0.3139  1.1905
  582TMC3    H2 8635   3.899   0.060  15.604 -0.1895 -0.4343  0.6799
  582TMC3    C7 8636   3.692   0.024  15.447 -0.3623  0.5544  0.0375
  582TMC3    C8 8637   4.029   0.289  15.599 -0.1052 -0.7053 -0.4124
  582TMC3    O1 8638   3.675   4.663  15.533 -0.2032  0.6329 -0.1909
  582TMC3    O2 8639   4.006   0.408  15.594  0.1004 -0.1893 -0.2114
  583MPD2     C 8640   3.835   2.354  16.506 -0.1276 -0.2269 -0.0588
  583MPD2    C1 8641   3.948   2.434  16.507  0.5337 -0.2590  0.4921
  583MPD2    C2 8642   3.970   2.518  16.612  0.4325 -0.2388  0.2082
  583MPD2    C3 8643   3.895   2.515  16.730 -0.2044  0.5424  0.1186
  583MPD2    C4 8644   3.779   2.427  16.729  0.1276 -0.2315 -0.4931
  583MPD2    C5 8645   3.758   2.344  16.621  0.6176 -0.3256  0.2871
  583MPD2     H 8646   4.057   2.581  16.602 -1.5487  2.8191  2.2897
  583MPD2    H1 8647   3.714   2.403  16.812  1.0531 -1.7319 -0.1971
  583MPD2    H2 8648   3.808   2.282  16.429  1.2522 -0.9741  0.1598
  583MPD2    H3 8649   3.686   2.264  16.631  0.3517  0.0024  1.0037
  583MPD2     N 8650   3.930   2.598  16.837 -0.2800  0.1823 -0.5013
  583MPD2    H5 8651   4.015   2.654  16.836  0.8271 -1.5119 -0.9392
  583MPD2    N1 8652   4.032   2.434  16.392 -0.8060 -0.2760 -0.0803
  583MPD2    H7 8653   4.120   2.481  16.409  0.3998 -2.1313 -1.2077
  584TMC3    C1 8654   3.913   2.686  17.060  0.3202 -0.2507  0.1823
  584TMC3    C2 8655   3.931   2.819  17.028  0.5358  1.0867  0.1689
  584TMC3    C3 8656   3.942   2.912  17.136  0.0881 -0.2665  0.5295
  584TMC3    C4 8657   3.907   2.647  17.194 -0.3647 -0.4293 -0.3703
  584TMC3    C5 8658   3.917   2.748  17.293  1.0222  0.6851  0.1101
  584TMC3    C6 8659   3.937   2.874  17.266  0.4246  0.3182 -0.0768
  584TMC3     C 8660   3.867   2.589  16.962  0.3688  1.0318  0.1832
  584TMC3     O 8661   3.778   2.521  17.012 -0.1898 -0.1485  0.0258
  584TMC3     H 8662   3.935   2.868  16.931  0.0988  0.6372 -0.0716
  584TMC3    H1 8663   3.895   2.543  17.224 -2.3923 -0.1622 -0.2722
  584TMC3    H2 8664   3.954   2.953  17.339  2.9540  1.2483 -1.6937
  584TMC3    C7 8665   3.901   2.710  17.431  0.4626  0.0078 -0.0892
  584TMC3    C8 8666   3.929   3.057  17.107 -0.3594 -0.2906 -0.6243
  584TMC3    O1 8667   3.931   2.597  17.460 -0.4363 -0.3129 -0.2337
  584TMC3    O2 8668   3.872   3.090  17.006  0.3275 -0.6467  0.4544
  585MPD2     C 8669   3.616   1.778   0.991 -0.2140  0.2141  0.0290
  585MPD2    C1 8670   3.724   1.755   0.910  0.0647 -0.1524  0.2810
  585MPD2    C2 8671   3.703   1.727   0.777 -0.2800 -0.6939 -0.7577
  585MPD2    C3 8672   3.571   1.710   0.729 -0.1869  0.2921  0.2279
  585MPD2    C4 8673   3.469   1.750   0.808  0.6599  0.5621 -0.1931
  585MPD2    C5 8674   3.485   1.783   0.944  0.1404 -0.0673 -0.3213
  585MPD2     H 8675   3.785   1.729   0.706  1.1630 -0.9434  0.8885
  585MPD2    H1 8676   3.372   1.772   0.766  0.8527  0.2829 -0.7706
  585MPD2    H2 8677   3.620   1.812   1.094  1.6688  0.4182 -0.1130
  585MPD2    H3 8678   3.404   1.820   1.006  1.4388  0.7916  0.8555
  585MPD2     N 8679   3.548   1.674   0.590  0.3526 -0.5834  0.1676
  585MPD2    H5 8680   3.456   1.685   0.549  0.3227  1.7513  0.8739
  585MPD2    N1 8681   3.850   1.752   0.974  0.3102 -0.0802 -0.3942
  585MPD2    H7 8682   3.850   1.786   1.069 -1.2546  3.8102 -1.8166
  586TMC3    C1 8683   3.586   1.639   0.356  0.8199  0.3821 -0.6871
  586TMC3    C2 8684   3.669   1.622   0.249 -0.3133  0.1477 -0.0611
  586TMC3    C3 8685   3.625   1.618   0.118  0.5117 -0.5104  0.6541
  586TMC3    C4 8686   3.447   1.649   0.335 -0.0673  0.2714 -0.3213
  586TMC3    C5 8687   3.407   1.624   0.204 -0.5934  0.6263 -0.6780
  586TMC3    C6 8688   3.493   1.621   0.092 -0.0162 -0.4381 -0.8526
  586TMC3     C 8689   3.643   1.646   0.493 -0.0967  0.2616  0.2221
  586TMC3     O 8690   3.767   1.639   0.505 -0.0768 -0.2437 -0.6843
  586TMC3     H 8691   3.776   1.625   0.268 -0.3271 -0.2183  0.0761
  586TMC3    H1 8692   3.369   1.673   0.406  0.6782  1.9146 -0.0742
  586TMC3    H2 8693   3.450   1.592  17.685 -0.5525 -0.6246 -0.5565
  586TMC3    C7 8694   3.299   1.534   0.183 -0.4255  0.2659 -0.5765
  586TMC3    C8 8695   3.715   1.566   0.026 -0.2677 -0.0838 -0.6608
  586TMC3    O1 8696   3.281   1.478   0.073 -0.1734 -0.9788  0.7276
  586TMC3    O2 8697   3.826   1.530   0.067 -0.5013 -0.6046  0.6445
  587TMC3    C1 8698   1.040   4.501  16.416  0.3013  0.2073 -0.1966
  587TMC3    C2 8699   0.975   4.613  16.373  0.7362 -0.3768  0.5840
  587TMC3    C3 8700   1.060   4.720  16.339  0.4226 -0.0890 -0.1389
  587TMC3    C4 8701   1.178   4.490  16.428 -0.0752 -0.1239 -0.0175
  587TMC3    C5 8702   1.257   4.596  16.389 -0.3771 -0.1117 -0.5025
  587TMC3    C6 8703   1.199   4.717  16.358  0.4682 -0.3890  0.8487
  587TMC3     C 8704   0.953   4.400  16.467 -0.9807  0.1990  0.0757
  587TMC3     O 8705   0.998   4.286  16.480 -0.0097 -0.0214 -0.0423
  587TMC3     H 8706   0.872   4.624  16.342  1.7798  0.5338 -2.5652
  587TMC3    H1 8707   1.219   4.395  16.459  0.7976  0.2180 -0.1178
  587TMC3    H2 8708   1.255   0.085  16.332  1.4769 -0.6433  2.1338
  587TMC3    C7 8709   1.404   4.600  16.406 -0.5877 -0.2376  0.3456
  587TMC3    C8 8710   1.016   0.129  16.297 -0.1469  0.3989 -0.2467
  587TMC3    O1 8711   1.454   4.710  16.421  0.1701  0.2441 -0.5663
  587TMC3    O2 8712   1.086   0.191  16.219 -0.4182 -0.3133 -0.0091
  588TMC3    C1 8713   3.127   2.791   9.878 -0.3944  1.2143  0.4565
  588TMC3    C2 8714   3.053   2.676   9.904 -0.1560 -0.0856  0.3611
  588TMC3    C3 8715   3.084   2.611  10.019 -0.3329  0.7874  0.0703
  588TMC3    C4 8716   3.225   2.831   9.962  0.1401 -0.7481 -0.6356
  588TMC3    C5 8717   3.240   2.760  10.078  0.2900  0.4317 -0.7073
  588TMC3    C6 8718   3.182   2.646  10.104  0.3571  0.2000 -0.0135
  588TMC3     C 8719   3.090   2.875   9.764  0.2645 -0.5172 -0.1715
  588TMC3     O 8720   2.990   2.843   9.702 -0.0371 -0.2919 -0.3547
  588TMC3     H 8721   2.963   2.648   9.850  2.9454 -2.6303 -3.4476
  588TMC3    H1 8722   3.299   2.908   9.943 -1.5083  0.8106 -0.7990
  588TMC3    H2 8723   3.219   2.590  10.189  0.9468 -0.6209 -0.8196
  588TMC3    C7 8724   3.298   2.839  10.186 -0.1034  0.2678 -0.6866
  588TMC3    C8 8725   2.977   2.532  10.081 -0.0254 -0.0905  0.2001
  588TMC3    O1 8726   3.384   2.785  10.251  0.0935 -0.3217 -0.1463
  588TMC3    O2 8727   2.863   2.559  10.041 -0.1228  0.2071 -0.2550
  589TMC3    C1 8728   2.500   0.355   1.735  0.5322 -0.0628 -0.5996
  589TMC3    C2 8729   2.621   0.327   1.792  0.1641 -0.9002 -0.2916
  589TMC3    C3 8730   2.681   0.211   1.749  0.1484  0.3634 -0.3104
  589TMC3    C4 8731   2.450   0.290   1.632 -0.3239  0.1556  0.1154
  589TMC3    C5 8732   2.526   0.187   1.580  0.2508 -0.2241  0.1839
  589TMC3    C6 8733   2.626   0.131   1.648 -0.1929  0.2662 -0.2924
  589TMC3     C 8734   2.428   0.475   1.783  0.6429  0.0089  0.6306
  589TMC3     O 8735   2.308   0.468   1.796  0.1776 -0.2576 -0.1350
  589TMC3     H 8736   2.657   0.383   1.877 -1.6309 -0.0589 -0.0848
  589TMC3    H1 8737   2.379   0.340   1.566 -1.1331 -0.6538  0.3755
  589TMC3    H2 8738   2.674   0.044   1.603  0.7200 -0.1660  1.5310
  589TMC3    C7 8739   2.493   0.118   1.458  0.2602 -0.9829 -0.0317
  589TMC3    C8 8740   2.791   0.167   1.832 -0.0801  0.2294  0.2391
  589TMC3    O1 8741   2.578   0.053   1.397  0.0549 -0.1068  0.4197
  589TMC3    O2 8742   2.820   0.227   1.929  0.1895  0.4858 -0.2454
  590MPD2     C 8743   1.933   3.434  16.445 -0.2330  0.1637 -0.4498
  590MPD2    C1 8744   1.876   3.365  16.337  0.5293 -0.4224 -0.8015
  590MPD2    C2 8745   1.921   3.393  16.207 -0.0394 -0.1904 -0.3903
  590MPD2    C3 8746   2.019   3.497  16.188 -1.0838 -0.0383  0.6932
  590MPD2    C4 8747   2.064   3.563  16.292 -0.7125  0.3816  0.4333
  590MPD2    C5 8748   2.028   3.529  16.422 -0.4332 -0.1459  0.0713
  590MPD2     H 8749   1.878   3.337  16.124  2.0208 -1.6145 -0.4987
  590MPD2    H1 8750   2.123   3.653  16.278  0.2969 -0.7389 -2.5176
  590MPD2    H2 8751   1.916   3.411  16.550 -1.8176  2.4623 -0.2004
  590MPD2    H3 8752   2.075   3.583  16.503  1.2994  0.1919 -1.1624
  590MPD2     N 8753   2.058   3.524  16.053  0.4979 -0.2830 -0.1345
  590MPD2    H5 8754   2.008   3.473  15.981  2.0976 -0.4231 -1.1524
  590MPD2    N1 8755   1.773   3.268  16.355 -0.4758  0.0253  0.2989
  590MPD2    H7 8756   1.723   3.236  16.273  2.0571 -0.9214 -0.8772
  591TMC3    C1 8757   2.174   3.614  15.874  0.1586 -0.0809  0.0168
  591TMC3    C2 8758   2.303   3.599  15.839 -0.1900  0.5070 -0.0485
  591TMC3    C3 8759   2.357   3.670  15.738  0.1177 -0.6386 -0.5808
  591TMC3    C4 8760   2.095   3.701  15.803 -0.1509 -0.3133  0.3275
  591TMC3    C5 8761   2.160   3.780  15.704 -0.4908  0.5887  0.1542
  591TMC3    C6 8762   2.292   3.763  15.664  0.5806  0.2079 -0.4409
  591TMC3     C 8763   2.154   3.620  16.016 -0.1598 -0.0091 -0.0836
  591TMC3     O 8764   2.233   3.683  16.084 -0.6494  0.1529 -0.2340
  591TMC3     H 8765   2.362   3.530  15.898 -0.0413  1.2713  0.7007
  591TMC3    H1 8766   1.993   3.717  15.835  0.3808  1.8820  0.9667
  591TMC3    H2 8767   2.335   3.820  15.582 -0.7016  0.0003 -1.2685
  591TMC3    C7 8768   2.057   3.790  15.606  0.6041 -0.0649 -0.0391
  591TMC3    C8 8769   2.454   3.579  15.672 -0.2216 -0.5032 -0.3956
  591TMC3    O1 8770   1.965   3.704  15.605  0.2178  0.3170  0.3690
  591TMC3    O2 8771   2.436   3.460  15.680  0.1767 -0.0847 -0.5089
  592MPD2     C 8772   2.231   0.625  11.546  0.4209  0.4001 -0.1556
  592MPD2    C1 8773   2.210   0.655  11.675 -0.3778  0.5098 -0.9178
  592MPD2    C2 8774   2.141   0.559  11.755  0.4127 -0.0108  0.5722
  592MPD2    C3 8775   2.092   0.441  11.702  0.5569  0.2428  0.4282
  592MPD2    C4 8776   2.102   0.420  11.567  0.2206  0.5506 -0.9318
  592MPD2    C5 8777   2.170   0.511  11.493 -0.3230 -0.2058 -0.4821
  592MPD2     H 8778   2.124   0.570  11.862  0.6141 -1.5105  0.7593
  592MPD2    H1 8779   2.055   0.328  11.533 -1.5678  1.5992 -1.3013
  592MPD2    H2 8780   2.286   0.698  11.487 -2.8243  0.8973 -2.5922
  592MPD2    H3 8781   2.176   0.502  11.385  1.9229 -0.5548 -0.3168
  592MPD2     N 8782   2.020   0.357  11.796 -0.2900  0.8048 -0.3796
  592MPD2    H5 8783   1.998   0.402  11.884 -0.0571  0.6160 -0.2252
  592MPD2    N1 8784   2.280   0.769  11.721  0.2272  0.2914 -0.2972
  592MPD2    H7 8785   2.337   0.818  11.653  0.3291 -0.1459 -0.5273
  593TMC3    C1 8786   2.339   0.945  11.872 -0.2754 -0.1838 -0.3515
  593TMC3    C2 8787   2.296   1.045  11.954  0.2935  0.1079  0.2967
  593TMC3    C3 8788   2.342   1.171  11.934 -0.1727 -0.1530 -0.1368
  593TMC3    C4 8789   2.440   0.963  11.779  0.3787  0.0500 -0.0315
  593TMC3    C5 8790   2.490   1.088  11.772  0.0874  0.1630  0.2917
  593TMC3    C6 8791   2.439   1.196  11.844  1.0532 -0.0585 -0.4955
  593TMC3     C 8792   2.253   0.830  11.846 -0.5567 -0.7292  0.4620
  593TMC3     O 8793   2.155   0.810  11.920  0.2716  0.1908 -0.4336
  593TMC3     H 8794   2.232   1.011  12.035  0.1630  1.6261  0.8311
  593TMC3    H1 8795   2.475   0.881  11.717  0.8262 -0.2363  0.6012
  593TMC3    H2 8796   2.495   1.289  11.848 -0.0394  0.5965 -0.3812
  593TMC3    C7 8797   2.606   1.111  11.693  0.0659 -0.3953  0.6435
  593TMC3    C8 8798   2.331   1.269  12.042  0.6747  0.4898 -0.3091
  593TMC3    O1 8799   2.607   1.227  11.652  0.2192  0.5387  0.1284
  593TMC3    O2 8800   2.223   1.322  12.068  0.3773  0.2730 -0.4986
  594MPD2     C 8801   1.111   3.792  13.932  0.4469 -0.0625  0.3988
  594MPD2    C1 8802   1.048   3.849  14.041  0.1549  0.4061 -0.6614
  594MPD2    C2 8803   1.061   3.983  14.071 -0.4815  0.0298 -0.4352
  594MPD2    C3 8804   1.141   4.065  13.991  0.4883 -0.3641 -0.0739
  594MPD2    C4 8805   1.200   4.012  13.879 -0.4141  0.0213 -0.9684
  594MPD2    C5 8806   1.179   3.876  13.842 -0.2137  0.2153  0.8114
  594MPD2     H 8807   1.009   4.020  14.158 -1.3580 -1.1124 -0.4724
  594MPD2    H1 8808   1.261   4.074  13.814  2.3504  0.2508  1.8250
  594MPD2    H2 8809   1.106   3.689  13.901 -2.8951  0.3991 -0.5941
  594MPD2    H3 8810   1.233   3.839  13.756 -2.3178  1.5640 -1.0908
  594MPD2     N 8811   1.162   4.202  14.033 -0.6374  0.2884  0.1857
  594MPD2    H5 8812   1.093   4.235  14.100 -0.4744 -3.6716  2.2918
  594MPD2    N1 8813   0.963   3.767  14.113 -0.0406 -0.1641 -0.2528
  594MPD2    H7 8814   0.932   3.682  14.067 -0.5073 -0.4886  0.6472
  595TMC3    C1 8815   1.215   4.657  14.032  0.7147  0.6482 -0.5146
  595TMC3    C2 8816   1.223   4.542  13.958 -0.5140  1.6054  0.0162
  595TMC3    C3 8817   1.217   4.428  14.028  0.3638 -0.4871  0.5432
  595TMC3    C4 8818   1.187   4.666  14.164 -0.3532  0.1760  0.0731
  595TMC3    C5 8819   1.189   4.546  14.225  0.1670  0.0884  0.3425
  595TMC3    C6 8820   1.210   4.431  14.165  0.9149  0.2317 -0.0567
  595TMC3     C 8821   1.286   0.049  13.978 -0.2038 -0.0864 -0.2577
  595TMC3     O 8822   1.357   0.117  14.056 -0.3809 -0.6045 -0.0913
  595TMC3     H 8823   1.229   4.539  13.850 -1.2421  0.0007  0.0171
  595TMC3    H1 8824   1.203   0.036  14.221  1.4901  2.0545 -3.4948
  595TMC3    H2 8825   1.217   4.336  14.217  0.2344  0.2906  0.1407
  595TMC3    C7 8826   1.162   4.548  14.369 -0.3035 -0.5866 -0.4910
  595TMC3    C8 8827   1.235   4.301  13.961  0.1612 -0.1121 -0.2756
  595TMC3    O1 8828   1.101   4.642  14.413 -0.2009  0.0212  0.8277
  595TMC3    O2 8829   1.321   4.297  13.871 -0.1093 -0.3695 -0.0839
  596MPD2     C 8830   4.720   2.039  16.629 -0.5359 -0.8076  0.0064
  596MPD2    C1 8831   0.031   2.148  16.556  0.8037 -0.0104 -0.0255
  596MPD2    C2 8832   0.057   2.131  16.419 -0.1092 -0.4126  0.1319
  596MPD2    C3 8833   0.052   2.007  16.365 -0.7424 -0.1015  0.5412
  596MPD2    C4 8834   0.029   1.900  16.442  0.2629 -0.6455  0.0483
  596MPD2    C5 8835   4.718   1.919  16.574  0.2389  0.2325  0.2546
  596MPD2     H 8836   0.087   2.214  16.355  0.2259 -2.2165 -2.0404
  596MPD2    H1 8837   0.028   1.797  16.405 -0.5267  0.1939 -2.2867
  596MPD2    H2 8838   4.707   2.055  16.736  3.1758  5.0506 -0.4267
  596MPD2    H3 8839   4.702   1.830  16.635  1.0355 -0.7794 -1.0263
  596MPD2     N 8840   0.084   2.000  16.225  0.5567 -0.2793 -0.0804
  596MPD2    H5 8841   0.082   2.091  16.180  1.1650  0.6996  1.8944
  596MPD2    N1 8842   0.044   2.275  16.607  0.2737  0.0133 -0.0540
  596MPD2    H7 8843   0.065   2.350  16.542  1.1128 -1.1119 -1.0807
  597TMC3    C1 8844   0.050   2.449  16.768  0.4459 -0.5736 -0.7832
  597TMC3    C2 8845   0.135   2.521  16.687  0.2397  0.0811 -0.0866
  597TMC3    C3 8846   0.153   2.653  16.701 -0.9614  0.2532  0.4108
  597TMC3    C4 8847   4.688   2.508  16.846 -0.5311 -0.0653  0.0766
  597TMC3    C5 8848   4.698   2.636  16.855  0.1802 -0.1875 -0.0863
  597TMC3    C6 8849   0.070   2.716  16.788 -0.4110  0.4876 -0.2208
  597TMC3     C 8850   0.029   2.310  16.740  0.1821 -0.0224 -0.0352
  597TMC3     O 8851   4.708   2.242  16.836 -0.4154 -0.3412  0.1442
  597TMC3     H 8852   0.192   2.462  16.616  0.0315  0.0730 -0.2466
  597TMC3    H1 8853   4.605   2.456  16.891 -0.8874  0.0772 -0.4094
  597TMC3    H2 8854   0.073   2.824  16.798  1.7758  0.3838  0.2706
  597TMC3    C7 8855   4.639   2.693  16.966 -0.0822 -0.5000 -0.4181
  597TMC3    C8 8856   0.256   2.729  16.637  0.1332  0.0188 -0.1306
  597TMC3    O1 8857   4.608   2.612  17.055 -0.2937 -0.4303  0.6337
  597TMC3    O2 8858   0.304   2.689  16.534  0.1743  0.1058 -0.4273
  598TMC3    C1 8859   2.595   3.925  15.168 -0.4437  0.0910 -0.0217
  598TMC3    C2 8860   2.530   3.808  15.130 -0.4816 -0.7452 -0.3336
  598TMC3    C3 8861   2.520   3.784  15.005 -0.4411  0.3306  0.5002
  598TMC3    C4 8862   2.647   4.009  15.077 -0.0799  0.5639  0.6411
  598TMC3    C5 8863   2.632   3.977  14.948 -0.3416 -0.5014 -0.1488
  598TMC3    C6 8864   2.570   3.867  14.906 -0.3442 -0.3022 -0.0778
  598TMC3     C 8865   2.547   3.993  15.291 -0.3875  0.7458  0.0603
  598TMC3     O 8866   2.439   3.952  15.335 -0.2471 -0.1877 -0.1199
  598TMC3     H 8867   2.476   3.753  15.207 -2.1964 -1.7759 -2.2733
  598TMC3    H1 8868   2.678   4.109  15.105 -0.2151  0.8708 -0.3159
  598TMC3    H2 8869   2.572   3.838  14.801 -4.1049 -1.0313  0.0559
  598TMC3    C7 8870   2.746   4.011  14.858 -0.1480 -0.0010 -0.0769
  598TMC3    C8 8871   2.505   3.653  14.959 -0.0690  0.3027  0.1962
  598TMC3    O1 8872   2.792   3.922  14.790  0.1102 -0.2805  0.0626
  598TMC3    O2 8873   2.475   3.641  14.842 -0.5196  0.0221  0.1042
  599MPD2     C 8874   2.624   1.022  15.897 -0.9185 -0.8647 -0.0395
  599MPD2    C1 8875   2.731   1.067  15.977 -0.4061  0.2531 -0.5695
  599MPD2    C2 8876   2.702   1.109  16.103 -0.5852 -0.6596  1.0400
  599MPD2    C3 8877   2.568   1.127  16.151 -0.0313  0.1334 -0.5951
  599MPD2    C4 8878   2.471   1.086  16.070  0.5957  0.5487 -0.2262
  599MPD2    C5 8879   2.504   1.026  15.952  0.3566  0.4487 -0.1610
  599MPD2     H 8880   2.789   1.125  16.166  1.5678 -0.6346 -1.9061
  599MPD2    H1 8881   2.367   1.099  16.097  0.6428  2.3949 -0.9545
  599MPD2    H2 8882   2.644   0.994  15.794  1.5634  2.5143 -0.4509
  599MPD2    H3 8883   2.414   0.994  15.900  0.0305  0.5396  0.3405
  599MPD2     N 8884   2.529   1.174  16.276  0.2186 -0.2419 -0.1176
  599MPD2    H5 8885   2.429   1.169  16.294  0.2947  3.9580  1.4562
  599MPD2    N1 8886   2.866   1.051  15.932 -0.5452 -0.0617  0.2756
  599MPD2    H7 8887   2.872   0.995  15.847  0.4877  0.0982  0.2437
  600TMC3    C1 8888   2.535   1.275  16.484  0.1148  0.2526 -0.0509
  600TMC3    C2 8889   2.435   1.195  16.523  1.0874  0.2117 -0.4188
  600TMC3    C3 8890   2.396   1.219  16.660 -0.6004  0.1630 -1.0489
  600TMC3    C4 8891   2.597   1.373  16.559  0.4379 -0.0846 -0.5433
  600TMC3    C5 8892   2.547   1.394  16.686 -0.6297 -0.2782 -0.3325
  600TMC3    C6 8893   2.450   1.317  16.738  0.3930 -0.4014  0.1167
  600TMC3     C 8894   2.610   1.241  16.365 -0.8051  0.7319 -0.2233
  600TMC3     O 8895   2.721   1.291  16.347  0.3555 -0.1504 -0.2258
  600TMC3     H 8896   2.406   1.109  16.464 -1.1990 -0.6718  1.9664
  600TMC3    H1 8897   2.662   1.440  16.504 -2.1578  3.0654  0.1875
  600TMC3    H2 8898   2.418   1.337  16.839 -1.0061  0.7381 -0.5449
  600TMC3    C7 8899   2.567   1.520  16.749  0.0730  0.6566  0.1074
  600TMC3    C8 8900   2.317   1.118  16.723  0.0268 -0.0488  0.0214
  600TMC3    O1 8901   2.483   1.558  16.831 -0.2579  0.3281 -0.2979
  600TMC3    O2 8902   2.314   1.127  16.849  0.0388  0.3807  0.1255
  601MPD2     C 8903   0.183   4.423   0.536  0.1035 -0.2282 -0.2466
  601MPD2    C1 8904   0.174   4.373   0.409  0.3880 -0.9379 -0.2080
  601MPD2    C2 8905   0.212   4.237   0.386  0.0375 -0.5729 -0.0469
  601MPD2    C3 8906   0.263   4.163   0.490  0.1844 -0.0927 -0.1806
  601MPD2    C4 8907   0.257   4.215   0.618  0.3254  0.2784  0.0195
  601MPD2    C5 8908   0.221   4.346   0.634 -0.4655  0.0029 -0.1428
  601MPD2     H 8909   0.197   4.207   0.283  1.1332 -0.5149 -0.2306
  601MPD2    H1 8910   0.283   4.150   0.701  0.1034 -0.9367 -0.8752
  601MPD2    H2 8911   0.168   4.530   0.542 -1.3375 -0.4306 -0.2379
  601MPD2    H3 8912   0.238   4.381   0.735  1.2908 -3.0594  0.6200
  601MPD2     N 8913   0.305   4.025   0.478  0.4346 -0.2742 -0.1154
  601MPD2    H5 8914   0.322   3.972   0.563  1.5244  1.0516  0.4961
  601MPD2    N1 8915   0.130   4.446   0.293  0.5607  0.4035  0.1189
  601MPD2    H7 8916   0.140   4.402   0.203  0.7591  0.3428  0.1719
  602TMC3    C1 8917   0.042   4.646   0.183 -0.6830 -0.1217  0.0036
  602TMC3    C2 8918   0.034   0.062   0.165 -0.2179  0.2937 -0.0134
  602TMC3    C3 8919   4.694   0.110   0.050  0.0386 -0.4554  0.8097
  602TMC3    C4 8920   4.706   4.559   0.091  0.3306  0.1395 -0.1100
  602TMC3    C5 8921   4.642   4.612  17.670  0.4711 -0.1706 -0.3977
  602TMC3    C6 8922   4.637   0.022  17.650  0.2936  1.2259  0.1933
  602TMC3     C 8923   0.090   4.582   0.301 -0.2730  0.3197 -0.0388
  602TMC3     O 8924   0.084   4.657   0.399  0.7755 -0.3659  0.0628
  602TMC3     H 8925   0.060   0.141   0.235  0.6163  1.4847 -1.6604
  602TMC3    H1 8926   4.683   4.454   0.103  1.6206 -0.1862 -0.4958
  602TMC3    H2 8927   4.595   0.047  17.553  1.7448  2.0381 -0.2250
  602TMC3    C7 8928   4.514   4.546  17.649 -0.2289 -0.1129 -0.5731
  602TMC3    C8 8929   4.618   0.229   0.054 -0.0425 -0.4574 -0.0461
  602TMC3    O1 8930   4.423   4.597   0.023 -0.4517 -0.2017  0.0978
  602TMC3    O2 8931   4.670   0.334   0.093  0.1820  0.5478 -0.3034
  603TMC3    C1 8932   3.189   0.180  10.760  0.1284  0.5064 -0.0051
  603TMC3    C2 8933   3.235   0.198  10.889  0.5521  0.2432  0.1469
  603TMC3    C3 8934   3.217   0.319  10.939  0.0329  0.3291 -0.4737
  603TMC3    C4 8935   3.098   0.266  10.707 -0.1585  0.2487  0.4218
  603TMC3    C5 8936   3.055   0.374  10.775 -0.1394 -0.5863  0.2462
  603TMC3    C6 8937   3.130   0.412  10.878 -0.0438  0.6044  0.8308
  603TMC3     C 8938   3.218   0.045  10.712  0.1200  0.4242  0.2992
  603TMC3     O 8939   3.275   4.686  10.783  0.0045  0.8839 -0.2563
  603TMC3     H 8940   3.312   0.134  10.929 -0.1391  0.6832  2.1993
  603TMC3    H1 8941   3.042   0.241  10.617  0.4670  3.9900 -0.9898
  603TMC3    H2 8942   3.104   0.506  10.925 -0.6067  1.0207 -0.3343
  603TMC3    C7 8943   3.010   0.492  10.692 -0.6427  0.4525  0.6224
  603TMC3    C8 8944   3.268   0.352  11.072 -0.6611 -0.0237  0.3687
  603TMC3    O1 8945   3.061   0.603  10.715 -0.6551 -0.1050  0.0599
  603TMC3    O2 8946   3.312   0.256  11.134  0.6301  0.2324  0.0163
  604MPD2     C 8947   3.817   2.978  16.504 -0.3094 -0.7513 -0.2156
  604MPD2    C1 8948   3.771   3.093  16.444 -0.3958  0.0106 -0.4613
  604MPD2    C2 8949   3.791   3.111  16.305 -0.2463 -0.5655  0.1411
  604MPD2    C3 8950   3.871   3.026  16.231 -0.1614 -0.1234  1.0937
  604MPD2    C4 8951   3.922   2.916  16.297 -0.4614 -0.0399  0.2723
  604MPD2    C5 8952   3.889   2.891  16.429  0.3495 -0.4120  0.2346
  604MPD2     H 8953   3.742   3.190  16.249 -0.1746 -0.3009  0.4523
  604MPD2    H1 8954   3.985   2.844  16.246  0.1548  0.9275 -0.3370
  604MPD2    H2 8955   3.799   2.961  16.610 -1.7765 -2.4305 -0.7374
  604MPD2    H3 8956   3.918   2.798  16.474 -1.7898 -1.2459 -0.1011
  604MPD2     N 8957   3.913   3.055  16.092 -0.2397 -0.2735 -0.1962
  604MPD2    H5 8958   3.871   3.137  16.048 -0.4731  0.0181  0.5827
  604MPD2    N1 8959   3.692   3.176  16.523  0.9022  0.7779 -0.1814
  604MPD2    H7 8960   3.677   3.154  16.621 -0.5739 -0.9855 -0.8026
  605TMC3    C1 8961   3.602   3.376  16.591  0.3108  0.0217  0.0533
  605TMC3    C2 8962   3.719   3.411  16.655  0.2311  0.4732  0.0514
  605TMC3    C3 8963   3.735   3.540  16.695  0.1592 -0.2811 -0.2273
  605TMC3    C4 8964   3.511   3.470  16.567 -0.2246 -0.7602 -0.1639
  605TMC3    C5 8965   3.531   3.601  16.601  0.3852  1.1355  0.4680
  605TMC3    C6 8966   3.642   3.637  16.671 -0.0414 -0.2665  0.1127
  605TMC3     C 8967   3.634   3.293  16.481  0.1262 -0.3756 -0.3276
  605TMC3     O 8968   3.631   3.338  16.367  0.0594  0.2181 -0.0205
  605TMC3     H 8969   3.798   3.338  16.671 -0.3928  0.6583  4.0888
  605TMC3    H1 8970   3.427   3.455  16.500  0.6044  0.4177 -1.4784
  605TMC3    H2 8971   3.660   3.734  16.717  0.5009  1.3920 -3.6409
  605TMC3    C7 8972   3.455   3.699  16.523 -0.1823  0.7326 -0.0195
  605TMC3    C8 8973   3.867   3.571  16.736 -0.7708 -0.6164  0.4609
  605TMC3    O1 8974   3.356   3.667  16.462 -0.0860 -0.1832 -0.0068
  605TMC3    O2 8975   3.956   3.506  16.686  0.0024 -0.1587  0.0324
  606TMC3    C1 8976   0.315   2.002  16.825 -0.4669  0.0218 -0.4351
  606TMC3    C2 8977   0.247   2.037  16.941 -0.1519  0.6131  0.2309
  606TMC3    C3 8978   0.158   1.949  16.999 -0.1316  0.6306 -0.7050
  606TMC3    C4 8979   0.303   1.875  16.777 -0.1076 -0.9740 -0.0988
  606TMC3    C5 8980   0.220   1.785  16.844  0.4106  0.1313 -0.4469
  606TMC3    C6 8981   0.153   1.821  16.955 -0.6572 -0.3866  0.0656
  606TMC3     C 8982   0.351   2.110  16.736 -0.3469  0.4083 -0.3758
  606TMC3     O 8983   0.364   2.225  16.783  0.0780  0.4000  0.3254
  606TMC3     H 8984   0.263   2.137  16.980  2.2100  0.5321 -0.5442
  606TMC3    H1 8985   0.366   1.840  16.697  0.8779 -2.5595  1.3918
  606TMC3    H2 8986   0.113   1.749  17.025 -0.7362 -1.7073 -1.3272
  606TMC3    C7 8987   0.271   1.645  16.849  0.5768 -0.3234 -0.0008
  606TMC3    C8 8988   0.145   1.968  17.140  0.5274  0.0685 -0.0626
  606TMC3    O1 8989   0.382   1.619  16.809  0.7422  0.2438 -0.5315
  606TMC3    O2 8990   0.233   2.036  17.192 -0.9265 -0.3337 -0.6460
  607MPD2     C 8991   2.242   0.044  11.815 -0.1077 -0.1284  0.4288
  607MPD2    C1 8992   2.303   0.155  11.863 -0.9111 -0.2135  0.8127
  607MPD2    C2 8993   2.323   0.154  11.997  0.6680 -0.2210  0.5114
  607MPD2    C3 8994   2.277   0.059  12.084  0.1321  0.0846  0.4372
  607MPD2    C4 8995   2.200   4.677  12.038  0.8185  0.3233  0.5854
  607MPD2    C5 8996   2.185   4.671  11.902 -0.5410 -0.7579  0.4442
  607MPD2     H 8997   2.380   0.234  12.042  1.6135 -0.2709 -0.5768
  607MPD2    H1 8998   2.160   4.602  12.105 -2.0004  0.9690 -0.4100
  607MPD2    H2 8999   2.215   0.030  11.711 -0.5903 -1.4760  0.7289
  607MPD2    H3 9000   2.135   4.588  11.853  1.3543 -2.0181  0.6605
  607MPD2     N 9001   2.298   0.079  12.223 -0.1608  0.0590 -0.3404
  607MPD2    H5 9002   2.333   0.170  12.248 -0.5530  0.2461 -0.4713
  607MPD2    N1 9003   2.356   0.266  11.793  0.0984  0.3213  0.3794
  607MPD2    H7 9004   2.372   0.349  11.850  0.8697  0.6353 -0.2899
  608TMC3    C1 9005   2.469   0.394  11.631 -0.6382 -0.1506  0.3866
  608TMC3    C2 9006   2.491   0.484  11.734 -0.8315 -0.0339 -0.6193
  608TMC3    C3 9007   2.576   0.589  11.707  1.0626 -0.0715  0.1122
  608TMC3    C4 9008   2.533   0.404  11.507 -0.2185  0.0157 -0.8017
  608TMC3    C5 9009   2.607   0.515  11.487  0.0066 -0.7679  0.4137
  608TMC3    C6 9010   2.629   0.610  11.580  0.0108  0.0597  0.1724
  608TMC3     C 9011   2.383   0.275  11.659 -0.4543 -0.3513  0.4452
  608TMC3     O 9012   2.387   0.185  11.579  0.1463  0.5305  0.1160
  608TMC3     H 9013   2.429   0.483  11.823  2.9343  0.4730  1.9883
  608TMC3    H1 9014   2.517   0.321  11.439 -0.6720 -0.1613 -0.4804
  608TMC3    H2 9015   2.687   0.699  11.561 -0.6157  0.7257  1.3843
  608TMC3    C7 9016   2.648   0.538  11.352  0.4454  0.0209  0.1506
  608TMC3    C8 9017   2.645   0.654  11.818  0.0885 -0.3996 -0.5498
  608TMC3    O1 9018   2.590   0.480  11.264  0.5751  0.3620 -0.4588
  608TMC3    O2 9019   2.693   0.767  11.808  0.3899  0.3054  0.7735
  609TMC3    C1 9020   1.167   3.216   9.254  0.0408 -0.1956 -0.0344
  609TMC3    C2 9021   1.169   3.095   9.195  0.3700 -0.1460 -0.4427
  609TMC3    C3 9022   1.285   3.051   9.140 -0.2281  0.6885 -0.3775
  609TMC3    C4 9023   1.281   3.285   9.283  0.1866  0.2052  0.4126
  609TMC3    C5 9024   1.398   3.232   9.235  0.1226 -0.1483  0.4074
  609TMC3    C6 9025   1.400   3.125   9.156 -0.4620  0.1069 -0.1413
  609TMC3     C 9026   1.051   3.240   9.329  0.5468 -0.6235  0.1277
  609TMC3     O 9027   0.945   3.181   9.298 -0.0630 -0.1813 -0.4120
  609TMC3     H 9028   1.086   3.026   9.191  0.8728 -0.8096  0.5687
  609TMC3    H1 9029   1.278   3.379   9.338 -1.3193  1.8399 -2.4955
  609TMC3    H2 9030   1.495   3.083   9.122 -0.8853 -1.1802  0.2754
  609TMC3    C7 9031   1.499   3.233   9.339  0.1610 -0.4178 -0.0070
  609TMC3    C8 9032   1.293   2.931   9.072 -0.5752  0.3824  1.0335
  609TMC3    O1 9033   1.473   3.312   9.431  0.4506  0.5971  0.4205
  609TMC3    O2 9034   1.409   2.895   9.057  0.9611  0.3195 -0.2228
  610TMC3    C1 9035   2.913   0.231  12.624  0.4295 -0.7354 -0.2333
  610TMC3    C2 9036   2.973   0.278  12.515 -0.7719  0.2465  0.4662
  610TMC3    C3 9037   3.075   0.212  12.454 -0.9722 -0.9950  0.2931
  610TMC3    C4 9038   2.953   0.117  12.686  0.7526 -0.0384 -0.2069
  610TMC3    C5 9039   3.062   0.055  12.619 -0.0374  0.3066  0.0314
  610TMC3    C6 9040   3.124   0.100  12.505  0.0564 -0.3140 -0.5861
  610TMC3     C 9041   2.796   0.312  12.668 -0.2007 -0.4670  0.4167
  610TMC3     O 9042   2.773   0.424  12.621  0.1412 -0.6259 -0.3728
  610TMC3     H 9043   2.930   0.364  12.466 -0.2455  0.7371  0.8611
  610TMC3    H1 9044   2.910   0.073  12.776 -1.1515  1.5030 -0.3721
  610TMC3    H2 9045   3.201   0.043  12.454  2.2003  0.0474  2.2504
  610TMC3    C7 9046   3.106   4.644  12.670 -0.0391 -0.0997 -0.1629
  610TMC3    C8 9047   3.181   0.293  12.393 -0.1538 -0.1115  0.7026
  610TMC3    O1 9048   3.222   4.624  12.627 -0.2657 -0.2205  0.0550
  610TMC3    O2 9049   3.297   0.286  12.435  0.4834  0.4620  0.3588
  611MPD2     C 9050   2.009   0.070  10.522  0.2345 -0.0396 -0.4685
  611MPD2    C1 9051   1.945   0.099  10.405 -0.1567 -0.3822 -0.2564
  611MPD2    C2 9052   2.018   0.162  10.303  0.8341 -0.2155  0.2494
  611MPD2    C3 9053   2.150   0.174  10.318 -0.4151 -0.4812 -0.2524
  611MPD2    C4 9054   2.217   0.137  10.430 -0.1121  0.0916  0.0562
  611MPD2    C5 9055   2.147   0.076  10.535 -0.4480 -0.1643 -0.3147
  611MPD2     H 9056   1.972   0.199  10.212 -1.2869  0.8202  1.7484
  611MPD2    H1 9057   2.323   0.158  10.437  0.0797 -0.6970 -0.4669
  611MPD2    H2 9058   1.957   0.019  10.603 -1.0221 -1.3833 -2.1182
  611MPD2    H3 9059   2.207   0.035  10.616 -1.5416 -2.5721 -0.7100
  611MPD2     N 9060   2.226   0.248  10.223 -0.0174 -0.1417 -0.4055
  611MPD2    H5 9061   2.324   0.260  10.250 -0.7207  0.1898  1.9901
  611MPD2    N1 9062   1.814   0.048  10.387  0.6931 -0.0099 -0.3961
  611MPD2    H7 9063   1.772   0.002  10.468  1.5062  0.3552  0.2223
  612TMC3    C1 9064   2.276   0.412  10.048 -0.6721 -0.0636  0.1287
  612TMC3    C2 9065   2.368   0.471  10.120  0.2752  0.2421  0.5823
  612TMC3    C3 9066   2.439   0.573  10.065  0.3512 -0.2670  0.6156
  612TMC3    C4 9067   2.234   0.458   9.923 -0.3380  0.9207 -0.0786
  612TMC3    C5 9068   2.290   0.576   9.878 -0.3931  0.1983 -0.5242
  612TMC3    C6 9069   2.400   0.628   9.949 -0.2055 -0.4040  0.3130
  612TMC3     C 9070   2.184   0.303  10.104  0.3142 -0.3451  0.7667
  612TMC3     O 9071   2.099   0.267  10.026  0.5408  0.0727  0.0121
  612TMC3     H 9072   2.392   0.426  10.216  0.8345 -0.7984 -0.0451
  612TMC3    H1 9073   2.180   0.402   9.848  0.7106 -0.6760  0.3656
  612TMC3    H2 9074   2.448   0.720   9.918  0.1980 -0.1547  1.6694
  612TMC3    C7 9075   2.211   0.662   9.784 -0.0117  0.3573 -0.5980
  612TMC3    C8 9076   2.568   0.614  10.117 -0.4552 -0.2621 -0.3603
  612TMC3    O1 9077   2.251   0.779   9.774 -0.0179 -0.5742  0.1765
  612TMC3    O2 9078   2.629   0.693  10.050 -0.2577 -0.5880 -0.1535
  613MPD2     C 9079   1.637   2.364  16.528 -0.2137  0.4731  0.5857
  613MPD2    C1 9080   1.675   2.258  16.452 -0.3194 -0.3745  0.2674
  613MPD2    C2 9081   1.629   2.132  16.487  0.6443  0.3334 -0.1948
  613MPD2    C3 9082   1.530   2.110  16.579  0.6381  0.1665 -0.6935
  613MPD2    C4 9083   1.488   2.216  16.653 -0.0047  0.2288 -0.7543
  613MPD2    C5 9084   1.546   2.337  16.624 -0.0785 -0.3439 -0.6853
  613MPD2     H 9085   1.656   2.048  16.424  1.5094 -1.5698  2.6767
  613MPD2    H1 9086   1.410   2.214  16.728  0.9959  1.7651  0.3158
  613MPD2    H2 9087   1.663   2.469  16.524 -0.6555  0.5934  0.8773
  613MPD2    H3 9088   1.511   2.417  16.689  0.4403 -1.9557  1.5865
  613MPD2     N 9089   1.462   1.988  16.580 -0.5777 -0.0425 -0.2766
  613MPD2    H5 9090   1.480   1.917  16.510  1.6443  0.7965 -0.5658
  613MPD2    N1 9091   1.770   2.264  16.353 -0.3218 -0.2695 -0.3327
  613MPD2    H7 9092   1.780   2.184  16.292 -1.8933 -0.6844 -0.0392
  614TMC3    C1 9093   1.848   2.364  16.158 -0.0837  0.0705 -0.0107
  614TMC3    C2 9094   1.891   2.237  16.130  0.1112  0.5066 -0.0139
  614TMC3    C3 9095   1.836   2.164  16.026  0.3271 -0.6706  0.0833
  614TMC3    C4 9096   1.754   2.423  16.084 -0.5286  0.9238  0.0590
  614TMC3    C5 9097   1.694   2.351  15.983  0.6629  0.4321 -0.7670
  614TMC3    C6 9098   1.738   2.224  15.947  0.1975  0.0015  0.6910
  614TMC3     C 9099   1.814   2.384  16.301  0.0507  0.0064 -0.2315
  614TMC3     O 9100   1.809   2.500  16.347 -0.3850 -0.3484 -0.8041
  614TMC3     H 9101   1.964   2.190  16.194  1.9064 -0.0764 -2.4946
  614TMC3    H1 9102   1.707   2.513  16.121 -1.0365  0.8793 -0.4807
  614TMC3    H2 9103   1.700   2.169  15.861  1.9826 -0.8294  0.4351
  614TMC3    C7 9104   1.572   2.405  15.927  0.2912 -0.4556  0.0776
  614TMC3    C8 9105   1.798   2.029  16.072 -0.8600  0.0421 -0.0355
  614TMC3    O1 9106   1.545   2.522  15.952  0.0679 -0.2789 -0.3191
  614TMC3    O2 9107   1.770   2.027  16.192  0.1976 -0.9407  0.6318
  615MPD2     C 9108   0.987   3.221  16.047  0.2009 -0.4995  0.2881
  615MPD2    C1 9109   1.059   3.329  16.012 -1.2862 -0.1129 -0.1321
  615MPD2    C2 9110   1.026   3.397  15.896 -0.6257  0.3995 -0.1096
  615MPD2    C3 9111   0.905   3.378  15.831  0.0565 -0.3537  0.4962
  615MPD2    C4 9112   0.825   3.274  15.879 -0.4646 -0.0949 -0.8741
  615MPD2    C5 9113   0.871   3.187  15.977  0.0707  0.4211  0.1361
  615MPD2     H 9114   1.095   3.479  15.881 -1.7940  1.0879 -1.6466
  615MPD2    H1 9115   0.729   3.244  15.838 -1.3862  0.0116  1.2216
  615MPD2    H2 9116   1.014   3.150  16.125  2.1832  0.3989  0.4067
  615MPD2    H3 9117   0.803   3.107  16.003  0.1811  0.9095  1.9349
  615MPD2     N 9118   0.846   3.475  15.750  0.4249 -0.0945 -0.0253
  615MPD2    H5 9119   0.745   3.469  15.750  0.4459 -0.4397  0.0832
  615MPD2    N1 9120   1.181   3.361  16.074 -0.2694  0.2526  0.5891
  615MPD2    H7 9121   1.240   3.434  16.036 -0.5437 -0.7333 -1.7021
  616TMC3    C1 9122   1.347   3.367  16.249  0.1009 -0.0955  0.4157
  616TMC3    C2 9123   1.436   3.411  16.149 -1.2016 -0.5822 -0.4967
  616TMC3    C3 9124   1.541   3.485  16.199 -0.4225 -0.5950  1.0861
  616TMC3    C4 9125   1.364   3.381  16.387  0.7999  0.1596  0.3335
  616TMC3    C5 9126   1.475   3.451  16.428  0.2441  0.0445  0.2664
  616TMC3    C6 9127   1.566   3.501  16.335 -0.6396 -0.1764 -0.6191
  616TMC3     C 9128   1.221   3.315  16.200 -0.2383  0.4999  0.7217
  616TMC3     O 9129   1.158   3.248  16.283 -0.1472 -0.2871 -0.4983
  616TMC3     H 9130   1.418   3.397  16.043  0.8217  1.3791 -1.0979
  616TMC3    H1 9131   1.292   3.328  16.448  1.8318  1.6818  2.9194
  616TMC3    H2 9132   1.654   3.556  16.368 -0.7596 -0.0670 -0.4863
  616TMC3    C7 9133   1.473   3.480  16.570 -0.0364  0.0572 -0.7285
  616TMC3    C8 9134   1.612   3.567  16.109  0.2349  0.9071  0.2901
  616TMC3    O1 9135   1.380   3.432  16.626 -0.5526  0.3722  0.4239
  616TMC3    O2 9136   1.575   3.559  15.992  0.1546 -0.4413 -0.0901
  617MPD2     C 9137   3.686   2.114  14.100  0.5902  0.0855  0.2039
  617MPD2    C1 9138   3.711   1.986  14.142 -0.3904 -0.7510  0.1151
  617MPD2    C2 9139   3.606   1.910  14.190 -0.4595 -0.8973 -0.2302
  617MPD2    C3 9140   3.482   1.968  14.210 -0.6049 -0.6513  0.9751
  617MPD2    C4 9141   3.459   2.097  14.167  0.1979  0.0307  0.5782
  617MPD2    C5 9142   3.568   2.169  14.126  0.7998  0.7648 -0.0787
  617MPD2     H 9143   3.624   1.805  14.210 -1.1775 -1.1835 -1.1164
  617MPD2    H1 9144   3.362   2.144  14.183  0.4675  0.4461  0.9755
  617MPD2    H2 9145   3.768   2.181  14.076 -0.1692 -0.2479 -3.2889
  617MPD2    H3 9146   3.550   2.273  14.102 -1.1978  0.3431 -0.3760
  617MPD2     N 9147   3.377   1.898  14.267 -0.1495 -0.8638 -0.0293
  617MPD2    H5 9148   3.281   1.932  14.261 -0.3302 -1.1892  1.0231
  617MPD2    N1 9149   3.841   1.931  14.109  0.3312  0.1163  0.3914
  617MPD2    H7 9150   3.905   1.970  14.040 -1.3069  1.1057 -0.5624
  618TMC3    C1 9151   4.006   1.752  14.095 -0.2110  0.0656  0.2070
  618TMC3    C2 9152   4.027   1.621  14.122  0.2372  0.7416 -0.3608
  618TMC3    C3 9153   4.108   1.551  14.035 -0.5563  0.5177 -0.4951
  618TMC3    C4 9154   4.072   1.814  13.991  0.0811  0.2013 -0.2601
  618TMC3    C5 9155   4.155   1.740  13.907  0.7553 -0.2703  0.0812
  618TMC3    C6 9156   4.179   1.612  13.931 -0.6788  0.4999 -0.3075
  618TMC3     C 9157   3.886   1.811  14.157  0.1242  0.4341 -0.3808
  618TMC3     O 9158   3.834   1.735  14.239 -0.1683 -0.4585  0.0960
  618TMC3     H 9159   3.967   1.571  14.197  1.9934 -1.7797 -0.6231
  618TMC3    H1 9160   4.082   1.921  13.997 -0.1211  0.1228  1.7029
  618TMC3    H2 9161   4.236   1.555  13.858 -0.8155  1.0163 -0.8182
  618TMC3    C7 9162   4.211   1.816  13.794 -0.5178  0.1090  0.5240
  618TMC3    C8 9163   4.106   1.406  14.048  0.9853 -0.5189  0.7245
  618TMC3    O1 9164   4.148   1.916  13.765 -0.8134 -0.3218 -0.5668
  618TMC3    O2 9165   4.107   1.356  14.158 -0.3493  0.2980  0.8123
  619MPD2     C 9166   0.285   3.118  13.521 -0.0453  0.7973 -0.2698
  619MPD2    C1 9167   0.218   3.235  13.551 -0.1358 -0.2052  0.1205
  619MPD2    C2 9168   0.084   3.244  13.551  0.3243 -0.0877  0.3030
  619MPD2    C3 9169   0.002   3.131  13.524 -0.1568  0.8013 -0.3916
  619MPD2    C4 9170   0.070   3.018  13.486 -0.5286  0.4910  0.8835
  619MPD2    C5 9171   0.208   3.010  13.487  0.5149  0.1119  0.2541
  619MPD2     H 9172   0.038   3.341  13.567 -0.3908 -0.3677 -0.0383
  619MPD2    H1 9173   0.018   2.927  13.460  1.4067 -0.7249  1.3030
  619MPD2    H2 9174   0.393   3.110  13.526 -0.1462  0.0851  0.7917
  619MPD2    H3 9175   0.260   2.919  13.461 -1.4526 -1.0066  0.2194
  619MPD2     N 9176   4.579   3.131  13.521 -0.2063  0.0050  0.0788
  619MPD2    H5 9177   4.528   3.043  13.513  1.0023 -0.6581 -0.2405
  619MPD2    N1 9178   0.305   3.343  13.575 -0.6744  0.1352 -0.0925
  619MPD2    H7 9179   0.397   3.345  13.533 -0.5782 -0.0439  0.1148
  620TMC3    C1 9180   0.394   3.548  13.641  0.4025  0.8494 -0.7127
  620TMC3    C2 9181   0.424   3.576  13.513  0.3649  0.6948  0.5323
  620TMC3    C3 9182   0.454   3.704  13.481 -0.2335 -0.0467  0.4364
  620TMC3    C4 9183   0.395   3.645  13.735 -0.3903  0.3985 -0.0031
  620TMC3    C5 9184   0.429   3.773  13.708 -0.0658 -0.0088 -0.6771
  620TMC3    C6 9185   0.462   3.804  13.580 -0.0660 -0.1336  0.1590
  620TMC3     C 9186   0.281   3.456  13.645 -0.6635  0.5088  0.1166
  620TMC3     O 9187   0.189   3.471  13.727 -0.3183 -0.4105 -0.2897
  620TMC3     H 9188   0.414   3.511  13.427  1.3270 -0.9826  1.6806
  620TMC3    H1 9189   0.370   3.613  13.836  1.5500  3.5276  1.4694
  620TMC3    H2 9190   0.478   3.907  13.552  0.4788  0.2448  1.8763
  620TMC3    C7 9191   0.371   3.887  13.783  0.2404 -0.4271 -0.7402
  620TMC3    C8 9192   0.454   3.763  13.347  0.7531 -0.2844 -0.2486
  620TMC3    O1 9193   0.355   3.999  13.731 -0.3102  0.0414  0.2055
  620TMC3    O2 9194   0.537   3.848  13.328 -0.1778  0.4485 -0.2755
  621MPD2     C 9195   0.481   2.951  10.304  0.2967 -0.8855  0.2334
  621MPD2    C1 9196   0.572   2.902  10.211  0.1366  0.1260 -0.4679
  621MPD2    C2 9197   0.687   2.977  10.190 -0.3055  0.2963  0.0025
  621MPD2    C3 9198   0.705   3.110  10.238  0.1411 -0.0708 -0.1804
  621MPD2    C4 9199   0.607   3.155  10.321 -0.1060  0.1684  0.1204
  621MPD2    C5 9200   0.502   3.070  10.357 -0.2921  0.2244 -0.6036
  621MPD2     H 9201   0.760   2.932  10.124 -1.5646  0.3790 -1.4701
  621MPD2    H1 9202   0.614   3.252  10.370  0.1933  0.4626 -0.5035
  621MPD2    H2 9203   0.381   2.913  10.325 -0.5245  1.1665  0.0657
  621MPD2    H3 9204   0.430   3.115  10.424 -1.2150  0.7629 -1.9717
  621MPD2     N 9205   0.807   3.195  10.182 -0.3942 -0.0958 -0.2198
  621MPD2    H5 9206   0.872   3.154  10.115  0.1611 -2.3951  1.7555
  621MPD2    N1 9207   0.548   2.785  10.143  0.1445  0.4499 -0.0666
  621MPD2    H7 9208   0.602   2.783  10.057  1.7833  0.0751  0.9718
  622TMC3    C1 9209   0.451   2.570  10.100 -0.3539 -0.4474  0.0880
  622TMC3    C2 9210   0.399   2.451  10.145 -0.0154  0.2110  0.0091
  622TMC3    C3 9211   0.346   2.362  10.052 -0.3924 -0.1801  0.7742
  622TMC3    C4 9212   0.464   2.592   9.963 -0.1314  0.0013 -0.4987
  622TMC3    C5 9213   0.418   2.501   9.874  0.2748  0.2184  0.0586
  622TMC3    C6 9214   0.365   2.383   9.914 -0.2573  0.4400  0.2064
  622TMC3     C 9215   0.474   2.677  10.198  0.7808  0.2715  0.1335
  622TMC3     O 9216   0.436   2.653  10.313  0.1768  0.0523  0.1507
  622TMC3     H 9217   0.391   2.428  10.250  2.2505 -0.3084  0.0518
  622TMC3    H1 9218   0.523   2.672   9.918 -0.1019  1.6797  2.5167
  622TMC3    H2 9219   0.347   2.306   9.840 -0.0238 -0.6872  1.3323
  622TMC3    C7 9220   0.452   2.526   9.732 -0.0828 -0.2977  0.2518
  622TMC3    C8 9221   0.220   2.297  10.073  0.0052  0.7375 -0.1250
  622TMC3    O1 9222   0.544   2.600   9.709 -0.3822  0.0419 -0.3081
  622TMC3    O2 9223   0.185   2.211   9.992  0.0005  0.8034  0.0575
  623MPD2     C 9224   4.341   3.672  15.756  0.2551  0.0059 -0.0199
  623MPD2    C1 9225   4.403   3.779  15.804  0.1048 -0.3288  0.5675
  623MPD2    C2 9226   4.488   3.771  15.914  0.2531  0.0435  0.2567
  623MPD2    C3 9227   4.486   3.653  15.990  0.1676 -0.1774  0.6665
  623MPD2    C4 9228   4.423   3.541  15.936  0.8820  0.0568 -0.4082
  623MPD2    C5 9229   4.358   3.550  15.811  0.2420 -0.0874 -0.1266
  623MPD2     H 9230   4.540   3.862  15.941 -0.0667  0.1146  0.6310
  623MPD2    H1 9231   4.412   3.448  15.990  0.7674  1.3704  1.8694
  623MPD2    H2 9232   4.285   3.683  15.663  0.2568 -1.4506 -0.1852
  623MPD2    H3 9233   4.308   3.465  15.768 -0.5245 -0.9287  2.4167
  623MPD2     N 9234   4.551   3.649  16.120 -0.5922 -0.5032  0.1300
  623MPD2    H5 9235   4.597   3.736  16.143 -0.4800 -0.7991  1.0360
  623MPD2    N1 9236   4.353   3.904  15.760 -0.6179 -0.3172  0.2544
  623MPD2    H7 9237   4.270   3.895  15.701  0.2403  1.2304 -1.1754
  624TMC3    C1 9238   4.686   3.767  16.457 -0.2892  0.3517  0.8528
  624TMC3    C2 9239   4.582   3.767  16.551 -0.6298 -1.0951  0.5061
  624TMC3    C3 9240   4.473   3.690  16.522  0.0093 -0.7673  0.4616
  624TMC3    C4 9241   4.687   3.684  16.348 -0.8355 -0.8339  0.1446
  624TMC3    C5 9242   4.583   3.599  16.340 -0.2363 -0.1182  0.8081
  624TMC3    C6 9243   4.475   3.603  16.415  0.2132  0.1498 -0.4664
  624TMC3     C 9244   0.095   3.816  16.509 -0.4851 -0.2729 -0.2936
  624TMC3     O 9245   0.111   3.808  16.634 -0.0147  0.5474 -0.1902
  624TMC3     H 9246   4.581   3.825  16.643 -2.1848 -0.7881  0.2892
  624TMC3    H1 9247   0.061   3.669  16.299 -0.2699  1.1439  0.6546
  624TMC3    H2 9248   4.381   3.558  16.386  1.0387 -1.4919 -0.5656
  624TMC3    C7 9249   4.542   3.550  16.208 -0.6222  0.7688  0.6865
  624TMC3    C8 9250   4.347   3.696  16.604  0.4441 -0.0285  0.4137
  624TMC3    O1 9251   4.484   3.442  16.199 -0.4003  0.3773 -0.3243
  624TMC3    O2 9252   4.268   3.608  16.578  0.5859 -0.4972  0.7244
  625MPD2     C 9253   0.069   0.596   0.786 -0.2745 -0.0991  0.0004
  625MPD2    C1 9254   0.069   0.726   0.825 -0.1779  0.4513  0.3016
  625MPD2    C2 9255   0.167   0.771   0.907  0.6236 -0.0703 -0.4099
  625MPD2    C3 9256   0.268   0.690   0.953 -0.3818 -0.1376 -0.4977
  625MPD2    C4 9257   0.273   0.559   0.907 -0.0213 -0.0771 -0.0660
  625MPD2    C5 9258   0.173   0.512   0.826 -0.0741  0.0459 -0.7579
  625MPD2     H 9259   0.164   0.878   0.927  4.3352  0.3177 -1.9025
  625MPD2    H1 9260   0.349   0.490   0.942 -0.0361  0.7032  1.5153
  625MPD2    H2 9261   4.721   0.559   0.711  1.5567  2.5900 -2.9848
  625MPD2    H3 9262   0.182   0.411   0.788 -0.1587  0.6532 -2.3811
  625MPD2     N 9263   0.357   0.751   1.039  0.4262 -0.0396  0.3917
  625MPD2    H5 9264   0.320   0.833   1.086  2.9137  0.6019  1.2192
  625MPD2    N1 9265   4.694   0.823   0.786  0.0124 -0.2088 -0.0003
  625MPD2    H7 9266   4.717   0.919   0.807  0.3070 -0.4835  0.9230
  626TMC3    C1 9267   4.474   0.905   0.734  0.0418 -0.1328 -0.0566
  626TMC3    C2 9268   4.387   0.891   0.629 -0.4466  0.1430  0.0126
  626TMC3    C3 9269   4.327   1.004   0.582  0.1791  0.2685  0.0936
  626TMC3    C4 9270   4.499   1.029   0.789 -0.4752  0.5033 -0.3081
  626TMC3    C5 9271   4.412   1.131   0.768 -0.3349  0.0372  0.2406
  626TMC3    C6 9272   4.333   1.122   0.652 -0.2946  0.1520 -0.3315
  626TMC3     C 9273   4.563   0.791   0.755  0.2276 -0.0730  0.0090
  626TMC3     O 9274   4.507   0.684   0.755 -0.3297  0.4094 -0.2267
  626TMC3     H 9275   4.399   0.807   0.562  0.0532  1.4130 -1.4994
  626TMC3    H1 9276   4.570   1.029   0.871 -0.0817  1.3195 -0.6335
  626TMC3    H2 9277   4.267   1.203   0.624 -0.4016  0.9971  2.3478
  626TMC3    C7 9278   4.360   1.196   0.886 -0.1164  0.1042  0.0581
  626TMC3    C8 9279   4.257   1.007   0.449  0.3548 -0.0946  0.3549
  626TMC3    O1 9280   4.426   1.193   0.988  0.3521 -0.1377 -0.4198
  626TMC3    O2 9281   4.276   1.088   0.357  0.0694 -0.5256  0.2804
  627MPD2     C 9282   3.421   0.621  13.940  0.3410  0.4271  0.3365
  627MPD2    C1 9283   3.354   0.597  14.069 -0.3535 -0.6206  0.1837
  627MPD2    C2 9284   3.262   0.497  14.076  0.6211  0.6812  0.1926
  627MPD2    C3 9285   3.244   0.417  13.963 -0.1437 -0.2285 -0.3773
  627MPD2    C4 9286   3.291   0.447  13.845 -0.6512  0.1274  0.7760
  627MPD2    C5 9287   3.379   0.554  13.827  0.4378  0.1186 -0.5054
  627MPD2     H 9288   3.229   0.459  14.172 -0.8413  0.6688 -0.3191
  627MPD2    H1 9289   3.268   0.387  13.758 -3.1408  0.6173  1.0777
  627MPD2    H2 9290   3.504   0.691  13.935 -1.2927  2.3570  0.3722
  627MPD2    H3 9291   3.433   0.575  13.736 -1.8583  3.7176 -1.0207
  627MPD2     N 9292   3.156   0.306  13.981 -0.0567  0.0434  0.4814
  627MPD2    H5 9293   3.101   0.299  14.065 -1.3496 -0.4502 -0.4048
  627MPD2    N1 9294   3.411   0.663  14.181 -0.2062 -0.1820  0.3159
  627MPD2    H7 9295   3.357   0.646  14.265 -1.4014  1.4687 -0.1109
  628TMC3    C1 9296   3.548   0.737  14.346  0.0508  0.0377  0.2038
  628TMC3    C2 9297   3.664   0.698  14.395  0.3286  0.1450 -0.0254
  628TMC3    C3 9298   3.674   0.686  14.530 -0.4785  0.6092  0.0485
  628TMC3    C4 9299   3.438   0.765  14.431  0.4039 -0.1580  0.2396
  628TMC3    C5 9300   3.454   0.745  14.566  0.0973  0.3858 -0.1972
  628TMC3    C6 9301   3.568   0.693  14.620  0.0234 -0.6353 -0.3054
  628TMC3     C 9302   3.533   0.719  14.202  0.2651  0.3044  0.2060
  628TMC3     O 9303   3.636   0.713  14.134 -0.0248  0.1234 -0.1099
  628TMC3     H 9304   3.753   0.684  14.335  0.3177  0.5371 -0.1336
  628TMC3    H1 9305   3.342   0.788  14.386 -1.1110 -3.0074  1.9590
  628TMC3    H2 9306   3.586   0.698  14.727 -0.7849 -0.7891 -0.1672
  628TMC3    C7 9307   3.372   0.819  14.661 -0.2412  0.2225 -0.8520
  628TMC3    C8 9308   3.805   0.645  14.581  0.1925  0.0901 -0.2313
  628TMC3    O1 9309   3.347   0.780  14.774  0.1498 -0.0331  0.1022
  628TMC3    O2 9310   3.894   0.678  14.502  0.4389 -0.2254  0.1079
  629MPD2     C 9311   1.891   3.957  15.953 -0.2042  0.3822  0.2130
  629MPD2    C1 9312   1.931   3.931  16.082  0.4383 -0.4586  0.1230
  629MPD2    C2 9313   1.859   3.833  16.155  0.2249 -0.4687  0.0379
  629MPD2    C3 9314   1.766   3.753  16.087 -0.6558  0.1406  0.7498
  629MPD2    C4 9315   1.738   3.778  15.947 -0.1900 -0.0520 -0.3127
  629MPD2    C5 9316   1.797   3.882  15.885 -0.2459  0.7847 -0.5162
  629MPD2     H 9317   1.887   3.798  16.254 -0.0846  0.7139  0.5413
  629MPD2    H1 9318   1.670   3.719  15.887 -0.1395 -1.2095  0.7627
  629MPD2    H2 9319   1.932   4.039  15.895  0.1611  0.7703  1.0216
  629MPD2    H3 9320   1.774   3.907  15.782 -2.0671  0.7379 -0.1181
  629MPD2     N 9321   1.691   3.656  16.161  0.6998  0.0194 -0.2178
  629MPD2    H5 9322   1.716   3.659  16.259  1.8073 -1.5900 -0.4537
  629MPD2    N1 9323   2.025   4.018  16.136 -0.1689  0.8772  0.1646
  629MPD2    H7 9324   2.065   4.091  16.079 -1.3242  0.3721 -1.2924
  630TMC3    C1 9325   2.196   4.077  16.275  0.3362 -0.6241  0.3412
  630TMC3    C2 9326   2.230   4.177  16.194 -0.4939  0.3143 -0.1060
  630TMC3    C3 9327   2.333   4.251  16.239 -0.3135  0.7401 -0.2433
  630TMC3    C4 9328   2.253   4.054  16.399 -0.2074 -0.7068 -0.1393
  630TMC3    C5 9329   2.333   4.144  16.451  0.7255  0.2042  0.1885
  630TMC3    C6 9330   2.388   4.235  16.368 -0.1220 -0.7247  0.2001
  630TMC3     C 9331   2.072   4.005  16.259  0.4528 -0.2875  0.0482
  630TMC3     O 9332   2.044   3.930  16.354  0.0575  0.1519 -0.4808
  630TMC3     H 9333   2.195   4.187  16.092 -0.5947 -0.7921 -0.1748
  630TMC3    H1 9334   2.206   3.987  16.471 -2.8894  1.0411 -0.2324
  630TMC3    H2 9335   2.481   4.277  16.405 -0.5119  0.9210 -0.6805
  630TMC3    C7 9336   2.344   4.156  16.594  0.2501 -0.7419  0.3005
  630TMC3    C8 9337   2.394   4.355  16.161 -1.0299 -0.0677 -0.3193
  630TMC3    O1 9338   2.299   4.060  16.656  0.0708 -0.3603  0.1097
  630TMC3    O2 9339   2.485   4.415  16.217 -0.2361 -0.7835 -0.5808
  631MPD2     C 9340   0.020   3.900  15.598 -0.2853  0.2616 -0.2166
  631MPD2    C1 9341   0.101   4.003  15.552  0.8833  0.1194  1.0558
  631MPD2    C2 9342   0.237   3.981  15.522 -0.4490 -0.0108 -0.7080
  631MPD2    C3 9343   0.287   3.850  15.523 -0.4861  0.4187  0.2250
  631MPD2    C4 9344   0.201   3.746  15.551 -0.0064 -0.5725  0.0846
  631MPD2    C5 9345   0.071   3.774  15.591 -0.7353 -0.1558 -0.0465
  631MPD2     H 9346   0.295   4.059  15.473  2.9016 -0.3317  2.7471
  631MPD2    H1 9347   0.233   3.643  15.561 -1.3414 -1.0334 -0.3688
  631MPD2    H2 9348   4.644   3.914  15.645  0.5319 -0.2143  1.6078
  631MPD2    H3 9349   0.003   3.697  15.626 -1.2634  0.5444  0.4676
  631MPD2     N 9350   0.425   3.826  15.500  0.3564  0.4021  0.3706
  631MPD2    H5 9351   0.494   3.899  15.487  0.0085  0.4636 -1.2005
  631MPD2    N1 9352   0.040   4.126  15.542  0.0664  0.2229  0.2863
  631MPD2    H7 9353   4.668   4.123  15.582 -0.0547  1.3144  0.0865
  632TMC3    C1 9354   0.002   4.337  15.460 -0.8428 -0.0487 -0.0431
  632TMC3    C2 9355   4.614   4.334  15.546 -0.7715 -0.5588 -0.8169
  632TMC3    C3 9356   4.498   4.375  15.496 -0.0137  0.2089  0.5437
  632TMC3    C4 9357   4.714   4.382  15.333  0.1293 -0.3174  0.4286
  632TMC3    C5 9358   4.594   4.437  15.296  0.0174  0.1386  0.7281
  632TMC3    C6 9359   4.487   4.443  15.377 -0.4129 -0.5024 -0.2169
  632TMC3     C 9360   0.101   4.237  15.490  0.3141  0.0824  0.2240
  632TMC3     O 9361   0.207   4.240  15.430  0.6281 -0.2440  0.2928
  632TMC3     H 9362   4.618   4.290  15.645 -1.8258  1.8463  0.2868
  632TMC3    H1 9363   0.064   4.340  15.262 -2.5693 -2.8199 -0.8229
  632TMC3    H2 9364   4.387   4.479  15.354 -0.2368 -0.4994 -0.9927
  632TMC3    C7 9365   4.573   4.436  15.152  0.5438  0.3070 -0.1797
  632TMC3    C8 9366   4.395   4.386  15.597 -0.2070  0.1474  0.4821
  632TMC3    O1 9367   4.671   4.430  15.077  0.6690  0.1048  0.1599
  632TMC3    O2 9368   4.427   4.384  15.715  0.6659 -0.3586 -0.0934
  633MPD2     C 9369   4.330   1.727  17.219  0.0139 -0.2684  0.3505
  633MPD2    C1 9370   4.263   1.702  17.102  0.6221  0.1800 -0.3238
  633MPD2    C2 9371   4.233   1.570  17.057  0.2264  0.5067  0.4084
  633MPD2    C3 9372   4.274   1.464  17.140  0.2195  0.5234  0.0903
  633MPD2    C4 9373   4.320   1.493  17.268  0.0938  0.3524  0.5990
  633MPD2    C5 9374   4.348   1.626  17.309  0.2448 -0.6181 -0.4999
  633MPD2     H 9375   4.198   1.550  16.956  1.3414  0.3336  0.0536
  633MPD2    H1 9376   4.338   1.418  17.343  0.9273 -0.5747 -0.5323
  633MPD2    H2 9377   4.363   1.824  17.255 -1.4472  1.1531 -2.0986
  633MPD2    H3 9378   4.405   1.647  17.399  1.7520 -0.6851 -1.4384
  633MPD2     N 9379   4.266   1.328  17.096  0.3909  0.0715 -0.1207
  633MPD2    H5 9380   4.296   1.264  17.169 -0.8002  2.4181  2.4588
  633MPD2    N1 9381   4.247   1.804  17.002  0.1951 -0.5600 -0.2473
  633MPD2    H7 9382   4.199   1.770  16.919  0.4527  1.2691 -1.1405
  634TMC3    C1 9383   4.308   1.993  16.872 -0.0349 -0.3999 -0.2873
  634TMC3    C2 9384   4.317   1.908  16.762 -0.0737 -0.6347 -0.5796
  634TMC3    C3 9385   4.349   1.965  16.645 -0.6490  0.0975 -0.7021
  634TMC3    C4 9386   4.334   2.127  16.865 -0.3934 -0.3628  0.5527
  634TMC3    C5 9387   4.379   2.171  16.747  0.2501  0.2355 -0.7181
  634TMC3    C6 9388   4.388   2.090  16.635  0.5807 -0.4841  0.4554
  634TMC3     C 9389   4.302   1.928  17.000  0.2096  0.2836  0.1713
  634TMC3     O 9390   4.362   1.983  17.089  0.2142 -0.2334  0.0209
  634TMC3     H 9391   4.307   1.800  16.765  2.4563 -0.8027  1.5789
  634TMC3    H1 9392   4.339   2.186  16.956  1.2815 -1.5905  1.2441
  634TMC3    H2 9393   4.425   2.127  16.540  1.6478 -0.2212  0.9819
  634TMC3    C7 9394   4.387   2.309  16.717  0.3329  0.1082  0.2518
  634TMC3    C8 9395   4.378   1.870  16.537 -0.1614 -0.7300 -0.0528
  634TMC3    O1 9396   4.383   2.332  16.598  0.4119 -0.3553  0.3671
  634TMC3    O2 9397   4.424   1.757  16.564 -0.0839 -0.1206 -0.4006
  635TMC3    C1 9398   4.673   2.955   0.122  0.2881  0.5047 -0.3273
  635TMC3    C2 9399   4.635   2.886   0.006  0.0327  0.1347 -0.5462
  635TMC3    C3 9400   4.605   2.750   0.023  0.3493  0.3793 -0.0149
  635TMC3    C4 9401   4.684   2.899   0.250 -0.8557 -0.2540 -0.4466
  635TMC3    C5 9402   4.647   2.769   0.254 -0.3671 -0.7873 -0.2995
  635TMC3    C6 9403   4.606   2.696   0.149  0.0957  0.5634  0.3158
  635TMC3     C 9404   0.005   3.094   0.108 -0.1391 -0.3306 -0.5947
  635TMC3     O 9405   0.043   3.134   0.215  0.1660  0.0194 -0.2016
  635TMC3     H 9406   4.634   2.930  17.594 -3.3063 -0.6205 -0.8423
  635TMC3    H1 9407   0.011   2.949   0.334 -0.6764  0.4253 -0.9549
  635TMC3    H2 9408   4.559   2.599   0.159 -1.3116  1.0286 -1.9003
  635TMC3    C7 9409   4.653   2.705   0.386 -0.2915  0.0295 -0.8135
  635TMC3    C8 9410   4.591   2.665  17.591 -0.1709  0.1015  0.4360
  635TMC3    O1 9411   4.667   2.784   0.476 -0.1376 -0.2483 -0.1517
  635TMC3    O2 9412   4.564   2.720  17.487  0.1393  0.5183 -0.2300
  636MPD2     C 9413   0.708   2.151  16.057  0.7233 -0.3907 -0.6601
  636MPD2    C1 9414   0.801   2.222  16.129  0.0202 -0.0157 -0.7554
  636MPD2    C2 9415   0.906   2.159  16.195 -0.1341 -0.1125 -0.0509
  636MPD2    C3 9416   0.914   2.022  16.187  0.3675  0.2114  0.3045
  636MPD2    C4 9417   0.831   1.946  16.103 -0.3495 -0.0320  0.3247
  636MPD2    C5 9418   0.734   2.015  16.035  0.0785  0.2253  0.6113
  636MPD2     H 9419   0.970   2.219  16.259 -1.6276  1.0437  0.3294
  636MPD2    H1 9420   0.844   1.840  16.086  3.8382  0.7070 -1.1534
  636MPD2    H2 9421   0.619   2.194  16.014  0.0111 -0.7961  0.4189
  636MPD2    H3 9422   0.663   1.963  15.971  0.8814  0.7519 -0.7218
  636MPD2     N 9423   1.026   1.975  16.258 -0.1861 -0.2522  0.6594
  636MPD2    H5 9424   1.082   2.045  16.306 -0.7184 -0.6725  1.9140
  636MPD2    N1 9425   0.788   2.365  16.151 -0.0165 -0.4879 -0.4763
  636MPD2    H7 9426   0.846   2.401  16.225 -1.5130  0.6130  0.1546
  637TMC3    C1 9427   1.162   1.810  16.365 -0.4661  0.0981 -0.6148
  637TMC3    C2 9428   1.171   1.877  16.481  0.2605  0.7425 -0.3563
  637TMC3    C3 9429   1.276   1.852  16.563  0.4115 -0.3196  0.5652
  637TMC3    C4 9430   1.238   1.699  16.336 -0.0635  0.1551  0.2924
  637TMC3    C5 9431   1.352   1.689  16.414  0.2886  0.1229  0.2588
  637TMC3    C6 9432   1.371   1.758  16.529 -0.4370  0.0502  0.4306
  637TMC3     C 9433   1.064   1.841  16.267 -0.2274 -0.5103  0.3313
  637TMC3     O 9434   1.022   1.745  16.204  0.0865 -0.2037 -0.2043
  637TMC3     H 9435   1.110   1.963  16.504  2.3104  2.7851 -2.4605
  637TMC3    H1 9436   1.228   1.649  16.240  1.0856  1.2344 -0.3782
  637TMC3    H2 9437   1.445   1.735  16.605 -0.6695 -0.5933  0.4636
  637TMC3    C7 9438   1.476   1.703  16.335  0.0414 -0.3556 -0.2855
  637TMC3    C8 9439   1.330   1.967  16.629 -0.4439 -0.3248  0.5897
  637TMC3    O1 9440   1.575   1.757  16.382 -0.3881 -0.1896 -0.1240
  637TMC3    O2 9441   1.249   2.050  16.670 -0.7850  0.0216 -0.1432
  638MPD2     C 9442   0.745   1.016  15.259  0.0996  0.1407  0.3787
  638MPD2    C1 9443   0.768   0.911  15.176 -0.0871 -0.0672  0.0171
  638MPD2    C2 9444   0.794   0.786  15.234  0.0109  0.3901  0.0146
  638MPD2    C3 9445   0.767   0.759  15.368 -0.7015 -0.1528 -0.6272
  638MPD2    C4 9446   0.722   0.866  15.442 -1.1972  0.0796  0.1052
  638MPD2    C5 9447   0.719   0.991  15.391  0.2391 -0.8090 -0.2243
  638MPD2     H 9448   0.809   0.694  15.178  0.2232  0.9190 -0.7832
  638MPD2    H1 9449   0.684   0.856  15.543  0.5707 -0.4793  0.7190
  638MPD2    H2 9450   0.724   1.116  15.223 -1.8733 -0.4739 -0.1255
  638MPD2    H3 9451   0.686   1.074  15.451 -1.9589 -2.2639  0.5982
  638MPD2     N 9452   0.771   0.627  15.409 -0.1833  0.1948 -0.0974
  638MPD2    H5 9453   0.790   0.561  15.334  0.1477  2.0508 -1.6256
  638MPD2    N1 9454   0.756   0.935  15.041  0.5152  0.2779 -0.2743
  638MPD2    H7 9455   0.758   1.033  15.012  0.2860  0.4876  0.4306
  639TMC3    C1 9456   0.698   0.437  15.530 -0.3616 -0.4774  0.2140
  639TMC3    C2 9457   0.582   0.386  15.479  0.1483 -0.0409 -0.8280
  639TMC3    C3 9458   0.590   0.258  15.435 -0.4580 -0.2592 -0.8505
  639TMC3    C4 9459   0.819   0.375  15.533 -0.0148 -0.1031  0.2656
  639TMC3    C5 9460   0.820   0.244  15.490  0.0724  0.1655 -0.1312
  639TMC3    C6 9461   0.705   0.186  15.437 -0.0988  0.5482 -0.3898
  639TMC3     C 9462   0.708   0.583  15.523  0.5223  0.6922 -0.1052
  639TMC3     O 9463   0.625   0.637  15.587  0.3194  0.1611 -0.1502
  639TMC3     H 9464   0.504   0.459  15.456  0.0363  0.6159  1.6896
  639TMC3    H1 9465   0.902   0.433  15.573  0.4584 -0.6623  0.0990
  639TMC3    H2 9466   0.713   0.090  15.388  1.3436 -0.5976  2.1062
  639TMC3    C7 9467   0.942   0.166  15.499  0.7452  0.2835 -0.2760
  639TMC3    C8 9468   0.494   0.238  15.328 -0.1078 -0.0026  0.1254
  639TMC3    O1 9469   0.923   0.046  15.520  0.4408  0.1822  0.0120
  639TMC3    O2 9470   0.546   0.186  15.227  0.6069  0.1898  0.6188
  640MPD2     C 9471   0.986   4.533   9.932  0.1728 -0.2939 -0.1531
  640MPD2    C1 9472   0.883   4.449   9.883 -0.0479  0.3101  0.1212
  640MPD2    C2 9473   0.753   4.491   9.873  0.4055 -0.0828  0.2705
  640MPD2    C3 9474   0.722   4.617   9.904 -0.1443  0.6088 -0.3734
  640MPD2    C4 9475   0.820   4.698   9.947 -0.2657  0.4497 -0.0460
  640MPD2    C5 9476   0.946   4.662   9.959  0.6433 -0.0894 -0.8387
  640MPD2     H 9477   0.681   4.417   9.839 -0.7466  1.4521 -0.6874
  640MPD2    H1 9478   0.806   0.081   9.972 -2.4345 -0.2504  1.6970
  640MPD2    H2 9479   1.092   4.513   9.934  0.0892 -0.6838  0.1856
  640MPD2    H3 9480   1.023   0.015   9.978  1.2498 -0.8591 -0.2816
  640MPD2     N 9481   0.592   4.673   9.890  0.1396 -0.6061  0.0921
  640MPD2    H5 9482   0.587   0.051   9.907  1.3852 -0.8583  1.9367
  640MPD2    N1 9483   0.930   4.318   9.836  0.0084  0.1363 -0.3044
  640MPD2    H7 9484   1.030   4.304   9.829  0.1211  1.3144 -1.0355
  641TMC3    C1 9485   0.928   4.106   9.748 -0.2280  0.2658  0.5264
  641TMC3    C2 9486   1.039   4.074   9.820 -0.3353 -0.1919  0.1006
  641TMC3    C3 9487   1.105   3.959   9.784  0.3516 -0.2805  0.0365
  641TMC3    C4 9488   0.866   4.018   9.662 -0.4652  0.0339  0.1237
  641TMC3    C5 9489   0.928   3.897   9.639  0.1069  0.0927 -0.0767
  641TMC3    C6 9490   1.052   3.872   9.693  0.2238 -0.3299  0.9263
  641TMC3     C 9491   0.854   4.225   9.774  0.6526  0.2130 -0.8773
  641TMC3     O 9492   0.732   4.221   9.755 -0.1924  0.2079 -0.3641
  641TMC3     H 9493   1.065   4.127   9.911  1.3176 -0.4621 -0.2169
  641TMC3    H1 9494   0.775   4.051   9.614 -0.0197  1.7712  0.4982
  641TMC3    H2 9495   1.098   3.776   9.670  1.7377  0.6082  0.0093
  641TMC3    C7 9496   0.888   3.826   9.523 -0.1906 -0.2213 -0.1504
  641TMC3    C8 9497   1.234   3.917   9.838  0.2146  0.0273 -0.2543
  641TMC3    O1 9498   0.974   3.793   9.440  0.6057 -0.2077 -0.0009
  641TMC3    O2 9499   1.277   3.809   9.806  0.1583  0.9548  0.0058
  642TMC3    C1 9500   2.451   1.037  12.458  1.0478 -0.0224  0.3094
  642TMC3    C2 9501   2.544   1.082  12.368 -1.0751  0.7656  0.3008
  642TMC3    C3 9502   2.563   1.011  12.248  0.6133 -0.0255 -0.4261
  642TMC3    C4 9503   2.377   0.925  12.429 -0.6085  1.0943  0.3851
  642TMC3    C5 9504   2.396   0.865  12.306  0.0728 -0.7852 -0.3897
  642TMC3    C6 9505   2.486   0.900  12.214  0.2612 -0.0198 -0.3851
  642TMC3     C 9506   2.386   1.131  12.550  0.0362 -0.1455 -0.1091
  642TMC3     O 9507   2.289   1.084  12.619  0.1862 -0.7046  0.4461
  642TMC3     H 9508   2.605   1.170  12.386  2.0511 -1.3661  0.1157
  642TMC3    H1 9509   2.308   0.902  12.509  0.0927  1.0815  0.9859
  642TMC3    H2 9510   2.502   0.848  12.120  0.8807  0.0333 -0.3123
  642TMC3    C7 9511   2.335   0.723  12.287 -0.7226  0.5044 -0.4852
  642TMC3    C8 9512   2.670   1.062  12.158  0.2492 -0.7007  0.0799
  642TMC3    O1 9513   2.323   0.673  12.175 -0.4329 -0.7406  0.0241
  642TMC3    O2 9514   2.636   1.102  12.046 -0.0064  0.0633 -0.1214
  643TMC3    C1 9515   1.063   0.840   0.905 -0.3403  0.5764 -0.7728
  643TMC3    C2 9516   0.977   0.908   0.819 -0.2474 -0.5638 -0.6184
  643TMC3    C3 9517   0.875   0.843   0.760 -0.3304 -0.6676  0.7957
  643TMC3    C4 9518   1.055   0.702   0.914  0.5692 -0.0356  0.1673
  643TMC3    C5 9519   0.953   0.635   0.849  0.0617  0.1282 -0.6111
  643TMC3    C6 9520   0.856   0.703   0.770 -0.0986  0.4506 -0.3392
  643TMC3     C 9521   1.186   0.914   0.944 -0.1974 -0.1831 -0.5604
  643TMC3     O 9522   1.198   1.029   0.902  0.3124 -0.6202  0.1442
  643TMC3     H 9523   0.988   1.012   0.793 -1.5348 -0.8219 -2.2279
  643TMC3    H1 9524   1.124   0.638   0.968  1.5398  0.3133 -0.6553
  643TMC3    H2 9525   0.776   0.659   0.711 -0.5968  4.0681 -2.4046
  643TMC3    C7 9526   0.982   0.506   0.788 -0.1928 -1.2726  0.3738
  643TMC3    C8 9527   0.819   0.892   0.632  0.1183  0.5440  0.1059
  643TMC3    O1 9528   0.887   0.438   0.756  0.1902  0.3929  0.0149
  643TMC3    O2 9529   0.714   0.842   0.594 -0.0702 -0.2015  0.3736
  644MPD2     C 9530   0.892   0.068   9.188 -0.0978 -0.5317 -0.7605
  644MPD2    C1 9531   0.812   4.683   9.158 -0.0824 -0.0487  0.2691
  644MPD2    C2 9532   0.687   4.703   9.111  0.1434  0.4868  0.0032
  644MPD2    C3 9533   0.632   0.105   9.098  0.3048 -0.4371 -0.7516
  644MPD2    C4 9534   0.718   0.209   9.125 -0.3931 -0.1218 -0.6459
  644MPD2    C5 9535   0.846   0.200   9.164 -0.4330 -0.2395 -0.1886
  644MPD2     H 9536   0.613   4.625   9.094  0.1413  0.4740  0.0697
  644MPD2    H1 9537   0.687   0.312   9.110 -2.5814 -0.8174 -0.9723
  644MPD2    H2 9538   0.990   0.047   9.229 -0.1380 -0.2143 -0.4991
  644MPD2    H3 9539   0.906   0.288   9.183 -2.6002  0.9529  1.1481
  644MPD2     N 9540   0.492   0.124   9.067 -0.6956  0.0675  0.4516
  644MPD2    H5 9541   0.427   0.047   9.054 -0.0560 -0.3072 -0.5477
  644MPD2    N1 9542   0.869   4.556   9.184  0.0844 -0.2574  0.1315
  644MPD2    H7 9543   0.963   4.556   9.223 -0.3252  0.5113  1.1112
  645TMC3    C1 9544   0.284   0.234   9.003 -0.2891 -0.1896 -0.1770
  645TMC3    C2 9545   0.232   0.331   8.916  0.3531  0.3679 -0.3290
  645TMC3    C3 9546   0.105   0.304   8.869 -0.0246  0.2645 -0.4357
  645TMC3    C4 9547   0.215   0.129   9.053 -0.2485 -0.2424  0.1933
  645TMC3    C5 9548   0.085   0.122   9.013 -0.5244  0.3441  0.1207
  645TMC3    C6 9549   0.026   0.207   8.926  0.5311  0.0687 -0.6664
  645TMC3     C 9550   0.428   0.246   9.045 -0.1414  0.4547 -0.1261
  645TMC3     O 9551   0.479   0.360   9.030  0.5550 -0.3348  0.0938
  645TMC3     H 9552   0.295   0.408   8.873  2.1791 -0.0469  1.5849
  645TMC3    H1 9553   0.265   0.052   9.109  0.0912  1.3908  2.1456
  645TMC3    H2 9554   4.641   0.208   8.903  0.0843  1.7991  1.5357
  645TMC3    C7 9555   0.009   0.008   9.059 -0.2888  0.4544 -0.1284
  645TMC3    C8 9556   0.052   0.428   8.806 -0.0776 -0.0571  0.5048
  645TMC3    O1 9557   0.042   4.684   9.167  0.2710 -0.1232  0.0744
  645TMC3    O2 9558   0.120   0.530   8.816  0.0076 -0.1996 -0.3399
  646MPD2     C 9559   0.754   4.429  14.481  0.2622 -0.2229 -0.5121
  646MPD2    C1 9560   0.683   4.383  14.592  0.3599  0.4425 -0.0318
  646MPD2    C2 9561   0.561   4.433  14.632 -0.5117  0.4145 -0.2771
  646MPD2    C3 9562   0.493   4.526  14.546 -0.5423  0.0983  0.8608
  646MPD2    C4 9563   0.553   4.564  14.428 -0.3451 -0.4156  0.0246
  646MPD2    C5 9564   0.682   4.513  14.400  0.3919  0.4184  0.4162
  646MPD2     H 9565   0.511   4.391  14.719 -0.6141  0.3704 -0.3576
  646MPD2    H1 9566   0.500   4.619  14.350 -1.0812 -1.1015  0.0323
  646MPD2    H2 9567   0.851   4.390  14.453  0.5662 -0.7755  1.3153
  646MPD2    H3 9568   0.734   4.547  14.311 -0.5818 -1.0004 -0.6925
  646MPD2     N 9569   0.369   4.577  14.589  0.7886 -0.4504  0.4893
  646MPD2    H5 9570   0.336   4.541  14.678 -0.3728 -0.2196  0.1498
  646MPD2    N1 9571   0.751   4.271  14.646 -0.7383  0.2484  0.7190
  646MPD2    H7 9572   0.836   4.245  14.599 -0.8928 -0.4945  0.8473
  647TMC3    C1 9573   0.806   4.100  14.801  0.0748 -0.9520 -0.5810
  647TMC3    C2 9574   0.760   4.001  14.879 -0.5141 -0.7301 -0.8817
  647TMC3    C3 9575   0.839   3.892  14.891  0.4148 -0.2559 -0.0470
  647TMC3    C4 9576   0.931   4.090  14.741  0.1556 -0.0386  0.2515
  647TMC3    C5 9577   1.005   3.978  14.763 -0.3516  0.3274  0.5792
  647TMC3    C6 9578   0.961   3.876  14.838 -0.2632  0.1842  0.5275
  647TMC3     C 9579   0.719   4.209  14.765  0.1377  0.7005 -0.1853
  647TMC3     O 9580   0.620   4.235  14.835 -0.4489  0.0396  0.2086
  647TMC3     H 9581   0.663   4.010  14.926 -0.2683  1.4141 -0.7803
  647TMC3    H1 9582   0.985   4.173  14.699  1.4934 -0.7832  0.4959
  647TMC3    H2 9583   1.019   3.786  14.856 -0.5964 -0.5462 -2.0896
  647TMC3    C7 9584   1.137   3.951  14.706  0.5356  0.0089  0.1951
  647TMC3    C8 9585   0.819   3.804  15.008  0.0750  0.2742 -0.5574
  647TMC3    O1 9586   1.216   3.889  14.783 -0.0358  0.4680  0.3564
  647TMC3    O2 9587   0.922   3.786  15.074  0.1081 -0.6252 -0.1653
  648TMC3    C1 9588   0.135   1.925  16.019 -0.6370 -0.1668 -0.4341
  648TMC3    C2 9589   0.156   1.817  15.953  0.5112 -0.2770  0.0839
  648TMC3    C3 9590   0.090   1.793  15.835 -0.0399  0.6197 -0.5024
  648TMC3    C4 9591   0.046   2.023  15.975 -0.8260 -0.2410  0.1888
  648TMC3    C5 9592   4.708   1.997  15.854 -0.0414 -0.3297  0.2309
  648TMC3    C6 9593   0.008   1.888  15.778 -0.0163  0.4907  0.0114
  648TMC3     C 9594   0.138   1.901  16.159  0.3645  0.2358 -0.1232
  648TMC3     O 9595   0.190   1.799  16.205 -0.1268  0.0858 -0.1640
  648TMC3     H 9596   0.218   1.742  16.001  2.0752  0.0442 -1.4236
  648TMC3    H1 9597   0.043   2.121  16.021  1.0894 -0.5334  0.9485
  648TMC3    H2 9598   4.670   1.863  15.690 -0.6198  0.8249  0.3328
  648TMC3    C7 9599   4.638   2.101  15.779  0.2343  0.3478 -0.3548
  648TMC3    C8 9600   0.084   1.658  15.802  0.5621 -0.6665  0.6997
  648TMC3    O1 9601   4.590   2.068  15.672 -0.4230  0.0150 -0.0165
  648TMC3    O2 9602   4.698   1.619  15.766 -0.1236 -0.6580 -0.1597
  649TMC3    C1 9603   3.795   3.591  12.771 -0.1156  0.5780  0.2206
  649TMC3    C2 9604   3.926   3.594  12.764 -0.2813  0.1174 -0.7273
  649TMC3    C3 9605   3.995   3.567  12.877  1.0223  0.4282 -0.6852
  649TMC3    C4 9606   3.727   3.532  12.873 -0.4454  0.2603  0.1457
  649TMC3    C5 9607   3.797   3.477  12.977 -0.3030  0.2598 -0.1249
  649TMC3    C6 9608   3.928   3.504  12.983 -0.1420 -0.4012  0.6980
  649TMC3     C 9609   3.714   3.617  12.655  0.3395 -0.5728  0.3910
  649TMC3     O 9610   3.605   3.665  12.680 -0.2833  0.0069  0.3647
  649TMC3     H 9611   3.975   3.629  12.674 -0.1844  1.6530 -0.0750
  649TMC3    H1 9612   3.621   3.511  12.858 -1.2134  1.0351  4.2197
  649TMC3    H2 9613   3.982   3.473  13.072 -1.3563 -0.6011  1.3662
  649TMC3    C7 9614   3.738   3.367  13.052 -0.3260  0.0787  0.5540
  649TMC3    C8 9615   4.125   3.620  12.908  0.0848  0.0865  0.7609
  649TMC3    O1 9616   3.615   3.356  13.044  0.2670  0.1399  0.0636
  649TMC3    O2 9617   4.178   3.586  13.010 -0.5600  0.4203 -0.1921
  650TMC3    C1 9618   1.530   0.422  13.094 -0.1731 -0.5648 -0.3758
  650TMC3    C2 9619   1.532   0.557  13.127 -0.6409  0.5810 -0.1970
  650TMC3    C3 9620   1.631   0.637  13.077  0.0752 -0.3325  0.2534
  650TMC3    C4 9621   1.622   0.377  13.006 -0.3870 -0.1395 -0.6674
  650TMC3    C5 9622   1.716   0.464  12.949  0.3745  0.0841 -0.5056
  650TMC3    C6 9623   1.733   0.591  12.992  0.2460 -0.1260 -0.7439
  650TMC3     C 9624   1.440   0.329  13.170  0.6486 -0.1845  0.1418
  650TMC3     O 9625   1.382   0.381  13.263 -0.3703  0.1118 -1.0655
  650TMC3     H 9626   1.447   0.597  13.180 -1.7505 -0.6512 -1.0231
  650TMC3    H1 9627   1.620   0.277  12.963 -0.8349 -0.5158  0.2339
  650TMC3    H2 9628   1.812   0.658  12.962  1.7477 -1.9602 -0.8447
  650TMC3    C7 9629   1.742   0.454  12.806 -0.0481 -0.7064  0.0337
  650TMC3    C8 9630   1.584   0.764  13.034 -0.4289  0.7979 -0.3554
  650TMC3    O1 9631   1.781   0.349  12.755  0.1420 -0.4291 -0.8581
  650TMC3    O2 9632   1.628   0.787  12.925  0.3144  0.3929 -0.1942
  651MPD2     C 9633   0.244   2.184  10.434  0.4739  0.3339 -0.0545
  651MPD2    C1 9634   0.252   2.292  10.522 -0.6378  0.4769  0.0272
  651MPD2    C2 9635   0.377   2.342  10.542  0.5210  0.3186  0.0889
  651MPD2    C3 9636   0.494   2.297  10.473  0.0017 -0.0753  0.7233
  651MPD2    C4 9637   0.481   2.201  10.380  0.5192 -0.0326 -0.4035
  651MPD2    C5 9638   0.352   2.148  10.354  0.2758  0.5222  0.3233
  651MPD2     H 9639   0.388   2.418  10.619  2.3510  0.4083 -0.2716
  651MPD2    H1 9640   0.566   2.176  10.317  0.3651 -2.3491  0.3198
  651MPD2    H2 9641   0.149   2.136  10.415 -0.7307  3.1441 -1.2130
  651MPD2    H3 9642   0.328   2.070  10.282 -0.2734  3.0633 -2.2241
  651MPD2     N 9643   0.617   2.346  10.516  0.1216  0.2768  0.3993
  651MPD2    H5 9644   0.614   2.426  10.579 -2.0758 -0.3684  1.1055
  651MPD2    N1 9645   0.143   2.335  10.595 -0.2333 -0.0614 -0.0562
  651MPD2    H7 9646   0.149   2.431  10.628  1.3716 -0.6446  1.3959
  652TMC3    C1 9647   1.080   2.381  10.623  0.2375 -0.4107  0.7302
  652TMC3    C2 9648   0.979   2.349  10.535  0.2076  0.2810 -1.1494
  652TMC3    C3 9649   0.849   2.371  10.573  0.0156 -0.7548  0.1509
  652TMC3    C4 9650   1.057   2.458  10.731  0.6550  0.1295  0.5177
  652TMC3    C5 9651   0.922   2.484  10.766  1.1972 -0.1716  0.5565
  652TMC3    C6 9652   0.820   2.438  10.691  0.3900  0.3191  1.1207
  652TMC3     C 9653   1.207   2.367  10.567 -0.3084  0.6043  0.4588
  652TMC3     O 9654   1.227   2.359  10.448  0.0069 -0.1714  0.2708
  652TMC3     H 9655   1.001   2.297  10.443 -1.2943 -0.8385 -0.8782
  652TMC3    H1 9656   1.141   2.496  10.788  0.8902  1.2501 -0.5754
  652TMC3    H2 9657   0.719   2.451  10.726 -0.1546 -0.8023 -0.0171
  652TMC3    C7 9658   0.885   2.615  10.823 -0.4053 -0.2141  1.3017
  652TMC3    C8 9659   0.745   2.300  10.497  0.3764 -0.2459  0.0503
  652TMC3    O1 9660   0.770   2.636  10.856  0.5955 -0.6464  0.5172
  652TMC3    O2 9661   0.788   2.215  10.415 -0.2660  0.6415 -0.5135
  653MPD2     C 9662   4.256   2.199  17.553  1.0290 -0.6784  1.1443
  653MPD2    C1 9663   4.154   2.287  17.513  0.0991 -0.1387  0.0748
  653MPD2    C2 9664   4.048   2.233  17.443  0.3701 -0.3232  0.4106
  653MPD2    C3 9665   4.039   2.099  17.408 -0.6035  0.0599 -0.0752
  653MPD2    C4 9666   4.144   2.019  17.434  0.7188 -0.2746 -0.1022
  653MPD2    C5 9667   4.245   2.069  17.512 -0.0703  0.3049  0.8676
  653MPD2     H 9668   3.967   2.298  17.411  0.4106 -0.6694 -0.3930
  653MPD2    H1 9669   4.153   1.917  17.401 -1.1928 -0.3314 -0.4655
  653MPD2    H2 9670   4.349   2.225  17.602  0.2155  0.0466  2.2872
  653MPD2    H3 9671   4.332   2.004  17.522  0.3965  0.9508  1.0004
  653MPD2     N 9672   3.938   2.058  17.311  0.2831 -0.3228 -0.3123
  653MPD2    H5 9673   3.873   2.126  17.273 -0.3954 -1.1451 -0.6440
  653MPD2    N1 9674   4.147   2.423  17.550 -0.4737 -0.0828  0.0389
  653MPD2    H7 9675   4.080   2.482  17.502  0.0608 -0.2529 -0.9153
  654TMC3    C1 9676   3.828   1.913  17.152 -0.1817  0.0752 -0.3910
  654TMC3    C2 9677   3.703   1.972  17.168  0.2796 -0.4639  0.0040
  654TMC3    C3 9678   3.590   1.911  17.106  0.0229  0.2405  0.2686
  654TMC3    C4 9679   3.847   1.798  17.083 -0.4808  1.0068 -0.0805
  654TMC3    C5 9680   3.735   1.755  17.012  0.0729  0.1050 -1.1102
  654TMC3    C6 9681   3.610   1.805  17.021 -0.8644  1.1077 -0.2200
  654TMC3     C 9682   3.930   1.929  17.255 -0.5160  0.5297 -0.8427
  654TMC3     O 9683   3.978   1.823  17.293  0.1088  0.6482  0.2748
  654TMC3     H 9684   3.693   2.061  17.230 -0.0295 -0.2413 -0.3612
  654TMC3    H1 9685   3.948   1.770  17.056 -0.5858 -1.1739  1.8358
  654TMC3    H2 9686   3.528   1.753  16.973  1.6599 -1.3292 -1.8759
  654TMC3    C7 9687   3.741   1.635  16.943 -1.0796 -0.3521  0.4489
  654TMC3    C8 9688   3.454   1.972  17.113 -0.0390  0.0190  0.2949
  654TMC3    O1 9689   3.667   1.627  16.843 -0.1394 -0.1197  0.4907
  654TMC3    O2 9690   3.450   2.086  17.156 -0.4437 -0.1074 -0.1891
  655MPD2     C 9691   0.786   2.190  15.704  0.1722 -0.5049  0.5200
  655MPD2    C1 9692   0.664   2.233  15.654 -0.1490  0.0460  0.1950
  655MPD2    C2 9693   0.608   2.163  15.546 -0.8560 -0.4404 -0.6803
  655MPD2    C3 9694   0.692   2.075  15.479 -0.6719 -0.3358  0.9073
  655MPD2    C4 9695   0.820   2.049  15.518  0.1806  0.0396  0.1013
  655MPD2    C5 9696   0.857   2.095  15.642  0.3767  0.0688 -0.3602
  655MPD2     H 9697   0.506   2.183  15.514 -0.1880  1.9308 -1.2987
  655MPD2    H1 9698   0.877   1.975  15.463 -0.3865  0.1385 -0.6181
  655MPD2    H2 9699   0.826   2.237  15.793 -1.4345  3.3637 -0.8017
  655MPD2    H3 9700   0.949   2.058  15.688  0.4258  2.9107  1.8103
  655MPD2     N 9701   0.650   2.012  15.358  0.4856  0.0011 -0.9380
  655MPD2    H5 9702   0.722   1.951  15.321  0.1589 -1.3892  0.7138
  655MPD2    N1 9703   0.587   2.327  15.727  0.0898 -0.0970 -0.1876
  655MPD2    H7 9704   0.619   2.353  15.819 -0.2582  2.0698 -0.6866
  656TMC3    C1 9705   0.432   2.506  15.747  0.9108 -0.0084  0.2574
  656TMC3    C2 9706   0.383   2.468  15.875  0.3433  0.0460  0.3528
  656TMC3    C3 9707   0.305   2.560  15.943 -0.2332 -0.0752 -0.2815
  656TMC3    C4 9708   0.398   2.623  15.690  0.5930  0.5845 -0.0737
  656TMC3    C5 9709   0.305   2.700  15.754  0.4170 -0.5886 -0.4909
  656TMC3    C6 9710   0.267   2.677  15.880  0.7371  0.4484 -0.1408
  656TMC3     C 9711   0.496   2.406  15.665 -0.1783 -0.4825  0.5444
  656TMC3     O 9712   0.480   2.415  15.542 -0.7647  0.1996 -0.0194
  656TMC3     H 9713   0.415   2.371  15.912 -2.2258 -1.0491 -0.2549
  656TMC3    H1 9714   0.438   2.648  15.592 -0.3760  0.5999 -0.4641
  656TMC3    H2 9715   0.195   2.738  15.933 -0.6929  0.5223 -2.1465
  656TMC3    C7 9716   0.226   2.782  15.662 -0.5131  0.0069 -0.2278
  656TMC3    C8 9717   0.216   2.507  16.038  0.5934  0.0985  0.3265
  656TMC3    O1 9718   0.278   2.801  15.554 -0.5492  0.5495  0.1727
  656TMC3    O2 9719   0.177   2.392  16.018  0.1474  0.1764  0.6558
  657TMC3    C1 9720   4.082   1.807  15.224  0.5394 -0.9934 -0.0013
  657TMC3    C2 9721   4.089   1.776  15.359  0.1507 -0.2491 -0.5574
  657TMC3    C3 9722   4.014   1.862  15.437  0.3381 -0.0444 -0.2399
  657TMC3    C4 9723   4.004   1.903  15.171  0.4120  0.1940  0.4408
  657TMC3    C5 9724   3.926   1.977  15.251 -0.7342  0.0377  0.9243
  657TMC3    C6 9725   3.933   1.961  15.387  0.8338  0.0313  0.3445
  657TMC3     C 9726   4.135   1.709  15.123  0.0853 -0.0434  0.1186
  657TMC3     O 9727   4.104   1.729  15.006 -0.1814 -0.2494  0.1791
  657TMC3     H 9728   4.145   1.690  15.393 -0.4321  0.0037  1.0394
  657TMC3    H1 9729   4.008   1.924  15.064  2.1771  1.1942  0.7127
  657TMC3    H2 9730   3.880   2.025  15.457  0.6072  1.3063 -1.0040
  657TMC3    C7 9731   3.842   2.083  15.203 -0.3230  0.1435  0.1051
  657TMC3    C8 9732   4.000   1.819  15.571  0.0260 -0.2767 -0.0547
  657TMC3    O1 9733   3.781   2.154  15.281  0.1334 -0.6736  0.0717
  657TMC3    O2 9734   4.067   1.719  15.597 -0.1199  0.6896 -0.6615
  658MPD2     C 9735   0.951   1.976  14.749  0.1079 -0.7508 -0.1608
  658MPD2    C1 9736   0.813   1.974  14.749  0.1853  0.1695  0.1980
  658MPD2    C2 9737   0.745   2.048  14.649 -0.0101 -0.7864 -0.2153
  658MPD2    C3 9738   0.814   2.106  14.545  0.5294  0.3628  0.1636
  658MPD2    C4 9739   0.947   2.111  14.544 -0.0051 -0.2734 -0.3933
  658MPD2    C5 9740   1.012   2.040  14.642 -0.3714 -0.3434 -0.3114
  658MPD2     H 9741   0.639   2.068  14.651 -0.0343 -0.8197 -1.1158
  658MPD2    H1 9742   1.005   2.156  14.464  1.0427  1.9070  1.5840
  658MPD2    H2 9743   1.003   1.919  14.824 -0.8677 -1.1947  0.1792
  658MPD2    H3 9744   1.120   2.039  14.640 -0.4266 -1.5417 -2.5987
  658MPD2     N 9745   0.734   2.170  14.451 -0.4133  0.5666 -0.1127
  658MPD2    H5 9746   0.634   2.152  14.460  0.2704 -1.4476  3.6165
  658MPD2    N1 9747   0.742   1.902  14.849  0.8097 -0.1346 -0.2349
  658MPD2    H7 9748   0.792   1.872  14.932 -0.1164  0.4414  0.5251
  659TMC3    C1 9749   0.554   1.838  14.976 -0.8828 -0.2005  0.7762
  659TMC3    C2 9750   0.602   1.901  15.091  0.2650  0.8715 -0.1467
  659TMC3    C3 9751   0.503   1.933  15.181  0.3660 -0.4082  0.3594
  659TMC3    C4 9752   0.423   1.801  14.961  0.7955  0.4549  0.0326
  659TMC3    C5 9753   0.328   1.846  15.046  0.4941  0.0532 -1.0069
  659TMC3    C6 9754   0.369   1.913  15.156 -0.2856 -0.1964  0.2351
  659TMC3     C 9755   0.608   1.873  14.840  0.4544 -0.4634 -0.0662
  659TMC3     O 9756   0.523   1.875  14.750  0.4362 -0.6931  0.8713
  659TMC3     H 9757   0.706   1.931  15.092  0.2769  0.8438 -0.6273
  659TMC3    H1 9758   0.387   1.742  14.877  2.2121 -1.9174  1.0903
  659TMC3    H2 9759   0.293   1.945  15.226  0.2057  4.2342 -1.2517
  659TMC3    C7 9760   0.182   1.852  15.015  0.0760 -0.0756  0.7831
  659TMC3    C8 9761   0.533   2.025  15.290  0.1971  0.3084  0.6011
  659TMC3    O1 9762   0.125   1.936  15.081  1.0599  0.3268 -0.0136
  659TMC3    O2 9763   0.439   2.101  15.319  0.1793  0.1054 -0.4495
  660MPD2     C 9764   3.446   1.210  12.481 -0.6486  1.0609  0.8861
  660MPD2    C1 9765   3.324   1.266  12.492 -0.7715 -0.7269 -0.0901
  660MPD2    C2 9766   3.244   1.233  12.603  0.2568  0.4535 -0.3832
  660MPD2    C3 9767   3.286   1.158  12.709  0.1955  0.6765  0.1335
  660MPD2    C4 9768   3.405   1.096  12.687  0.1377 -0.0398  0.0568
  660MPD2    C5 9769   3.481   1.118  12.573 -0.4529  1.2026  0.0301
  660MPD2     H 9770   3.143   1.271  12.613  0.6496  1.4417 -0.1472
  660MPD2    H1 9771   3.444   1.021  12.756 -2.9316 -1.1135  0.6347
  660MPD2    H2 9772   3.523   1.238  12.409 -0.5040  1.3897  1.1715
  660MPD2    H3 9773   3.574   1.065  12.558 -1.5761 -1.1910  1.6574
  660MPD2     N 9774   3.226   1.133  12.829  0.3222 -0.1276 -0.1628
  660MPD2    H5 9775   3.276   1.067  12.888 -0.2265  0.7812  1.3439
  660MPD2    N1 9776   3.292   1.360  12.396 -0.2492 -0.3459 -0.0437
  660MPD2    H7 9777   3.370   1.398  12.343 -1.6372  0.9046 -1.1544
  661TMC3    C1 9778   3.149   1.496  12.270  0.0094 -0.3190 -0.7418
  661TMC3    C2 9779   3.225   1.485  12.148 -0.2752 -0.6122 -1.3053
  661TMC3    C3 9780   3.196   1.573  12.043 -0.1734  0.0659 -0.7299
  661TMC3    C4 9781   3.049   1.593  12.277 -0.8421 -0.0245 -0.3635
  661TMC3    C5 9782   3.028   1.682  12.170 -0.3608 -0.2094  0.0054
  661TMC3    C6 9783   3.098   1.673  12.052  0.3478 -0.3216  0.2320
  661TMC3     C 9784   3.170   1.413  12.383 -0.6023 -0.0857  0.4616
  661TMC3     O 9785   3.064   1.398  12.443 -0.1339 -0.0498 -0.3630
  661TMC3     H 9786   3.292   1.402  12.128  0.4978 -0.3285  0.0891
  661TMC3    H1 9787   2.979   1.603  12.359  1.0114  1.6522  1.0452
  661TMC3    H2 9788   3.067   1.746  11.978 -0.3282 -0.9040 -0.0524
  661TMC3    C7 9789   2.888   1.714  12.160 -0.0087  0.2783 -0.6250
  661TMC3    C8 9790   3.232   1.538  11.907  0.6122 -0.2995  0.0796
  661TMC3    O1 9791   2.842   1.826  12.193  1.0276 -0.1447 -0.9766
  661TMC3    O2 9792   3.261   1.417  11.895 -0.3130 -0.6358 -0.2828
  662MPD2     C 9793   3.674   1.285  17.314 -0.3243 -0.1990 -0.3771
  662MPD2    C1 9794   3.718   1.261  17.440  0.0918  0.0721  0.0986
  662MPD2    C2 9795   3.730   1.364  17.524  0.0042  0.2846 -0.0020
  662MPD2    C3 9796   3.696   1.491  17.486 -0.2528 -0.4434  0.2093
  662MPD2    C4 9797   3.651   1.519  17.357 -0.0760 -0.1003  0.3598
  662MPD2    C5 9798   3.641   1.410  17.273  0.1395 -0.0988  0.1682
  662MPD2     H 9799   3.753   1.337  17.626  0.9862  2.9376  0.4743
  662MPD2    H1 9800   3.622   1.615  17.317  0.5441  1.0613  2.6706
  662MPD2    H2 9801   3.660   1.206  17.241  3.1786 -2.7437  1.6763
  662MPD2    H3 9802   3.615   1.433  17.171  1.1635  3.3408  0.6889
  662MPD2     N 9803   3.676   1.588  17.584  0.1424  0.3821  0.0861
  662MPD2    H5 9804   3.619   1.669  17.563 -0.2492  0.4651  1.5295
  662MPD2    N1 9805   3.737   1.135  17.487 -0.1702 -0.3576 -0.8301
  662MPD2    H7 9806   3.776   1.126  17.580 -1.1605 -1.4053 -0.5144
  663TMC3    C1 9807   3.704   0.898  17.513 -0.2934  0.2639  0.3622
  663TMC3    C2 9808   3.694   0.922  17.649  0.9430 -0.4695 -0.6202
  663TMC3    C3 9809   3.662   0.817   0.053 -0.1056 -0.1398  0.8656
  663TMC3    C4 9810   3.683   0.772  17.466 -1.1294 -0.3731 -0.6886
  663TMC3    C5 9811   3.660   0.668  17.550  0.0059 -0.0123 -0.6460
  663TMC3    C6 9812   3.655   0.689   0.000 -0.1236 -0.5198  0.8488
  663TMC3     C 9813   3.712   1.016  17.420 -0.7122  0.3250 -0.0988
  663TMC3     O 9814   3.692   0.997  17.301 -0.0152  0.4328  0.3654
  663TMC3     H 9815   3.658   1.020  17.678 -0.3607 -1.0740 -0.1822
  663TMC3    H1 9816   3.679   0.759  17.359 -2.8381 -1.4011 -0.5085
  663TMC3    H2 9817   3.611   0.614   0.065  0.3649 -2.0085 -0.5457
  663TMC3    C7 9818   3.552   0.582  17.498  0.6350 -0.2264 -0.6118
  663TMC3    C8 9819   3.547   0.852   0.134 -0.7832 -0.0393  0.1460
  663TMC3    O1 9820   3.479   0.634  17.410 -0.0207 -0.9382 -0.1343
  663TMC3    O2 9821   3.482   0.948   0.095 -0.2647 -1.4379  0.0744
  664MPD2     C 9822   1.887   3.611  17.559 -0.5820 -0.0549 -0.1386
  664MPD2    C1 9823   1.853   3.731  17.618  0.1697 -0.0314 -0.8204
  664MPD2    C2 9824   1.816   3.732   0.060  0.1311  0.1109 -0.1825
  664MPD2    C3 9825   1.810   3.615   0.131 -0.2195  0.3373  0.0778
  664MPD2    C4 9826   1.836   3.494   0.066  0.4337 -0.1884  0.0537
  664MPD2    C5 9827   1.871   3.490  17.626 -0.0342  0.1497  0.2705
  664MPD2     H 9828   1.781   3.819   0.114  0.9135  0.0625  0.3861
  664MPD2    H1 9829   1.827   3.400   0.120  1.6903 -0.2475  0.1432
  664MPD2    H2 9830   1.929   3.608  17.460 -1.6355  0.7278 -0.6064
  664MPD2    H3 9831   1.880   3.395  17.573 -1.3717  1.5432 -2.4633
  664MPD2     N 9832   1.756   3.622   0.264 -0.2842 -0.0024  0.0874
  664MPD2    H5 9833   1.718   3.709   0.299 -0.1905  0.0553  0.0442
  664MPD2    N1 9834   1.884   3.854  17.551  0.0125  0.0587 -0.6791
  664MPD2    H7 9835   1.869   3.938  17.606  1.3036  1.6914 -2.8523
  665TMC3    C1 9836   1.716   3.528   0.481  0.7165  0.1878  0.0080
  665TMC3    C2 9837   1.771   3.455   0.589  0.3034  0.2483 -0.2260
  665TMC3    C3 9838   1.764   3.508   0.716  0.1487  0.6291  0.5371
  665TMC3    C4 9839   1.647   3.646   0.507  0.0966 -0.1402 -0.1440
  665TMC3    C5 9840   1.647   3.694   0.634  0.3960 -0.4051  0.1688
  665TMC3    C6 9841   1.705   3.627   0.739  0.4230  0.1856 -0.8586
  665TMC3     C 9842   1.766   3.511   0.346  0.0576 -0.3127  0.0229
  665TMC3     O 9843   1.839   3.412   0.342  0.0970  0.0959 -0.4740
  665TMC3     H 9844   1.814   3.361   0.559  1.5369  0.9145 -0.5705
  665TMC3    H1 9845   1.593   3.687   0.422 -1.1238 -3.0754 -0.7698
  665TMC3    H2 9846   1.692   3.671   0.837 -2.9969  0.0620 -1.2427
  665TMC3    C7 9847   1.559   3.804   0.655  0.4339  0.4286 -0.2188
  665TMC3    C8 9848   1.872   3.479   0.814 -0.2820 -0.2247  0.6142
  665TMC3    O1 9849   1.472   3.812   0.566 -0.7846  0.3346  0.2374
  665TMC3    O2 9850   1.854   3.545   0.916  0.2337  0.0062  0.7267
  666TMC3    C1 9851   0.918   3.401  10.116  0.5588 -0.6599  1.1750
  666TMC3    C2 9852   1.044   3.352  10.141  0.3615 -0.1626 -0.3115
  666TMC3    C3 9853   1.152   3.442  10.128  0.3968  0.3983  0.3458
  666TMC3    C4 9854   0.900   3.529  10.082  0.2147  0.2858  0.3086
  666TMC3    C5 9855   1.007   3.612  10.055 -0.4981  0.1712 -0.1284
  666TMC3    C6 9856   1.131   3.575  10.092 -0.7526  0.6288  0.0677
  666TMC3     C 9857   0.798   3.334  10.173  0.0847  0.3521  0.0354
  666TMC3     O 9858   0.711   3.407  10.221 -0.4986  0.0950  0.3378
  666TMC3     H 9859   1.062   3.255  10.185  0.3203  0.1010  0.3010
  666TMC3    H1 9860   0.801   3.563  10.056  0.1392 -1.1711 -1.3395
  666TMC3    H2 9861   1.215   3.642  10.077  0.1807 -1.0298 -2.2420
  666TMC3    C7 9862   0.970   3.754  10.052  0.2620  0.0865 -0.8818
  666TMC3    C8 9863   1.255   3.408  10.224 -0.2346 -0.1739  0.2758
  666TMC3    O1 9864   0.864   3.780   9.996  0.2362 -0.2666  0.1366
  666TMC3    O2 9865   1.235   3.332  10.317  0.0436 -0.2051 -0.1979
  667MPD2     C 9866   2.050   4.077  14.102 -0.5705 -0.2711  0.0170
  667MPD2    C1 9867   2.140   4.014  14.180 -0.9423 -0.6021  0.5178
  667MPD2    C2 9868   2.130   3.874  14.191  0.1725  0.6792 -0.2089
  667MPD2    C3 9869   2.032   3.802  14.119 -0.5612 -0.1504  0.2785
  667MPD2    C4 9870   1.939   3.867  14.040 -0.5668  0.6002 -0.1170
  667MPD2    C5 9871   1.945   4.002  14.036  0.4594 -0.3778  0.0032
  667MPD2     H 9872   2.207   3.833  14.255 -0.1670 -0.5426 -0.5809
  667MPD2    H1 9873   1.873   3.813  13.973 -0.3028  0.8797 -0.6021
  667MPD2    H2 9874   2.061   4.184  14.096 -0.6221 -0.2465  0.3316
  667MPD2    H3 9875   1.877   4.057  13.972 -0.6782 -1.3253  0.3947
  667MPD2     N 9876   2.022   3.661  14.123  0.3924 -0.6141 -0.6544
  667MPD2    H5 9877   1.950   3.619  14.065 -1.4072 -0.8330  1.7130
  667MPD2    N1 9878   2.230   4.078  14.268  0.1385  0.1240  0.5247
  667MPD2    H7 9879   2.278   4.013  14.330  1.5047  0.4901 -0.1471
  668TMC3    C1 9880   2.336   4.256  14.371  0.6490 -0.3599 -0.0598
  668TMC3    C2 9881   2.378   4.383  14.364 -0.0201 -0.2013 -0.3652
  668TMC3    C3 9882   2.479   4.420  14.443 -0.3644  0.8160 -0.0458
  668TMC3    C4 9883   2.374   4.170  14.470  0.6554 -0.3215  0.2030
  668TMC3    C5 9884   2.465   4.221  14.557  0.5816  0.3264  0.0402
  668TMC3    C6 9885   2.533   4.337  14.534  0.2431  0.6711 -0.5477
  668TMC3     C 9886   2.238   4.221  14.277 -0.0903  0.0496 -0.1181
  668TMC3     O 9887   2.178   4.314  14.220  0.7595 -0.1831 -0.2139
  668TMC3     H 9888   2.348   4.458  14.292  0.5774 -0.0102 -0.4166
  668TMC3    H1 9889   2.329   4.072  14.469 -3.3043  1.4824  2.3934
  668TMC3    H2 9890   2.620   4.373  14.587  0.5827  0.8715 -1.2437
  668TMC3    C7 9891   2.430   4.178  14.693  0.4286 -0.3368 -0.3986
  668TMC3    C8 9892   2.533   4.555  14.423  0.2011 -0.0457 -0.4476
  668TMC3    O1 9893   2.355   4.085  14.715  0.3438  0.1107 -0.1926
  668TMC3    O2 9894   2.448   4.643  14.398 -0.1713 -0.0359 -0.0486
  669TMC3    C1 9895   0.716   3.556  14.413  0.6750 -0.2437  0.2648
  669TMC3    C2 9896   0.628   3.510  14.319  0.0826 -0.1198  0.9578
  669TMC3    C3 9897   0.629   3.579  14.196  0.0311 -0.0924 -0.6897
  669TMC3    C4 9898   0.800   3.664  14.396 -0.1856 -0.2401 -0.2454
  669TMC3    C5 9899   0.815   3.708  14.265 -0.3502 -0.2842  0.6623
  669TMC3    C6 9900   0.727   3.676  14.171  0.4085  0.2184  0.2389
  669TMC3     C 9901   0.703   3.502  14.546 -0.1965  0.4888  0.2223
  669TMC3     O 9902   0.612   3.422  14.559 -0.4500  0.2719  0.0942
  669TMC3     H 9903   0.568   3.423  14.341  0.3858  0.0062  2.3292
  669TMC3    H1 9904   0.872   3.691  14.472  0.6996 -3.1424 -0.0674
  669TMC3    H2 9905   0.720   3.722  14.073  0.6584  3.3251  1.7154
  669TMC3    C7 9906   0.916   3.802  14.235  0.6678  0.0570 -0.0905
  669TMC3    C8 9907   0.513   3.576  14.110  0.6617  0.2685  0.2684
  669TMC3    O1 9908   0.951   3.883  14.319 -0.4848 -0.5441  0.2868
  669TMC3    O2 9909   0.481   3.681  14.058  0.1088 -0.1360  0.1545
  670MPD2     C 9910   3.555   2.199  13.629  0.4428 -0.1453 -0.1822
  670MPD2    C1 9911   3.653   2.106  13.604 -0.3762  0.1525  0.1702
  670MPD2    C2 9912   3.647   1.981  13.668 -0.3543  0.1043  0.2996
  670MPD2    C3 9913   3.559   1.958  13.766 -0.0284 -0.2236 -0.4637
  670MPD2    C4 9914   3.471   2.064  13.795 -0.0796 -0.6243 -0.8493
  670MPD2    C5 9915   3.463   2.174  13.722  0.6058  0.1587 -0.5932
  670MPD2     H 9916   3.712   1.909  13.620  2.5041  0.9340  2.9873
  670MPD2    H1 9917   3.403   2.055  13.879 -1.9606  2.5830 -2.0198
  670MPD2    H2 9918   3.548   2.299  13.588 -1.5366 -0.6762 -1.1703
  670MPD2    H3 9919   3.389   2.248  13.754 -1.5914 -2.3185  0.0482
  670MPD2     N 9920   3.555   1.833  13.830 -0.4647  0.6135 -0.4175
  670MPD2    H5 9921   3.635   1.773  13.818 -1.8026 -1.5439  1.4096
  670MPD2    N1 9922   3.752   2.130  13.508  0.3143  0.5409  0.6109
  670MPD2    H7 9923   3.834   2.070  13.510  0.5887  0.8522 -1.3215
  671TMC3    C1 9924   3.475   1.651  13.965 -0.0476 -0.7169  0.9829
  671TMC3    C2 9925   3.593   1.620  14.035  0.9436  0.0796  0.0628
  671TMC3    C3 9926   3.580   1.538  14.144  0.3733  0.6985 -0.1111
  671TMC3    C4 9927   3.366   1.570  13.975  0.0182  0.0117  0.0271
  671TMC3    C5 9928   3.361   1.466  14.069 -0.3567 -0.2428 -0.2074
  671TMC3    C6 9929   3.466   1.454  14.160  0.0360  0.4547 -0.0533
  671TMC3     C 9930   3.457   1.782  13.907 -0.2612  0.0385 -0.2013
  671TMC3     O 9931   3.344   1.819  13.918  0.1840 -0.0843 -0.1256
  671TMC3     H 9932   3.680   1.685  14.033  2.5987 -2.1033  0.1666
  671TMC3    H1 9933   3.280   1.577  13.910  0.4182  0.4317 -0.4538
  671TMC3    H2 9934   3.472   1.358  14.210  1.3402  0.4606 -0.2142
  671TMC3    C7 9935   3.286   1.352  14.037 -0.4190  0.1135 -0.7929
  671TMC3    C8 9936   3.696   1.466  14.198 -0.0727 -0.4261 -0.7307
  671TMC3    O1 9937   3.233   1.346  13.926  0.5586 -0.4237  0.7336
  671TMC3    O2 9938   3.778   1.418  14.120 -0.2443 -0.0417 -0.3504
  672MPD2     C 9939   0.808   2.406   0.656 -0.6429 -0.5184 -0.7381
  672MPD2    C1 9940   0.686   2.426   0.711  0.4512 -0.1292 -0.6919
  672MPD2    C2 9941   0.673   2.519   0.816 -1.0011  0.8873 -0.2345
  672MPD2    C3 9942   0.780   2.589   0.858 -0.7907  0.5271  0.2249
  672MPD2    C4 9943   0.904   2.567   0.796  0.9198  0.0534 -0.2275
  672MPD2    C5 9944   0.911   2.478   0.695 -0.6518  0.6871  0.7381
  672MPD2     H 9945   0.577   2.530   0.865 -0.5617  1.5863  0.4651
  672MPD2    H1 9946   0.991   2.621   0.832 -0.1008  2.4695 -1.3808
  672MPD2    H2 9947   0.830   2.324   0.587  0.9511 -0.4478 -0.3102
  672MPD2    H3 9948   1.007   2.446   0.657 -1.2061 -0.6693  0.4633
  672MPD2     N 9949   0.787   2.684   0.957  0.4418  0.0895 -0.6652
  672MPD2    H5 9950   0.874   2.730   0.982  0.5672 -0.4813 -0.0247
  672MPD2    N1 9951   0.578   2.339   0.669 -0.4041 -0.0862  0.0849
  672MPD2    H7 9952   0.509   2.313   0.740 -0.2958  0.3856  0.3586
  673TMC3    C1 9953   0.478   2.175   0.539 -0.1181 -0.0108 -0.2256
  673TMC3    C2 9954   0.474   2.097   0.648  0.1225 -0.2953  0.3695
  673TMC3    C3 9955   0.366   2.013   0.664 -0.0318 -0.1891 -0.2455
  673TMC3    C4 9956   0.387   2.162   0.436 -0.7348  0.3899 -0.5030
  673TMC3    C5 9957   0.283   2.078   0.456 -0.0477 -0.2121 -0.3743
  673TMC3    C6 9958   0.265   2.002   0.569 -0.1990 -0.2155  0.2790
  673TMC3     C 9959   0.570   2.287   0.545  0.5997  0.1109  0.3849
  673TMC3     O 9960   0.609   2.324   0.436  0.3822 -0.0737  0.5131
  673TMC3     H 9961   0.556   2.096   0.719  2.1575 -1.7085 -1.9896
  673TMC3    H1 9962   0.393   2.220   0.344  0.4387  1.1480  0.0428
  673TMC3    H2 9963   0.183   1.934   0.589  2.1008 -2.6132  1.6355
  673TMC3    C7 9964   0.202   2.067   0.340 -0.3098 -0.2122 -0.5063
  673TMC3    C8 9965   0.360   1.938   0.787 -0.1653 -0.8152 -0.2770
  673TMC3    O1 9966   0.237   2.103   0.230  0.2469 -0.0311  0.0647
  673TMC3    O2 9967   0.250   1.896   0.816  0.2664 -0.5107  0.6160
  674MPD2     C 9968   4.600   1.326   0.547  0.2540 -0.3254  0.0356
  674MPD2    C1 9969   4.485   1.390   0.517 -0.2216 -0.3041  0.2045
  674MPD2    C2 9970   4.428   1.480   0.613 -0.1865 -0.6772  0.4053
  674MPD2    C3 9971   4.486   1.496   0.738  0.5210 -0.1634 -0.7292
  674MPD2    C4 9972   4.601   1.424   0.769 -0.1880  0.1040  0.5502
  674MPD2    C5 9973   4.654   1.338   0.672 -0.3325  0.1023  0.1565
  674MPD2     H 9974   4.346   1.545   0.585  0.5437  0.0732  0.0112
  674MPD2    H1 9975   4.644   1.427   0.868  0.0332  1.5141  0.4083
  674MPD2    H2 9976   4.648   1.266   0.471  0.6817  1.1323 -0.8509
  674MPD2    H3 9977   0.027   1.290   0.696 -1.8166 -0.9768  3.7694
  674MPD2     N 9978   4.415   1.578   0.822 -0.3102 -0.4287 -0.4329
  674MPD2    H5 9979   4.328   1.618   0.788 -0.0744  1.8574  1.6734
  674MPD2    N1 9980   4.425   1.368   0.394 -0.1860 -0.8623  0.0431
  674MPD2    H7 9981   4.454   1.293   0.332 -1.1546  0.2450 -1.7441
  675TMC3    C1 9982   4.260   1.379   0.229 -0.1003  0.5433  0.0286
  675TMC3    C2 9983   4.125   1.355   0.226 -0.0522 -0.3203 -0.3902
  675TMC3    C3 9984   4.079   1.257   0.140 -0.0558 -0.2690 -0.1897
  675TMC3    C4 9985   4.345   1.319   0.138 -0.0913  0.2289  0.4476
  675TMC3    C5 9986   4.283   1.242   0.047 -0.0884  0.2078  0.0383
  675TMC3    C6 9987   4.155   1.195   0.048 -0.1906  0.0787  0.0311
  675TMC3     C 9988   4.309   1.438   0.349  0.7592 -0.0766  0.1841
  675TMC3     O 9989   4.247   1.533   0.393 -0.5040  0.1060  0.2162
  675TMC3     H 9990   4.053   1.402   0.293 -0.1285 -1.0772  0.0560
  675TMC3    H1 9991   4.451   1.337   0.124 -0.6151  1.9877 -1.2604
  675TMC3    H2 9992   4.110   1.125  17.665  2.2865 -0.4538 -1.0142
  675TMC3    C7 9993   4.369   1.179  17.631  0.1403  0.5487  0.2587
  675TMC3    C8 9994   3.937   1.222   0.142 -0.6519  0.3386 -0.9929
  675TMC3    O1 9995   4.335   1.069  17.592  0.2466  0.2365  0.5639
  675TMC3    O2 9996   3.895   1.172   0.039 -0.1972  0.2083  0.2213
  676MPD2     C 9997   0.976   4.718  11.114  0.4380 -0.1235  0.2741
  676MPD2    C1 9998   1.021   4.680  11.239  1.5928  0.1570  0.1961
  676MPD2    C2 9999   1.086   4.559  11.246 -0.3507  0.2800  0.2177
  676MPD2    C310000   1.114   4.488  11.136 -0.3809 -0.2851 -0.1305
  676MPD2    C410001   1.070   4.528  11.011  0.1885  0.0790  0.1084
  676MPD2    C510002   0.996   4.635  11.002 -0.1280 -0.0217 -0.0354
  676MPD2     H10003   1.120   4.524  11.343 -0.8983  1.9516  1.0146
  676MPD2    H110004   1.085   4.476  10.917  0.2757 -2.9901  1.8288
  676MPD2    H210005   0.912   0.083  11.099 -0.3703 -0.7038  0.4034
  676MPD2    H310006   0.955   4.658  10.904  0.4938  2.8327  0.3598
  676MPD2     N10007   1.178   4.367  11.132 -0.6250 -0.0750  1.0197
  676MPD2    H510008   1.198   4.323  11.043 -0.6299  2.5463 -0.2640
  676MPD2    N110009   0.998   0.030  11.356  0.3119  0.2162  0.1164
  676MPD2    H710010   1.023   4.701  11.441  0.6484  1.7897  0.9482
  677TMC3    C110011   0.961   0.221  11.480 -0.2321  0.3866  0.6067
  677TMC3    C210012   0.974   0.142  11.592  0.4643 -0.2728  0.1099
  677TMC3    C310013   0.980   0.205  11.710 -0.4986  0.0315  0.0493
  677TMC3    C410014   0.961   0.356  11.478 -0.4979  0.4070 -0.5728
  677TMC3    C510015   0.968   0.414  11.600  0.4883  0.6235 -0.1801
  677TMC3    C610016   0.983   0.342  11.715 -0.8657 -0.1183 -0.1040
  677TMC3     C10017   0.963   0.162  11.355  0.3285 -0.0170 -0.0458
  677TMC3     O10018   0.941   0.230  11.257 -1.1904 -0.6960 -0.8512
  677TMC3     H10019   0.965   0.034  11.596  1.0804 -0.2786  1.3825
  677TMC3    H110020   0.945   0.416  11.389 -1.7925  1.1517  0.1708
  677TMC3    H210021   0.986   0.391  11.812 -0.9375  1.3650 -0.8404
  677TMC3    C710022   1.028   0.547  11.612  0.3200  0.5293  0.6383
  677TMC3    C810023   1.080   0.148  11.800  0.1894 -0.1056  0.3006
  677TMC3    O110024   1.002   0.615  11.713  0.2675  0.0008  0.7113
  677TMC3    O210025   1.169   0.089  11.744  0.0466  0.2945  0.0294
  678MPD2     C10026   3.240   4.625   1.846  0.1185 -0.0169 -0.1848
  678MPD2    C110027   3.168   4.587   1.730 -0.9692 -0.1299 -0.5266
  678MPD2    C210028   3.047   4.653   1.702 -0.7146 -0.5534 -0.2284
  678MPD2    C310029   2.984   0.015   1.793 -0.1056  0.1768  0.2110
  678MPD2    C410030   3.060   0.051   1.900 -0.3414 -0.2832  0.0411
  678MPD2    C510031   3.184   0.000   1.920 -0.6531  0.6613  0.5470
  678MPD2     H10032   3.003   4.626   1.607  0.8393 -0.5237 -0.9568
  678MPD2    H110033   3.020   0.126   1.966  0.3697  0.4286 -0.3415
  678MPD2    H210034   3.335   4.581   1.874 -0.7778 -0.7332  1.7381
  678MPD2    H310035   3.234   0.036   2.009 -0.8840  0.1238  0.8931
  678MPD2     N10036   2.860   0.068   1.761  0.0582  0.1028  0.4440
  678MPD2    H510037   2.834   0.051   1.665  0.9111  0.1737  0.2051
  678MPD2    N110038   3.221   4.497   1.635  0.3454 -0.2314  0.4082
  678MPD2    H710039   3.172   4.493   1.546 -1.7606  2.8000  1.4342
  679TMC3    C110040   3.568   4.260   1.459  0.3497  0.0615 -0.0331
  679TMC3    C210041   3.483   4.266   1.559  0.8494 -1.1009  0.0213
  679TMC3    C310042   3.365   4.338   1.545 -0.0892  0.1989  0.0340
  679TMC3    C410043   3.543   4.316   1.339  0.6241 -0.3614 -0.9335
  679TMC3    C510044   3.420   4.373   1.319 -0.3213 -0.7482 -0.1394
  679TMC3    C610045   3.331   4.388   1.425 -0.9356 -0.2186 -0.2431
  679TMC3     C10046   3.706   4.220   1.485  0.0181  0.0820  0.1122
  679TMC3     O10047   3.762   4.179   1.384 -0.1054 -0.1490 -0.1370
  679TMC3     H10048   3.501   4.216   1.653 -0.3477 -0.1736  0.7553
  679TMC3    H110049   3.612   4.301   1.256  0.4049 -2.3082 -0.7775
  679TMC3    H210050   3.240   4.445   1.406 -3.1643 -2.6086  3.3549
  679TMC3    C710051   3.398   4.461   1.211  0.2939 -0.4536  0.1819
  679TMC3    C810052   3.323   4.412   1.665  0.2579  0.1516  0.5009
  679TMC3    O110053   3.332   4.563   1.229 -0.0055 -0.0203  0.1728
  679TMC3    O210054   3.373   4.373   1.767 -0.1715 -0.0312  0.0648
  680MPD2     C10055   3.208   3.600  13.540 -0.6258  1.0731  0.2221
  680MPD2    C110056   3.312   3.526  13.582  0.8153 -0.6209  0.2452
  680MPD2    C210057   3.435   3.583  13.603  0.4604  0.1697  0.4788
  680MPD2    C310058   3.460   3.717  13.593 -0.0772 -0.2904 -0.6950
  680MPD2    C410059   3.353   3.794  13.546  0.2082  0.3066 -0.1803
  680MPD2    C510060   3.229   3.736  13.527  0.1194 -0.4960  0.3781
  680MPD2     H10061   3.516   3.514  13.626  0.1086  0.5836  2.9388
  680MPD2    H110062   3.365   3.901  13.534  0.4060  0.4339  1.1858
  680MPD2    H210063   3.108   3.562  13.526 -0.1333 -0.5890  1.1931
  680MPD2    H310064   3.142   3.783  13.483 -1.5422 -0.0836  4.1198
  680MPD2     N10065   3.579   3.781  13.632 -0.0386 -0.6493  0.0743
  680MPD2    H510066   3.585   3.881  13.615  0.1580 -1.0112 -1.9199
  680MPD2    N110067   3.306   3.389  13.605 -0.0241  0.3077 -0.1738
  680MPD2    H710068   3.395   3.342  13.620  0.1082  1.5838  3.2518
  681TMC3    C110069   3.226   3.175  13.608 -0.7524 -1.0041 -0.0089
  681TMC3    C210070   3.133   3.085  13.657 -0.3303 -0.0311 -0.2806
  681TMC3    C310071   3.167   2.957  13.666 -0.2228  0.5580 -0.1443
  681TMC3    C410072   3.345   3.133  13.555  0.4434 -0.1006 -0.1054
  681TMC3    C510073   3.370   2.995  13.555  0.2934  0.4532  0.2227
  681TMC3    C610074   3.278   2.905  13.605  0.3080 -0.1820 -0.0743
  681TMC3     C10075   3.186   3.313  13.605 -0.5441 -0.2804  0.3673
  681TMC3     O10076   3.070   3.351  13.578 -0.1014  0.0293  0.2360
  681TMC3     H10077   3.039   3.124  13.692  0.8507  2.5708  0.0169
  681TMC3    H110078   3.411   3.207  13.512  0.6796  0.2181  0.8036
  681TMC3    H210079   3.292   2.798  13.605  2.5393  0.1209  1.7805
  681TMC3    C710080   3.471   2.940  13.465  0.3758 -0.3230  0.1813
  681TMC3    C810081   3.149   2.895  13.794 -0.5103 -0.1076  0.7136
  681TMC3    O110082   3.503   2.822  13.478 -0.6526 -0.5212 -0.1252
  681TMC3    O210083   3.183   2.773  13.809 -0.6978 -0.3858 -0.0722
  682MPD2     C10084   0.435   0.225  10.508 -0.6349 -0.8893  1.0999
  682MPD2    C110085   0.408   0.092  10.550  0.2396 -0.1819  0.1269
  682MPD2    C210086   0.351   0.087  10.677  0.1049 -0.0211  0.3184
  682MPD2    C310087   0.329   0.191  10.760  0.2883  0.1187 -0.2654
  682MPD2    C410088   0.369   0.314  10.721  0.5203 -0.0604 -0.0473
  682MPD2    C510089   0.409   0.329  10.589  0.2459  0.3804  0.3890
  682MPD2     H10090   0.342   4.708  10.719 -2.9069 -0.0593 -0.4567
  682MPD2    H110091   0.369   0.400  10.787  0.3904 -1.2975  1.5721
  682MPD2    H210092   0.483   0.251  10.415  0.3140 -0.1299  1.8079
  682MPD2    H310093   0.440   0.426  10.553 -0.0111  0.6334  0.8415
  682MPD2     N10094   0.274   0.169  10.885 -0.2471  0.2653 -0.4339
  682MPD2    H510095   0.283   0.232  10.964  2.8530 -0.0241 -0.5788
  682MPD2    N110096   0.435   4.696  10.477  0.1223  0.9370 -0.0305
  682MPD2    H710097   0.420   4.609  10.527 -1.4059  0.4566 -1.3310
  683TMC3    C110098   0.291   0.031  11.271  0.1101  0.4989  0.7181
  683TMC3    C210099   0.187   4.676  11.325  0.1928  0.8921 -0.2561
  683TMC3    C310100   0.083   4.645  11.237  0.0128 -1.3212  0.6875
  683TMC3    C410101   0.288   0.085  11.143 -0.5082  0.5252  0.3162
  683TMC3    C510102   0.182   0.052  11.067  0.3393  0.1648 -0.3040
  683TMC3    C610103   0.083   4.688  11.109  0.3119 -0.3436  0.1452
  683TMC3     C10104   0.391   0.084  11.356 -0.2058 -0.5837  0.1444
  683TMC3     O10105   0.438   0.193  11.323  0.2159  0.2385 -0.5859
  683TMC3     H10106   0.180   4.650  11.431  1.0832 -0.9015 -0.6473
  683TMC3    H110107   0.380   0.129  11.107 -1.1861 -0.0142 -2.0609
  683TMC3    H210108   4.714   4.670  11.051  0.4693 -0.4132 -0.0795
  683TMC3    C710109   0.198   0.058  10.919 -1.0833  0.1831 -0.2273
  683TMC3    C810110   4.712   4.546  11.276 -0.2045 -0.1653 -0.4921
  683TMC3    O110111   0.149   4.694  10.843  0.2332 -0.0057 -0.3313
  683TMC3    O210112   4.604   4.537  11.218  0.1350  0.3196  0.4224
  684MPD2     C10113   4.024   4.168  16.361  0.1557 -0.0281 -0.2385
  684MPD2    C110114   3.960   4.227  16.258  0.0534  0.0366 -0.1859
  684MPD2    C210115   3.856   4.315  16.295  0.3209  0.2205 -0.1477
  684MPD2    C310116   3.801   4.330  16.421  0.0153  0.0440  0.0563
  684MPD2    C410117   3.866   4.271  16.523 -0.1746 -0.3601  0.2014
  684MPD2    C510118   3.977   4.187  16.486 -1.1616 -0.5459  0.0024
  684MPD2     H10119   3.810   4.358  16.207 -0.9215  1.2270  0.9797
  684MPD2    H110120   3.847   4.285  16.628 -0.0409  1.8109 -0.0615
  684MPD2    H210121   4.113   4.107  16.349  1.1732  1.2263  0.8772
  684MPD2    H310122   4.036   4.145  16.567 -0.7677  1.6933  0.8946
  684MPD2     N10123   3.687   4.417  16.455 -0.2996  0.3215 -0.3609
  684MPD2    H510124   3.676   4.429  16.555  1.1900 -0.6814 -0.0785
  684MPD2    N110125   3.998   4.218  16.120  1.0202  0.4007  0.0632
  684MPD2    H710126   3.929   4.252  16.053  1.8856  0.2207 -0.9117
  685TMC3    C110127   4.131   4.167  15.933  0.2792 -0.2817 -0.1434
  685TMC3    C210128   4.034   4.112  15.860 -0.2275  0.6908  0.0351
  685TMC3    C310129   4.066   4.069  15.740  0.0933 -0.2196  0.9875
  685TMC3    C410130   4.266   4.166  15.894 -1.0689  0.1405 -0.2736
  685TMC3    C510131   4.297   4.110  15.770 -0.3516  0.4906  0.0788
  685TMC3    C610132   4.196   4.072  15.692  0.5688 -0.3813 -0.6668
  685TMC3     C10133   4.116   4.159  16.076  0.0832 -0.4498  0.3300
  685TMC3     O10134   4.201   4.089  16.132 -0.3084  0.1124 -0.2842
  685TMC3     H10135   3.935   4.090  15.899 -0.6047 -0.4797 -1.6064
  685TMC3    H110136   4.347   4.194  15.960  1.0909  0.1342 -2.9003
  685TMC3    H210137   4.209   4.047  15.587 -2.8525  0.6748 -1.3198
  685TMC3    C710138   4.403   4.021  15.791 -0.6805 -0.0964 -0.3982
  685TMC3    C810139   3.971   3.995  15.656 -0.2157 -0.0573  0.1320
  685TMC3    O110140   4.503   4.056  15.857 -0.3507  0.5174 -0.1165
  685TMC3    O210141   4.006   3.935  15.561 -0.1227  0.3336  0.6711
  686MPD2     C10142   0.482   4.226  15.622  0.0756  0.0732 -0.1706
  686MPD2    C110143   0.556   4.124  15.675  0.5992 -0.1620 -0.3208
  686MPD2    C210144   0.674   4.083  15.614 -0.2973  0.6014 -0.1703
  686MPD2    C310145   0.714   4.140  15.490  0.1657 -0.1118 -0.0744
  686MPD2    C410146   0.648   4.257  15.446 -0.3798 -0.0273  0.8328
  686MPD2    C510147   0.530   4.290  15.511 -0.6707  0.2511  0.2156
  686MPD2     H10148   0.740   4.003  15.645 -0.8739  0.2312  0.1076
  686MPD2    H110149   0.681   4.306  15.355 -1.3158  1.2360  1.1894
  686MPD2    H210150   0.380   4.243  15.653  0.1316 -0.5091  0.3323
  686MPD2    H310151   0.471   4.373  15.473  0.2313  0.2972 -1.1119
  686MPD2     N10152   0.816   4.090  15.402  0.1649 -0.1449 -0.8560
  686MPD2    H510153   0.857   4.160  15.340 -1.8888  1.6211 -0.1978
  686MPD2    N110154   0.497   4.065  15.792  0.0499  0.1212  0.0326
  686MPD2    H710155   0.417   4.116  15.830  0.3031  0.3676  0.2417
  687TMC3    C110156   0.809   3.857  15.468  1.1648 -0.7392  0.8440
  687TMC3    C210157   0.683   3.826  15.448  0.0399  0.0495  0.1866
  687TMC3    C310158   0.624   3.715  15.499  0.5148  0.5191 -0.0752
  687TMC3    C410159   0.887   3.762  15.534  0.1668  0.5707 -0.4497
  687TMC3    C510160   0.826   3.660  15.598 -0.1172 -0.2293  0.7375
  687TMC3    C610161   0.692   3.637  15.586  0.6885  0.1810  0.1051
  687TMC3     C10162   0.883   3.970  15.411 -0.0880 -0.3325  0.1585
  687TMC3     O10163   0.992   3.946  15.360  0.2840 -0.6382  0.1252
  687TMC3     H10164   0.631   3.885  15.373 -0.8005 -0.1977  0.5796
  687TMC3    H110165   0.994   3.776  15.534  0.5612 -2.4215 -3.5768
  687TMC3    H210166   0.648   3.549  15.632 -1.0499  0.5893 -0.7726
  687TMC3    C710167   0.914   3.569  15.674  0.0080  0.2272  0.1414
  687TMC3    C810168   0.479   3.707  15.509 -0.5594 -0.4489  0.4735
  687TMC3    O110169   1.035   3.596  15.673  0.2841 -0.0347 -0.2748
  687TMC3    O210170   0.433   3.599  15.553 -0.0796 -0.4754  0.5243
  688MPD2     C10171   4.321   3.023  17.178 -0.2420 -0.0533 -0.1467
  688MPD2    C110172   4.377   2.914  17.229  0.2555 -0.6924 -0.1723
  688MPD2    C210173   4.480   2.847  17.158 -0.0610  0.4509  0.0499
  688MPD2    C310174   4.508   2.892  17.028  0.7750 -0.7838  0.5337
  688MPD2    C410175   4.453   3.008  16.978  0.0552  0.6374  0.8230
  688MPD2    C510176   4.361   3.069  17.056 -0.0700 -0.1064  0.3969
  688MPD2     H10177   4.516   2.752  17.197 -1.2096 -1.0127 -2.4592
  688MPD2    H110178   4.481   3.033  16.876 -1.2198 -2.8084 -0.3784
  688MPD2    H210179   4.238   3.079  17.221 -0.2398 -1.2773  1.4513
  688MPD2    H310180   4.314   3.157  17.015 -0.5244 -0.1566  0.7938
  688MPD2     N10181   4.586   2.817  16.939 -0.3020 -0.1383 -0.8751
  688MPD2    H510182   4.594   2.855  16.845 -1.6385 -0.4967 -1.1451
  688MPD2    N110183   4.330   2.862  17.347  0.0419  1.1217 -0.0983
  688MPD2    H710184   4.367   2.773  17.378 -2.0165 -0.1269 -1.2244
  689TMC3    C110185   4.222   2.834  17.542  0.0167  0.2451 -0.4179
  689TMC3    C210186   4.211   2.904  17.657  0.1885  0.5690 -0.3865
  689TMC3    C310187   4.217   2.818   0.079 -0.3382  0.3904  0.0610
  689TMC3    C410188   4.226   2.697  17.524  0.3985  0.4091 -0.4408
  689TMC3    C510189   4.216   2.625  17.641 -0.2532  0.0751 -0.1416
  689TMC3    C610190   4.222   2.682   0.074  0.0956 -0.3422  0.5464
  689TMC3     C10191   4.247   2.923  17.433  0.2825  0.0196 -0.6069
  689TMC3     O10192   4.195   3.035  17.429  0.7624  0.0280 -0.4803
  689TMC3     H10193   4.220   3.012  17.646  1.1001  0.3968 -1.3049
  689TMC3    H110194   4.231   2.647  17.428  1.0088  2.0108 -1.2609
  689TMC3    H210195   4.220   2.615   0.159  1.3321  0.6536  1.3611
  689TMC3    C710196   4.246   2.482  17.627  0.0647 -0.0784 -0.5468
  689TMC3    C810197   4.281   2.867   0.197  0.0010  0.2335 -0.4702
  689TMC3    O110198   4.322   2.433   0.022  0.7189 -0.3051  0.6228
  689TMC3    O210199   4.292   2.785   0.287  0.0825  0.1123 -0.9663
  690MPD2     C10200   1.784   4.590  15.897  0.0617  0.6200 -0.1918
  690MPD2    C110201   1.730   4.533  15.783  0.0445 -0.3325  0.3310
  690MPD2    C210202   1.776   4.564  15.658 -0.5261  0.3387 -0.0927
  690MPD2    C310203   1.880   4.655  15.642 -0.2128 -0.1587 -0.4836
  690MPD2    C410204   1.939   4.707  15.755  0.6343 -0.1205  0.0908
  690MPD2    C510205   1.890   4.677  15.880 -0.1328  0.1712  0.0771
  690MPD2     H10206   1.719   4.538  15.570 -0.2331 -0.8774  0.0743
  690MPD2    H110207   2.019   0.058  15.751  0.3812  0.1731  0.3767
  690MPD2    H210208   1.755   4.571  16.000  0.3953  2.0004  0.1542
  690MPD2    H310209   1.933   0.005  15.966 -0.6711  1.5120 -0.4076
  690MPD2     N10210   1.920   4.691  15.511 -0.0876 -0.1891 -0.1054
  690MPD2    H510211   1.860   4.663  15.435  0.4709 -0.8330 -0.3080
  690MPD2    N110212   1.612   4.443  15.785  0.0904 -0.7200 -0.1230
  690MPD2    H710213   1.605   4.393  15.697  0.3835 -1.3628  0.2186
  691TMC3    C110214   1.476   4.284  15.878 -0.3620 -0.0356 -0.6174
  691TMC3    C210215   1.388   4.250  15.978  1.1145  0.4802  0.7373
  691TMC3    C310216   1.356   4.120  15.981  0.4026 -0.0700  0.4039
  691TMC3    C410217   1.526   4.194  15.786  0.8258  0.1461 -0.2364
  691TMC3    C510218   1.467   4.068  15.788 -0.7371 -0.4527  0.7363
  691TMC3    C610219   1.395   4.024  15.893 -0.7769  0.3521  0.4254
  691TMC3     C10220   1.543   4.411  15.894  0.5010 -0.4803 -0.2794
  691TMC3     O10221   1.541   4.459  16.009  0.2962 -0.3005  0.0351
  691TMC3     H10222   1.349   4.321  16.051 -1.4327  0.0923 -0.2582
  691TMC3    H110223   1.589   4.214  15.700 -0.4743  6.1513  0.1828
  691TMC3    H210224   1.354   3.925  15.908 -3.5406  1.7992  2.3825
  691TMC3    C710225   1.520   3.970  15.695  0.2226  0.1239 -0.2302
  691TMC3    C810226   1.231   4.084  16.054 -0.1713  0.0317  0.5414
  691TMC3    O110227   1.611   4.013  15.621 -0.0049 -0.2566 -0.0691
  691TMC3    O210228   1.187   3.969  16.051 -0.0706  0.3751  0.1047
  692TMC3    C110229   3.107   1.021  15.954  0.1395  0.4356 -0.1117
  692TMC3    C210230   3.226   1.062  16.010 -0.0836  0.2029  0.6317
  692TMC3    C310231   3.327   0.970  16.032 -0.1746 -0.1557  0.4587
  692TMC3    C410232   3.093   0.896  15.904 -0.1331  0.2332 -0.0685
  692TMC3    C510233   3.198   0.814  15.920 -0.2662 -0.0528  0.8421
  692TMC3    C610234   3.301   0.840  16.003 -0.1234  0.3744  0.1247
  692TMC3     C10235   2.988   1.101  15.983 -0.0566 -0.1908  0.2635
  692TMC3     O10236   2.993   1.182  16.073  0.4015 -0.3523 -0.0063
  692TMC3     H10237   3.228   1.157  16.062 -2.1249 -1.4950  3.8497
  692TMC3    H110238   3.006   0.866  15.847  0.3664 -0.4373 -0.4703
  692TMC3    H210239   3.381   0.768  16.019  0.5471  0.8845 -0.9541
  692TMC3    C710240   3.174   0.675  15.880 -0.0670 -0.1968  0.1293
  692TMC3    C810241   3.375   0.990  16.167 -0.3516 -0.1751 -0.1317
  692TMC3    O110242   3.098   0.656  15.787 -0.3218 -0.3266 -0.1495
  692TMC3    O210243   3.357   0.895  16.240  0.0946  0.0906  0.8206
  693MPD2     C10244   2.472   3.797  10.525  0.0435  0.3424  0.4910
  693MPD2    C110245   2.510   3.760  10.653  0.0318  0.1629  0.2638
  693MPD2    C210246   2.645   3.734  10.674 -0.5620  0.6732 -0.5060
  693MPD2    C310247   2.737   3.747  10.572  0.4266  0.5470 -0.4955
  693MPD2    C410248   2.700   3.806  10.454 -0.3986  0.0179  0.1362
  693MPD2    C510249   2.566   3.827  10.435 -0.7951 -0.6831 -0.3116
  693MPD2     H10250   2.672   3.683  10.766 -1.6631  0.6348 -0.2084
  693MPD2    H110251   2.764   3.838  10.373  1.9228 -1.5516  1.3418
  693MPD2    H210252   2.367   3.819  10.507 -0.4976 -3.9400 -1.4862
  693MPD2    H310253   2.534   3.872  10.342 -0.7010  1.0646  0.4893
  693MPD2     N10254   2.863   3.692  10.592  0.5007 -0.3328 -0.1970
  693MPD2    H510255   2.882   3.640  10.677  0.5859  0.3076  0.1801
  693MPD2    N110256   2.409   3.741  10.751 -0.0448 -0.1712 -0.4924
  693MPD2    H710257   2.312   3.751  10.724 -0.4326 -3.0839 -0.2220
  694TMC3    C110258   2.307   3.649  10.944 -0.3304 -0.8174 -0.5359
  694TMC3    C210259   2.218   3.575  10.867  0.1396  0.0416 -0.4838
  694TMC3    C310260   2.142   3.489  10.937 -0.6583 -0.0975  0.1652
  694TMC3    C410261   2.329   3.624  11.078 -0.0242 -0.6506  0.1437
  694TMC3    C510262   2.253   3.530  11.136 -0.2239  0.1141  0.3643
  694TMC3    C610263   2.154   3.463  11.077 -0.1604  0.8983 -0.2150
  694TMC3     C10264   2.428   3.699  10.879 -0.0631  0.2266  1.2071
  694TMC3     O10265   2.535   3.692  10.943  0.3100  0.0087  0.0913
  694TMC3     H10266   2.211   3.606  10.764  0.5542  1.4550 -0.0838
  694TMC3    H110267   2.412   3.675  11.124  1.0024 -3.9776  1.9805
  694TMC3    H210268   2.083   3.398  11.127  0.3324  0.3049 -0.2809
  694TMC3    C710269   2.271   3.519  11.282 -0.0943  0.0778  0.7153
  694TMC3    C810270   2.039   3.405  10.868 -0.3726 -0.3629 -0.6154
  694TMC3    O110271   2.331   3.607  11.338 -0.0172  0.0060 -0.5052
  694TMC3    O210272   1.983   3.312  10.931 -0.2105  0.6478  0.1079
  695MPD2     C10273   3.780   0.750  13.552  0.4459 -0.6306  0.1459
  695MPD2    C110274   3.715   0.770  13.674 -0.2778  0.4176  0.6488
  695MPD2    C210275   3.582   0.813  13.675 -0.2541 -0.1872 -0.0475
  695MPD2    C310276   3.520   0.839  13.558 -0.1592  0.0321 -0.0027
  695MPD2    C410277   3.579   0.819  13.435 -0.1185  0.5173 -0.7680
  695MPD2    C510278   3.704   0.770  13.433 -0.6759  0.0608  0.4016
  695MPD2     H10279   3.530   0.834  13.768  1.1182 -0.7769  0.8570
  695MPD2    H110280   3.527   0.830  13.340 -4.2626  1.6525  1.6440
  695MPD2    H210281   3.883   0.720  13.539  0.3831 -0.6743 -0.2364
  695MPD2    H310282   3.764   0.759  13.343  1.0327  0.4905  1.4860
  695MPD2     N10283   3.383   0.887  13.572  0.1738 -0.2596  0.6256
  695MPD2    H510284   3.346   0.890  13.667 -2.4063  0.2844 -0.3949
  695MPD2    N110285   3.773   0.753  13.798  0.2705 -0.6550  0.2759
  695MPD2    H710286   3.719   0.764  13.883  2.7705 -2.1854  2.0639
  696TMC3    C110287   3.183   1.008  13.499 -0.1265 -0.1613 -0.2542
  696TMC3    C210288   3.109   0.952  13.605  0.0048  0.2266 -0.9438
  696TMC3    C310289   2.986   1.015  13.636 -0.8771  0.3820  0.8888
  696TMC3    C410290   3.142   1.124  13.439  0.0495 -0.3230 -0.8148
  696TMC3    C510291   3.023   1.178  13.482  0.4176  0.1775  0.0784
  696TMC3    C610292   2.943   1.124  13.570 -1.0527 -0.0189 -0.7736
  696TMC3     C10293   3.318   0.958  13.467 -0.0866 -0.0064 -0.6913
  696TMC3     O10294   3.363   1.024  13.371 -0.1303 -0.2460  0.7456
  696TMC3     H10295   3.140   0.869  13.668 -1.8045 -0.0354 -0.4105
  696TMC3    H110296   3.208   1.193  13.389  1.2795  1.6855  3.6231
  696TMC3    H210297   2.842   1.162  13.588 -0.5619 -0.2454  2.4912
  696TMC3    C710298   3.013   1.319  13.486 -0.7412 -1.0171  0.0627
  696TMC3    C810299   2.960   1.028  13.777 -0.6768 -0.2632  0.0529
  696TMC3    O110300   3.068   1.384  13.396 -0.0293 -0.2449  0.1573
  696TMC3    O210301   2.906   1.137  13.802 -0.0768 -0.0734 -0.3021
  697MPD2     C10302   3.245   2.709  15.648  0.5869  0.1003  0.5553
  697MPD2    C110303   3.210   2.628  15.548  0.3189  0.2574  0.4388
  697MPD2    C210304   3.229   2.666  15.415  0.4359  0.1621  0.0461
  697MPD2    C310305   3.255   2.796  15.379 -0.4081  1.2104 -0.3156
  697MPD2    C410306   3.275   2.884  15.486 -0.0773 -0.0006 -0.7692
  697MPD2    C510307   3.278   2.836  15.615  0.3673  0.1414 -0.5976
  697MPD2     H10308   3.228   2.590  15.337  1.0611  0.5099 -0.3079
  697MPD2    H110309   3.289   2.991  15.480  0.5458 -0.0054  0.6200
  697MPD2    H210310   3.240   2.685  15.754  1.7540 -0.7827  0.4097
  697MPD2    H310311   3.290   2.896  15.705 -0.1380  3.0689 -2.5060
  697MPD2     N10312   3.256   2.836  15.242  0.2355  0.3904 -0.2128
  697MPD2    H510313   3.226   2.765  15.176 -1.7758  0.5551  0.5275
  697MPD2    N110314   3.167   2.496  15.581 -0.4980 -0.1685  0.4097
  697MPD2    H710315   3.144   2.442  15.499 -0.4958  0.3571  0.0585
  698TMC3    C110316   3.267   2.988  15.056  0.1266 -0.6844  0.3631
  698TMC3    C210317   3.348   3.087  15.001 -0.0698  0.5875  0.5177
  698TMC3    C310318   3.316   3.129  14.880  0.0720 -0.3303  0.3880
  698TMC3    C410319   3.169   2.927  14.985 -0.2621 -0.1027  0.0340
  698TMC3    C510320   3.155   2.960  14.851 -0.1390  0.2271  0.4846
  698TMC3    C610321   3.224   3.064  14.798 -0.2276 -0.3639 -0.3437
  698TMC3     C10322   3.297   2.960  15.197 -0.0163 -0.0044 -0.5234
  698TMC3     O10323   3.333   3.052  15.267 -0.8390 -0.9145 -0.2095
  698TMC3     H10324   3.414   3.146  15.064  0.9520  0.6363 -0.5934
  698TMC3    H110325   3.100   2.858  15.031  0.9492  0.1553  2.2457
  698TMC3    H210326   3.190   3.103  14.703 -1.3548  1.5725  0.8577
  698TMC3    C710327   3.061   2.897  14.757 -0.8414 -0.1022 -0.1184
  698TMC3    C810328   3.332   3.272  14.853 -0.2758 -0.0898 -0.2286
  698TMC3    O110329   3.038   2.953  14.648  0.0099 -0.2430  0.2655
  698TMC3    O210330   3.236   3.324  14.795  0.7734 -0.2383 -0.0519
  699TMC3    C110331   3.047   1.099  12.974 -0.1752  0.3832 -0.2163
  699TMC3    C210332   3.086   0.967  13.009  0.0154 -0.2265 -0.2280
  699TMC3    C310333   3.027   0.913  13.116 -0.1297 -1.2402  0.5830
  699TMC3    C410334   2.950   1.167  13.050  0.2877  0.1456  0.6232
  699TMC3    C510335   2.888   1.099  13.151 -0.3911  0.4345  0.1456
  699TMC3    C610336   2.923   0.974  13.186  0.0830  0.6771  0.1683
  699TMC3     C10337   3.092   1.164  12.851 -0.1403 -0.3431 -0.0763
  699TMC3     O10338   3.018   1.243  12.794 -0.4309  0.4049 -0.0859
  699TMC3     H10339   3.159   0.914  12.949 -2.0873 -2.5526 -0.6935
  699TMC3    H110340   2.918   1.264  13.014 -0.0044 -0.4355 -0.6921
  699TMC3    H210341   2.868   0.931  13.269 -0.6113 -0.0884 -0.6900
  699TMC3    C710342   2.785   1.167  13.225  0.0101  0.7019 -0.2165
  699TMC3    C810343   3.074   0.783  13.168  0.7690  0.6499 -0.1242
  699TMC3    O110344   2.711   1.101  13.299  0.0129 -0.0325  0.8571
  699TMC3    O210345   2.995   0.724  13.245  0.8755 -0.6251 -0.1669
  700TMC3    C110346   2.124   3.403  17.415 -1.0481 -0.6276  0.2246
  700TMC3    C210347   2.144   3.272  17.437  0.1253  0.3383 -0.0154
  700TMC3    C310348   2.224   3.234  17.540 -0.2732 -0.0135 -0.2631
  700TMC3    C410349   2.191   3.500  17.494 -0.1808 -0.1916 -0.1449
  700TMC3    C510350   2.279   3.456  17.592  0.0330 -0.3365 -0.3458
  700TMC3    C610351   2.299   3.320  17.619  0.8711  0.1026 -0.2012
  700TMC3     C10352   2.105   3.428  17.274  0.4485  0.0165 -0.4641
  700TMC3     O10353   2.027   3.353  17.222  0.4287 -0.4526  0.2934
  700TMC3     H10354   2.088   3.207  17.370 -0.3804 -0.6577  1.3677
  700TMC3    H110355   2.184   3.607  17.477 -3.3708 -0.3584  0.0641
  700TMC3    H210356   2.370   3.285   0.006 -0.8976 -2.1198  0.4358
  700TMC3    C710357   2.325   3.552   0.004 -0.0799 -0.5806 -0.3180
  700TMC3    C810358   2.286   3.102  17.531 -0.0378  0.8893  0.0719
  700TMC3    O110359   2.439   3.535   0.049  0.3481  0.5971  0.6750
  700TMC3    O210360   2.405   3.098  17.546 -0.6688 -0.1447 -0.0519
  701TMC3    C110361   2.337   2.080  15.863  0.0533 -0.5611  0.3885
  701TMC3    C210362   2.305   2.008  15.753  0.4567 -0.1011 -0.4832
  701TMC3    C310363   2.376   2.017  15.633 -0.1742 -0.1065 -0.3664
  701TMC3    C410364   2.436   2.170  15.855  0.0429 -0.0298 -0.0991
  701TMC3    C510365   2.506   2.180  15.740  0.2602  0.4487  0.0480
  701TMC3    C610366   2.484   2.107  15.629 -0.5648 -0.0178  0.6136
  701TMC3     C10367   2.269   2.074  15.987 -0.8998 -0.5160  0.1191
  701TMC3     O10368   2.298   2.170  16.060 -0.2242 -0.0865 -0.1040
  701TMC3     H10369   2.223   1.938  15.763  0.1684  0.2382 -0.4648
  701TMC3    H110370   2.455   2.245  15.931 -1.6159  2.0091 -1.7300
  701TMC3    H210371   2.535   2.113  15.533 -1.0643 -0.0486  0.3498
  701TMC3    C710372   2.608   2.291  15.726 -0.4670 -0.2299  0.1371
  701TMC3    C810373   2.336   1.944  15.514 -0.2367  0.5509 -0.1053
  701TMC3    O110374   2.665   2.285  15.613 -0.2001  0.7650 -0.2806
  701TMC3    O210375   2.429   1.926  15.431  0.0910  0.0350  0.1707
  702MPD2     C10376   1.635   4.001  10.748  0.4708  0.3840 -0.0411
  702MPD2    C110377   1.530   4.087  10.768 -0.2616  0.8966 -0.0209
  702MPD2    C210378   1.509   4.193  10.682  0.1724 -0.3592  0.7180
  702MPD2    C310379   1.602   4.206  10.574 -0.5791 -0.0887 -0.7898
  702MPD2    C410380   1.707   4.125  10.557  0.2647  0.1834  0.5931
  702MPD2    C510381   1.726   4.024  10.649  0.4197 -0.5044 -0.1759
  702MPD2     H10382   1.426   4.262  10.697  0.1066 -0.1675 -0.5256
  702MPD2    H110383   1.787   4.138  10.485  0.1929  1.2628  0.7177
  702MPD2    H210384   1.653   3.909  10.803 -0.8038 -0.0989 -0.4320
  702MPD2    H310385   1.802   3.949  10.630 -0.1230 -0.9846 -0.4521
  702MPD2     N10386   1.590   4.323  10.487 -0.4103 -0.3839 -0.7600
  702MPD2    H510387   1.671   4.360  10.439 -1.5086  1.9311 -0.8465
  702MPD2    N110388   1.451   4.063  10.877 -0.1591  0.1620 -0.2518
  702MPD2    H710389   1.373   4.127  10.890  1.2267  1.6100  0.8803
  703TMC3    C110390   1.487   4.520  10.390  0.3625 -0.0758 -0.4464
  703TMC3    C210391   1.378   4.584  10.344  0.1891  0.2686  0.5762
  703TMC3    C310392   1.385   4.690  10.260 -0.2776  1.2590 -0.1189
  703TMC3    C410393   1.612   4.579  10.361 -0.2211 -0.3137  0.1518
  703TMC3    C510394   1.616   4.691  10.287 -0.3077  0.2611 -0.2016
  703TMC3    C610395   1.509   0.027  10.220 -0.0854 -0.0815 -0.1941
  703TMC3     C10396   1.468   4.391  10.455  0.0358  0.0278  0.1461
  703TMC3     O10397   1.355   4.363  10.493  0.3213  0.8980 -0.4775
  703TMC3     H10398   1.285   4.537  10.373  0.8374 -2.5577 -1.9567
  703TMC3    H110399   1.698   4.531  10.405  1.7617  0.4661 -2.8359
  703TMC3    H210400   1.498   0.125  10.175 -1.4455  0.3031  0.9671
  703TMC3    C710401   1.743   0.039  10.274  0.0229 -0.6077  0.6915
  703TMC3    C810402   1.260   0.042  10.237 -0.9364 -0.3411 -0.4087
  703TMC3    O110403   1.766   0.086  10.164 -0.0991 -0.2807  0.1242
  703TMC3    O210404   1.254   0.101  10.132  0.1039  0.3612  0.3722
  704TMC3    C110405   3.991   2.701  12.626  0.5785  0.1181  0.0080
  704TMC3    C210406   4.113   2.754  12.581 -0.5042  0.3130  0.4683
  704TMC3    C310407   4.219   2.671  12.587 -0.1065 -0.4640  0.2851
  704TMC3    C410408   3.978   2.573  12.680  0.2501 -0.0779  1.2506
  704TMC3    C510409   4.091   2.494  12.686 -0.2772  0.7043  0.3813
  704TMC3    C610410   4.215   2.552  12.651  0.4623 -0.8596 -0.6474
  704TMC3     C10411   3.878   2.751  12.556 -0.1495  0.3135 -0.0341
  704TMC3     O10412   3.764   2.736  12.597  0.1590 -0.6181  0.4515
  704TMC3     H10413   4.113   2.852  12.533 -3.0182 -0.6095 -1.4397
  704TMC3    H110414   3.892   2.545  12.738 -1.6290  1.5851 -0.7178
  704TMC3    H210415   4.300   2.487  12.634  0.4910 -1.0660  0.2819
  704TMC3    C710416   4.084   2.361  12.620  0.6390 -0.1532 -0.4357
  704TMC3    C810417   4.337   2.723  12.512  0.9689  0.4600 -0.5798
  704TMC3    O110418   4.177   2.277  12.626 -0.2455 -0.9615 -0.0544
  704TMC3    O210419   4.315   2.750  12.397 -0.5690 -0.0381 -0.7953
  705MPD2     C10420   3.707   0.746  16.873  0.6219  0.7018 -0.2557
  705MPD2    C110421   3.607   0.739  16.779 -0.4955 -0.4106 -0.5080
  705MPD2    C210422   3.471   0.761  16.818  0.6402  0.3981 -0.2777
  705MPD2    C310423   3.446   0.784  16.951  0.1236 -0.4790  0.6273
  705MPD2    C410424   3.542   0.782  17.042 -0.4291 -0.4582  0.2327
  705MPD2    C510425   3.669   0.753  17.005  0.0845 -1.1148  0.4440
  705MPD2     H10426   3.392   0.758  16.744  0.5841  0.4657 -0.2203
  705MPD2    H110427   3.513   0.794  17.146 -1.0636  0.0232 -0.0016
  705MPD2    H210428   3.812   0.733  16.851  0.4694  0.5096 -0.8699
  705MPD2    H310429   3.740   0.748  17.087 -0.5305  3.1205  1.2448
  705MPD2     N10430   3.316   0.823  16.995 -0.5152  0.4241 -0.7770
  705MPD2    H510431   3.304   0.848  17.092 -1.4024  2.8858 -1.5275
  705MPD2    N110432   3.636   0.720  16.644 -0.1710 -0.8054  0.2611
  705MPD2    H710433   3.558   0.721  16.578  1.7399 -1.2025 -2.0113
  706TMC3    C110434   3.931   0.592  16.284  0.1569 -0.3211 -0.6059
  706TMC3    C210435   3.901   0.694  16.197 -0.1316  0.4165 -0.6175
  706TMC3    C310436   3.819   0.788  16.254 -0.1613 -0.1772  0.2272
  706TMC3    C410437   3.865   0.564  16.403 -0.0171  0.3684  0.3733
  706TMC3    C510438   3.780   0.666  16.450 -0.1691 -0.3941 -0.0572
  706TMC3    C610439   3.762   0.781  16.376  0.3184  0.2664 -0.3178
  706TMC3     C10440   4.029   0.489  16.245 -0.5293 -0.2725  0.6212
  706TMC3     O10441   4.112   0.454  16.327 -0.6481 -0.0571  0.3023
  706TMC3     H10442   3.939   0.699  16.095  0.2402  1.7621 -0.4089
  706TMC3    H110443   3.902   0.479  16.459 -2.1873 -0.2592  0.8583
  706TMC3    H210444   3.692   0.858  16.408 -2.1090 -1.5766 -1.2423
  706TMC3    C710445   3.757   0.669  16.598 -0.3018  0.4123 -0.0332
  706TMC3    C810446   3.811   0.907  16.177  1.6181 -0.4980 -0.5820
  706TMC3    O110447   3.837   0.601  16.659 -0.3953 -0.1455  0.3311
  706TMC3    O210448   3.808   0.895  16.057  0.8195 -0.2052  0.2662
  707TMC3    C110449   1.791   4.370   1.891 -0.3641  0.3878  0.4025
  707TMC3    C210450   1.922   4.329   1.870  0.2256 -0.1235 -0.5067
  707TMC3    C310451   2.022   4.378   1.954 -0.3519 -0.0564 -0.7287
  707TMC3    C410452   1.764   4.448   2.000 -0.8645 -0.0755  0.0855
  707TMC3    C510453   1.862   4.503   2.071  0.1901 -0.0845 -0.0950
  707TMC3    C610454   1.992   4.484   2.035  0.6563 -0.2844 -0.3855
  707TMC3     C10455   1.698   4.331   1.791 -0.2014 -0.0406  0.7208
  707TMC3     O10456   1.711   4.217   1.740  0.0312  0.1566  0.3942
  707TMC3     H10457   1.934   4.257   1.789  2.8589 -0.7589  0.4193
  707TMC3    H110458   1.669   4.497   2.016  0.2384  2.6268 -1.8114
  707TMC3    H210459   2.070   4.529   2.096  0.2014 -1.8747  1.3575
  707TMC3    C710460   1.839   4.557   2.204 -0.9251  0.2152 -0.3211
  707TMC3    C810461   2.161   4.346   1.928  0.1770  0.0444 -0.4384
  707TMC3    O110462   1.928   4.595   2.281 -0.0657  0.5428  0.1208
  707TMC3    O210463   2.238   4.413   1.997  0.1030 -0.5127  0.7538
  708MPD2     C10464   1.673   3.744  13.049 -0.3464  0.3516 -0.2122
  708MPD2    C110465   1.687   3.651  13.153  0.3668  0.4208 -0.3879
  708MPD2    C210466   1.792   3.667  13.242  0.3941 -0.0305  0.3875
  708MPD2    C310467   1.879   3.778  13.235  0.4012  0.1810  0.1058
  708MPD2    C410468   1.854   3.868  13.138  0.3263 -0.2256 -0.3203
  708MPD2    C510469   1.751   3.850  13.046 -0.0368  0.2310  0.3713
  708MPD2     H10470   1.816   3.595  13.320  2.6576  0.7899  0.4576
  708MPD2    H110471   1.924   3.949  13.122  1.6451 -1.3803 -0.4998
  708MPD2    H210472   1.586   3.731  12.985  0.5799  0.3440 -1.4638
  708MPD2    H310473   1.737   3.922  12.965  0.5068  0.1665  0.2196
  708MPD2     N10474   1.990   3.798  13.325 -0.0711  0.1837  0.7462
  708MPD2    H510475   2.023   3.894  13.331 -0.7499  0.4878 -0.3652
  708MPD2    N110476   1.594   3.539  13.155 -0.1116 -0.4007  0.5095
  708MPD2    H710477   1.528   3.540  13.077  0.2335  0.6277  0.2221
  709TMC3    C110478   1.504   3.337  13.242 -0.7343  0.6449 -0.3992
  709TMC3    C210479   1.371   3.385  13.245 -0.9237  0.0753 -0.0794
  709TMC3    C310480   1.293   3.349  13.356  0.0274  0.9373  0.6163
  709TMC3    C410481   1.538   3.234  13.326 -0.0036  0.3178 -0.4917
  709TMC3    C510482   1.458   3.188  13.429  0.0530  0.0697 -0.0054
  709TMC3    C610483   1.342   3.255  13.447  0.0605 -0.6280 -0.2778
  709TMC3     C10484   1.612   3.431  13.239 -0.2031  0.0858 -0.6012
  709TMC3     O10485   1.694   3.400  13.328  0.2687  0.2042 -0.4430
  709TMC3     H10486   1.348   3.462  13.172 -2.5438  2.0965  2.5851
  709TMC3    H110487   1.636   3.189  13.318 -0.5585 -1.2707  1.5437
  709TMC3    H210488   1.283   3.249  13.538 -0.4337 -0.0831 -0.5666
  709TMC3    C710489   1.531   3.182  13.551 -0.4147  0.2113  0.1621
  709TMC3    C810490   1.178   3.436  13.395  1.0222  0.6795  0.0376
  709TMC3    O110491   1.481   3.102  13.629  0.4812  0.2024 -0.2841
  709TMC3    O210492   1.133   3.430  13.509 -0.2779 -0.4358  0.5475
  710TMC3    C110493   2.959   0.350   0.777  0.1474  0.0254 -0.3266
  710TMC3    C210494   3.020   0.408   0.664  0.0334 -0.3703 -0.0555
  710TMC3    C310495   3.136   0.353   0.611 -0.2011  0.2525 -0.1809
  710TMC3    C410496   3.009   0.233   0.832  0.3349  0.4411 -0.1108
  710TMC3    C510497   3.116   0.176   0.769 -0.4097  0.0460  0.4826
  710TMC3    C610498   3.182   0.234   0.658  0.3999 -0.9350 -0.2424
  710TMC3     C10499   2.863   0.437   0.850  0.2983  0.1618  0.0389
  710TMC3     O10500   2.819   0.536   0.790 -0.5855  0.0386  0.8288
  710TMC3     H10501   2.962   0.486   0.617  0.2560 -0.4369 -0.4368
  710TMC3    H110502   2.957   0.198   0.920 -0.0938 -1.3519 -1.0684
  710TMC3    H210503   3.279   0.201   0.622  1.1185  0.7999  0.0895
  710TMC3    C710504   3.175   0.068   0.842 -0.3456 -0.2423  0.2060
  710TMC3    C810505   3.224   0.430   0.535  0.6393 -0.1284  0.1828
  710TMC3    O110506   3.127   0.036   0.954 -0.3055  0.0502  0.2829
  710TMC3    O210507   3.310   0.373   0.469 -0.1007  0.0219 -0.3669
  711TMC3    C110508   2.446   1.473  15.206  0.2584 -0.3313  0.5293
  711TMC3    C210509   2.470   1.569  15.302 -0.1321  0.3988  0.0968
  711TMC3    C310510   2.598   1.602  15.326 -0.7346  0.8677 -0.0308
  711TMC3    C410511   2.545   1.410  15.141 -0.3208 -0.0135  0.5690
  711TMC3    C510512   2.676   1.442  15.157 -0.1736 -0.4225 -0.0506
  711TMC3    C610513   2.701   1.545  15.242 -0.4231  0.5635  0.0639
  711TMC3     C10514   2.303   1.430  15.188  0.5102  0.2618  0.9444
  711TMC3     O10515   2.281   1.375  15.078  0.3699  0.2309 -0.2531
  711TMC3     H10516   2.391   1.629  15.345  0.3770  1.7606 -0.8383
  711TMC3    H110517   2.513   1.335  15.070  0.8654 -0.3825  0.4205
  711TMC3    H210518   2.804   1.574  15.260 -0.3175  0.0912  0.2278
  711TMC3    C710519   2.773   1.331  15.148 -0.1520  0.4157  0.2492
  711TMC3    C810520   2.619   1.600  15.467 -0.3280  0.7867  0.7222
  711TMC3    O110521   2.875   1.325  15.216 -0.4157 -0.2448  0.6058
  711TMC3    O210522   2.541   1.528  15.530  0.6090  0.0277  0.0194
  712MPD2     C10523   4.074   2.758  14.214  0.2016  0.3556  0.2342
  712MPD2    C110524   4.104   2.698  14.098 -0.1464 -0.4331  0.5586
  712MPD2    C210525   4.129   2.777  13.982 -0.1820  0.2214 -0.1731
  712MPD2    C310526   4.119   2.918  13.982  0.4920 -0.5457 -0.0908
  712MPD2    C410527   4.107   2.973  14.112  0.2546 -0.7519  0.5385
  712MPD2    C510528   4.085   2.894  14.226  0.7346  0.1919 -0.2458
  712MPD2     H10529   4.152   2.717  13.895 -2.4872 -2.0066  0.7584
  712MPD2    H110530   4.100   3.081  14.121  3.1598 -0.2565 -2.8089
  712MPD2    H210531   4.057   2.704  14.306 -1.9243 -0.3027 -0.5656
  712MPD2    H310532   4.057   2.937  14.321  1.6019 -0.8629  0.4854
  712MPD2     N10533   4.135   2.994  13.868  0.3567  0.0185 -0.2408
  712MPD2    H510534   4.137   3.095  13.880 -2.5867 -0.0992  1.0716
  712MPD2    N110535   4.088   2.559  14.078 -0.3614  0.3581  0.1795
  712MPD2    H710536   4.084   2.541  13.978 -1.1724 -2.8764  0.8239
  713TMC3    C110537   4.208   3.069  13.656 -0.7303  0.0037  0.4687
  713TMC3    C210538   4.341   3.084  13.619  0.6688  0.2690  0.0669
  713TMC3    C310539   4.360   3.199  13.554 -0.9701  0.1175 -0.1528
  713TMC3    C410540   4.102   3.152  13.634  0.3411  0.0649  0.3032
  713TMC3    C510541   4.124   3.263  13.561 -0.8501  0.6179  0.6492
  713TMC3    C610542   4.258   3.285  13.519  0.0725  0.2931 -0.3318
  713TMC3     C10543   4.192   2.952  13.751 -0.1144  0.1872 -0.4024
  713TMC3     O10544   4.235   2.839  13.727  0.4453 -0.4161 -0.1719
  713TMC3     H10545   4.415   3.012  13.654  0.8477  0.1136 -0.6370
  713TMC3    H110546   4.001   3.132  13.666  0.2016 -1.1677 -0.9308
  713TMC3    H210547   4.281   3.377  13.467 -2.6173  0.7254 -0.8010
  713TMC3    C710548   4.011   3.345  13.525 -0.4770  0.5227 -0.3236
  713TMC3    C810549   4.495   3.243  13.528  0.0383  0.3122 -0.6608
  713TMC3    O110550   3.900   3.298  13.549 -0.9186 -0.4010  0.2842
  713TMC3    O210551   4.510   3.361  13.495  0.1851  0.1066  0.3918
  714MPD2     C10552   1.415   1.919   1.227 -0.3311  0.4507  0.7507
  714MPD2    C110553   1.413   1.795   1.282 -0.5652 -0.3972  0.1545
  714MPD2    C210554   1.314   1.704   1.249  0.0710  0.1491  0.1065
  714MPD2    C310555   1.206   1.751   1.175 -0.2455 -0.3736 -0.3806
  714MPD2    C410556   1.200   1.880   1.121  0.0225 -0.1328 -0.5559
  714MPD2    C510557   1.302   1.967   1.156  0.1108 -0.4829  0.0790
  714MPD2     H10558   1.318   1.602   1.286  1.6926  0.2637  0.2502
  714MPD2    H110559   1.122   1.926   1.062  1.1462  2.2464 -0.1816
  714MPD2    H210560   1.490   1.995   1.245 -2.5502  2.1314  2.8827
  714MPD2    H310561   1.293   2.073   1.134  2.8307  0.0046  1.3730
  714MPD2     N10562   1.099   1.657   1.155  0.0844  0.0881  0.4445
  714MPD2    H510563   1.115   1.569   1.204  1.2072  1.7083  2.9900
  714MPD2    N110564   1.528   1.756   1.347  0.2888  0.0024  0.7273
  714MPD2    H710565   1.599   1.829   1.346  1.4713 -1.1562  0.7769
  715TMC3    C110566   1.688   1.623   1.463  0.2135 -0.8049  1.0077
  715TMC3    C210567   1.707   1.512   1.538  0.5382 -0.5292  0.1337
  715TMC3    C310568   1.830   1.495   1.598 -0.1639  0.6156 -0.3811
  715TMC3    C410569   1.782   1.725   1.456  0.3021 -0.1518  0.0657
  715TMC3    C510570   1.905   1.701   1.513  0.0958 -0.4212 -0.5822
  715TMC3    C610571   1.929   1.590   1.591 -0.1067 -0.5520  0.2233
  715TMC3     C10572   1.562   1.635   1.399 -1.2144 -0.7671 -0.1947
  715TMC3     O10573   1.490   1.542   1.416 -0.2607  0.2391 -0.3339
  715TMC3     H10574   1.626   1.443   1.562 -0.5877  0.5203 -0.7088
  715TMC3    H110575   1.774   1.796   1.374  3.7394 -0.5802 -0.6213
  715TMC3    H210576   2.030   1.576   1.627 -0.7112 -0.6812  1.8304
  715TMC3    C710577   2.018   1.794   1.507 -0.7901 -0.5460 -0.5133
  715TMC3    C810578   1.864   1.356   1.629  0.1201  0.2305  0.3234
  715TMC3    O110579   2.111   1.774   1.585 -0.1300 -0.1104 -0.2772
  715TMC3    O210580   1.789   1.269   1.598 -0.1879  0.0887  0.1169
  716MPD2     C10581   1.433   4.085  10.097 -0.1710  0.2163  0.2107
  716MPD2    C110582   1.405   3.996   9.992  0.4088  0.4916  0.1039
  716MPD2    C210583   1.502   3.903   9.962 -0.4547 -0.4285  0.2158
  716MPD2    C310584   1.625   3.892  10.033 -0.5290  0.8167  0.1477
  716MPD2    C410585   1.639   3.972  10.147 -0.3875 -0.3544  0.1933
  716MPD2    C510586   1.546   4.070  10.174 -0.0764  0.5649  0.0213
  716MPD2     H10587   1.496   3.838   9.876  1.3290 -1.3499  0.7727
  716MPD2    H110588   1.717   3.970  10.222  1.6039 -1.1223 -1.8766
  716MPD2    H210589   1.369   4.169  10.122 -0.4914 -0.3590  1.2952
  716MPD2    H310590   1.570   4.142  10.252  0.0596  1.7714 -1.1289
  716MPD2     N10591   1.709   3.789   9.997 -0.5870 -0.5477  0.2556
  716MPD2    H510592   1.687   3.735   9.914 -1.5116 -2.1635  1.5437
  716MPD2    N110593   1.292   4.014   9.911  0.4606 -0.2237  1.2073
  716MPD2    H710594   1.246   4.104   9.921  1.7992  0.5392  0.4706
  717TMC3    C110595   1.886   3.638  10.010 -0.4343 -0.5415  0.0454
  717TMC3    C210596   1.859   3.598   9.889 -0.6038 -0.1467 -0.1930
  717TMC3    C310597   1.914   3.480   9.840  0.1302 -0.1525  0.2171
  717TMC3    C410598   1.974   3.569  10.084  0.2892 -1.5241  0.4374
  717TMC3    C510599   2.042   3.461  10.036 -0.0858  0.2269 -0.1003
  717TMC3    C610600   2.002   3.413   9.915  0.0546 -0.6439  0.2734
  717TMC3     C10601   1.821   3.751  10.067  0.3369  0.3831 -0.4842
  717TMC3     O10602   1.854   3.792  10.177 -0.0966 -0.1481 -0.1189
  717TMC3     H10603   1.807   3.661   9.817  0.8673  0.5000 -0.6822
  717TMC3    H110604   2.002   3.605  10.183  0.0294 -1.5019  0.5024
  717TMC3    H210605   2.034   3.312   9.890  1.0867 -0.0107 -0.9428
  717TMC3    C710606   2.115   3.376  10.136  0.3777  0.0591  0.5859
  717TMC3    C810607   1.856   3.428   9.719 -0.2579 -0.3059 -0.2447
  717TMC3    O110608   2.113   3.256  10.124  0.7540 -0.4040  0.2804
  717TMC3    O210609   1.757   3.480   9.670 -0.1565 -0.0919  0.3455
  718MPD2     C10610   0.935   2.169  13.019 -0.8357 -0.1873 -0.4777
  718MPD2    C110611   0.896   2.146  12.891  0.4286  0.0570 -0.1848
  718MPD2    C210612   0.764   2.108  12.875  1.1464 -0.0839  0.1298
  718MPD2    C310613   0.673   2.088  12.980 -0.3213  0.1513  0.1146
  718MPD2    C410614   0.729   2.095  13.108 -0.0508 -0.4238  0.5132
  718MPD2    C510615   0.859   2.133  13.122 -0.0508  0.4842  0.6129
  718MPD2     H10616   0.726   2.087  12.776  2.7658  2.9539 -1.1453
  718MPD2    H110617   0.678   2.051  13.193  1.1015 -2.7361  0.0010
  718MPD2    H210618   1.040   2.187  13.041 -0.8177 -0.9466  0.0205
  718MPD2    H310619   0.903   2.118  13.220  0.6691 -1.5711 -0.0423
  718MPD2     N10620   0.537   2.056  12.942  0.7313 -0.4545 -0.2497
  718MPD2    H510621   0.517   2.051  12.843  0.5347 -1.0186 -0.1827
  718MPD2    N110622   0.971   2.182  12.778 -0.3737 -0.1313 -0.1309
  718MPD2    H710623   1.039   2.256  12.796 -1.3638  0.8227 -0.3067
  719TMC3    C110624   1.016   2.205  12.546  0.0830  0.4549 -0.0718
  719TMC3    C210625   0.936   2.216  12.437  0.2032  0.2716  1.0949
  719TMC3    C310626   0.947   2.317  12.349 -0.3648  0.0462 -0.0372
  719TMC3    C410627   1.111   2.295  12.572  0.0676  0.2461 -0.8193
  719TMC3    C510628   1.128   2.395  12.473 -0.3217 -0.7602 -0.0222
  719TMC3    C610629   1.048   2.405  12.361  0.1474 -0.1073  0.0526
  719TMC3     C10630   0.946   2.138  12.651  0.0421 -0.1779  0.3028
  719TMC3     O10631   0.870   2.047  12.618  0.2842 -0.0183  0.0613
  719TMC3     H10632   0.862   2.141  12.409 -0.3427  1.2330  0.0004
  719TMC3    H110633   1.186   2.274  12.647 -3.0364 -2.0258  1.6582
  719TMC3    H210634   1.069   2.483  12.289 -1.6024 -0.8853 -1.2618
  719TMC3    C710635   1.245   2.475  12.475 -0.4089  0.3400  0.1132
  719TMC3    C810636   0.825   2.360  12.290 -0.2521 -0.1034  0.4298
  719TMC3    O110637   1.268   2.530  12.365 -0.3690 -0.3349  0.3306
  719TMC3    O210638   0.823   2.394  12.171  0.3389  0.0950 -0.0043
  720MPD2     C10639   4.084   4.278  13.885 -0.4413 -0.1358  0.0000
  720MPD2    C110640   4.151   4.391  13.831  0.0476  0.0174  0.4233
  720MPD2    C210641   4.246   4.454  13.909  0.0764 -0.1304  0.0465
  720MPD2    C310642   4.303   4.389  14.020  0.3237  0.4927 -0.0728
  720MPD2    C410643   4.234   4.277  14.070  0.7297 -0.1059 -0.2911
  720MPD2    C510644   4.131   4.223  14.006 -0.1204 -0.5494 -0.4294
  720MPD2     H10645   4.291   4.541  13.863  0.2563  0.4877  1.3956
  720MPD2    H110646   4.267   4.231  14.163 -0.7243  0.8336  0.6799
  720MPD2    H210647   4.006   4.220  13.838 -0.3008 -0.1028 -0.2720
  720MPD2    H310648   4.079   4.141  14.054  1.0451 -0.2477  1.3558
  720MPD2     N10649   4.420   4.442  14.088  0.1720 -0.3692 -0.4072
  720MPD2    H510650   4.454   4.535  14.069 -0.1992 -0.0731  0.3880
  720MPD2    N110651   4.110   4.439  13.708  0.1116  0.0060  0.1067
  720MPD2    H710652   4.164   4.514  13.666  1.7785 -0.9248  0.5879
  721TMC3    C110653   4.581   4.450  14.248  0.6853 -0.6165  0.3128
  721TMC3    C210654   4.543   4.446  14.376 -0.4780 -0.3311 -0.2768
  721TMC3    C310655   4.644   4.437  14.466 -0.1514  0.1311  0.1511
  721TMC3    C410656   4.711   4.436  14.208 -0.3142  0.3620 -0.4335
  721TMC3    C510657   0.087   4.424  14.303 -0.3313  0.2346  0.1021
  721TMC3    C610658   0.054   4.422  14.436  0.0899 -0.2758  0.2025
  721TMC3     C10659   4.488   4.369  14.178 -0.5094 -0.1670  0.5816
  721TMC3     O10660   4.508   4.247  14.178  0.3368  0.0763  0.0303
  721TMC3     H10661   4.438   4.466  14.394 -0.6551 -0.4125 -1.2446
  721TMC3    H110662   0.026   4.410  14.109  2.2152  1.1535  0.2887
  721TMC3    H210663   0.132   4.395  14.506  0.3699  2.2598  0.8840
  721TMC3    C710664   0.215   4.422  14.242 -0.4685 -0.2766 -0.0962
  721TMC3    C810665   4.614   4.425  14.605  0.1987 -0.6367 -0.3757
  721TMC3    O110666   0.233   4.479  14.135  1.1900  0.4545 -0.0446
  721TMC3    O210667   4.706   4.413  14.684  0.0213  0.1526  0.6226
  722MPD2     C10668   3.069   3.079  13.323  0.4247 -0.2287  0.8543
  722MPD2    C110669   3.013   3.206  13.300 -0.0690  0.9059 -0.4477
  722MPD2    C210670   2.881   3.220  13.294  0.3268 -0.1716 -0.2423
  722MPD2    C310671   2.794   3.111  13.315 -0.8098 -0.2411  0.1614
  722MPD2    C410672   2.850   2.991  13.355  0.2702  0.3803 -0.5822
  722MPD2    C510673   2.987   2.980  13.352  0.6735  0.0330  0.5990
  722MPD2     H10674   2.854   3.323  13.271  0.7166 -0.2770 -1.1558
  722MPD2    H110675   2.795   2.910  13.402  1.5685 -0.1191  0.0777
  722MPD2    H210676   3.174   3.055  13.333 -0.1267 -2.5394  1.0432
  722MPD2    H310677   3.042   2.892  13.385  1.2340 -0.1729 -0.8359
  722MPD2     N10678   2.655   3.139  13.282  0.6678  0.1505 -0.7332
  722MPD2    H510679   2.630   3.234  13.257 -0.7712  0.7928  3.0358
  722MPD2    N110680   3.094   3.314  13.267 -0.3496  0.4883 -0.1982
  722MPD2    H710681   3.050   3.402  13.243 -0.5955  0.8349  1.5304
  723TMC3    C110682   2.427   3.092  13.252  0.4376  0.5552 -0.0344
  723TMC3    C210683   2.326   3.003  13.296 -0.8741 -0.2659  0.3455
  723TMC3    C310684   2.206   3.005  13.230  0.2441 -0.0537  1.6713
  723TMC3    C410685   2.418   3.160  13.133  0.2956  0.3458  0.1281
  723TMC3    C510686   2.294   3.154  13.068  0.0784  0.4064 -0.0942
  723TMC3    C610687   2.186   3.082  13.117 -0.3232  0.5382 -0.0174
  723TMC3     C10688   2.558   3.040  13.288 -0.1542 -0.3115  0.2423
  723TMC3     O10689   2.570   2.928  13.334 -0.5851 -0.4672  0.2524
  723TMC3     H10690   2.344   2.930  13.375 -0.3977  1.6591  2.0106
  723TMC3    H110691   2.501   3.215  13.089  0.2928 -0.4813 -0.8928
  723TMC3    H210692   2.085   3.081  13.076  0.1774 -1.2093 -1.1759
  723TMC3    C710693   2.267   3.228  12.946 -0.7062 -0.0168 -0.6178
  723TMC3    C810694   2.117   2.890  13.256  0.2850  0.0632  0.4107
  723TMC3    O110695   2.175   3.187  12.875 -0.2722 -0.1015  0.0371
  723TMC3    O210696   2.067   2.898  13.371 -0.4800 -0.1171 -0.2010
  724TMC3    C110697   2.695   1.575   9.910 -0.5104  0.4239 -0.1362
  724TMC3    C210698   2.747   1.458   9.955  0.1930  0.3088  0.2773
  724TMC3    C310699   2.868   1.424   9.907  0.0315 -0.0655 -0.3406
  724TMC3    C410700   2.770   1.667   9.831  0.6252  0.0665 -0.3329
  724TMC3    C510701   2.889   1.624   9.783  0.2753  0.4295  1.5560
  724TMC3    C610702   2.949   1.507   9.829  0.4924 -1.0118  0.0684
  724TMC3     C10703   2.555   1.604   9.939  0.1483  0.4128 -0.0039
  724TMC3     O10704   2.484   1.505   9.930  0.1759 -0.1339 -0.1300
  724TMC3     H10705   2.679   1.383   9.994  0.8217 -1.3494 -1.8206
  724TMC3    H110706   2.728   1.765   9.808  0.3678  0.5518  2.1651
  724TMC3    H210707   3.043   1.469   9.790  0.8578 -0.7876  0.7209
  724TMC3    C710708   2.975   1.706   9.699 -0.2970  0.0791 -0.6738
  724TMC3    C810709   2.929   1.319   9.989  0.1301 -0.5663  0.3589
  724TMC3    O110710   3.092   1.672   9.673 -0.2181  0.4405  0.2368
  724TMC3    O210711   2.853   1.233  10.039  0.1404  0.0827 -0.6851
  725TMC3    C110712   0.524   0.063  12.344 -0.4419 -0.1641 -0.2301
  725TMC3    C210713   0.396   0.090  12.306 -0.6980 -0.2384 -0.4457
  725TMC3    C310714   0.302   4.714  12.321  1.0195 -0.1967 -1.0052
  725TMC3    C410715   0.563   4.660  12.382 -0.4026 -0.0140 -0.7534
  725TMC3    C510716   0.468   4.569  12.397  0.6822 -0.9577 -0.7027
  725TMC3    C610717   0.330   4.591  12.371  0.4038  0.3483  0.7003
  725TMC3     C10718   0.618   0.177  12.353 -0.5427  0.8235  0.1636
  725TMC3     O10719   0.577   0.282  12.315  0.6017 -0.0715 -0.1784
  725TMC3     H10720   0.375   0.189  12.268 -0.0313  0.6101  1.3584
  725TMC3    H110721   0.669   4.640  12.388 -0.1473  1.2441 -1.1031
  725TMC3    H210722   0.254   4.514  12.385  1.3681 -1.2427 -2.9087
  725TMC3    C710723   0.517   4.436  12.436  0.5901 -0.3277  0.2555
  725TMC3    C810724   0.169   0.045  12.346  0.4801  0.5743  0.6124
  725TMC3    O110725   0.613   4.438  12.512 -0.1518 -0.3159  0.4419
  725TMC3    O210726   0.110   4.718  12.441 -0.2680 -0.0315  0.0336
  726MPD2     C10727   2.499   1.859  10.788  0.7948  0.6961  0.4798
  726MPD2    C110728   2.427   1.873  10.671 -0.2595 -0.4218 -0.5579
  726MPD2    C210729   2.312   1.809  10.652  0.4371 -0.9715 -0.0915
  726MPD2    C310730   2.258   1.724  10.749  0.0084  0.6637  0.4775
  726MPD2    C410731   2.326   1.707  10.864 -0.9792  0.2657  0.3255
  726MPD2    C510732   2.442   1.778  10.883  0.5300  0.1869 -0.0179
  726MPD2     H10733   2.246   1.848  10.576 -1.6138 -1.4250  1.4465
  726MPD2    H110734   2.282   1.654  10.948  0.8932  0.0716  1.1820
  726MPD2    H210735   2.594   1.908  10.806 -0.2937  2.1227  2.3206
  726MPD2    H310736   2.494   1.766  10.977  0.0345 -0.5255  0.1687
  726MPD2     N10737   2.130   1.653  10.737  0.8760 -0.5148 -0.0080
  726MPD2    H510738   2.101   1.594  10.815 -0.5843 -1.2368 -1.0893
  726MPD2    N110739   2.482   1.946  10.566 -0.1393  0.0052  0.7386
  726MPD2    H710740   2.428   1.958  10.481 -0.2571 -2.4092  0.4836
  727TMC3    C110741   2.619   2.122  10.495  0.3912  0.9324  0.0526
  727TMC3    C210742   2.720   2.204  10.536  0.3144  0.8175 -0.3838
  727TMC3    C310743   2.714   2.331  10.491 -0.4360 -0.9856  0.0663
  727TMC3    C410744   2.513   2.171  10.435 -0.4025  0.3015  0.3309
  727TMC3    C510745   2.503   2.302  10.399 -0.1291  0.0179  0.9941
  727TMC3    C610746   2.605   2.393  10.432 -0.2056 -0.0400 -0.2860
  727TMC3     C10747   2.612   1.997  10.559 -0.2523 -0.0783  0.7540
  727TMC3     O10748   2.716   1.957  10.618 -0.2120  0.3289 -0.0161
  727TMC3     H10749   2.802   2.158  10.589 -1.3906 -2.2523 -0.3978
  727TMC3    H110750   2.435   2.100  10.408  0.9802 -1.0585 -0.1001
  727TMC3    H210751   2.592   2.500  10.429  0.3445  0.0347  0.1604
  727TMC3    C710752   2.384   2.354  10.330  0.1947 -0.0644  0.3012
  727TMC3    C810753   2.828   2.411  10.526 -0.4940 -0.0281  0.3996
  727TMC3    O110754   2.282   2.301  10.378 -0.3459 -0.1999 -0.0649
  727TMC3    O210755   2.898   2.368  10.622 -0.5403  0.3800  0.0614
  728TMC3    C110756   2.041   0.077  15.343 -0.1481 -0.4694 -0.1598
  728TMC3    C210757   2.149   0.153  15.309  0.2963 -0.1794  0.0721
  728TMC3    C310758   2.137   0.221  15.195  0.4740  1.0201  0.0520
  728TMC3    C410759   1.928   0.061  15.262  0.3559  0.4245 -0.2603
  728TMC3    C510760   1.920   0.138  15.150  0.2815 -0.1092  0.5190
  728TMC3    C610761   2.020   0.221  15.119 -0.1267 -0.0272 -0.2416
  728TMC3     C10762   2.037   0.039  15.479  0.5247  0.3787 -0.0710
  728TMC3     O10763   2.126   0.074  15.550 -0.5511  0.5651  0.1897
  728TMC3     H10764   2.234   0.160  15.376  0.6665 -0.3507 -0.3788
  728TMC3    H110765   1.848   4.711  15.281  1.3119 -0.5490  0.0649
  728TMC3    H210766   2.020   0.278  15.027 -1.3329  1.5129  0.7257
  728TMC3    C710767   1.802   0.152  15.061 -0.2778  0.6296  0.1885
  728TMC3    C810768   2.246   0.305  15.155 -0.4784  0.4206 -0.2713
  728TMC3    O110769   1.722   0.060  15.050  0.3628  0.2663  0.2795
  728TMC3    O210770   2.232   0.366  15.048 -0.0371 -0.0091 -0.2611
  729MPD2     C10771   4.311   1.145  16.130  0.5244 -0.6285 -0.2919
  729MPD2    C110772   4.434   1.142  16.194  0.5424  0.1162  0.0694
  729MPD2    C210773   4.440   1.111  16.332  0.9542 -0.0717 -0.5211
  729MPD2    C310774   4.333   1.063  16.405 -0.4638 -0.7364  0.3695
  729MPD2    C410775   4.214   1.067  16.341  0.2169 -0.0134  0.3433
  729MPD2    C510776   4.204   1.105  16.210  0.6044 -0.5011  0.2228
  729MPD2     H10777   4.539   1.113  16.375  2.1473 -0.6761 -3.2580
  729MPD2    H110778   4.121   1.053  16.395 -0.6432  1.8718 -0.6550
  729MPD2    H210779   4.298   1.174  16.027 -1.2027 -0.3006  0.0127
  729MPD2    H310780   4.107   1.103  16.160  0.6100 -0.4026  0.2087
  729MPD2     N10781   4.342   1.036  16.549  0.4382 -0.0493  0.4773
  729MPD2    H510782   4.430   1.057  16.595  0.7383  1.7227 -0.8921
  729MPD2    N110783   4.542   1.174  16.115 -0.1520 -0.2545  0.2680
  729MPD2    H710784   4.530   1.208  16.021  0.6789 -4.5314 -1.3911
  730TMC3    C110785   4.278   1.012  16.771  0.2313 -0.5657 -0.0611
  730TMC3    C210786   4.408   0.983  16.800 -0.2581  0.1552 -0.2493
  730TMC3    C310787   4.454   1.027  16.918 -0.4615  0.6947 -0.0299
  730TMC3    C410788   4.195   1.081  16.852  0.1601  0.4254 -0.1664
  730TMC3    C510789   4.244   1.134  16.965  0.1961  0.1331 -0.2846
  730TMC3    C610790   4.376   1.104  17.002  0.2895 -0.3041  0.1646
  730TMC3     C10791   4.239   1.008  16.631 -0.4437  0.1861  0.7757
  730TMC3     O10792   4.119   0.987  16.612  0.7301 -0.3360  0.0446
  730TMC3     H10793   4.457   0.913  16.733 -1.5849  0.3118 -1.4046
  730TMC3    H110794   4.100   1.122  16.818  0.5479  2.4014  1.1287
  730TMC3    H210795   4.411   1.147  17.095  0.4752  2.0075 -0.9569
  730TMC3    C710796   4.213   1.278  16.979  0.2430 -0.2963 -0.0701
  730TMC3    C810797   4.593   1.032  16.930 -0.7295 -0.3640  0.2881
  730TMC3    O110798   4.168   1.338  16.884  0.2833 -0.0202 -0.1598
  730TMC3    O210799   4.656   0.944  16.869 -0.3650 -0.2787 -0.0957
  731MPD2     C10800   4.489   4.402  12.233  0.1883 -0.2704  0.3193
  731MPD2    C110801   4.618   4.364  12.243  0.5787 -0.0688 -0.2568
  731MPD2    C210802   4.660   4.316  12.362  0.4458  0.2147 -0.5666
  731MPD2    C310803   4.576   4.294  12.467  0.3905  1.2913  0.1550
  731MPD2    C410804   4.441   4.329  12.464  0.3098 -0.0854 -0.0885
  731MPD2    C510805   4.404   4.383  12.341 -0.3662 -0.2623 -0.1823
  731MPD2     H10806   0.043   4.288  12.374 -0.0571 -1.8017 -0.8222
  731MPD2    H110807   4.381   4.335  12.554 -0.3838  0.0010 -0.5581
  731MPD2    H210808   4.448   4.459  12.151 -0.6569 -0.6543  0.4826
  731MPD2    H310809   4.300   4.408  12.319 -0.7198 -0.5748  1.1252
  731MPD2     N10810   4.633   4.246  12.588  0.0789  0.0041 -0.0883
  731MPD2    H510811   0.009   4.225  12.571 -0.1566 -0.6156 -0.7012
  731MPD2    N110812   4.702   4.396  12.141 -0.4208 -0.0176 -0.3210
  731MPD2    H710813   4.665   4.447  12.061  1.1745 -0.9366 -1.6520
  732TMC3    C110814   0.168   4.436  12.010  0.0240 -0.4594 -0.0468
  732TMC3    C210815   0.085   4.502  11.933 -0.8527  0.0430  0.2821
  732TMC3    C310816   0.144   4.593  11.844 -0.0949 -0.0204 -0.5398
  732TMC3    C410817   0.304   4.444  12.008 -0.2069  0.1861  0.5409
  732TMC3    C510818   0.360   4.536  11.922 -0.3908  0.5181 -0.2170
  732TMC3    C610819   0.280   4.615  11.840  0.1622 -0.2445  0.2927
  732TMC3     C10820   0.119   4.393  12.138 -0.1781 -1.4219 -0.3437
  732TMC3     O10821   0.208   4.369  12.220  0.0209  0.0598  0.6320
  732TMC3     H10822   4.700   4.482  11.933 -0.7557 -0.5035 -0.3686
  732TMC3    H110823   0.369   4.390  12.076 -0.8420  0.5665  1.4589
  732TMC3    H210824   0.317   4.683  11.765 -0.6372  0.7021  0.7577
  732TMC3    C710825   0.482   4.599  11.966 -0.1531  0.0669  0.8212
  732TMC3    C810826   0.064   4.661  11.744 -0.2440  0.1337  0.8486
  732TMC3    O110827   0.468   4.717  11.947  0.1813  0.3766  0.3650
  732TMC3    O210828   0.123   4.707  11.643  0.0308 -0.7718  0.1667
  733TMC3    C110829   0.069   2.111  12.957 -0.2246  0.9679 -0.0268
  733TMC3    C210830   0.182   2.066  13.024  0.7089  0.2162 -0.0884
  733TMC3    C310831   0.306   2.075  12.956  0.4365 -0.3659 -0.6139
  733TMC3    C410832   0.079   2.146  12.822 -0.7042 -0.3355  0.3075
  733TMC3    C510833   0.199   2.167  12.764  0.0435  0.9998 -0.1766
  733TMC3    C610834   0.314   2.134  12.831 -0.0562 -0.2645 -0.0279
  733TMC3     C10835   4.676   2.156  13.042  0.1530  0.2180 -0.5751
  733TMC3     O10836   4.592   2.226  12.988  0.3522 -0.1457  0.3934
  733TMC3     H10837   0.176   2.041  13.129  1.5732 -1.9340 -0.5523
  733TMC3    H110838   4.710   2.183  12.773 -0.6836 -2.8844 -1.6712
  733TMC3    H210839   0.410   2.174  12.803  0.3993 -1.0707  0.3859
  733TMC3    C710840   0.199   2.226  12.627 -0.5062 -0.4761 -0.1297
  733TMC3    C810841   0.432   2.063  13.028 -0.5248 -1.0653  0.1867
  733TMC3    O110842   0.091   2.244  12.570  0.1014  0.0810 -0.1352
  733TMC3    O210843   0.425   2.058  13.152 -0.4938  0.4726 -0.3411
  734MPD2     C10844   2.747   0.622  12.336 -0.7924 -0.2446 -0.6948
  734MPD2    C110845   2.660   0.525  12.292 -0.0913 -0.6963  0.1744
  734MPD2    C210846   2.643   0.505  12.157  0.0671 -0.0049 -0.0282
  734MPD2    C310847   2.671   0.601  12.069  0.5889 -0.3977  0.1105
  734MPD2    C410848   2.765   0.697  12.110 -0.8077  0.2795 -0.3694
  734MPD2    C510849   2.806   0.702  12.239  0.0999  0.1046 -0.2828
  734MPD2     H10850   2.600   0.415  12.113 -1.7111  0.6205  0.4443
  734MPD2    H110851   2.817   0.758  12.038  0.3271  0.8149  0.9043
  734MPD2    H210852   2.791   0.627  12.435 -1.3264 -0.0000 -0.4707
  734MPD2    H310853   2.869   0.784  12.272  3.4194 -2.1504 -1.0171
  734MPD2     N10854   2.622   0.582  11.937 -0.0576  0.9477 -0.1374
  734MPD2    H510855   2.586   0.489  11.921  1.8053  0.5182 -1.8341
  734MPD2    N110856   2.607   0.433  12.388 -0.4945  0.3781  0.3929
  734MPD2    H710857   2.649   0.436  12.481  1.7928 -1.3097 -0.6183
  735TMC3    C110858   2.513   0.230  12.459 -0.2146  0.3232 -0.2291
  735TMC3    C210859   2.398   0.153  12.446 -0.2158 -0.1830  0.7300
  735TMC3    C310860   2.404   0.021  12.421  0.0092  0.1484 -0.0381
  735TMC3    C410861   2.630   0.168  12.461 -0.2820  0.1583  0.2471
  735TMC3    C510862   2.639   0.031  12.436 -0.2067  0.0845  0.1475
  735TMC3    C610863   2.526   4.677  12.419  0.4920 -0.2600 -0.8368
  735TMC3     C10864   2.515   0.333  12.362 -0.6989  0.4837  0.4694
  735TMC3     O10865   2.457   0.319  12.255 -0.2879 -0.1516 -0.0723
  735TMC3     H10866   2.304   0.206  12.435 -1.3852 -2.1778  1.0815
  735TMC3    H110867   2.716   0.228  12.434 -0.6699  0.2680 -0.7618
  735TMC3    H210868   2.535   4.576  12.383  1.9809 -0.1504 -0.7582
  735TMC3    C710869   2.750   0.013  12.340  0.0785 -0.7833 -0.2668
  735TMC3    C810870   2.314   4.696  12.315 -0.4106  0.3051 -0.6177
  735TMC3    O110871   2.788   0.108  12.273 -0.6221  0.0013 -0.0968
  735TMC3    O210872   2.281   4.576  12.306  0.4024 -0.1152  0.2068
  736MPD2     C10873   3.013   4.482  12.390 -0.0380  0.3087  0.2350
  736MPD2    C110874   2.957   4.591  12.330  0.1510  0.4924  0.0806
  736MPD2    C210875   3.028   4.653  12.231 -0.1139 -0.4316 -0.6265
  736MPD2    C310876   3.161   4.612  12.193 -0.1598  0.2576  0.1855
  736MPD2    C410877   3.218   4.512  12.263  0.0767 -0.0969 -1.0955
  736MPD2    C510878   3.144   4.450  12.361  0.0839 -0.5257  0.3810
  736MPD2     H10879   2.983   0.020  12.188  0.6087  0.9486  1.4621
  736MPD2    H110880   3.318   4.475  12.243  0.4083  0.9481 -1.3719
  736MPD2    H210881   2.965   4.427  12.470 -0.2260  0.8967  0.5227
  736MPD2    H310882   3.197   4.378  12.420  0.8331 -1.5269 -1.5055
  736MPD2     N10883   3.240   4.684  12.103  0.8986 -0.3495  0.3827
  736MPD2    H510884   3.332   4.654  12.073  1.0423  0.5486 -0.0567
  736MPD2    N110885   2.826   4.621  12.376 -0.0193  0.4953 -0.1517
  736MPD2    H710886   2.792   4.555  12.445 -0.0379 -0.5264 -1.1405
  737TMC3    C110887   3.319   0.131  11.957 -0.0440  0.2285 -1.0324
  737TMC3    C210888   3.305   0.253  11.899  0.6185  0.8866 -0.0709
  737TMC3    C310889   3.369   0.276  11.775 -0.4955  0.1158  0.7221
  737TMC3    C410890   3.410   0.043  11.907  0.1226 -0.9284 -0.5109
  737TMC3    C510891   3.473   0.068  11.790 -0.7558  0.8191 -0.6852
  737TMC3    C610892   3.453   0.187  11.719  0.5059 -0.9753 -0.7824
  737TMC3     C10893   3.208   0.082  12.038  0.5691 -0.5577  0.0818
  737TMC3     O10894   3.104   0.147  12.039  1.1373  0.3453 -0.4557
  737TMC3     H10895   3.221   0.318  11.924 -0.1556 -0.2896  0.3994
  737TMC3    H110896   3.434   4.672  11.958 -0.5911 -1.4785 -1.1685
  737TMC3    H210897   3.507   0.222  11.632  0.1105 -1.3138 -1.1652
  737TMC3    C710898   3.492   4.667  11.710  0.6546  0.2351 -0.2591
  737TMC3    C810899   3.348   0.400  11.706 -0.1903  0.8334 -0.4208
  737TMC3    O110900   3.434   4.563  11.745 -0.0693  0.3220 -0.2809
  737TMC3    O210901   3.335   0.500  11.778 -0.1169 -0.0895  0.0018
  738MPD2     C10902   3.396   3.544  14.779 -0.3690 -0.0335 -0.6879
  738MPD2    C110903   3.487   3.459  14.837  0.7420 -0.0897  0.0294
  738MPD2    C210904   3.621   3.494  14.843 -0.0106  0.4617  0.6169
  738MPD2    C310905   3.668   3.609  14.782 -0.1751  0.5335  0.2080
  738MPD2    C410906   3.572   3.693  14.728 -0.1200  1.3559  0.3963
  738MPD2    C510907   3.439   3.661  14.724  0.0438  0.3107  0.3732
  738MPD2     H10908   3.691   3.425  14.890  0.1511 -1.3731 -2.3261
  738MPD2    H110909   3.610   3.786  14.687 -0.5673  1.3532 -0.0367
  738MPD2    H210910   3.288   3.536  14.779 -0.4742  1.3075 -2.3338
  738MPD2    H310911   3.366   3.727  14.680 -0.4801 -0.7196 -0.3088
  738MPD2     N10912   3.807   3.652  14.789  0.1484 -0.5160  0.4626
  738MPD2    H510913   3.824   3.745  14.752  0.2133 -0.0703  1.6245
  738MPD2    N110914   3.455   3.329  14.873  0.0859 -0.4764  0.2912
  738MPD2    H710915   3.523   3.273  14.923 -0.2286 -1.0492  0.0773
  739TMC3    C110916   4.033   3.648  14.808  0.3601  0.1086 -0.4245
  739TMC3    C210917   4.029   3.696  14.682 -0.1778 -0.5041  0.0486
  739TMC3    C310918   4.116   3.803  14.661  0.3403  0.0261  0.1126
  739TMC3    C410919   4.107   3.692  14.912 -0.8227 -0.3625  0.4220
  739TMC3    C510920   4.188   3.799  14.883  0.5396 -0.4892 -0.1965
  739TMC3    C610921   4.199   3.855  14.756  0.2796 -0.4743  0.0661
  739TMC3     C10922   3.909   3.583  14.844  1.1521  0.1891  0.0845
  739TMC3     O10923   3.909   3.484  14.912 -0.3176 -0.0621 -0.0544
  739TMC3     H10924   3.973   3.651  14.601 -1.9348 -0.2098  1.0886
  739TMC3    H110925   4.089   3.664  15.015  1.5695  0.4358  1.0455
  739TMC3    H210926   4.281   3.924  14.738  2.2632 -2.7819  0.3930
  739TMC3    C710927   4.297   3.811  14.977  0.0523  0.0772 -0.0695
  739TMC3    C810928   4.103   3.860  14.531  1.0989  0.6753  0.1318
  739TMC3    O110929   4.300   3.723  15.063  0.3269  0.1723 -0.5722
  739TMC3    O210930   3.995   3.859  14.471  0.2554 -0.1559  0.1238
  740TMC3    C110931   4.074   0.268  14.500 -0.1736 -0.4907  0.6992
  740TMC3    C210932   4.053   0.213  14.620  0.5218  0.2343  0.0827
  740TMC3    C310933   4.153   0.129  14.663  0.0380 -0.0833  0.8610
  740TMC3    C410934   4.189   0.252  14.426 -0.1721 -0.4035  0.0524
  740TMC3    C510935   4.271   0.149  14.466  0.3461 -0.6763  0.1033
  740TMC3    C610936   4.263   0.092  14.586 -0.0608  0.6578 -0.1316
  740TMC3     C10937   3.964   0.320  14.427  0.7621 -0.3978 -0.1041
  740TMC3     O10938   3.978   0.355  14.314  0.2835  0.4448 -0.6470
  740TMC3     H10939   3.984   0.251  14.695  1.0697 -1.2881  1.3631
  740TMC3    H110940   4.193   0.301  14.329 -1.1799 -1.3113 -0.4445
  740TMC3    H210941   4.344   0.032  14.626 -1.0858 -1.7731 -1.7334
  740TMC3    C710942   4.367   0.089  14.371 -0.1079 -0.0636  0.3261
  740TMC3    C810943   4.136   0.085  14.802 -0.2581 -0.0680 -0.0402
  740TMC3    O110944   4.459   0.023  14.416 -0.5680  0.0779  0.3485
  740TMC3    O210945   4.022   0.085  14.852  0.3475  0.0888  0.4646
  741TMC3    C110946   3.848   4.333  14.178 -0.2524  0.6829  0.2115
  741TMC3    C210947   3.786   4.221  14.121 -0.1430 -0.5334 -0.1133
  741TMC3    C310948   3.775   4.108  14.187  1.1940  0.1090 -0.0331
  741TMC3    C410949   3.890   4.331  14.311 -0.0678  0.4721  0.2086
  741TMC3    C510950   3.868   4.218  14.377 -0.2285  0.3780  0.7626
  741TMC3    C610951   3.815   4.103  14.321  0.0075 -0.1101 -0.0291
  741TMC3     C10952   3.872   4.454  14.110  0.3446 -0.1636 -0.2939
  741TMC3     O10953   3.957   4.533  14.142  0.3474  0.7538  0.6646
  741TMC3     H10954   3.758   4.222  14.016 -0.0098 -0.9887 -0.1559
  741TMC3    H110955   3.933   4.417  14.361  1.3929 -0.7228  1.0005
  741TMC3    H210956   3.811   4.014  14.383  0.2774  2.1622  3.2466
  741TMC3    C710957   3.900   4.215  14.520  0.1252 -0.5296 -0.9865
  741TMC3    C810958   3.688   4.002  14.141 -0.2907  0.3475 -0.7289
  741TMC3    O110959   3.990   4.290  14.556  0.0097  0.8849  0.1696
  741TMC3    O210960   3.581   4.041  14.098  0.4061 -0.2535  0.5002
  742TMC3    C110961   3.779   2.704  15.503  0.0984 -0.0147 -0.5037
  742TMC3    C210962   3.673   2.721  15.411 -0.0790 -0.3594 -0.2714
  742TMC3    C310963   3.703   2.703  15.280  0.0864 -0.6573  0.0524
  742TMC3    C410964   3.907   2.701  15.467 -0.2641  0.0672  0.0649
  742TMC3    C510965   3.940   2.696  15.328  0.1794  0.2343  0.4024
  742TMC3    C610966   3.834   2.694  15.235  0.7751  0.2932  0.6258
  742TMC3     C10967   3.752   2.736  15.636 -0.2019  1.0809 -0.4710
  742TMC3     O10968   3.821   2.682  15.722 -0.3248  0.0777  0.2599
  742TMC3     H10969   3.572   2.728  15.449  0.3471 -0.5666  0.8933
  742TMC3    H110970   3.991   2.693  15.535 -2.2770 -1.2076  2.3715
  742TMC3    H210971   3.862   2.680  15.131  0.6261 -0.2485  0.6593
  742TMC3    C710972   4.069   2.655  15.287  0.4226 -0.1515  0.1923
  742TMC3    C810973   3.588   2.682  15.184  0.3482 -0.5947 -0.0367
  742TMC3    O110974   4.079   2.585  15.186  0.0269 -0.3285 -0.4982
  742TMC3    O210975   3.510   2.593  15.214 -0.8846 -0.2019  0.0761
  743MPD2     C10976   3.000   3.613   1.541 -0.3790  0.1973  0.2952
  743MPD2    C110977   2.941   3.621   1.417  0.4503  0.3138 -0.2149
  743MPD2    C210978   3.026   3.622   1.301 -1.1165 -0.6220 -0.0120
  743MPD2    C310979   3.163   3.635   1.311 -0.1577  0.0219  0.1137
  743MPD2    C410980   3.212   3.622   1.438  0.9441  0.0383 -0.2805
  743MPD2    C510981   3.136   3.609   1.551 -0.0963  0.9305  0.4303
  743MPD2     H10982   2.974   3.626   1.207  2.4182 -0.0320 -1.9403
  743MPD2    H110983   3.317   3.610   1.462 -0.0170 -1.6854  3.0278
  743MPD2    H210984   2.943   3.616   1.633 -1.4812  0.5724 -0.3917
  743MPD2    H310985   3.177   3.591   1.650  0.8026 -0.3125 -0.1566
  743MPD2     N10986   3.246   3.654   1.200  0.2774  0.3007 -0.3783
  743MPD2    H510987   3.193   3.684   1.119  1.2604  1.6428 -0.5244
  743MPD2    N110988   2.798   3.617   1.410  0.3361  0.1504 -0.1881
  743MPD2    H710989   2.753   3.626   1.500  1.2393  0.4030  0.2284
  744TMC3    C110990   2.581   3.631   1.340  0.9325  0.1067 -0.3714
  744TMC3    C210991   2.547   3.729   1.438  0.8166  0.1229  0.1820
  744TMC3    C310992   2.414   3.766   1.436  0.1665  0.1212 -0.1561
  744TMC3    C410993   2.485   3.566   1.260 -0.5703 -0.6108  0.1666
  744TMC3    C510994   2.353   3.595   1.278  0.3204  0.4887  0.1987
  744TMC3    C610995   2.321   3.702   1.356 -0.2431 -0.2897 -0.5544
  744TMC3     C10996   2.721   3.627   1.299  0.0280 -0.0500  0.2602
  744TMC3     O10997   2.756   3.626   1.183 -0.0228 -0.0744 -0.8537
  744TMC3     H10998   2.632   3.782   1.479  1.2801 -0.1590 -0.4052
  744TMC3    H110999   2.520   3.493   1.187  1.3304 -0.6674  1.1435
  744TMC3    H211000   2.216   3.728   1.367 -0.3143 -0.9100  0.1804
  744TMC3    C711001   2.258   3.549   1.181  0.2413 -0.1410 -0.0006
  744TMC3    C811002   2.369   3.852   1.548 -0.0507  0.7957 -0.4918
  744TMC3    O111003   2.171   3.625   1.140 -0.0052  0.4389  0.2377
  744TMC3    O211004   2.266   3.823   1.610  0.4650 -0.2075  0.0667
  745TMC3    C111005   3.930   2.393  14.152  0.6348  0.4699 -0.5877
  745TMC3    C211006   3.878   2.364  14.273 -0.2058  0.1981 -0.0961
  745TMC3    C311007   3.757   2.427  14.311  0.6241  0.0182 -0.5553
  745TMC3    C411008   3.851   2.457  14.068  0.3022 -0.3803 -0.5256
  745TMC3    C511009   3.732   2.523  14.106 -0.0810  1.0358  0.7333
  745TMC3    C611010   3.689   2.501  14.229  0.0476  0.4349  0.6176
  745TMC3     C11011   4.048   2.471  14.179  0.2573 -0.4353  0.7168
  745TMC3     O11012   4.082   2.461  14.293 -0.5607 -0.0063  0.0359
  745TMC3     H11013   3.907   2.286  14.343  0.1102  0.4413  0.0400
  745TMC3    H111014   3.885   2.470  13.966 -1.6920 -1.1063 -1.2874
  745TMC3    H211015   3.594   2.544  14.261 -0.3291  0.7019 -0.8554
  745TMC3    C711016   3.686   2.640  14.037  0.7603  0.0646  0.4583
  745TMC3    C811017   3.762   2.468  14.449  0.2417  0.1325  0.6261
  745TMC3    O111018   3.602   2.705  14.097 -0.3274  0.5049 -0.3395
  745TMC3    O211019   3.658   2.519  14.486  0.3642 -0.4352 -0.3494
  746TMC3    C111020   1.256   4.157  11.224 -0.5283 -0.2840  0.1947
  746TMC3    C211021   1.327   4.134  11.110 -0.2452 -0.3689 -0.5680
  746TMC3    C311022   1.357   4.003  11.083 -0.0433 -0.2212 -0.5474
  746TMC3    C411023   1.217   4.062  11.315 -0.1157 -0.2115  0.5606
  746TMC3    C511024   1.245   3.933  11.281 -0.7056 -0.3577  0.1175
  746TMC3    C611025   1.315   3.900  11.171 -0.0733  0.2232  0.2359
  746TMC3     C11026   1.201   4.293  11.245 -0.2998 -0.7326  0.1467
  746TMC3     O11027   1.166   4.301  11.359 -0.2328  0.2070 -0.4486
  746TMC3     H11028   1.374   4.220  11.064 -2.6970  1.4345  0.2805
  746TMC3    H111029   1.172   4.098  11.407 -0.6641 -0.7021  0.4858
  746TMC3    H211030   1.331   3.795  11.150  2.3722  0.9807 -1.7222
  746TMC3    C711031   1.153   3.828  11.327  0.5873  0.1341 -0.3053
  746TMC3    C811032   1.460   3.972  10.982  0.4519  0.2062  0.2093
  746TMC3    O111033   1.143   3.731  11.248  0.3293 -0.8296  0.3113
  746TMC3    O211034   1.537   3.883  11.009  0.1104  0.2962 -0.1540
  747TMC3    C111035   4.004   4.700  10.799 -0.9015  0.1638  0.2930
  747TMC3    C211036   3.925   4.609  10.864 -0.2440 -0.3672  0.2766
  747TMC3    C311037   3.942   4.594  10.995  0.3779 -0.5970 -0.4562
  747TMC3    C411038   4.105   0.050  10.859 -0.0404  0.5054 -0.5060
  747TMC3    C511039   4.130   0.015  10.987 -0.9941 -0.2103 -0.1183
  747TMC3    C611040   4.047   4.658  11.058 -0.0328  0.3074  0.2485
  747TMC3     C11041   3.994   4.713  10.657  0.4054  0.0717  0.1290
  747TMC3     O11042   4.028   0.098  10.614  0.4666 -0.0011 -0.1634
  747TMC3     H11043   3.833   4.568  10.824 -0.5812  0.1755  0.4995
  747TMC3    H111044   4.177   0.105  10.799  1.0349 -0.2317  0.1108
  747TMC3    H211045   4.068   4.615  11.155  1.4110  0.1956 -0.1160
  747TMC3    C711046   4.249   0.063  11.054  0.1059  0.2577  0.5126
  747TMC3    C811047   3.848   4.528  11.077  0.4053 -0.2786  0.1943
  747TMC3    O111048   4.245   0.051  11.175  0.6183 -0.3248 -0.0758
  747TMC3    O211049   3.816   4.414  11.045 -0.1003 -0.6733  0.0336
  748MPD2     C11050   0.259   0.820   1.621 -0.2964  0.3432 -0.5455
  748MPD2    C111051   0.288   0.720   1.532  0.0297  0.3090  0.2928
  748MPD2    C211052   0.414   0.650   1.550  0.4573  0.1904  0.7186
  748MPD2    C311053   0.509   0.702   1.643  0.4940 -0.0271 -0.3974
  748MPD2    C411054   0.479   0.818   1.711  0.1220  0.5240 -0.1436
  748MPD2    C511055   0.354   0.870   1.704 -0.0022  0.0524  0.2228
  748MPD2     H11056   0.442   0.569   1.483  0.2265 -0.5151  1.4833
  748MPD2    H111057   0.554   0.859   1.777  2.1223 -0.4952 -1.8031
  748MPD2    H211058   0.163   0.870   1.613 -0.8400 -0.4627  1.0056
  748MPD2    H311059   0.334   0.953   1.770 -1.6404  1.2650 -1.7903
  748MPD2     N11060   0.630   0.633   1.656  0.2473  0.3803 -0.1323
  748MPD2    H511061   0.628   0.547   1.602 -1.1163  0.5578 -0.3805
  748MPD2    N111062   0.188   0.688   1.437  0.4445  0.1986 -0.2718
  748MPD2    H711063   0.108   0.750   1.434  1.4951  1.7046  2.5335
  749TMC3    C111064   0.862   0.585   1.708 -0.0181 -0.2504  0.4624
  749TMC3    C211065   0.859   0.449   1.689  0.2303  0.0316  0.1700
  749TMC3    C311066   0.976   0.392   1.639 -0.0251  0.0905  0.0139
  749TMC3    C411067   0.973   0.661   1.677 -0.9016 -0.0537  0.0049
  749TMC3    C511068   1.083   0.596   1.641  0.0196  0.2380  0.0943
  749TMC3    C611069   1.098   0.458   1.627  0.0365  0.0856  0.2094
  749TMC3     C11070   0.736   0.659   1.741 -0.1389  0.6917 -0.1464
  749TMC3     O11071   0.747   0.741   1.827 -0.3673  0.0864 -0.2440
  749TMC3     H11072   0.782   0.383   1.726 -0.7525  1.7743  1.2212
  749TMC3    H111073   0.975   0.768   1.688 -1.9374 -0.0809  0.4920
  749TMC3    H211074   1.188   0.423   1.578 -0.3925 -0.2516 -0.3354
  749TMC3    C711075   1.187   0.681   1.596  0.3077  0.7018 -0.6350
  749TMC3    C811076   0.963   0.250   1.598  0.6308  0.0622  0.1045
  749TMC3    O111077   1.151   0.787   1.545 -0.0127 -0.2047  0.3208
  749TMC3    O211078   0.848   0.215   1.582  0.3325  0.1598  0.2427
  750MPD2     C11079   1.730   1.177  11.336 -0.3568  0.3156 -0.2739
  750MPD2    C111080   1.598   1.212  11.357  0.4734 -0.5131  0.0381
  750MPD2    C211081   1.499   1.156  11.277  0.3647  0.5668  0.7059
  750MPD2    C311082   1.546   1.053  11.189 -0.3798 -0.0242  0.1386
  750MPD2    C411083   1.678   1.015  11.176  0.4214 -0.6393  0.3294
  750MPD2    C511084   1.777   1.079  11.246  0.0321  0.3331 -0.1795
  750MPD2     H11085   1.395   1.177  11.297  0.0525  0.4271 -0.8270
  750MPD2    H111086   1.707   0.930  11.116  1.3594 -0.8895  1.1433
  750MPD2    H211087   1.810   1.234  11.382  0.6958  0.0112 -1.7050
  750MPD2    H311088   1.883   1.060  11.237  0.3048  1.3354  1.0319
  750MPD2     N11089   1.458   0.978  11.108 -0.6293  0.1582 -0.3194
  750MPD2    H511090   1.494   0.899  11.055 -3.3531 -0.5984 -1.0598
  750MPD2    N111091   1.565   1.309  11.450 -0.7912  0.6569 -0.2456
  750MPD2    H711092   1.639   1.339  11.513 -0.0517 -0.3132 -0.6469
  751TMC3    C111093   1.251   0.917  11.010 -0.0732 -0.6083 -0.1440
  751TMC3    C211094   1.129   0.870  11.049 -0.6895 -0.3522 -0.9935
  751TMC3    C311095   1.040   0.833  10.950  0.1293 -0.4907 -0.0342
  751TMC3    C411096   1.293   0.923  10.877  0.0843 -0.1909 -0.0472
  751TMC3    C511097   1.206   0.870  10.786  0.0849 -0.0806 -0.4278
  751TMC3    C611098   1.078   0.828  10.817 -0.5675 -0.1575 -0.5309
  751TMC3     C11099   1.321   1.001  11.104 -0.4452 -0.7851  0.0896
  751TMC3     O11100   1.245   1.075  11.171  0.0815  0.2487 -0.1599
  751TMC3     H11101   1.105   0.881  11.154  2.3184  0.1031 -0.3492
  751TMC3    H111102   1.384   0.967  10.840  2.0846 -1.9632  2.7770
  751TMC3    H211103   1.005   0.817  10.738 -0.2894 -0.7014 -0.7160
  751TMC3    C711104   1.238   0.847  10.650 -0.3254 -0.0072 -0.6089
  751TMC3    C811105   0.918   0.760  10.985  1.0082  0.8437 -0.3401
  751TMC3    O111106   1.324   0.920  10.600  0.7438  0.1128 -0.0547
  751TMC3    O211107   0.843   0.717  10.894 -0.3004  0.1960  0.0253
  752TMC3    C111108   0.691   1.607  16.967 -0.0772 -0.4927  0.2919
  752TMC3    C211109   0.579   1.580  17.037 -0.8045  0.4283 -0.5187
  752TMC3    C311110   0.591   1.599  17.171 -0.1849 -0.0957  0.3614
  752TMC3    C411111   0.805   1.655  17.013  0.2861 -0.2548  0.1017
  752TMC3    C511112   0.799   1.696  17.143 -0.2063 -0.5691 -0.1773
  752TMC3    C611113   0.693   1.673  17.223  0.1579 -0.6931  0.1031
  752TMC3     C11114   0.708   1.503  16.873  0.1257 -0.1771  0.4617
  752TMC3     O11115   0.818   1.446  16.875  0.5144  0.4460 -0.3076
  752TMC3     H11116   0.491   1.541  16.987 -0.2211  0.1289 -1.3318
  752TMC3    H111117   0.885   1.678  16.943  1.3800 -1.3386  1.0022
  752TMC3    H211118   0.698   1.714  17.323 -0.1821 -1.4270  0.4200
  752TMC3    C711119   0.901   1.789  17.189  0.6335  0.5277  0.3275
  752TMC3    C811120   0.464   1.587  17.243  1.0431  0.7996 -0.3322
  752TMC3    O111121   0.850   1.870  17.268  0.5700 -0.1033 -0.3911
  752TMC3    O211122   0.367   1.574  17.174  0.3997 -0.4204  0.1886
  753TMC3    C111123   1.957   2.041  13.580 -0.6198 -0.3398 -0.2205
  753TMC3    C211124   2.087   2.013  13.623 -0.2041 -0.4098 -0.1590
  753TMC3    C311125   2.131   1.887  13.635  0.0267  0.1424  0.1239
  753TMC3    C411126   1.876   1.937  13.550  0.2004  0.0032  0.6271
  753TMC3    C511127   1.921   1.812  13.563  0.1370  0.1056  0.5427
  753TMC3    C611128   2.053   1.778  13.602 -0.0054  0.8522  0.5885
  753TMC3     C11129   1.914   2.178  13.597  0.3825  0.2774 -0.3304
  753TMC3     O11130   1.991   2.250  13.659 -0.8119  0.2854  0.2669
  753TMC3     H11131   2.143   2.092  13.671 -1.1444  0.4352 -0.4482
  753TMC3    H111132   1.771   1.952  13.529 -0.1334 -2.4370  0.5388
  753TMC3    H211133   2.094   1.678  13.604  1.0552  1.2745 -0.1763
  753TMC3    C711134   1.840   1.702  13.517  0.0559  0.3705  0.2359
  753TMC3    C811135   2.242   1.858  13.723  0.1360  0.4886  0.3492
  753TMC3    O111136   1.726   1.700  13.562  0.0488 -0.1981 -0.6141
  753TMC3    O211137   2.248   1.753  13.779  0.9884 -0.6723 -0.2573
  754MPD2     C11138   1.100   1.073  13.158  0.3203  0.2234 -0.0967
  754MPD2    C111139   0.976   1.027  13.201 -0.1512  0.0457 -1.1355
  754MPD2    C211140   0.877   1.006  13.111 -0.3442  0.4595 -0.1484
  754MPD2    C311141   0.895   1.032  12.977  0.4460 -0.7057 -0.4680
  754MPD2    C411142   1.018   1.072  12.929 -0.3057 -0.6966 -0.0381
  754MPD2    C511143   1.120   1.098  13.023  0.1601 -0.6165  0.0539
  754MPD2     H11144   0.780   0.969  13.143  0.5054 -1.6605 -0.0009
  754MPD2    H111145   1.030   1.103  12.826 -2.5811  0.1797 -0.0379
  754MPD2    H211146   1.176   1.096  13.232  0.0111  1.6791 -0.2265
  754MPD2    H311147   1.213   1.143  12.989 -0.8140  0.6492 -0.9061
  754MPD2     N11148   0.785   1.016  12.885 -0.0550 -0.3473  0.7008
  754MPD2    H511149   0.807   1.030  12.787  0.3220 -0.6555  0.7414
  754MPD2    N111150   0.961   0.997  13.338  0.5274  0.1619 -0.5056
  754MPD2    H711151   1.033   1.022  13.405  2.8315 -1.2525 -2.4360
  755MPD2     C11152   4.532   0.539  12.936 -0.2571 -0.4027 -0.2351
  755MPD2    C111153   4.553   0.673  12.956  0.1482  0.2108  0.0329
  755MPD2    C211154   4.679   0.732  12.913  0.1912  0.5560 -0.7089
  755MPD2    C311155   0.065   0.647  12.884 -0.3902  0.4606 -0.1146
  755MPD2    C411156   0.035   0.522  12.862 -0.5813 -0.2146  0.0272
  755MPD2    C511157   4.633   0.463  12.881  0.5894 -0.1256 -0.8501
  755MPD2     H11158   4.693   0.839  12.929 -1.0014  0.6729 -0.4477
  755MPD2    H111159   0.115   0.450  12.847  0.5327  0.8859  0.7408
  755MPD2    H211160   4.439   0.497  12.971 -0.3473 -0.2744 -0.3236
  755MPD2    H311161   4.625   0.356  12.864 -0.9896 -0.1332 -0.1199
  755MPD2     N11162   0.201   0.694  12.862 -0.3372  0.3795 -0.3542
  755MPD2    H511163   0.272   0.626  12.841 -1.2944 -1.1300  1.3289
  755MPD2    N111164   4.455   0.755  13.005 -0.6298  0.2978  0.0836
  755MPD2    H711165   4.469   0.855  13.007  1.7637 -0.0781  1.4062
  756MPD2     C11166   1.376   2.053   9.791  0.0367  0.4013 -0.0076
  756MPD2    C111167   1.326   1.974   9.899 -0.6917  0.4785 -0.5104
  756MPD2    C211168   1.244   1.862   9.866  0.3536  0.2082 -0.1757
  756MPD2    C311169   1.226   1.825   9.733 -0.4540  0.2557 -0.2302
  756MPD2    C411170   1.275   1.898   9.630  0.4021 -0.4764  0.4670
  756MPD2    C511171   1.343   2.017   9.660  0.0894  0.7717 -0.1215
  756MPD2     H11172   1.204   1.791   9.937  1.6618  0.3330  0.6652
  756MPD2    H111173   1.266   1.861   9.528  0.2533 -1.0212  0.6784
  756MPD2    H211174   1.437   2.140   9.812  0.2258  0.2494  0.0669
  756MPD2    H311175   1.381   2.082   9.582  0.3501  1.0003  0.1975
  756MPD2     N11176   1.148   1.708   9.706  0.7569 -0.9095 -0.2082
  756MPD2    H511177   1.124   1.649   9.785  0.5821 -0.6165 -0.0421
  756MPD2    N111178   1.357   1.996  10.032  0.3338 -0.3161 -0.6046
  756MPD2    H711179   1.321   1.931  10.101 -0.4650 -0.6610 -1.3521
  757MPD2     C11180   0.450   1.051   9.162 -0.5360 -0.7900 -0.5922
  757MPD2    C111181   0.511   0.974   9.257 -0.0662  0.1315  0.0150
  757MPD2    C211182   0.619   1.021   9.333  0.2749  0.7147  0.0602
  757MPD2    C311183   0.664   1.149   9.318  0.5765  0.1728  0.0946
  757MPD2    C411184   0.606   1.227   9.219 -0.3366 -0.1356  0.2071
  757MPD2    C511185   0.488   1.178   9.154  0.2605  0.0986 -0.6552
  757MPD2     H11186   0.665   0.970   9.417  0.9396  0.9112 -0.1892
  757MPD2    H111187   0.654   1.321   9.196  1.3521 -0.9215  0.5509
  757MPD2    H211188   0.356   1.025   9.116 -0.5895  1.0236 -1.4767
  757MPD2    H311189   0.439   1.242   9.081 -1.1599  0.9872  1.0978
  757MPD2     N11190   0.769   1.193   9.406 -0.3918 -0.0218  0.3923
  757MPD2    H511191   0.771   1.141   9.494  0.0649  1.4400  1.2447
  757MPD2    N111192   0.465   0.841   9.280 -0.1915 -0.2659 -0.1195
  757MPD2    H711193   0.380   0.807   9.236 -0.7737  1.3266 -0.2275
  758MPD2     C11194   1.435   0.348  16.353 -0.4991  0.8717  0.0185
  758MPD2    C111195   1.534   0.363  16.449  0.4554  0.1494  0.3888
  758MPD2    C211196   1.495   0.444  16.560  0.6283 -0.1049 -0.4708
  758MPD2    C311197   1.367   0.501  16.573 -0.0157 -0.3018  0.6011
  758MPD2    C411198   1.279   0.485  16.461 -0.1597 -0.0508  0.7132
  758MPD2    C511199   1.310   0.406  16.358 -0.5906  0.1347  0.3207
  758MPD2     H11200   1.566   0.447  16.643  0.4084  1.6097 -0.3308
  758MPD2    H111201   1.183   0.535  16.469 -0.1007  0.1873 -0.0691
  758MPD2    H211202   1.461   0.283  16.270 -0.2842  2.4802 -1.1784
  758MPD2    H311203   1.242   0.397  16.274  2.4827  0.1417 -2.2124
  758MPD2     N11204   1.326   0.580  16.684  0.2474 -0.2164  0.4937
  758MPD2    H511205   1.229   0.608  16.697 -0.7459 -3.0432 -0.6672
  758MPD2    N111206   1.661   0.299  16.422 -0.0852  0.0526 -0.8258
  758MPD2    H711207   1.655   0.229  16.349  0.8127 -0.7941 -0.0823
  759MPD2     C11208   4.560   3.363  10.310 -0.6268  0.1648  0.4948
  759MPD2    C111209   4.567   3.240  10.241 -0.0556 -0.5518 -0.1237
  759MPD2    C211210   4.638   3.225  10.113  0.2943  0.2533 -0.0459
  759MPD2    C311211   4.714   3.327  10.072 -0.8340 -0.0841  0.4886
  759MPD2    C411212   4.716   3.443  10.147 -0.8227 -0.3316 -0.5188
  759MPD2    C511213   4.640   3.461  10.261  0.3933  0.4256  0.0103
  759MPD2     H11214   4.624   3.141  10.046  0.0945  1.4229 -1.4710
  759MPD2    H111215   0.060   3.528  10.128 -0.4953 -0.1477  1.4320
  759MPD2    H211216   4.505   3.378  10.402  1.5451 -0.8300  1.9409
  759MPD2    H311217   4.637   3.549  10.324  2.4252  0.1243  0.4963
  759MPD2     N11218   0.080   3.320   9.962 -0.3848  0.0509  0.2588
  759MPD2    H511219   0.150   3.387   9.931  0.6952 -0.1932  2.2100
  759MPD2    N111220   4.517   3.124  10.308  0.5182 -0.0657 -0.4176
  759MPD2    H711221   4.543   3.036  10.264  2.4177 -0.0995  0.7732
  760MPD2     C11222   4.336   1.570  11.998 -0.2550  0.0553  0.5427
  760MPD2    C111223   4.466   1.533  11.969  0.2053 -0.5701  0.4260
  760MPD2    C211224   4.499   1.403  11.984 -0.3234  0.0308  0.0721
  760MPD2    C311225   4.411   1.306  12.027 -0.1049  0.8161 -0.1662
  760MPD2    C411226   4.284   1.351  12.064  0.0856 -0.0655 -0.0502
  760MPD2    C511227   4.247   1.478  12.035  0.3974  0.4850 -0.0373
  760MPD2     H11228   4.601   1.367  11.973 -0.4459 -0.2883 -0.0155
  760MPD2    H111229   4.202   1.284  12.087  2.6141 -2.6149  1.5133
  760MPD2    H211230   4.293   1.669  11.990  0.4029  0.4560  1.9054
  760MPD2    H311231   4.146   1.499  12.067  0.3693  0.8815 -0.3750
  760MPD2     N11232   4.443   1.166  12.036 -0.3697 -0.2180  0.7387
  760MPD2    H511233   4.396   1.107  12.104 -0.4936 -1.0329 -0.0635
  760MPD2    N111234   4.562   1.616  11.912  0.0334  0.8221  0.1486
  760MPD2    H711235   4.654   1.580  11.886 -0.9482 -2.1520  0.7679
  761MPD2     C11236   0.685   0.454  11.329 -0.0556  0.0306 -0.5522
  761MPD2    C111237   0.708   0.436  11.194  0.0917 -0.0751 -0.3689
  761MPD2    C211238   0.779   0.538  11.123 -0.1133  0.0473  0.3273
  761MPD2    C311239   0.817   0.652  11.185  0.9096  0.8208  0.1142
  761MPD2    C411240   0.780   0.676  11.315 -0.0014 -0.2342  0.3341
  761MPD2    C511241   0.708   0.576  11.384 -0.5592  0.4253 -0.3755
  761MPD2     H11242   0.791   0.527  11.015 -1.7407 -2.6377  0.4073
  761MPD2    H111243   0.798   0.768  11.369  4.9857  0.1127 -1.8896
  761MPD2    H211244   0.647   0.371  11.389  1.3300  1.0121  1.6599
  761MPD2    H311245   0.688   0.577  11.491  1.3323  1.1532 -0.0173
  761MPD2     N11246   0.896   0.751  11.120 -0.1764  1.0077 -0.3418
  761MPD2    H511247   0.931   0.832  11.170 -1.4041  0.3778  1.5016
  761MPD2    N111248   0.678   0.309  11.138 -0.8056  0.8345  0.1609
  761MPD2    H711249   0.629   0.244  11.198 -0.6482  1.0793  0.5586
  762MPD2     C11250   0.799   0.218  10.379 -0.2265  0.2478 -0.2773
  762MPD2    C111251   0.850   0.134  10.475 -0.1225 -0.0998  0.6846
  762MPD2    C211252   0.976   0.075  10.464 -0.3571 -0.5934 -0.2279
  762MPD2    C311253   1.048   0.092  10.350  0.0210  0.2640 -0.8720
  762MPD2    C411254   0.999   0.175  10.249  0.3124  0.6788  0.1737
  762MPD2    C511255   0.879   0.233  10.266 -0.0394 -0.8179  0.4749
  762MPD2     H11256   1.018   0.025  10.550  0.6865 -0.9823 -0.9706
  762MPD2    H111257   1.061   0.197  10.163  0.3209  2.3273  0.5964
  762MPD2    H211258   0.698   0.255  10.386 -0.8287 -1.2843 -0.8249
  762MPD2    H311259   0.841   0.294  10.185  1.4254 -1.6390 -0.8312
  762MPD2     N11260   1.174   0.031  10.342 -0.1053 -0.7078 -0.2987
  762MPD2    H511261   1.200   4.688  10.416 -3.6966 -0.4132  1.2297
  762MPD2    N111262   0.770   0.104  10.588  0.2298  0.0728 -0.1731
  762MPD2    H711263   0.691   0.165  10.606  1.1700  0.7694  1.5722
  763MPD2     C11264   2.509   0.716  16.278 -0.5844 -0.2113  0.1191
  763MPD2    C111265   2.642   0.742  16.240 -0.5786  0.6225  0.6626
  763MPD2    C211266   2.722   0.823  16.316 -0.4336 -0.4010 -0.3522
  763MPD2    C311267   2.674   0.868  16.443 -0.1157  0.0725 -0.4247
  763MPD2    C411268   2.542   0.840  16.475  0.6397 -0.3210 -0.0903
  763MPD2    C511269   2.465   0.770  16.394 -0.5724 -0.7376  0.5694
  763MPD2     H11270   2.823   0.850  16.288 -0.7377  0.6477 -0.4348
  763MPD2    H111271   2.500   0.863  16.572  0.9392 -0.4886  0.0805
  763MPD2    H211272   2.450   0.640  16.227  2.0842 -1.6446 -0.7875
  763MPD2    H311273   2.371   0.732  16.430 -1.9273  0.9135 -1.2334
  763MPD2     N11274   2.770   0.933  16.525 -0.6429  0.3860  0.1674
  763MPD2    H511275   2.866   0.930  16.491 -0.8307 -1.2864 -0.1708
  763MPD2    N111276   2.695   0.685  16.117  0.5687 -0.2759 -0.1412
  763MPD2    H711277   2.793   0.706  16.099  0.7113  0.7144  1.7120
  764MPD2     C11278   1.157   2.278  17.436  0.9562  0.7822 -0.3297
  764MPD2    C111279   1.040   2.243  17.370 -0.4664 -0.0930 -0.3707
  764MPD2    C211280   0.935   2.203  17.448  0.3903  0.2372 -0.0916
  764MPD2    C311281   0.937   2.200  17.583 -0.1764 -0.2520  0.1458
  764MPD2    C411282   1.051   2.237  17.645  0.3494  0.1430  0.2544
  764MPD2    C511283   1.159   2.275  17.573  0.1956  0.2557  0.4044
  764MPD2     H11284   0.847   2.165  17.398  0.7489 -0.1927 -0.3937
  764MPD2    H111285   1.071   2.224   0.063 -0.0432  3.1819  0.6866
  764MPD2    H211286   1.243   2.315  17.382 -1.0453  3.7820 -1.4395
  764MPD2    H311287   1.256   2.285  17.621  0.5370  0.6666 -0.3698
  764MPD2     N11288   0.826   2.137  17.646 -0.2472 -0.8401 -0.0034
  764MPD2    H511289   0.764   2.082  17.587 -0.4909 -1.6919  1.0514
  764MPD2    N111290   1.017   2.248  17.233  0.0204  0.8108 -1.0843
  764MPD2    H711291   0.925   2.223  17.195 -0.1491 -0.4826  0.1575
  765MPD2     C11292   0.739   4.216  16.110 -0.2764  0.0302 -0.1079
  765MPD2    C111293   0.819   4.331  16.098  0.0641  0.5772 -0.2199
  765MPD2    C211294   0.955   4.319  16.093  0.6017 -0.1025  0.7373
  765MPD2    C311295   1.019   4.202  16.115 -0.9061  0.0493 -0.9327
  765MPD2    C411296   0.945   4.092  16.154 -0.0199 -0.4448  0.7735
  765MPD2    C511297   0.807   4.099  16.139  0.7298  0.3520  0.0156
  765MPD2     H11298   1.013   4.402  16.055 -0.0482 -0.9341 -2.1144
  765MPD2    H111299   0.993   3.999  16.182 -1.1660 -0.8115  1.4883
  765MPD2    H211300   0.632   4.225  16.121 -0.4459  0.0206 -1.8218
  765MPD2    H311301   0.755   4.005  16.154  1.5152 -0.3975 -1.9234
  765MPD2     N11302   1.159   4.196  16.088  0.0022 -0.7301  0.0321
  765MPD2    H511303   1.198   4.286  16.065  1.1611 -1.3348 -0.3619
  765MPD2    N111304   0.753   4.454  16.078 -0.1168  0.1247 -0.4208
  765MPD2    H711305   0.651   4.450  16.074 -0.1265  0.7673 -0.7885
  766MPD2     C11306   0.232   4.697  15.653  0.1074 -0.8244 -0.1140
  766MPD2    C111307   0.374   4.685  15.657 -0.3492 -0.0203 -0.0253
  766MPD2    C211308   0.444   4.644  15.546  0.5522  0.0598  0.0958
  766MPD2    C311309   0.377   4.616  15.429  0.3481  0.2523  0.4370
  766MPD2    C411310   0.243   4.622  15.427  0.7196 -0.5758 -0.9513
  766MPD2    C511311   0.177   4.675  15.537  0.4232 -0.0857  0.5357
  766MPD2     H11312   0.551   4.632  15.554  0.6418  0.1442 -1.0360
  766MPD2    H111313   0.194   4.602  15.333  0.6171 -0.8390 -0.8425
  766MPD2    H211314   0.172   0.009  15.736 -0.1375 -0.7518 -0.3215
  766MPD2    H311315   0.069   4.682  15.529  0.1470 -2.3223  2.1563
  766MPD2     N11316   0.445   4.611  15.311 -0.1219 -0.5114  0.5415
  766MPD2    H511317   0.387   4.611  15.228  0.1310  1.4526  0.3582
  766MPD2    N111318   0.448   4.709  15.776 -0.2454  0.5515  0.6336
  766MPD2    H711319   0.550   4.704  15.770 -0.1601  1.0262  1.6753
  767MPD2     C11320   0.129   0.315  15.320  0.1704 -0.2242  0.3844
  767MPD2    C111321   0.252   0.278  15.264  0.5750  1.0080 -0.2255
  767MPD2    C211322   0.260   0.244  15.134 -0.1555  0.0803  0.0169
  767MPD2    C311323   0.146   0.254  15.054  0.5383  0.2721  0.2793
  767MPD2    C411324   0.026   0.301  15.111  0.6148 -0.1263 -1.1212
  767MPD2    C511325   0.019   0.345  15.241  0.3295  0.0378  0.1659
  767MPD2     H11326   0.354   0.217  15.087 -0.4201 -0.2725 -0.3117
  767MPD2    H111327   4.654   0.323  15.060  0.6997  2.7342 -0.0195
  767MPD2    H211328   0.122   0.345  15.424  3.2978 -1.0749  0.8155
  767MPD2    H311329   4.641   0.371  15.275  0.8413 -0.4784  2.0687
  767MPD2     N11330   0.154   0.203  14.927 -0.4575 -0.4428 -0.3540
  767MPD2    H511331   0.237   0.157  14.891 -0.1076 -2.3253  2.8251
  767MPD2    N111332   0.364   0.277  15.353 -0.3444  0.4881 -0.1863
  767MPD2    H711333   0.351   0.328  15.440 -2.0596  1.5067 -1.0498
  768MPD2     C11334   1.057   3.592  10.778  0.0362  0.1563  0.1925
  768MPD2    C111335   1.007   3.516  10.879  0.1213  0.0120 -0.7517
  768MPD2    C211336   1.090   3.479  10.988  0.1656 -0.4038 -0.2921
  768MPD2    C311337   1.222   3.524  10.998  0.8540  0.3928 -0.2631
  768MPD2    C411338   1.269   3.599  10.893 -0.1163 -0.5160 -0.2070
  768MPD2    C511339   1.193   3.626  10.780  0.6191  0.4765 -0.3161
  768MPD2     H11340   1.050   3.423  11.072  0.1877  0.2929  0.1903
  768MPD2    H111341   1.371   3.635  10.900  0.5713 -2.2203 -1.5735
  768MPD2    H211342   1.000   3.609  10.687  0.6196  0.3580 -0.1349
  768MPD2    H311343   1.233   3.677  10.694  0.7418 -2.1800 -1.8326
  768MPD2     N11344   1.310   3.490  11.104 -0.5479 -0.2293  0.5477
  768MPD2    H511345   1.399   3.539  11.105 -0.0909 -1.0508  0.7073
  768MPD2    N111346   0.868   3.496  10.893 -0.1288  0.2117 -0.2508
  768MPD2    H711347   0.837   3.437  10.970  0.4010 -0.7613 -0.7813
  769MPD2     C11348   2.019   1.753  15.172 -0.7769 -0.7572 -0.0310
  769MPD2    C111349   1.949   1.761  15.290  0.6356 -0.4069 -0.6959
  769MPD2    C211350   2.009   1.812  15.404 -0.1107  0.0594 -0.4902
  769MPD2    C311351   2.137   1.862  15.392 -0.7402  0.1879  0.3597
  769MPD2    C411352   2.203   1.862  15.273  0.0514 -0.1509  0.3528
  769MPD2    C511353   2.148   1.804  15.162  0.0914  0.0962 -0.0538
  769MPD2     H11354   1.966   1.820  15.503 -0.2484 -2.0711 -0.3726
  769MPD2    H111355   2.301   1.895  15.244 -0.0600  0.3607  0.5532
  769MPD2    H211356   1.964   1.726  15.082 -2.0906 -0.2462  0.6130
  769MPD2    H311357   2.203   1.814  15.069 -0.3224 -0.8136 -0.3946
  769MPD2     N11358   2.202   1.909  15.511 -0.2726 -0.3548 -0.1728
  769MPD2    H511359   2.143   1.930  15.591 -0.9504 -0.0294 -0.7562
  769MPD2    N111360   1.812   1.718  15.283  0.7806  0.1594 -0.1280
  769MPD2    H711361   1.778   1.687  15.193  0.9501  3.2835 -1.2753
  770MPD2     C11362   1.454   0.870  15.691  0.7005  0.3526 -0.0277
  770MPD2    C111363   1.544   0.881  15.585  0.5940  0.3899 -0.2475
  770MPD2    C211364   1.530   0.991  15.497 -0.9266  0.0810 -0.7535
  770MPD2    C311365   1.455   1.102  15.538 -0.2628  0.8657  0.0498
  770MPD2    C411366   1.380   1.098  15.656 -0.2438 -0.0476 -0.0968
  770MPD2    C511367   1.375   0.981  15.729  0.0285  0.2390 -1.1667
  770MPD2     H11368   1.600   0.993  15.414 -0.7656 -0.4574 -0.6338
  770MPD2    H111369   1.326   1.175  15.709  0.0314 -0.2776  0.5164
  770MPD2    H211370   1.462   0.775  15.743 -0.4949 -0.5169 -1.4392
  770MPD2    H311371   1.324   0.978  15.825  0.1327  0.8495 -1.0920
  770MPD2     N11372   1.454   1.216  15.460 -0.2840 -0.6264 -0.8079
  770MPD2    H511373   1.496   1.212  15.368 -3.1249 -0.3158 -2.1317
  770MPD2    N111374   1.630   0.778  15.553 -0.1836 -0.2095  0.3768
  770MPD2    H711375   1.627   0.689  15.602  1.2928 -0.2592  0.3828
  771MPD2     C11376   3.059   4.225  13.499 -0.5111  0.0863  0.0428
  771MPD2    C111377   2.969   4.319  13.464  0.6507  0.1253  0.1343
  771MPD2    C211378   2.854   4.293  13.390 -0.4019 -0.2507 -0.1763
  771MPD2    C311379   2.844   4.165  13.335 -0.6327 -0.3474  0.3334
  771MPD2    C411380   2.935   4.062  13.372  0.2247  0.4652 -0.2676
  771MPD2    C511381   3.042   4.093  13.462 -0.5990 -0.8211  0.4878
  771MPD2     H11382   2.788   4.375  13.362 -1.1459 -0.7451  0.1497
  771MPD2    H111383   2.919   3.961  13.337  0.1933  0.9974 -1.7662
  771MPD2    H211384   3.145   4.239  13.564 -0.9126 -0.6204  0.7358
  771MPD2    H311385   3.109   4.019  13.503 -0.3193 -0.8433 -0.0204
  771MPD2     N11386   2.752   4.148  13.226 -0.6175  0.4448 -0.1422
  771MPD2    H511387   2.669   4.208  13.223 -1.0842 -0.2373 -1.1036
  771MPD2    N111388   2.989   4.454  13.499  0.1043 -0.0863  0.2754
  771MPD2    H711389   2.916   4.517  13.468 -0.1012 -0.9582 -0.9624
  772MPD2     C11390   2.540   0.313  13.601 -0.2225  0.1034  0.3328
  772MPD2    C111391   2.560   0.186  13.566 -0.0184 -0.0790  0.1326
  772MPD2    C211392   2.444   0.117  13.538  0.2533  0.0169  0.2035
  772MPD2    C311393   2.321   0.184  13.518  0.3512  0.0916 -0.1592
  772MPD2    C411394   2.313   0.314  13.548  0.0191  0.7427  0.2530
  772MPD2    C511395   2.419   0.376  13.598 -0.2505 -0.4530 -0.0173
  772MPD2     H11396   2.449   0.013  13.509  0.5825 -0.0838  0.6154
  772MPD2    H111397   2.215   0.361  13.543 -0.0113  0.4834 -1.9545
  772MPD2    H211398   2.617   0.384  13.631  1.9082 -1.8703 -0.5191
  772MPD2    H311399   2.425   0.481  13.625  1.8789 -0.6472  0.2348
  772MPD2     N11400   2.197   0.123  13.484 -0.6236  0.5995 -1.0174
  772MPD2    H511401   2.115   0.182  13.468 -0.2719  1.5526  0.7236
  772MPD2    N111402   2.688   0.131  13.552  0.5427 -0.0323  0.6374
  772MPD2    H711403   2.696   0.035  13.518 -3.7604  0.7144 -2.5015
  773MPD2     C11404   1.670   1.098   0.515 -0.2324 -0.5093 -0.3516
  773MPD2    C111405   1.693   0.996   0.421 -0.0193  1.2970  0.1521
  773MPD2    C211406   1.788   0.900   0.448  0.3472  0.4142  0.5741
  773MPD2    C311407   1.860   0.894   0.562 -0.2040 -0.1613  0.1655
  773MPD2    C411408   1.839   0.995   0.652  0.0630 -0.3271  0.4799
  773MPD2    C511409   1.744   1.092   0.632  1.3760  0.2121  0.2043
  773MPD2     H11410   1.773   0.809   0.391  0.4680  0.8057 -0.0814
  773MPD2    H111411   1.887   1.004   0.749 -1.1858  0.7562  1.0038
  773MPD2    H211412   1.610   1.185   0.492  2.2491  1.0193 -0.9431
  773MPD2    H311413   1.741   1.174   0.703 -1.1076  0.2975  0.0068
  773MPD2     N11414   1.948   0.783   0.586  1.1765 -0.3891  0.2052
  773MPD2    H511415   1.938   0.697   0.533 -0.9984  1.5647 -2.5299
  773MPD2    N111416   1.612   0.994   0.306  0.1647 -0.3356  0.5555
  773MPD2    H711417   1.528   1.050   0.304 -0.0176 -0.7236 -1.8551
  774MPD2     C11418   0.482   0.250  13.849  0.0177 -0.4398  0.0575
  774MPD2    C111419   0.601   0.232  13.788  0.4174  0.0601 -0.4042
  774MPD2    C211420   0.674   0.340  13.739 -0.2102  0.1970 -0.5889
  774MPD2    C311421   0.628   0.469  13.767 -0.3138  0.3436 -0.5781
  774MPD2    C411422   0.508   0.488  13.839  0.2881 -0.3250 -0.0717
  774MPD2    C511423   0.434   0.376  13.880 -0.3457  0.2573 -0.1895
  774MPD2     H11424   0.776   0.334  13.704 -0.1642 -0.4331 -0.3594
  774MPD2    H111425   0.460   0.578  13.876 -1.9610 -1.3778 -0.4031
  774MPD2    H211426   0.415   0.169  13.873 -0.7820  0.8483  2.1773
  774MPD2    H311427   0.350   0.399  13.945 -0.7844 -0.6484 -0.4353
  774MPD2     N11428   0.707   0.575  13.732 -0.1937  0.3231 -0.8406
  774MPD2    H511429   0.786   0.549  13.673  1.3646  2.5279  0.2614
  774MPD2    N111430   0.647   0.095  13.774  0.0418  0.8078 -0.1106
  774MPD2    H711431   0.600   0.023  13.828  1.1467  1.0150  1.1139
  775MPD2     C11432   2.504   1.735  15.976 -0.6063  0.2616  0.1296
  775MPD2    C111433   2.549   1.840  16.047 -0.4946 -0.8119 -0.2936
  775MPD2    C211434   2.641   1.926  15.994 -0.1851  0.1217 -0.6106
  775MPD2    C311435   2.699   1.901  15.870 -0.2593 -0.2574 -0.7883
  775MPD2    C411436   2.640   1.806  15.793  0.5197 -0.3730  0.2406
  775MPD2    C511437   2.543   1.723  15.843  0.0952  0.7364  0.1212
  775MPD2     H11438   2.679   2.002  16.061 -1.0018 -1.1256  1.2453
  775MPD2    H111439   2.672   1.793  15.690  1.3395 -1.5232  0.6506
  775MPD2    H211440   2.437   1.660  16.017 -0.3308 -1.4610 -2.5234
  775MPD2    H311441   2.504   1.639  15.786 -0.6270 -0.3528  2.2253
  775MPD2     N11442   2.808   1.979  15.807  0.2870  0.5247  0.2903
  775MPD2    H511443   2.832   1.961  15.710 -1.7674 -0.7346  0.0260
  775MPD2    N111444   2.498   1.848  16.175 -0.1302 -0.0146 -0.3001
  775MPD2    H711445   2.428   1.776  16.189 -1.3055  1.6048  2.1660
  776MPD2     C11446   1.926   1.759  11.721 -0.0673  0.9242  0.2180
  776MPD2    C111447   1.811   1.811  11.666  0.6416 -0.1956  0.3577
  776MPD2    C211448   1.807   1.947  11.634 -0.4936 -0.2962  0.1011
  776MPD2    C311449   1.911   2.028  11.671 -0.7536 -0.2152  0.5302
  776MPD2    C411450   2.020   1.978  11.735  0.3303 -0.3595  0.4065
  776MPD2    C511451   2.027   1.840  11.767 -0.0514 -0.4402  0.2322
  776MPD2     H11452   1.728   1.987  11.572  0.3238 -1.9769 -2.0311
  776MPD2    H111453   2.108   2.039  11.747  0.5374 -0.0981 -2.2935
  776MPD2    H211454   1.928   1.651  11.726  1.0833  0.9418  0.1259
  776MPD2    H311455   2.108   1.794  11.823 -0.5363 -0.1864  1.1395
  776MPD2     N11456   1.934   2.159  11.619 -0.3582  0.0762 -0.0984
  776MPD2    H511457   2.023   2.203  11.640  0.0537 -0.4685 -0.6924
  776MPD2    N111458   1.706   1.722  11.628  1.4835  0.0987 -0.0855
  776MPD2    H711459   1.709   1.628  11.667  0.4700 -0.3961 -1.2242
  777MPD2     C11460   1.388   4.241   0.899 -0.4302 -0.1804 -0.1257
  777MPD2    C111461   1.506   4.194   0.949  0.5239 -0.8565  0.0722
  777MPD2    C211462   1.573   4.078   0.906 -0.3643 -0.2225  0.5205
  777MPD2    C311463   1.513   4.000   0.814  0.9179  0.2685  0.3317
  777MPD2    C411464   1.378   4.029   0.769  0.4761  0.5033  0.2110
  777MPD2    C511465   1.321   4.148   0.814  0.4513 -0.7629 -0.2382
  777MPD2     H11466   1.672   4.051   0.942 -0.6942 -0.0357  1.5739
  777MPD2    H111467   1.329   3.960   0.701 -0.2205  0.1820  1.0395
  777MPD2    H211468   1.341   4.325   0.948  0.1403  0.2718 -0.3530
  777MPD2    H311469   1.220   4.176   0.784  1.5795  1.7215 -1.7374
  777MPD2     N11470   1.590   3.890   0.759  0.6983  0.6475 -0.4426
  777MPD2    H511471   1.676   3.867   0.808  0.9149  2.6466  0.0988
  777MPD2    N111472   1.557   4.259   1.060  0.3208  0.1929  0.1696
  777MPD2    H711473   1.511   4.347   1.081 -0.2314  0.6391 -2.9165
  778MPD2     C11474   2.684   0.084  14.369  0.6764 -0.0251  0.4158
  778MPD2    C111475   2.740   4.677  14.366 -0.5388  0.8560  0.3934
  778MPD2    C211476   2.878   4.666  14.346  0.1092  0.4316 -0.1415
  778MPD2    C311477   2.959   0.052  14.331  0.1707 -0.2181 -0.1200
  778MPD2    C411478   2.897   0.177  14.329 -0.6013  0.0414  0.3046
  778MPD2    C511479   2.759   0.191  14.344 -0.6659 -0.7987 -0.1908
  778MPD2     H11480   2.916   4.564  14.354 -0.0468  0.5437  2.0687
  778MPD2    H111481   2.957   0.262  14.298  0.8161 -1.4547 -1.0199
  778MPD2    H211482   2.581   0.115  14.379  0.4175 -0.3389 -1.1971
  778MPD2    H311483   2.712   0.288  14.345  1.5114  0.2469 -1.1474
  778MPD2     N11484   3.099   0.023  14.317  0.5884  0.1450  0.5066
  778MPD2    H511485   3.122   4.646  14.308  0.5204  0.0551  1.3942
  778MPD2    N111486   2.663   4.556  14.385  0.7462 -0.1874  0.3560
  778MPD2    H711487   2.714   4.469  14.374  0.9206 -0.2228  1.5085
  779MPD2     C11488   2.763   2.947  13.692  0.1943  0.4535 -0.6300
  779MPD2    C111489   2.814   2.969  13.822  0.6602  0.3178 -0.0879
  779MPD2    C211490   2.842   3.101  13.859 -0.7926 -0.3808 -0.1088
  779MPD2    C311491   2.807   3.212  13.782  0.5752 -0.6547 -0.2725
  779MPD2    C411492   2.737   3.182  13.672 -0.0772  0.3565  0.6952
  779MPD2    C511493   2.719   3.058  13.627  0.4677 -0.0394 -0.0452
  779MPD2     H11494   2.889   3.115  13.956 -1.0376  1.6206 -0.2922
  779MPD2    H111495   2.697   3.254  13.600  3.1323  1.1100 -0.3349
  779MPD2    H211496   2.744   2.855  13.638 -1.1365  0.2668  0.1375
  779MPD2    H311497   2.663   3.037  13.536 -0.6810  0.6812  0.4888
  779MPD2     N11498   2.838   3.344  13.802 -0.2222  0.1841 -1.0381
  779MPD2    H511499   2.799   3.400  13.728  1.7590  2.7043 -0.1791
  779MPD2    N111500   2.833   2.873  13.927  0.3181  0.0852  0.0646
  779MPD2    H711501   2.830   2.913  14.020 -0.0752 -2.4790  1.1457
  780MPD2     C11502   3.130   3.421   0.938 -0.1971  0.2260 -0.2732
  780MPD2    C111503   3.014   3.371   0.976 -0.3730  0.8403  0.4640
  780MPD2    C211504   2.909   3.378   0.888 -0.2888 -0.0669  0.1431
  780MPD2    C311505   2.919   3.442   0.772 -0.2041 -0.0920 -0.0223
  780MPD2    C411506   3.042   3.485   0.733  0.1324  0.1272 -0.6569
  780MPD2    C511507   3.150   3.474   0.815  0.3447  0.4186  0.1877
  780MPD2     H11508   2.819   3.325   0.915 -1.7145  2.3885  0.1858
  780MPD2    H111509   3.065   3.536   0.640  0.4749  0.3481 -0.4505
  780MPD2    H211510   3.217   3.411   1.003  0.3671  1.2958 -0.8535
  780MPD2    H311511   3.249   3.501   0.779  0.5854 -0.3894  0.2389
  780MPD2     N11512   2.798   3.468   0.703 -0.4143 -0.6874 -0.1340
  780MPD2    H511513   2.708   3.429   0.727 -0.5110  0.3447  1.2174
  780MPD2    N111514   2.992   3.318   1.104  0.3090  0.0689 -0.5982
  780MPD2    H711515   2.898   3.294   1.136 -0.2653  2.7785 -0.3092
  781MPD2     C11516   4.098   0.671  11.850 -0.3464 -0.1396 -0.6859
  781MPD2    C111517   4.182   0.607  11.936  0.8432 -0.3193  0.0782
  781MPD2    C211518   4.293   0.533  11.893 -0.4111 -0.3565  0.6015
  781MPD2    C311519   4.336   0.543  11.761 -0.6538 -0.0645 -0.2406
  781MPD2    C411520   4.247   0.603  11.672 -0.3597  0.8284  0.3714
  781MPD2    C511521   4.132   0.667  11.712 -0.4499  0.5630  0.0611
  781MPD2     H11522   4.359   0.487  11.966  1.3630  0.9050 -0.2035
  781MPD2    H111523   4.272   0.602  11.566  1.2371 -0.2549  0.7549
  781MPD2    H211524   4.009   0.722  11.885 -0.1985  0.5249 -1.2730
  781MPD2    H311525   4.062   0.717  11.647  0.7663  0.3590 -1.4103
  781MPD2     N11526   4.456   0.482  11.708  0.2009  0.0416 -0.1471
  781MPD2    H511527   4.473   0.479  11.608  1.3570 -1.5856  0.1012
  781MPD2    N111528   4.133   0.614  12.074  0.1449 -0.0811  0.0552
  781MPD2    H711529   4.051   0.672  12.091  1.2045  2.0342 -2.0485
  782MPD2     C11530   1.440   1.261  10.000 -0.6374  0.1119  0.0636
  782MPD2    C111531   1.548   1.189  10.035 -0.0025 -0.7208  0.4332
  782MPD2    C211532   1.623   1.224  10.147 -0.4081 -0.4015  0.4609
  782MPD2    C311533   1.582   1.326  10.231  0.8074 -0.0512  0.1109
  782MPD2    C411534   1.466   1.391  10.199  0.2307  0.7565  0.4256
  782MPD2    C511535   1.398   1.365  10.082  0.6176 -0.2170  0.4779
  782MPD2     H11536   1.713   1.170  10.175  0.8294  0.5379 -1.7668
  782MPD2    H111537   1.426   1.470  10.261 -1.4159  0.6395 -0.4853
  782MPD2    H211538   1.383   1.235   9.912  0.9937  0.4312 -1.0877
  782MPD2    H311539   1.323   1.436  10.048 -0.5971 -1.0767  1.3465
  782MPD2     N11540   1.657   1.354  10.347  0.5816 -0.6765 -0.1815
  782MPD2    H511541   1.741   1.299  10.364  1.2688  0.4616  0.0669
  782MPD2    N111542   1.581   1.077   9.958 -0.8762 -0.0039 -0.0571
  782MPD2    H711543   1.507   1.035   9.903 -1.4140  1.6020 -0.5271
  783MPD2     C11544   1.160   0.525  10.487 -0.1708 -0.9992 -0.1677
  783MPD2    C111545   1.214   0.650  10.493 -0.0648 -0.2471  0.4059
  783MPD2    C211546   1.301   0.697  10.394 -0.4697  0.3694 -0.4795
  783MPD2    C311547   1.346   0.609  10.297  0.3566  0.5145  0.4739
  783MPD2    C411548   1.299   0.479  10.298  0.4469  0.3858  0.1430
  783MPD2    C511549   1.205   0.444  10.389  0.8053 -0.2053 -0.5441
  783MPD2     H11550   1.332   0.800  10.382 -0.9165  0.5240 -0.2638
  783MPD2    H111551   1.349   0.410  10.231  0.3977 -0.6102  1.1259
  783MPD2    H211552   1.098   0.489  10.568 -1.6003 -3.8914 -2.5359
  783MPD2    H311553   1.171   0.342  10.381 -0.8040  0.2527  0.2691
  783MPD2     N11554   1.433   0.656  10.199 -0.6009 -0.4826 -0.0836
  783MPD2    H511555   1.465   0.752  10.216 -0.2946 -0.8611  1.5258
  783MPD2    N111556   1.179   0.729  10.608 -0.1919 -0.1614  0.3897
  783MPD2    H711557   1.126   0.688  10.684 -1.4514  1.3990  0.3631
  784MPD2     C11558   0.542   1.727   1.226  0.0086  1.1931  0.7831
  784MPD2    C111559   0.641   1.806   1.169  0.0494 -0.3517 -0.7918
  784MPD2    C211560   0.617   1.863   1.045  0.0158 -0.3934 -0.3237
  784MPD2    C311561   0.493   1.859   0.978 -0.0367  0.4770  0.4954
  784MPD2    C411562   0.388   1.792   1.054 -0.2715  0.0865  0.1782
  784MPD2    C511563   0.421   1.727   1.166  0.0743  0.0907  0.2357
  784MPD2     H11564   0.691   1.927   0.999 -0.5367  1.0941  0.8703
  784MPD2    H111565   0.287   1.782   1.017 -0.0189 -0.4620 -0.3545
  784MPD2    H211566   0.552   1.676   1.321  3.0214  0.4849  0.0905
  784MPD2    H311567   0.337   1.681   1.218  0.9432 -2.5001 -0.6741
  784MPD2     N11568   0.479   1.923   0.854 -0.2063 -0.4841 -0.1121
  784MPD2    H511569   0.564   1.960   0.815  0.0259 -0.4925  0.3806
  784MPD2    N111570   0.771   1.829   1.226  0.0891 -0.2341 -0.3510
  784MPD2    H711571   0.830   1.899   1.183 -0.1541  0.1179 -0.1130
  785MPD2     C11572   0.369   3.957   9.532 -0.3183  0.7361  0.1960
  785MPD2    C111573   0.321   3.903   9.645 -0.3194  0.6457  0.0328
  785MPD2    C211574   0.254   3.779   9.627  0.5064  0.2334  0.1826
  785MPD2    C311575   0.217   3.728   9.502  0.6553 -0.5600 -0.5523
  785MPD2    C411576   0.263   3.794   9.388 -0.4402 -0.2374 -0.0622
  785MPD2    C511577   0.336   3.909   9.407 -0.4911 -0.3458 -0.2556
  785MPD2     H11578   0.208   3.730   9.712 -0.3328 -1.1017 -1.0442
  785MPD2    H111579   0.249   3.761   9.285 -1.3067 -1.7118  0.5252
  785MPD2    H211580   0.423   4.050   9.539 -0.6037  0.9795 -0.9930
  785MPD2    H311581   0.362   3.976   9.326 -2.4030 -0.4399 -0.9554
  785MPD2     N11582   0.143   3.607   9.490 -0.2341  0.1639  0.2516
  785MPD2    H511583   0.120   3.563   9.578 -2.6996 -1.2016 -1.0648
  785MPD2    N111584   0.337   3.967   9.772  0.3829  0.4815 -0.3587
  785MPD2    H711585   0.396   4.049   9.766  0.2077  0.7217  1.3566
  786MPD2     C11586   3.405   2.726  14.716 -0.5057  0.4633 -0.1092
  786MPD2    C111587   3.376   2.638  14.814  0.6641 -0.6009 -0.1921
  786MPD2    C211588   3.433   2.651  14.935  0.0289 -0.3892 -0.2146
  786MPD2    C311589   3.529   2.751  14.952  0.2044 -0.4811  0.4773
  786MPD2    C411590   3.562   2.834  14.850 -0.5195 -0.4579 -0.1124
  786MPD2    C511591   3.479   2.832  14.742  0.6320 -0.4736 -0.7568
  786MPD2     H11592   3.407   2.586  15.018  1.6600 -0.4317  0.2654
  786MPD2    H111593   3.627   2.918  14.870 -1.7613  0.3343  0.6438
  786MPD2    H211594   3.354   2.713  14.620 -0.8646 -0.0568  0.1506
  786MPD2    H311595   3.490   2.908  14.665  0.6811 -0.8086 -1.0793
  786MPD2     N11596   3.604   2.756  15.070 -0.3526 -0.3720 -0.5988
  786MPD2    H511597   3.677   2.825  15.077 -1.1882  0.4213  0.4438
  786MPD2    N111598   3.301   2.524  14.787 -0.4994 -0.0789 -0.1719
  786MPD2    H711599   3.284   2.463  14.866  1.5501 -1.9655 -1.1872
  787MPD2     C11600   3.495   1.997  15.074  0.2157 -0.5139 -0.0428
  787MPD2    C111601   3.494   1.955  14.941  0.2225  0.5046 -0.1799
  787MPD2    C211602   3.573   1.851  14.896 -0.3221 -0.6031 -0.5254
  787MPD2    C311603   3.648   1.778  14.987 -0.5617 -0.1926 -0.6295
  787MPD2    C411604   3.643   1.822  15.116 -0.3416  0.2716  0.1736
  787MPD2    C511605   3.572   1.926  15.161  0.5993 -0.1039  0.6239
  787MPD2     H11606   3.574   1.828  14.790 -1.6686  0.2255 -0.7124
  787MPD2    H111607   3.707   1.775  15.189 -2.0103 -0.9526  0.8553
  787MPD2    H211608   3.440   2.080  15.116  0.8715 -0.0581 -0.0834
  787MPD2    H311609   3.582   1.977  15.257 -1.6492 -0.8064  1.2198
  787MPD2     N11610   3.722   1.668  14.938  0.4110 -0.0847  0.1859
  787MPD2    H511611   3.719   1.661  14.836 -3.5085  0.1163  0.2658
  787MPD2    N111612   3.416   2.038  14.852 -0.0435 -0.0262  0.7790
  787MPD2    H711613   3.382   2.125  14.891  0.3019  1.6401 -2.5755
  788MPD2     C11614   0.790   1.188   0.872  0.4672  0.1280 -0.6732
  788MPD2    C111615   0.682   1.111   0.887 -0.6159  0.6909  0.0574
  788MPD2    C211616   0.583   1.106   0.789 -0.4446  0.0674  0.0199
  788MPD2    C311617   0.592   1.181   0.670 -0.1383 -0.3162 -0.4464
  788MPD2    C411618   0.705   1.256   0.655 -0.5817  0.4171 -0.3020
  788MPD2    C511619   0.802   1.252   0.754 -0.7642 -0.0782 -0.4256
  788MPD2     H11620   0.499   1.039   0.805  0.4311 -1.1440 -0.4294
  788MPD2    H111621   0.716   1.320   0.568  0.6284 -0.3550 -0.7090
  788MPD2    H211622   0.871   1.175   0.942  0.1836 -0.4787 -0.4557
  788MPD2    H311623   0.887   1.313   0.726 -0.9030 -0.2068 -1.1123
  788MPD2     N11624   0.494   1.160   0.566 -0.3196 -0.3781 -0.2975
  788MPD2    H511625   0.517   1.194   0.474  1.9705  0.6045  0.6454
  788MPD2    N111626   0.659   1.034   0.999  0.0291 -0.1250  0.5680
  788MPD2    H711627   0.564   1.004   1.015  0.9412 -3.1576  0.2713
  789MPD2     C11628   0.888   0.403  16.260 -0.1386  0.8631  0.4384
  789MPD2    C111629   0.829   0.294  16.327  0.5100 -0.0850  0.0509
  789MPD2    C211630   0.713   0.317  16.387  0.3942 -0.2137  0.5302
  789MPD2    C311631   0.648   0.445  16.380 -0.0236 -0.5044  0.2740
  789MPD2    C411632   0.706   0.549  16.304 -0.5968 -1.0677 -0.2495
  789MPD2    C511633   0.825   0.528  16.248  0.0383 -0.8073  0.2302
  789MPD2     H11634   0.663   0.236  16.439 -3.0147  1.3306 -0.3120
  789MPD2    H111635   0.659   0.647  16.300  0.2285 -0.6831 -0.6378
  789MPD2    H211636   0.985   0.396  16.211 -1.1313 -1.0100 -1.2612
  789MPD2    H311637   0.875   0.613  16.204 -0.5110 -2.0338 -2.7775
  789MPD2     N11638   0.523   0.465  16.440  0.3110 -0.7645  0.0406
  789MPD2    H511639   0.474   0.550  16.415 -3.0348 -2.5498  0.4549
  789MPD2    N111640   0.889   0.168  16.348  0.0722 -0.4430 -0.1092
  789MPD2    H711641   0.839   0.102  16.407  0.1034 -0.3290  0.0453
  790MPD2     C11642   1.441   1.904  14.007 -0.2483 -0.6895 -0.7537
  790MPD2    C111643   1.553   1.849  13.969 -0.3772  0.1920  0.7209
  790MPD2    C211644   1.555   1.794  13.839  0.7873  0.4603  1.0685
  790MPD2    C311645   1.439   1.800  13.758 -0.0226 -0.4949  0.4675
  790MPD2    C411646   1.320   1.836  13.811  0.1135  0.2641 -0.2601
  790MPD2    C511647   1.329   1.900  13.933  0.1719  0.1848 -0.3451
  790MPD2     H11648   1.652   1.769  13.797 -0.0408  1.8398 -1.6790
  790MPD2    H111649   1.222   1.828  13.766  1.0173  0.5940 -2.2650
  790MPD2    H211650   1.431   1.952  14.103 -1.9652  0.2678 -1.4083
  790MPD2    H311651   1.241   1.943  13.979  1.1681  0.9301  0.8603
  790MPD2     N11652   1.451   1.740  13.631  0.4262  0.5533  0.3191
  790MPD2    H511653   1.545   1.723  13.596  0.7169  0.3745  1.1804
  790MPD2    N111654   1.662   1.844  14.057 -0.3338 -1.2059  0.7652
  790MPD2    H711655   1.657   1.899  14.142  1.0325 -0.9143  0.6577
  791MPD2     C11656   1.161   1.453  12.789  0.3362  0.4803  0.5846
  791MPD2    C111657   1.111   1.488  12.908 -0.3010 -0.1887 -0.2598
  791MPD2    C211658   0.970   1.476  12.934  0.5780 -0.6661 -0.0274
  791MPD2    C311659   0.882   1.422  12.834  0.6533 -0.2726 -0.2705
  791MPD2    C411660   0.944   1.391  12.710 -0.4265  0.5248  0.4866
  791MPD2    C511661   1.079   1.413  12.687  0.2503  0.0721 -0.0945
  791MPD2     H11662   0.922   1.501  13.028 -0.0984  0.2618 -0.6220
  791MPD2    H111663   0.877   1.352  12.634 -1.4475 -1.3894  2.3543
  791MPD2    H211664   1.267   1.468  12.773  0.1801  0.3867 -0.4933
  791MPD2    H311665   1.133   1.417  12.593  1.0728 -0.8279  0.3485
  791MPD2     N11666   0.742   1.398  12.867 -0.0228 -0.0552  0.0753
  791MPD2    H511667   0.712   1.429  12.959 -0.8847  1.6122 -0.7743
  791MPD2    N111668   1.209   1.525  13.005  0.2933  0.4518  0.5609
  791MPD2    H711669   1.305   1.511  12.973  0.8605  2.9471  1.1391
  792MPD2     C11670   1.925   1.696  11.270 -0.2212  0.5827  0.3704
  792MPD2    C111671   1.824   1.785  11.257  0.2345  0.5160  0.5312
  792MPD2    C211672   1.696   1.742  11.258 -0.1783 -0.1273  0.3723
  792MPD2    C311673   1.671   1.605  11.252 -0.3464  0.0414 -0.2448
  792MPD2    C411674   1.772   1.515  11.254 -0.9226 -0.2143  0.3546
  792MPD2    C511675   1.901   1.561  11.262  0.0863  0.7090  0.8523
  792MPD2     H11676   1.609   1.805  11.251  0.7887  1.1014 -0.4583
  792MPD2    H111677   1.751   1.410  11.238 -1.4872  0.2975 -2.2202
  792MPD2    H211678   2.027   1.732  11.265 -0.3166  0.9801  1.3862
  792MPD2    H311679   1.985   1.493  11.263 -0.9351 -0.5646  0.9215
  792MPD2     N11680   1.546   1.540  11.234  0.2702 -0.0678 -0.3823
  792MPD2    H511681   1.547   1.439  11.231 -3.0167 -0.1216 -0.0522
  792MPD2    N111682   1.857   1.923  11.246  0.0672  0.6148  0.5057
  792MPD2    H711683   1.956   1.946  11.247  0.2747 -0.2236 -0.2040
  793MPD2     C11684   0.969   1.935  10.669 -0.1147 -0.3818  0.2219
  793MPD2    C111685   1.097   1.900  10.682 -0.1566  0.0493 -0.0687
  793MPD2    C211686   1.130   1.842  10.799  0.4462  0.3414 -0.1355
  793MPD2    C311687   1.043   1.800  10.893 -0.8758 -0.7528 -0.6951
  793MPD2    C411688   0.909   1.825  10.873  0.5714  0.2409 -0.4199
  793MPD2    C511689   0.872   1.902  10.761 -0.0088 -0.0363  1.5211
  793MPD2     H11690   1.233   1.821  10.824  0.5253  3.2778  1.8957
  793MPD2    H111691   0.833   1.800  10.946  0.9443 -1.4820 -0.6021
  793MPD2    H211692   0.945   1.994  10.582 -2.5326 -1.6760  0.0035
  793MPD2    H311693   0.766   1.927  10.756  0.2527  0.7150 -0.2967
  793MPD2     N11694   1.089   1.717  10.997 -0.1686  0.4360 -0.9363
  793MPD2    H511695   1.190   1.710  11.005 -0.3302 -1.5184 -0.7475
  793MPD2    N111696   1.207   1.924  10.596  0.0348 -0.2066  0.0441
  793MPD2    H711697   1.296   1.886  10.628 -0.3237 -0.4319  0.7569
  794MPD2     C11698   1.629   0.905  17.122  0.2666 -0.3573 -0.0836
  794MPD2    C111699   1.523   0.981  17.171 -0.4426  0.7287  0.0108
  794MPD2    C211700   1.439   1.047  17.080 -0.8298  0.4090  1.0422
  794MPD2    C311701   1.462   1.042  16.940 -0.2063  0.4590 -0.0366
  794MPD2    C411702   1.564   0.964  16.896 -0.1912  0.4030  0.1713
  794MPD2    C511703   1.645   0.901  16.986 -0.3434 -0.3977 -0.6805
  794MPD2     H11704   1.356   1.107  17.116 -2.0776 -0.7576  0.0960
  794MPD2    H111705   1.587   0.961  16.790 -0.5864 -0.9722  0.1150
  794MPD2    H211706   1.704   0.849  17.176 -2.2843 -1.8065  1.8836
  794MPD2    H311707   1.723   0.835  16.947  0.8503  1.6711 -1.8108
  794MPD2     N11708   1.375   1.104  16.843 -0.0441 -0.3963  0.4784
  794MPD2    H511709   1.381   1.082  16.745  0.3034  0.2295  0.3576
  794MPD2    N111710   1.486   0.981  17.308  0.4602  0.4585 -0.0329
  794MPD2    H711711   1.403   1.034  17.334 -1.0649 -1.4146 -1.1026
  795MPD2     C11712   3.846   3.738  13.243 -0.5923 -0.3292 -0.7180
  795MPD2    C111713   3.773   3.646  13.310 -0.4027  0.7093  0.3176
  795MPD2    C211714   3.836   3.548  13.384 -0.1423 -0.2459  0.1491
  795MPD2    C311715   3.974   3.540  13.375 -0.3314 -0.1040 -0.3790
  795MPD2    C411716   4.038   3.629  13.293 -0.6818 -0.2212  0.2523
  795MPD2    C511717   3.978   3.740  13.242 -0.3762 -0.0685 -0.0785
  795MPD2     H11718   3.781   3.468  13.432 -2.8621  2.3521  1.3445
  795MPD2    H111719   4.144   3.630  13.267 -0.4043  1.4019  1.4507
  795MPD2    H211720   3.796   3.821  13.193 -1.4038  0.0994  0.8229
  795MPD2    H311721   4.047   3.804  13.188 -0.9300 -0.1637 -0.8823
  795MPD2     N11722   4.053   3.448  13.440  0.3944  0.2032 -0.3444
  795MPD2    H511723   4.153   3.446  13.423  0.3827 -0.9039 -0.2634
  795MPD2    N111724   3.632   3.631  13.292 -0.4544 -0.2791  0.0353
  795MPD2    H711725   3.584   3.562  13.350 -0.6494  2.9445  3.6874
  796MPD2     C11726   3.223   0.166  15.965 -0.4223  0.8187 -0.1897
  796MPD2    C111727   3.304   0.235  16.057  0.6737 -1.0264  0.1172
  796MPD2    C211728   3.303   0.377  16.052  0.0912  0.1012 -0.1150
  796MPD2    C311729   3.234   0.447  15.954  0.8339  0.2467  0.2210
  796MPD2    C411730   3.152   0.376  15.864 -0.2025  0.4254  0.1760
  796MPD2    C511731   3.153   0.241  15.876  0.2584  0.1823 -0.5537
  796MPD2     H11732   3.360   0.435  16.124 -1.2836 -0.5561  1.4885
  796MPD2    H111733   3.084   0.427  15.797 -0.1516 -2.3759 -2.0003
  796MPD2    H211734   3.221   0.058  15.959 -2.9562  0.9311 -1.5212
  796MPD2    H311735   3.082   0.201  15.804 -0.1444  0.2982 -0.2147
  796MPD2     N11736   3.244   0.591  15.961 -0.0167 -0.0889 -0.1740
  796MPD2    H511737   3.285   0.633  16.044  0.1210  2.3429 -1.4789
  796MPD2    N111738   3.378   0.157  16.150 -0.0704 -0.3708 -0.2453
  796MPD2    H711739   3.393   0.057  16.139  0.7579 -0.0073 -2.4367
  797MPD2     C11740   4.411   4.375  17.333 -0.1721  0.3151  0.2805
  797MPD2    C111741   4.395   4.440  17.452 -0.4007  0.3424  0.5790
  797MPD2    C211742   4.266   4.483  17.484  0.2593  0.0671  0.1910
  797MPD2    C311743   4.158   4.457  17.405  0.1849  0.0511  0.2517
  797MPD2    C411744   4.174   4.378  17.293  0.1091  0.5310 -0.2544
  797MPD2    C511745   4.303   4.343  17.255  0.4233  0.1099 -0.2071
  797MPD2     H11746   4.268   4.550  17.569  2.2811  0.8267 -0.4353
  797MPD2    H111747   4.094   4.347  17.226  0.2367  2.8218 -1.4801
  797MPD2    H211748   4.510   4.341  17.308 -0.3279  1.4681 -1.8599
  797MPD2    H311749   4.316   4.278  17.169 -1.0950 -0.1333 -0.2480
  797MPD2     N11750   4.033   4.514  17.428 -0.5447  0.1617 -0.5257
  797MPD2    H511751   3.960   4.470  17.373  0.7881 -1.3169 -1.0821
  797MPD2    N111752   4.512   4.470  17.527  0.1980 -0.3529 -0.4232
  797MPD2    H711753   4.595   4.446  17.474  1.4942  2.1707  0.4307
  798MPD2     C11754   4.173   0.433  17.625  0.1323  0.0628  0.4306
  798MPD2    C111755   4.159   0.293  17.634  0.4780 -1.1373  0.2774
  798MPD2    C211756   4.268   0.212  17.666  0.4049  1.0112 -0.6696
  798MPD2    C311757   4.386   0.278  17.687 -0.6294 -1.0743  0.0097
  798MPD2    C411758   4.407   0.411  17.656  0.4203 -0.5747  0.4076
  798MPD2    C511759   4.297   0.488  17.632  0.1477  0.0655  0.1365
  798MPD2     H11760   4.269   0.105  17.676  0.6595  0.9775 -1.0891
  798MPD2    H111761   4.499   0.467  17.665  1.2085 -1.8861  0.6223
  798MPD2    H211762   4.093   0.503  17.604  1.6847  1.6316 -0.1572
  798MPD2    H311763   4.316   0.591  17.605 -0.4108 -0.2738 -1.4917
  798MPD2     N11764   4.491   0.197   0.024 -0.9224  0.5091 -0.7116
  798MPD2    H511765   4.469   0.098   0.010  0.0907  0.2353 -0.3863
  798MPD2    N111766   4.045   0.224  17.611  0.3326  0.0091 -0.0552
  798MPD2    H711767   4.047   0.122  17.614  1.9308 -0.0090 -1.9745
  799MPD2     C11768   3.137   0.977  14.730 -0.1906 -0.5366  0.3890
  799MPD2    C111769   3.234   1.018  14.642  0.2266  0.0272 -0.2280
  799MPD2    C211770   3.231   1.144  14.599  0.0322 -0.2894 -0.7389
  799MPD2    C311771   3.134   1.239  14.640 -0.4272 -0.7146 -0.2410
  799MPD2    C411772   3.043   1.200  14.732 -0.2699 -0.2409  0.4839
  799MPD2    C511773   3.041   1.070  14.770 -0.5309  0.0286 -0.9915
  799MPD2     H11774   3.311   1.173  14.532  0.4631 -0.6066 -0.3560
  799MPD2    H111775   2.965   1.268  14.763 -0.1382  0.1007  0.0746
  799MPD2    H211776   3.125   0.876  14.765 -2.9791 -0.0501  0.8453
  799MPD2    H311777   2.968   1.029  14.839 -1.7113  2.0194 -1.0623
  799MPD2     N11778   3.120   1.366  14.581  0.5692  0.0856  0.1616
  799MPD2    H511779   3.031   1.411  14.598  0.3708 -0.0303 -0.6046
  799MPD2    N111780   3.334   0.933  14.597 -0.7069 -0.3399 -0.6479
  799MPD2    H711781   3.386   0.962  14.514 -1.2716 -0.0036 -0.8896
  800MPD2     C11782   4.041   2.753  14.767 -0.6475 -0.2520  0.1763
  800MPD2    C111783   4.123   2.694  14.672 -0.0040  0.3668  0.3635
  800MPD2    C211784   4.070   2.603  14.584  0.3822  0.4904  0.3356
  800MPD2    C311785   3.935   2.577  14.586 -0.1005 -0.0300 -0.2979
  800MPD2    C411786   3.850   2.632  14.681 -0.0424 -0.2066  0.8093
  800MPD2    C511787   3.912   2.712  14.773  0.1921  0.2205  0.1987
  800MPD2     H11788   4.130   2.571  14.500  0.4345 -0.8902  0.9024
  800MPD2    H111789   3.744   2.610  14.683  0.1159 -0.8832  1.9354
  800MPD2    H211790   4.077   2.836  14.826 -1.2440 -0.8523  1.3812
  800MPD2    H311791   3.843   2.766  14.837  1.5342  0.8177  1.1537
  800MPD2     N11792   3.891   2.486  14.490  0.7815 -0.1312 -0.5072
  800MPD2    H511793   3.960   2.451  14.424 -0.5766 -1.8038 -1.0116
  800MPD2    N111794   4.235   2.762  14.643 -1.0235  0.3147 -0.4607
  800MPD2    H711795   4.242   2.852  14.689  0.9343  0.8281 -1.7658
  801MPD2     C11796   4.223   3.420  14.307  0.2223 -0.7180  0.5283
  801MPD2    C111797   4.169   3.314  14.377  0.2082  0.0220 -0.0459
  801MPD2    C211798   4.038   3.319  14.426 -0.2171  0.9055 -0.4728
  801MPD2    C311799   3.956   3.428  14.403  0.1009  0.3374 -0.0215
  801MPD2    C411800   4.012   3.533  14.337  0.2195 -0.0319  0.0532
  801MPD2    C511801   4.139   3.526  14.283  0.3319  0.1420  0.0818
  801MPD2     H11802   3.999   3.232  14.478  2.0535  0.8377  1.1076
  801MPD2    H111803   3.953   3.622  14.319 -0.2755 -0.1277  1.2510
  801MPD2    H211804   4.328   3.426  14.281  0.1018 -0.2324  0.1440
  801MPD2    H311805   4.181   3.614  14.236  2.2525 -1.0770 -0.4811
  801MPD2     N11806   3.823   3.444  14.449  0.9073 -0.3148  0.3574
  801MPD2    H511807   3.778   3.535  14.439  1.4913  0.3328  3.4594
  801MPD2    N111808   4.249   3.197  14.409  0.0668  0.0468  0.0524
  801MPD2    H711809   4.203   3.120  14.457 -0.9066  0.6956  0.1535
  802MPD2     C11810   3.325   4.667   0.353  0.0620 -0.3993  0.7913
  802MPD2    C111811   3.237   4.561   0.341  0.4602  0.1434 -0.0568
  802MPD2    C211812   3.289   4.442   0.286 -0.8346  0.1493  0.1701
  802MPD2    C311813   3.425   4.433   0.244  0.1229  0.1137  0.3374
  802MPD2    C411814   3.501   4.546   0.246 -0.2442 -0.0454  0.2068
  802MPD2    C511815   3.455   4.655   0.310  0.5921 -0.2203 -0.5465
  802MPD2     H11816   3.238   4.347   0.300 -0.5727  0.1191  0.8948
  802MPD2    H111817   3.594   4.557   0.191  0.1693  0.1708  0.9550
  802MPD2    H211818   3.296   0.045   0.385 -0.5794 -1.3614  3.1986
  802MPD2    H311819   3.521   0.019   0.322 -2.0814  2.3046 -3.8392
  802MPD2     N11820   3.473   4.304   0.205 -0.3368 -0.1614  0.4818
  802MPD2    H511821   3.407   4.227   0.192  0.0839 -0.4124 -0.1595
  802MPD2    N111822   3.100   4.564   0.375 -0.1078 -0.0597 -0.4260
  802MPD2    H711823   3.055   4.473   0.370  0.3656 -0.2560 -1.2152
  803MPD2     C11824   0.222   2.198  11.963 -0.3566 -0.3254  0.0801
  803MPD2    C111825   0.106   2.264  11.971  0.2519  0.3095  0.4200
  803MPD2    C211826   4.718   2.204  12.026 -0.2135 -0.0539 -0.3811
  803MPD2    C311827   0.010   2.072  12.066 -0.2348 -0.4172  0.4764
  803MPD2    C411828   0.129   2.002  12.050 -0.6621 -0.0220  0.3829
  803MPD2    C511829   0.235   2.072  12.004  0.1105 -0.4358 -0.3544
  803MPD2     H11830   4.625   2.258  12.037  0.0282  0.2608  0.0890
  803MPD2    H111831   0.131   1.895  12.068  0.5638 -0.2106 -0.9101
  803MPD2    H211832   0.315   2.240  11.927  0.2968 -0.7864  1.2201
  803MPD2    H311833   0.334   2.029  11.997  0.3725  0.3559 -1.5841
  803MPD2     N11834   4.615   2.008  12.101 -0.3387 -0.1191  0.0037
  803MPD2    H511835   4.531   2.064  12.089 -1.1337 -0.9113  1.8385
  803MPD2    N111836   0.099   2.399  11.930 -0.8005  0.2760  0.1327
  803MPD2    H711837   0.020   2.456  11.958  0.2272  1.0454  1.4913
  804MPD2     C11838   3.959   3.342  17.105  1.2326  0.3213 -0.6612
  804MPD2    C111839   4.024   3.272  17.197  0.1770 -0.1402  0.0271
  804MPD2    C211840   4.115   3.337  17.276  0.4011 -0.5657  0.1641
  804MPD2    C311841   4.162   3.468  17.239  0.2911 -0.1877 -0.0849
  804MPD2    C411842   4.105   3.530  17.136 -1.0213  0.5222  0.3259
  804MPD2    C511843   4.002   3.465  17.073 -0.3088 -0.1688 -0.0549
  804MPD2     H11844   4.169   3.283  17.353 -0.0021 -1.3839 -0.1149
  804MPD2    H111845   4.133   3.626  17.093  1.9936  0.1583  1.4338
  804MPD2    H211846   3.872   3.303  17.053  0.3756 -0.5025  1.3673
  804MPD2    H311847   3.967   3.508  16.980 -0.5836 -2.6478 -1.0938
  804MPD2     N11848   4.273   3.518  17.314 -0.3119 -1.2271 -0.0246
  804MPD2    H511849   4.297   3.464  17.397  1.6861 -1.2262 -0.6032
  804MPD2    N111850   4.000   3.132  17.201 -0.2827  0.0527 -0.1567
  804MPD2    H711851   4.042   3.085  17.281  0.3932 -0.2010 -0.6626
  805MPD2     C11852   2.783   1.480  15.690 -0.4011  0.2228  0.1326
  805MPD2    C111853   2.824   1.576  15.604  0.9526 -0.3548  0.8080
  805MPD2    C211854   2.957   1.622  15.618  0.5267 -0.3657 -0.4291
  805MPD2    C311855   3.039   1.568  15.723  0.1045  0.2136  0.4459
  805MPD2    C411856   2.985   1.475  15.808 -0.0054  0.1438  0.3261
  805MPD2    C511857   2.856   1.434  15.786 -0.1357 -0.1825 -0.7741
  805MPD2     H11858   3.003   1.681  15.539  0.5717 -0.8125 -0.7391
  805MPD2    H111859   3.036   1.425  15.889  3.1335 -0.6938 -2.1896
  805MPD2    H211860   2.679   1.451  15.688 -0.4814  0.6005 -2.3505
  805MPD2    H311861   2.814   1.366  15.858  0.1679  1.3581  0.8763
  805MPD2     N11862   3.173   1.602  15.736  0.5507  0.4227 -0.8050
  805MPD2    H511863   3.216   1.663  15.667  3.3649 -1.2902 -0.5607
  805MPD2    N111864   2.750   1.633  15.491 -0.2703  0.4225  0.0796
  805MPD2    H711865   2.795   1.704  15.433 -0.6880  1.0855  0.5657
  806MPD2     C11866   3.460   1.261   0.348  0.1035  0.1624 -0.0374
  806MPD2    C111867   3.558   1.293   0.443 -1.2155 -0.2008  0.3415
  806MPD2    C211868   3.690   1.303   0.409 -0.1539  0.1897  0.0542
  806MPD2    C311869   3.733   1.271   0.281 -0.3580 -0.0825 -0.4717
  806MPD2    C411870   3.636   1.263   0.182  0.3607  0.5610  0.4373
  806MPD2    C511871   3.502   1.251   0.217  0.3916  0.3006  0.3440
  806MPD2     H11872   3.763   1.328   0.485 -0.4212 -0.4074  0.5066
  806MPD2    H111873   3.668   1.243   0.081 -1.3696 -0.2531  0.0585
  806MPD2    H211874   3.355   1.265   0.373  0.2216  0.5635  0.3813
  806MPD2    H311875   3.420   1.241   0.147  0.4688  1.6038  0.0653
  806MPD2     N11876   3.872   1.248   0.261  0.6025 -0.0645 -0.2616
  806MPD2    H511877   3.931   1.254   0.343 -1.7056 -0.9356  1.4542
  806MPD2    N111878   3.511   1.299   0.577 -0.0606 -0.7140  0.5208
  806MPD2    H711879   3.413   1.296   0.601 -0.1467 -0.2557  0.2279
  807MPD2     C11880   3.133   0.925   1.169 -0.4007 -0.3028 -0.0499
  807MPD2    C111881   3.211   1.009   1.239  0.1675 -0.4020 -0.0341
  807MPD2    C211882   3.220   1.016   1.381  0.2024  0.7242 -0.2371
  807MPD2    C311883   3.151   0.912   1.442 -0.4001 -0.6257  0.1559
  807MPD2    C411884   3.070   0.822   1.369 -0.3853  0.1931  0.3099
  807MPD2    C511885   3.053   0.837   1.231 -0.1885  0.1656 -0.5096
  807MPD2     H11886   3.280   1.091   1.430  1.7962  0.4513 -1.7850
  807MPD2    H111887   3.017   0.742   1.418  1.6229 -1.1416  0.3008
  807MPD2    H211888   3.133   0.910   1.062  1.0790  0.3708 -0.1513
  807MPD2    H311889   3.004   0.756   1.179  0.4080  0.0491 -0.8888
  807MPD2     N11890   3.157   0.915   1.586  0.5030  0.3620  0.2036
  807MPD2    H511891   3.200   0.995   1.632  0.1230 -0.6434  2.3124
  807MPD2    N111892   3.297   1.107   1.172 -0.7412 -0.0235  0.0280
  807MPD2    H711893   3.362   1.158   1.230  0.4686 -2.7700  1.0996
  808MPD2     C11894   4.213   1.594   9.956  0.1757 -0.1107  0.3075
  808MPD2    C111895   4.095   1.634  10.000  0.3536 -0.5108  0.0524
  808MPD2    C211896   4.048   1.762   9.961  0.6599  0.2783  0.0451
  808MPD2    C311897   4.115   1.831   9.858 -0.1135  0.2719 -0.1332
  808MPD2    C411898   4.233   1.781   9.806 -0.3490  0.0621  0.8033
  808MPD2    C511899   4.284   1.673   9.866  0.1446 -0.5956 -0.4446
  808MPD2     H11900   3.955   1.794  10.005 -1.2368 -2.1763 -2.1545
  808MPD2    H111901   4.284   1.819   9.718 -0.5881  0.5728  0.8848
  808MPD2    H211902   4.257   1.501   9.992  0.7772  0.3466  0.7579
  808MPD2    H311903   4.373   1.625   9.826  0.1544 -0.1735 -0.9308
  808MPD2     N11904   4.075   1.960   9.811  0.1236 -0.3372 -0.1749
  808MPD2    H511905   4.127   2.010   9.739 -0.5196 -0.6969 -0.9003
  808MPD2    N111906   4.004   1.569  10.090 -0.1547  0.2458  0.6125
  808MPD2    H711907   3.916   1.614  10.112  0.4270  2.0253 -0.6872
  809MPD2     C11908   4.093   2.650   9.116  0.2799  0.6199 -0.3679
  809MPD2    C111909   4.184   2.562   9.178 -0.1978  0.8730  0.2384
  809MPD2    C211910   4.136   2.502   9.297 -0.1142  0.2682 -0.2169
  809MPD2    C311911   4.010   2.526   9.348 -0.3294 -0.5537  0.1853
  809MPD2    C411912   3.935   2.619   9.285  0.0583  0.1428 -0.4255
  809MPD2    C511913   3.972   2.675   9.176 -0.3170 -0.1280  0.0106
  809MPD2     H11914   4.205   2.441   9.353 -2.4129 -2.5687 -0.4501
  809MPD2    H111915   3.841   2.644   9.332  0.1790  2.7534 -1.5457
  809MPD2    H211916   4.115   2.710   9.029 -2.4582  1.3221 -0.5650
  809MPD2    H311917   3.907   2.751   9.134  0.6024  1.3936  1.3594
  809MPD2     N11918   3.973   2.467   9.467 -0.2616 -0.5427 -0.0513
  809MPD2    H511919   3.891   2.504   9.513  0.3243 -1.4318  1.7081
  809MPD2    N111920   4.315   2.532   9.126  0.1598  0.4959 -0.8829
  809MPD2    H711921   4.379   2.477   9.182  0.3549  1.2072 -0.4086
  810MPD2     C11922   3.406   1.925  11.131  0.0063  0.1541  0.2900
  810MPD2    C111923   3.388   1.953  10.993  0.2023  0.8481 -0.1380
  810MPD2    C211924   3.415   2.078  10.949 -0.0555  0.3097 -0.7353
  810MPD2    C311925   3.460   2.172  11.037  0.0352 -0.6940  0.2142
  810MPD2    C411926   3.494   2.139  11.165  0.2197 -0.5246 -0.6811
  810MPD2    C511927   3.465   2.018  11.210  0.1169 -0.4974 -0.0220
  810MPD2     H11928   3.375   2.106  10.852  1.2632  1.6524 -0.8831
  810MPD2    H111929   3.541   2.206  11.237  2.0604 -0.7419 -1.6806
  810MPD2    H211930   3.395   1.821  11.160  0.5567  0.4093  1.3824
  810MPD2    H311931   3.495   1.998  11.312  0.7527  1.2697  0.1345
  810MPD2     N11932   3.473   2.302  10.996 -0.4245  0.5473 -0.4264
  810MPD2    H511933   3.482   2.379  11.062 -0.2149  0.8282 -0.7794
  810MPD2    N111934   3.335   1.857  10.906 -0.0879  0.2431 -0.1409
  810MPD2    H711935   3.295   1.771  10.943 -0.6898  0.8009  0.4840
  811MPD2     C11936   2.815   2.074  10.253  0.1358 -0.6571 -0.2527
  811MPD2    C111937   2.940   2.092  10.289 -0.0671 -0.8678 -0.1129
  811MPD2    C211938   3.009   2.202  10.250 -0.0043  0.2345 -0.0095
  811MPD2    C311939   2.945   2.307  10.179  0.2181  0.7322 -0.4029
  811MPD2    C411940   2.808   2.293  10.154  0.0913 -0.4068 -0.4396
  811MPD2    C511941   2.756   2.166  10.178 -0.5235  0.1451  0.4482
  811MPD2     H11942   3.115   2.219  10.263  0.1971  1.8062 -3.6453
  811MPD2    H111943   2.753   2.372  10.103 -0.4082  0.0401  0.7893
  811MPD2    H211944   2.772   1.975  10.266  0.1666 -1.2168 -4.3305
  811MPD2    H311945   2.653   2.153  10.146  0.8204 -1.0006 -3.4313
  811MPD2     N11946   3.025   2.419  10.142 -0.0259 -0.6560 -0.0096
  811MPD2    H511947   3.125   2.412  10.158  0.0429 -0.9143 -0.5730
  811MPD2    N111948   2.991   1.989  10.374  0.6713 -0.0907  0.0114
  811MPD2    H711949   2.925   1.916  10.398  1.5159 -0.1231  2.2615
  812MPD2     C11950   2.704   1.778  12.502  0.2717 -0.5150 -0.4210
  812MPD2    C111951   2.589   1.838  12.554 -0.2488  1.6749 -0.3393
  812MPD2    C211952   2.527   1.779  12.666  0.3198 -0.1666  0.4417
  812MPD2    C311953   2.577   1.658  12.711  0.0826  0.0908 -0.2151
  812MPD2    C411954   2.694   1.597  12.659  0.0773 -0.1202  0.5402
  812MPD2    C511955   2.755   1.663  12.557 -0.7146  0.3283 -0.5912
  812MPD2     H11956   2.452   1.841  12.713 -0.4169  0.3348 -1.4298
  812MPD2    H111957   2.727   1.501  12.696  1.7257  0.1952 -0.0846
  812MPD2    H211958   2.751   1.824  12.416 -0.7205 -0.0384 -0.7000
  812MPD2    H311959   2.851   1.624  12.523 -0.0976  1.5234 -0.2482
  812MPD2     N11960   2.503   1.601  12.819 -0.2394 -0.5196 -0.1595
  812MPD2    H511961   2.426   1.660  12.848  0.2830  0.9327 -1.6972
  812MPD2    N111962   2.532   1.965  12.504 -0.0386 -0.3048 -0.4864
  812MPD2    H711963   2.592   2.025  12.449 -0.5941 -0.3591 -1.1435
  813MPD2     C11964   1.428   3.760  12.533  0.2703  0.3421 -0.0533
  813MPD2    C111965   1.393   3.881  12.593  0.0101  0.5506  0.5848
  813MPD2    C211966   1.277   3.897  12.664  0.6969  0.0638  0.2956
  813MPD2    C311967   1.193   3.792  12.684  0.3952 -0.0097  0.5415
  813MPD2    C411968   1.232   3.666  12.643  0.2693 -0.1136 -0.0571
  813MPD2    C511969   1.348   3.657  12.559 -0.0592  0.6005  0.1394
  813MPD2     H11970   1.254   3.991  12.711  0.2462  0.4202 -0.6355
  813MPD2    H111971   1.184   3.574  12.673  1.4540 -0.6525  0.1819
  813MPD2    H211972   1.515   3.750  12.470 -1.2625 -0.4797 -2.0249
  813MPD2    H311973   1.391   3.564  12.523 -0.4245 -0.1080  1.5645
  813MPD2     N11974   1.087   3.815  12.783 -0.0249  0.3732 -1.0310
  813MPD2    H511975   1.084   3.904  12.832  0.0822  0.3287 -0.9434
  813MPD2    N111976   1.489   3.984  12.581  0.5862  0.0460  0.3465
  813MPD2    H711977   1.562   3.967  12.513  1.2506  0.4152  0.9667
  814MPD2     C11978   2.100   0.316  12.485  0.4896 -0.4951  0.2985
  814MPD2    C111979   2.103   0.371  12.358 -0.6495  0.1174  0.4696
  814MPD2    C211980   2.168   0.491  12.340  0.0243  0.2537 -0.2673
  814MPD2    C311981   2.233   0.559  12.439  0.2066  0.1986  0.4623
  814MPD2    C411982   2.221   0.506  12.567 -0.4724  0.9525  1.1084
  814MPD2    C511983   2.155   0.386  12.590  1.0163  0.7715  0.5128
  814MPD2     H11984   2.164   0.529  12.239 -0.0909 -0.2104 -0.4359
  814MPD2    H111985   2.267   0.567  12.644  1.6980  1.7606 -0.8101
  814MPD2    H211986   2.046   0.224  12.504 -0.9732 -0.2622 -2.6394
  814MPD2    H311987   2.147   0.354  12.693  0.3178  1.6401  0.7294
  814MPD2     N11988   2.304   0.679  12.414 -0.2614 -0.2297  0.4882
  814MPD2    H511989   2.344   0.732  12.492  1.6857 -2.2942  0.8977
  814MPD2    N111990   2.037   0.315  12.241  0.4196 -0.0257  0.1992
  814MPD2    H711991   2.048   0.374  12.159  2.7371 -2.2562 -1.0819
  815MPD2     C11992   2.387   3.475  12.055 -0.8759 -0.1054 -1.0146
  815MPD2    C111993   2.419   3.340  12.041  0.2181  0.3000 -0.1335
  815MPD2    C211994   2.323   3.246  12.084  0.6584  0.2145  0.1371
  815MPD2    C311995   2.199   3.288  12.124 -0.5992  0.3811  0.1340
  815MPD2    C411996   2.165   3.423  12.128 -0.0528  0.3842 -0.0657
  815MPD2    C511997   2.266   3.514  12.100 -0.2081 -0.6633  0.0132
  815MPD2     H11998   2.338   3.139  12.081 -0.9542  0.0353 -1.4409
  815MPD2    H111999   2.067   3.454  12.161  0.0854 -0.2887  0.9935
  815MPD2    H212000   2.462   3.549  12.032 -0.9770  0.4040  0.3330
  815MPD2    H312001   2.248   3.619  12.121  3.1654  0.0081 -0.5307
  815MPD2     N12002   2.095   3.204  12.155 -0.0524  0.0318  0.2243
  815MPD2    H512003   1.999   3.235  12.160  0.1844  0.8452 -0.4648
  815MPD2    N112004   2.538   3.301  11.979 -0.6932 -0.5520 -0.1339
  815MPD2    H712005   2.581   3.376  11.926 -0.1302  0.4277  1.6877
  816MPD2     C12006   2.114   2.786  17.429 -0.0434  0.0728  0.5355
  816MPD2    C112007   2.219   2.871  17.451  0.9247 -0.3450  0.1283
  816MPD2    C212008   2.345   2.820  17.438  0.1369 -0.5291  0.2133
  816MPD2    C312009   2.365   2.682  17.424  0.6635 -0.1024  0.5095
  816MPD2    C412010   2.255   2.601  17.427  0.1919 -0.1936  0.1699
  816MPD2    C512011   2.125   2.653  17.417 -0.2547  0.2573 -0.8022
  816MPD2     H12012   2.424   2.894  17.433 -0.2319 -0.1520 -0.0840
  816MPD2    H112013   2.264   2.494  17.413 -0.0913  0.0119 -1.5558
  816MPD2    H212014   2.009   2.811  17.440  0.4261  2.3156 -0.2045
  816MPD2    H312015   2.043   2.583  17.411 -0.9281  1.0589 -0.8694
  816MPD2     N12016   2.494   2.637  17.398  0.1824 -0.0513 -0.2001
  816MPD2    H512017   2.564   2.703  17.364 -0.2135  0.5495  0.1672
  816MPD2    N112018   2.194   3.006  17.483  0.1759  0.5307  0.7059
  816MPD2    H712019   2.097   3.036  17.488  0.1129  0.0433  2.4852
  817MPD2     C12020   1.568   4.134   9.668  0.7414  1.6225 -0.2121
  817MPD2    C112021   1.553   4.046   9.556  0.4115 -0.2001 -0.3971
  817MPD2    C212022   1.439   4.056   9.485 -0.1330  0.4551 -0.3341
  817MPD2    C312023   1.348   4.151   9.518  0.5523  0.1376 -0.2781
  817MPD2    C412024   1.360   4.237   9.629 -0.2768 -0.7087 -0.8148
  817MPD2    C512025   1.468   4.216   9.709 -0.0301  0.1267 -0.1922
  817MPD2     H12026   1.414   3.988   9.405 -2.2213  0.1862  0.5376
  817MPD2    H112027   1.291   4.313   9.663 -1.3230 -2.0282 -0.0135
  817MPD2    H212028   1.661   4.136   9.723 -0.9928  0.5478  2.7791
  817MPD2    H312029   1.490   4.276   9.797 -0.2665 -0.2534  0.1296
  817MPD2     N12030   1.241   4.153   9.432 -0.1815  0.3674 -0.6258
  817MPD2    H512031   1.239   4.093   9.350 -0.8765  1.0044 -1.0745
  817MPD2    N112032   1.650   3.945   9.523  0.0449 -0.2910  0.0301
  817MPD2    H712033   1.639   3.898   9.433 -3.3717  2.2716 -0.9151
  818MPD2     C12034   1.049   4.232  10.260  0.4866 -0.1286 -0.1053
  818MPD2    C112035   0.952   4.181  10.185 -0.7307  0.1342 -0.4413
  818MPD2    C212036   0.946   4.046  10.156 -0.0650  0.0028  0.3507
  818MPD2    C312037   1.050   3.960  10.182  0.0526 -0.0150  0.0207
  818MPD2    C412038   1.162   4.023  10.246 -0.2497  0.1151 -0.1437
  818MPD2    C512039   1.153   4.153  10.291 -0.0141 -0.2539 -0.6518
  818MPD2     H12040   0.853   4.012  10.112  0.0920  0.2558 -0.1820
  818MPD2    H112041   1.253   3.971  10.273  0.0498  0.4068 -0.6056
  818MPD2    H212042   1.050   4.337  10.286 -0.7255  0.0994 -0.9567
  818MPD2    H312043   1.240   4.197  10.339  0.1154  0.0579 -1.1671
  818MPD2     N12044   1.058   3.823  10.137 -0.1785  0.1920  0.3443
  818MPD2    H512045   1.128   3.764  10.181 -0.3891 -0.6822 -0.5017
  818MPD2    N112046   0.833   4.249  10.159  0.0379 -0.2949  0.1926
  818MPD2    H712047   0.765   4.190  10.113 -1.7486  2.1591 -0.3288
  819MPD2     C12048   3.666   1.159  15.541  0.4433 -1.2021 -0.1640
  819MPD2    C112049   3.644   1.019  15.545  0.1916 -0.5130 -0.8234
  819MPD2    C212050   3.745   0.949  15.604 -0.1418  1.0248  0.2239
  819MPD2    C312051   3.847   1.005  15.674 -0.8472  0.4734  0.0523
  819MPD2    C412052   3.854   1.144  15.683  1.0508  0.5624 -0.2861
  819MPD2    C512053   3.762   1.218  15.617  0.1749  0.0638 -0.6984
  819MPD2     H12054   3.741   0.841  15.612 -1.1026  1.0148 -0.2813
  819MPD2    H112055   3.925   1.194  15.749 -0.0723  0.9324  0.6484
  819MPD2    H212056   3.591   1.232  15.513 -0.2273 -0.8965  2.4166
  819MPD2    H312057   3.787   1.323  15.617 -0.9481  0.3480 -3.2293
  819MPD2     N12058   3.941   0.919  15.739  0.2152 -0.3372 -0.2689
  819MPD2    H512059   3.927   0.820  15.724  0.2814 -0.4358  0.3135
  819MPD2    N112060   3.523   0.963  15.496 -0.1250 -0.8334 -0.6276
  819MPD2    H712061   3.474   1.010  15.421 -1.1903 -0.8672  0.0424
  820MPD2     C12062   2.702   1.020  14.962 -0.4753  0.0894  0.4044
  820MPD2    C112063   2.769   1.102  15.052 -1.0879  0.1410  0.2267
  820MPD2    C212064   2.858   1.045  15.136  0.2310 -0.3072  0.0185
  820MPD2    C312065   2.893   0.913  15.123 -0.0211 -0.2785  0.5376
  820MPD2    C412066   2.833   0.835  15.021  0.0959 -0.3836 -0.4453
  820MPD2    C512067   2.739   0.890  14.940  0.0176  0.1767 -0.1839
  820MPD2     H12068   2.891   1.107  15.219  0.8478 -2.9458  1.7311
  820MPD2    H112069   2.859   0.730  15.011 -0.3522 -0.5599  0.2707
  820MPD2    H212070   2.613   1.045  14.905 -1.5880 -1.9694  1.2167
  820MPD2    H312071   2.686   0.830  14.867  0.4838  2.2574 -2.2586
  820MPD2     N12072   2.990   0.855  15.201  0.4369 -0.1696 -0.1079
  820MPD2    H512073   3.014   0.760  15.174 -0.5338 -1.0885  2.2504
  820MPD2    N112074   2.729   1.234  15.061 -0.7908 -0.2260 -0.2484
  820MPD2    H712075   2.666   1.269  14.989 -1.0163  0.2083  0.1573
  821MPD2     C12076   3.663   2.889  13.846  0.0461  0.2918 -0.2315
  821MPD2    C112077   3.758   2.782  13.839 -0.5952 -0.9666  0.2425
  821MPD2    C212078   3.851   2.781  13.737  0.0687 -1.0617 -0.1446
  821MPD2    C312079   3.855   2.878  13.637  0.0157 -0.5181  0.0633
  821MPD2    C412080   3.761   2.978  13.647  1.0794 -0.6369  0.0922
  821MPD2    C512081   3.666   2.978  13.747  0.3481  0.3293  0.5242
  821MPD2     H12082   3.929   2.706  13.735  2.7400  1.6679  0.7219
  821MPD2    H112083   3.743   3.051  13.569  1.3696 -2.2006 -1.4428
  821MPD2    H212084   3.581   2.887  13.918  1.5133 -1.4188  1.4067
  821MPD2    H312085   3.599   3.063  13.751  2.5635  2.0327  1.4484
  821MPD2     N12086   3.936   2.876  13.518 -0.3419 -0.2190 -0.1615
  821MPD2    H512087   3.931   2.949  13.448  0.9523 -1.3472 -1.4295
  821MPD2    N112088   3.765   2.664  13.920  0.3096  0.0548 -0.1455
  821MPD2    H712089   3.833   2.594  13.894 -0.6445 -0.2391 -1.8076
  822MPD2     C12090   4.471   2.346  15.698  0.2658 -0.4922 -0.4461
  822MPD2    C112091   4.542   2.335  15.819 -0.4233 -0.1116  0.0412
  822MPD2    C212092   4.524   2.432  15.911 -0.4129  0.9989 -0.1722
  822MPD2    C312093   4.440   2.541  15.890  0.3043  0.3529  0.1924
  822MPD2    C412094   4.366   2.551  15.773  0.4050  0.3722 -0.1101
  822MPD2    C512095   4.395   2.458  15.677  0.1762  0.4339 -0.1136
  822MPD2     H12096   4.591   2.432  15.995 -0.2736  1.0359 -0.2829
  822MPD2    H112097   4.306   2.635  15.741  0.1709 -0.3517 -1.5523
  822MPD2    H212098   4.480   2.266  15.625 -0.6905 -0.5755 -0.4682
  822MPD2    H312099   4.351   2.469  15.578 -1.1317  0.0032  0.4259
  822MPD2     N12100   4.437   2.634  15.993 -0.1260 -0.3183  0.4365
  822MPD2    H512101   4.464   2.615  16.088 -0.9111 -0.1017  0.7057
  822MPD2    N112102   4.622   2.219  15.854  0.6741 -0.1869 -0.6541
  822MPD2    H712103   4.654   2.212  15.950  1.2617  0.1624 -0.8185
  823MPD2     C12104   4.241   2.796  16.783 -0.1372  0.0860 -0.1904
  823MPD2    C112105   4.270   2.725  16.674  0.4516 -0.3011 -0.4330
  823MPD2    C212106   4.303   2.594  16.687 -0.0521 -0.0749 -0.0386
  823MPD2    C312107   4.305   2.528  16.809 -0.6090  0.1425 -0.5842
  823MPD2    C412108   4.254   2.599  16.915 -0.3929 -0.4352 -0.6568
  823MPD2    C512109   4.243   2.732  16.905 -0.5297  0.2163  0.2758
  823MPD2     H12110   4.338   2.547  16.595 -0.3483  0.2140 -0.2989
  823MPD2    H112111   4.261   2.557  17.015  0.7081 -1.1213 -1.0238
  823MPD2    H212112   4.217   2.901  16.778 -1.6464 -0.1801  1.1914
  823MPD2    H312113   4.226   2.793  16.993  1.1480 -0.2261  0.9163
  823MPD2     N12114   4.340   2.388  16.821 -0.1170  0.5376  0.3150
  823MPD2    H512115   4.303   2.343  16.904  0.5094 -0.9983 -0.2467
  823MPD2    N112116   4.270   2.792  16.551 -0.5134 -0.3084  0.2344
  823MPD2    H712117   4.271   2.893  16.557  0.0845 -0.1939 -1.5675
  824MPD2     C12118   0.159   1.363  15.754  0.2802  0.0723 -0.1621
  824MPD2    C112119   0.244   1.456  15.809 -0.1943 -0.3193 -0.3681
  824MPD2    C212120   0.376   1.414  15.827 -0.0684  0.1678  0.4207
  824MPD2    C312121   0.414   1.281  15.806 -0.3787  0.5660 -0.1232
  824MPD2    C412122   0.316   1.191  15.772  0.0946 -0.3134 -0.6680
  824MPD2    C512123   0.191   1.235  15.736 -0.2687  0.4884 -0.5393
  824MPD2     H12124   0.455   1.479  15.861 -1.3078  0.8382  2.0249
  824MPD2    H112125   0.328   1.083  15.772  1.0442 -0.2104  0.9506
  824MPD2    H212126   0.057   1.392  15.734  0.4510  1.1092  0.4566
  824MPD2    H312127   0.115   1.161  15.712  1.7135 -1.5659 -0.4398
  824MPD2     N12128   0.556   1.246  15.820  0.9177  0.4448  0.3701
  824MPD2    H512129   0.616   1.316  15.863  0.7299  1.3238 -0.7872
  824MPD2    N112130   0.205   1.594  15.833  0.4606 -0.1826 -0.2056
  824MPD2    H712131   0.287   1.651  15.855 -0.5977  0.6967  1.4963
  825MPD2     C12132   1.035   1.268  15.175 -0.0108 -0.1772  0.6008
  825MPD2    C112133   1.036   1.347  15.289 -0.2050 -0.1087 -0.1238
  825MPD2    C212134   1.072   1.482  15.284 -0.3580  0.2280 -0.0599
  825MPD2    C312135   1.098   1.540  15.163  0.3918 -0.1170  0.4028
  825MPD2    C412136   1.090   1.462  15.047 -0.0371 -0.2159  0.4460
  825MPD2    C512137   1.060   1.324  15.057  0.0216  0.2918  0.4342
  825MPD2     H12138   1.066   1.546  15.371 -0.2211  0.8249 -0.4858
  825MPD2    H112139   1.102   1.503  14.948 -2.1245 -0.5082  0.0725
  825MPD2    H212140   1.020   1.161  15.187 -2.0239  0.1615  1.1500
  825MPD2    H312141   1.036   1.283  14.959  0.3390 -0.3393  0.6240
  825MPD2     N12142   1.139   1.679  15.140  0.2126  0.0014  0.6873
  825MPD2    H512143   1.149   1.708  15.043  2.8738  1.0413  1.2589
  825MPD2    N112144   1.016   1.286  15.418 -0.3527 -0.1686 -0.0965
  825MPD2    H712145   0.986   1.189  15.415  0.8823 -0.5404 -0.3199
  826MPD2     C12146   4.568   1.604  14.044 -0.4680 -0.2669  0.5076
  826MPD2    C112147   4.583   1.709  13.949  0.4866 -0.3115 -0.8953
  826MPD2    C212148   4.518   1.833  13.970 -0.3294 -0.6758 -0.1683
  826MPD2    C312149   4.434   1.848  14.081  0.1914 -0.6451 -0.6927
  826MPD2    C412150   4.421   1.738  14.164  0.2507 -0.2873  0.4674
  826MPD2    C512151   4.474   1.615  14.136  0.6675 -0.7848 -0.2116
  826MPD2     H12152   4.524   1.911  13.895 -1.1708 -0.8083 -0.3756
  826MPD2    H112153   4.358   1.755  14.251 -0.5213 -0.8752  0.0246
  826MPD2    H212154   4.610   1.508  14.019 -1.3867 -0.2559 -1.0880
  826MPD2    H312155   4.463   1.535  14.208  2.0122  0.7437  1.7052
  826MPD2     N12156   4.366   1.970  14.111 -0.0717  0.2018  0.4189
  826MPD2    H512157   4.317   1.978  14.200  2.1601  1.5222  1.5408
  826MPD2    N112158   4.671   1.683  13.845 -0.3120  0.6329 -0.0185
  826MPD2    H712159   0.004   1.597  13.845  0.2788  1.0024 -0.2296
  827MPD2     C12160   0.974   2.830  10.487 -0.5800  0.0313 -0.6169
  827MPD2    C112161   1.089   2.765  10.450  0.3253  0.1302  0.7249
  827MPD2    C212162   1.077   2.676  10.342  0.4250 -0.5253  0.3472
  827MPD2    C312163   0.954   2.640  10.293 -0.2431  0.6136 -0.0996
  827MPD2    C412164   0.843   2.705  10.335 -0.7077 -0.4059 -0.1682
  827MPD2    C512165   0.855   2.802  10.429 -0.2544 -0.3252 -0.3297
  827MPD2     H12166   1.166   2.625  10.307  0.3066  0.3635 -1.2842
  827MPD2    H112167   0.747   2.692  10.288 -0.9226  0.3042  0.0735
  827MPD2    H212168   0.970   2.909  10.562  0.3376 -1.8433  1.3918
  827MPD2    H312169   0.760   2.845  10.459 -0.4353 -2.1990  1.7305
  827MPD2     N12170   0.947   2.543  10.193 -1.4447 -0.3162  0.6350
  827MPD2    H512171   1.029   2.531  10.135 -1.8288  1.0987 -0.1994
  827MPD2    N112172   1.214   2.798  10.518 -0.8904  0.1508  0.3783
  827MPD2    H712173   1.200   2.847  10.605  1.7447  1.2295  0.1800
  828MPD2     C12174   4.244   2.942  12.856 -0.3125  0.2332  0.7168
  828MPD2    C112175   4.227   3.036  12.759 -0.2989 -0.2709  0.4595
  828MPD2    C212176   4.339   3.072  12.690  0.2666 -0.2081  0.4408
  828MPD2    C312177   4.470   3.018  12.719  0.7712 -0.1038  0.8816
  828MPD2    C412178   4.484   2.929  12.823 -0.2171 -0.9680 -0.4929
  828MPD2    C512179   4.368   2.889  12.890 -0.1316  0.0076  0.6667
  828MPD2     H12180   4.331   3.147  12.613 -1.8093  0.0259  0.8823
  828MPD2    H112181   4.582   2.890  12.847 -0.4133 -0.5573  0.9802
  828MPD2    H212182   4.156   2.907  12.909 -1.3353  1.0444 -0.4531
  828MPD2    H312183   4.383   2.810  12.963  0.9519 -0.0096  0.4278
  828MPD2     N12184   4.580   3.058  12.639 -0.0501 -0.4713  0.8133
  828MPD2    H512185   4.670   3.047  12.686 -0.1293 -0.6294  0.9281
  828MPD2    N112186   4.104   3.086  12.705  0.1773 -0.3155 -0.1267
  828MPD2    H712187   4.109   3.155  12.630 -0.1371  0.5544  0.6480
  829MPD2     C12188   3.991   3.284  11.879 -0.3086  0.3369  0.4051
  829MPD2    C112189   3.867   3.304  11.925  0.1840 -0.1143  0.7740
  829MPD2    C212190   3.832   3.284  12.057  1.2403 -0.1073  0.5291
  829MPD2    C312191   3.927   3.235  12.143  0.2151  0.3059  0.6350
  829MPD2    C412192   4.053   3.230  12.102 -0.5409  0.6212 -0.2149
  829MPD2    C512193   4.086   3.244  11.973 -0.0533  0.5364  0.0418
  829MPD2     H12194   3.728   3.297  12.086  1.1919  1.2876 -0.2419
  829MPD2    H112195   4.128   3.206  12.177 -1.6105 -0.3148  0.5433
  829MPD2    H212196   4.024   3.320  11.782 -1.2336 -0.0616 -0.0526
  829MPD2    H312197   4.191   3.241  11.948 -0.5989 -0.5645 -2.1150
  829MPD2     N12198   3.898   3.205  12.281  0.2620  0.0629 -0.8755
  829MPD2    H512199   3.974   3.186  12.345 -1.0784 -0.7087  0.5112
  829MPD2    N112200   3.757   3.348  11.852 -0.2157  0.2171 -0.1722
  829MPD2    H712201   3.675   3.358  11.911  0.1190  0.2284  0.2904
  830MPD2     C12202   4.704   0.555  15.797  0.4669  0.1706  0.4345
  830MPD2    C112203   4.608   0.632  15.729 -0.2190 -0.9969  0.3496
  830MPD2    C212204   4.655   0.719  15.629  0.4926 -0.3883 -0.6994
  830MPD2    C312205   0.070   0.743  15.604  0.2662  0.2141 -0.5147
  830MPD2    C412206   0.157   0.678  15.690 -0.6410  0.2581  0.8487
  830MPD2    C512207   0.114   0.581  15.782  0.2329 -0.2132 -0.4218
  830MPD2     H12208   4.581   0.776  15.575 -0.2211  0.6047  1.3349
  830MPD2    H112209   0.263   0.695  15.674 -0.7620  0.2639  0.0838
  830MPD2    H212210   4.676   0.486  15.876 -0.6426  1.3279  1.0348
  830MPD2    H312211   0.174   0.530  15.857 -1.8442  0.5162  1.7692
  830MPD2     N12212   0.120   0.835  15.509 -0.1018 -0.1986 -0.1972
  830MPD2    H512213   0.221   0.849  15.502 -0.2256 -0.5122 -2.4031
  830MPD2    N112214   4.471   0.607  15.756 -0.9631 -0.3807 -0.3891
  830MPD2    H712215   4.449   0.531  15.820  1.5744  0.4085  1.3792
  831MPD2     C12216   0.044   2.690  16.309 -0.1177  0.4332 -0.3816
  831MPD2    C112217   0.074   2.580  16.225 -0.3392  0.0683 -0.0479
  831MPD2    C212218   4.712   2.472  16.242 -0.1495 -0.2131  0.1356
  831MPD2    C312219   4.608   2.469  16.332  0.0218 -0.2070 -0.0368
  831MPD2    C412220   4.587   2.577  16.407  0.6959  0.3372 -0.6710
  831MPD2    C512221   4.668   2.691  16.405  0.5493 -0.4025 -0.2952
  831MPD2     H12222   0.004   2.386  16.177  0.4401  1.0181 -1.3774
  831MPD2    H112223   4.501   2.580  16.474  0.0707  0.3693 -1.4771
  831MPD2    H212224   0.108   2.776  16.293 -1.2896  1.3745 -0.1038
  831MPD2    H312225   4.657   2.780  16.467 -0.1635  0.3254 -1.4656
  831MPD2     N12226   4.510   2.366  16.331 -0.5088  0.6624  0.3547
  831MPD2    H512227   4.440   2.373  16.404  1.5773  0.3395  2.4041
  831MPD2    N112228   0.177   2.600  16.132 -0.2235 -0.5830  0.0733
  831MPD2    H712229   0.228   2.688  16.134 -1.5445  0.2276 -2.2102
  832MPD2     C12230   3.143   3.932  17.441  0.5113 -0.5101  0.5646
  832MPD2    C112231   3.132   4.064  17.411 -0.7546  0.1040 -0.6706
  832MPD2    C212232   3.018   4.106  17.338 -0.4323 -0.2973  0.1421
  832MPD2    C312233   2.925   4.010  17.285  0.0076 -0.0676  0.6817
  832MPD2    C412234   2.935   3.884  17.332 -0.3067 -0.0083 -0.5213
  832MPD2    C512235   3.039   3.843  17.411 -0.5110  0.8102  0.4498
  832MPD2     H12236   3.030   4.204  17.293  3.5927 -1.8077 -2.0975
  832MPD2    H112237   2.855   3.817  17.304 -1.3303  1.1368 -0.3606
  832MPD2    H212238   3.231   3.890  17.488 -0.4512  0.0065  2.8515
  832MPD2    H312239   3.049   3.739  17.441  0.0807  0.3727 -1.2724
  832MPD2     N12240   2.837   4.042  17.186 -0.6384 -0.2232  0.1059
  832MPD2    H512241   2.775   3.967  17.157 -3.0400  1.3914  1.0182
  832MPD2    N112242   3.237   4.147  17.446 -0.0127  0.5757 -0.4736
  832MPD2    H712243   3.318   4.109  17.492  0.8991  1.6683 -1.1867
  833MPD2     C12244   0.177   0.585  12.508  0.5419 -1.0638  0.1812
  833MPD2    C112245   0.237   0.701  12.458 -0.3874  0.1713  0.4943
  833MPD2    C212246   0.341   0.698  12.366 -0.9598  0.1288 -0.1303
  833MPD2    C312247   0.396   0.577  12.343 -0.0050  0.2472 -0.8285
  833MPD2    C412248   0.342   0.463  12.397 -0.0945 -0.1656  0.4740
  833MPD2    C512249   0.237   0.463  12.478  0.3970  0.1058  1.2611
  833MPD2     H12250   0.389   0.787  12.326 -1.7848  0.7298  0.2250
  833MPD2    H112251   0.377   0.360  12.389 -1.1401 -0.5622  1.0022
  833MPD2    H212252   0.093   0.579  12.575 -1.0951 -0.3634 -1.8003
  833MPD2    H312253   0.205   0.368  12.519  1.4478 -0.4955  0.7005
  833MPD2     N12254   0.517   0.552  12.269 -0.0882  0.0723  0.0025
  833MPD2    H512255   0.554   0.458  12.260  2.8221  1.3202 -0.8787
  833MPD2    N112256   0.181   0.820  12.501  0.1379 -0.3283 -0.2645
  833MPD2    H712257   0.100   0.811  12.561  0.2266  1.6845  0.1418
  834MPD2     C12258   0.589   4.631  11.605  0.1593 -0.4290 -0.0692
  834MPD2    C112259   0.528   0.016  11.542  0.2897  0.4621 -0.4679
  834MPD2    C212260   0.563   0.140  11.580  0.6022  0.6227  0.8534
  834MPD2    C312261   0.647   0.161  11.691  0.1326 -0.1320  0.3228
  834MPD2    C412262   0.712   0.054  11.747  0.1367  0.1395  0.4369
  834MPD2    C512263   0.687   4.651  11.702 -0.3356 -0.0347  0.1754
  834MPD2     H12264   0.518   0.227  11.533  0.1784  0.0935  0.2902
  834MPD2    H112265   0.771   0.074  11.835 -0.9229  1.0905  0.9228
  834MPD2    H212266   0.559   4.530  11.581  0.2654 -0.3789 -0.4184
  834MPD2    H312267   0.727   4.566  11.756  1.8787 -0.4728 -2.1085
  834MPD2     N12268   0.643   0.288  11.753  0.0520 -0.2172  0.4487
  834MPD2    H512269   0.578   0.359  11.722 -2.0575 -0.7868  3.5545
  834MPD2    N112270   0.439   4.709  11.435  0.0078  0.5800  0.6539
  834MPD2    H712271   0.394   4.618  11.439 -2.5371  1.8266  0.5322
  835MPD2     C12272   0.750   3.366  11.418 -0.0534 -0.6766 -0.1221
  835MPD2    C112273   0.637   3.414  11.481  0.6948  0.0176  0.1999
  835MPD2    C212274   0.640   3.443  11.620  0.1605  0.0500 -0.4719
  835MPD2    C312275   0.754   3.414  11.694  0.6544 -0.2613  0.1135
  835MPD2    C412276   0.867   3.371  11.627 -0.4012  0.1220  0.1936
  835MPD2    C512277   0.865   3.361  11.492 -0.3699 -0.2624 -0.3013
  835MPD2     H12278   0.547   3.473  11.667  0.8014  1.5458 -0.1724
  835MPD2    H112279   0.964   3.347  11.669 -0.9157 -2.6840 -0.2152
  835MPD2    H212280   0.751   3.343  11.312 -0.9760 -0.2770 -0.2163
  835MPD2    H312281   0.952   3.332  11.433 -1.4648 -0.7012 -1.6969
  835MPD2     N12282   0.766   3.427  11.835  0.2463 -0.6963  0.2656
  835MPD2    H512283   0.855   3.412  11.882  1.7160  0.2952 -2.2038
  835MPD2    N112284   0.511   3.421  11.425  0.3520  0.2635 -0.5234
  835MPD2    H712285   0.433   3.453  11.481  1.1812  0.6056  0.4465
  836MPD2     C12286   0.207   3.513  11.966 -0.3644  0.3434  0.6333
  836MPD2    C112287   0.243   3.547  12.100  0.3808 -0.2255 -0.2623
  836MPD2    C212288   0.141   3.556  12.198 -0.3971 -0.5248  0.1191
  836MPD2    C312289   0.011   3.514  12.165  1.1996  0.0759 -0.3325
  836MPD2    C412290   4.698   3.485  12.029  0.1247  0.4461 -0.7398
  836MPD2    C512291   0.082   3.484  11.935 -0.9985  0.5823 -0.5621
  836MPD2     H12292   0.158   3.595  12.298  0.2079  0.0440 -0.2053
  836MPD2    H112293   4.603   3.437  12.008  0.9038 -1.8924  0.9755
  836MPD2    H212294   0.280   3.515  11.886 -1.1251  1.5393 -0.0212
  836MPD2    H312295   0.057   3.454  11.834 -0.6498 -2.6778  0.3152
  836MPD2     N12296   4.624   3.502  12.263  0.2775  0.1982 -0.1618
  836MPD2    H512297   4.544   3.450  12.229  0.7147 -0.1542 -0.6616
  836MPD2    N112298   0.378   3.579  12.129  0.6654 -0.5708  0.4911
  836MPD2    H712299   0.446   3.571  12.054  0.2564 -1.1096  0.1810
  837MPD2     C12300   3.395   3.062  10.354  0.1242  0.0186  0.8232
  837MPD2    C112301   3.294   3.072  10.261  0.1262  0.3713  0.6410
  837MPD2    C212302   3.243   3.196  10.240 -0.5223 -0.3021  0.9764
  837MPD2    C312303   3.300   3.313  10.284  0.2385  0.0043 -0.5947
  837MPD2    C412304   3.404   3.303  10.379  0.2117 -0.6225  0.1900
  837MPD2    C512305   3.449   3.177  10.400 -0.1261 -0.1082 -0.2389
  837MPD2     H12306   3.152   3.208  10.181 -0.7929 -0.3471  1.3894
  837MPD2    H112307   3.469   3.385  10.410 -0.8887  0.4281 -0.2988
  837MPD2    H212308   3.439   2.969  10.387  0.5394  0.0849  0.4409
  837MPD2    H312309   3.533   3.175  10.469 -1.9087  3.0872  2.0570
  837MPD2     N12310   3.247   3.430  10.230 -0.1810  0.1046  0.2463
  837MPD2    H512311   3.175   3.415  10.160 -0.6037 -0.0442  0.7155
  837MPD2    N112312   3.243   2.961  10.187  0.0441 -0.0756  0.6232
  837MPD2    H712313   3.171   2.979  10.119 -0.6027 -0.2683  1.2580
  838MPD2     C12314   2.076   1.154  11.671  0.6380 -0.3228 -0.3954
  838MPD2    C112315   1.996   1.053  11.704 -0.4964 -0.4491  0.1956
  838MPD2    C212316   1.919   1.056  11.819 -0.5240 -0.4414  0.1552
  838MPD2    C312317   1.921   1.169  11.896 -0.1125  0.6387 -0.9219
  838MPD2    C412318   2.002   1.274  11.862 -0.5035  0.3310  0.0482
  838MPD2    C512319   2.084   1.264  11.756  0.2770 -0.1223 -0.1476
  838MPD2     H12320   1.850   0.976  11.843 -2.0391  1.1828  1.1476
  838MPD2    H112321   2.014   1.366  11.918 -1.1571 -0.6617  1.8160
  838MPD2    H212322   2.124   1.164  11.574  0.9920  0.3978 -0.1512
  838MPD2    H312323   2.139   1.350  11.719  0.3760  0.0540  0.4027
  838MPD2     N12324   1.842   1.176  12.009 -0.4283  0.2256  0.4736
  838MPD2    H512325   1.797   1.092  12.044 -2.0709  1.0710  0.3962
  838MPD2    N112326   1.972   0.940  11.622 -0.0138  0.1862 -0.4199
  838MPD2    H712327   1.909   0.867  11.652  0.2968 -0.6348 -1.7748
  839MPD2     C12328   1.182   0.806  11.596  0.0371  0.4120  0.3251
  839MPD2    C112329   1.220   0.687  11.533  0.5545 -0.7484 -0.0251
  839MPD2    C212330   1.340   0.690  11.471  0.5186  0.9410  0.4563
  839MPD2    C312331   1.428   0.798  11.476  0.2181 -0.4124  0.3697
  839MPD2    C412332   1.387   0.904  11.547  0.8327  0.1789 -0.6917
  839MPD2    C512333   1.263   0.918  11.601  0.4236 -0.5935 -0.1489
  839MPD2     H12334   1.369   0.598  11.420  0.7420  1.3209 -0.1040
  839MPD2    H112335   1.449   0.992  11.561 -2.5042  2.1581  1.4473
  839MPD2    H212336   1.086   0.822  11.644 -0.5867 -3.5084  0.3258
  839MPD2    H312337   1.222   1.009  11.643 -0.5674 -0.6618 -0.9829
  839MPD2     N12338   1.563   0.799  11.426 -0.0760 -0.2264 -0.3721
  839MPD2    H512339   1.621   0.881  11.441  0.6868 -0.9193  0.5372
  839MPD2    N112340   1.132   0.576  11.523 -0.7737  0.0627 -0.1889
  839MPD2    H712341   1.140   0.516  11.442  2.5572  0.5158 -0.2139
  840MPD2     C12342   1.777   3.266  10.453  0.4251  0.2387 -0.0676
  840MPD2    C112343   1.762   3.220  10.581  0.6503  0.5455 -0.1122
  840MPD2    C212344   1.852   3.275  10.669  0.1161 -0.3521  0.2891
  840MPD2    C312345   1.939   3.376  10.643 -0.0432  0.6090  0.3780
  840MPD2    C412346   1.953   3.421  10.516 -0.3951 -0.2517  0.8026
  840MPD2    C512347   1.871   3.366  10.426  0.2860  0.6470 -0.3970
  840MPD2     H12348   1.837   3.245  10.773  0.7328  2.7898  1.2596
  840MPD2    H112349   2.029   3.494  10.491 -1.3754  0.4174 -0.1992
  840MPD2    H212350   1.718   3.219  10.375  0.6810 -0.2303  0.0163
  840MPD2    H312351   1.890   3.404  10.326 -0.7940  0.5385 -0.6435
  840MPD2     N12352   2.021   3.446  10.737  0.3377 -0.5207 -0.5206
  840MPD2    H512353   2.066   3.533  10.710  0.4372 -0.1344  0.8737
  840MPD2    N112354   1.680   3.109  10.600 -0.2183  0.3896 -0.0536
  840MPD2    H712355   1.629   3.071  10.521 -1.3930  1.7225  0.0784
  841MPD2     C12356   1.651   2.960  14.705 -0.4965 -0.2038  0.7661
  841MPD2    C112357   1.699   2.892  14.592  0.2149 -0.4758  0.4579
  841MPD2    C212358   1.712   2.953  14.473  1.1163 -0.1439 -0.0088
  841MPD2    C312359   1.711   3.090  14.465  0.0327  0.8050  0.3637
  841MPD2    C412360   1.665   3.158  14.579  0.1745  0.4478 -0.5858
  841MPD2    C512361   1.638   3.093  14.693 -0.6502 -0.4573 -0.3658
  841MPD2     H12362   1.749   2.888  14.395  0.1747 -0.7636  0.0621
  841MPD2    H112363   1.658   3.266  14.576 -1.0417  0.3843 -0.0372
  841MPD2    H212364   1.630   2.912  14.800  0.2817  0.0444  1.0588
  841MPD2    H312365   1.615   3.148  14.783  0.5213 -1.0805  0.3085
  841MPD2     N12366   1.772   3.145  14.354  0.0878 -0.1708 -0.4337
  841MPD2    H512367   1.785   3.077  14.280 -0.7151 -1.0728  0.2659
  841MPD2    N112368   1.707   2.752  14.577 -0.2123  0.1360 -0.3664
  841MPD2    H712369   1.730   2.717  14.485  0.9997 -1.2472  0.4690
  842MPD2     C12370   2.473   4.433  16.797 -0.5381 -0.4581 -0.5142
  842MPD2    C112371   2.397   4.314  16.773  0.5933  0.0121 -0.0527
  842MPD2    C212372   2.328   4.257  16.884 -0.4646  0.0697 -0.3091
  842MPD2    C312373   2.321   4.316  17.009  0.4733  0.5161 -0.2822
  842MPD2    C412374   2.389   4.437  17.022  0.2820 -0.1036 -0.6088
  842MPD2    C512375   2.471   4.487  16.922  0.0500  0.0286 -0.2321
  842MPD2     H12376   2.275   4.164  16.870 -3.2875  2.0450 -2.8734
  842MPD2    H112377   2.378   4.487  17.117 -1.8188 -1.5623 -0.0932
  842MPD2    H212378   2.539   4.477  16.723  0.8717 -1.1295  0.3350
  842MPD2    H312379   2.531   4.576  16.938 -1.7839  1.1800  0.1643
  842MPD2     N12380   2.240   4.269  17.117  0.4570 -0.0153  0.3242
  842MPD2    H512381   2.252   4.320  17.204 -2.3476 -1.8922  1.8153
  842MPD2    N112382   2.399   4.268  16.642  0.4612  0.2050 -0.7032
  842MPD2    H712383   2.453   4.328  16.580  0.9533 -0.2128 -0.6820
  843MPD2     C12384   4.075   4.130   0.039  0.2222  0.1648  0.0168
  843MPD2    C112385   4.178   4.096   0.122 -0.3718  0.1296  0.3494
  843MPD2    C212386   4.253   4.188   0.191  0.2441 -0.2589 -1.0378
  843MPD2    C312387   4.222   4.321   0.176  0.6185  0.0075 -0.2412
  843MPD2    C412388   4.120   4.360   0.095 -0.0693 -0.1547  0.5198
  843MPD2    C512389   4.043   4.263   0.032 -0.4909  0.3870  0.1642
  843MPD2     H12390   4.328   4.159   0.263 -0.9711 -1.8855 -0.4107
  843MPD2    H112391   4.096   4.465   0.081 -0.2255 -0.5455 -2.1441
  843MPD2    H212392   4.014   4.057  17.675  1.5973 -0.6083 -0.4911
  843MPD2    H312393   3.949   4.282  17.669  0.1612  2.2375 -0.3339
  843MPD2     N12394   4.308   4.423   0.235  0.6757 -0.3031 -0.4638
  843MPD2    H512395   4.300   4.516   0.195 -0.9273  0.4961  1.7719
  843MPD2    N112396   4.199   3.951   0.137  0.0279  0.5353 -1.0149
  843MPD2    H712397   4.127   3.897   0.091 -0.1745 -0.1342  0.0930
  844MPD2     C12398   2.553   3.451  16.707 -0.0619 -0.0748  0.1046
  844MPD2    C112399   2.669   3.456  16.618 -0.0352  0.3977  0.2279
  844MPD2    C212400   2.764   3.555  16.641 -0.1781 -0.2893  0.3343
  844MPD2    C312401   2.753   3.637  16.754 -0.0655 -0.6440  0.4292
  844MPD2    C412402   2.632   3.644  16.824 -0.3150 -0.0547  0.2220
  844MPD2    C512403   2.533   3.552  16.801  1.2911  0.8571  0.5648
  844MPD2     H12404   2.849   3.559  16.574 -0.9786 -0.6433 -0.6986
  844MPD2    H112405   2.609   3.713  16.904  2.5698  2.4135 -1.1208
  844MPD2    H212406   2.479   3.373  16.700  0.8962 -0.9043 -0.8345
  844MPD2    H312407   2.448   3.549  16.867 -0.0237 -0.4633 -1.1901
  844MPD2     N12408   2.861   3.719  16.782 -0.1677 -0.3820 -0.1256
  844MPD2    H512409   2.941   3.727  16.721 -0.3636  0.4740 -0.2662
  844MPD2    N112410   2.699   3.362  16.518  0.2520 -0.3449  0.3618
  844MPD2    H712411   2.780   3.386  16.462 -0.2355 -0.1650 -0.2699
  845MPD2     C12412   3.266   4.621  16.652 -0.3213 -0.4527  0.8216
  845MPD2    C112413   3.272   4.621  16.788 -0.4459 -0.1881 -0.5788
  845MPD2    C212414   3.246   4.499  16.848 -0.3360 -0.7103 -0.6751
  845MPD2    C312415   3.214   4.384  16.771 -0.6504 -0.2880  0.0033
  845MPD2    C412416   3.225   4.392  16.636 -0.4440  0.4017 -0.2025
  845MPD2    C512417   3.254   4.512  16.573  0.0944 -0.7855 -0.6749
  845MPD2     H12418   3.238   4.479  16.955  2.1909  1.0281 -0.1586
  845MPD2    H112419   3.211   4.301  16.579  0.4588 -0.0298  0.2662
  845MPD2    H212420   3.285   4.715  16.602  0.4440 -0.3732  1.2558
  845MPD2    H312421   3.273   4.508  16.466 -0.8101  0.1948 -0.8740
  845MPD2     N12422   3.196   4.259  16.837 -0.1327 -0.0746  0.0791
  845MPD2    H512423   3.214   4.261  16.937  0.0010  0.1805  0.0495
  845MPD2    N112424   3.275   0.027  16.845  0.2922  0.3868 -0.4020
  845MPD2    H712425   3.281   0.097  16.772  0.2522  1.1026  0.2866
  846MPD2     C12426   4.548   0.003  13.899  0.6913 -0.2043 -0.6958
  846MPD2    C112427   4.429   0.060  13.881 -0.7604 -0.0410 -0.2628
  846MPD2    C212428   4.360   0.093  13.997 -0.5443 -0.8620  0.2015
  846MPD2    C312429   4.405   0.074  14.122  0.4226 -0.1994 -0.2020
  846MPD2    C412430   4.528   0.017  14.133 -0.3767 -0.7545 -1.1044
  846MPD2    C512431   4.605   4.711  14.023 -0.5027  0.6069  0.1295
  846MPD2     H12432   4.256   0.124  13.989 -0.2309 -0.0367 -0.6897
  846MPD2    H112433   4.583   0.000  14.225  0.3708  2.3973 -0.9838
  846MPD2    H212434   4.606   4.695  13.812  0.4779 -1.0212 -0.5683
  846MPD2    H312435   4.708   4.679  14.039 -0.3362  0.3975 -1.4228
  846MPD2     N12436   4.327   0.106  14.237  0.2964  0.4296  0.6491
  846MPD2    H512437   4.238   0.148  14.211 -0.2678 -1.0116  0.2403
  846MPD2    N112438   4.380   0.102  13.755  0.6345 -0.1287 -0.0074
  846MPD2    H712439   4.300   0.163  13.745  0.7078  0.2963  1.8704
  847MPD2     C12440   4.699   1.007  14.312  0.2341 -0.4519 -0.0221
  847MPD2    C112441   0.076   1.053  14.398 -0.2320 -0.0752  0.4509
  847MPD2    C212442   0.132   0.969  14.494  0.1866  0.2672  0.5905
  847MPD2    C312443   0.082   0.839  14.513 -0.0579  0.9892 -0.5253
  847MPD2    C412444   4.702   0.796  14.427  0.2461  0.7702 -0.0588
  847MPD2    C512445   4.653   0.878  14.332  0.3716  0.4216 -0.0511
  847MPD2     H12446   0.210   1.004  14.561 -0.4700  2.7360  0.0897
  847MPD2    H112447   4.669   0.693  14.432  1.8732  0.3091  1.3627
  847MPD2    H212448   4.657   1.076  14.239 -0.9966 -1.3551 -0.1802
  847MPD2    H312449   4.576   0.834  14.270  0.0835  0.3400  0.3622
  847MPD2     N12450   0.147   0.761  14.614  0.5623 -0.2098  0.7444
  847MPD2    H512451   0.212   0.814  14.671 -1.0262  0.0972  2.2715
  847MPD2    N112452   0.122   1.188  14.406 -0.2012  0.0728 -0.4148
  847MPD2    H712453   0.194   1.194  14.478  2.3991  0.7556 -3.0554
  848MPD2     C12454   2.710   4.130  16.349  0.5542  0.5204 -0.1798
  848MPD2    C112455   2.771   4.220  16.437 -0.2680 -0.2953 -0.0619
  848MPD2    C212456   2.843   4.332  16.394  0.1134 -0.2155  0.3448
  848MPD2    C312457   2.846   4.354  16.257  0.1145 -0.3646  0.3952
  848MPD2    C412458   2.775   4.275  16.168  0.1946 -0.6756 -0.0446
  848MPD2    C512459   2.717   4.163  16.213  0.7067  0.5151  0.3995
  848MPD2     H12460   2.898   4.394  16.464 -0.3045 -1.7199  2.0142
  848MPD2    H112461   2.776   4.303  16.063 -0.6291 -0.8014 -0.0841
  848MPD2    H212462   2.653   4.042  16.377  1.3283 -0.8611 -2.8869
  848MPD2    H312463   2.672   4.088  16.148 -0.6434  1.7904 -0.1369
  848MPD2     N12464   2.910   4.463  16.192  0.3082  0.4062  0.0241
  848MPD2    H512465   2.885   4.468  16.094 -2.3978 -0.6357  0.6588
  848MPD2    N112466   2.758   4.200  16.582  1.0786 -0.2784  0.4710
  848MPD2    H712467   2.798   4.272  16.641  3.0568 -0.7814 -0.2560
  849MPD2     C12468   1.716   3.215  13.783 -0.0022 -0.9836 -0.4007
  849MPD2    C112469   1.723   3.283  13.661 -0.4730 -0.2694 -0.5053
  849MPD2    C212470   1.834   3.373  13.638  0.1804  0.7592  0.4334
  849MPD2    C312471   1.928   3.404  13.736 -1.2014 -0.1938 -0.1987
  849MPD2    C412472   1.922   3.339  13.858  0.4026  0.2487 -0.4889
  849MPD2    C512473   1.815   3.246  13.879 -0.0627 -0.6460 -0.0289
  849MPD2     H12474   1.845   3.417  13.540 -0.9216  0.9352  0.3918
  849MPD2    H112475   1.978   3.363  13.948 -1.2725  0.5167  0.4861
  849MPD2    H212476   1.637   3.148  13.814 -0.6243 -0.0687 -0.0218
  849MPD2    H312477   1.807   3.192  13.972  2.1971 -1.7028 -0.4347
  849MPD2     N12478   2.027   3.498  13.695 -0.8362  0.4287  0.5780
  849MPD2    H512479   2.030   3.528  13.598 -3.1017  0.9820  0.6710
  849MPD2    N112480   1.634   3.268  13.555 -0.2115  0.1583  0.4789
  849MPD2    H712481   1.644   3.334  13.480 -4.2039  1.4910  1.1038
  850MPD2     C12482   4.451   1.689  14.856  0.1753  0.0368 -0.0457
  850MPD2    C112483   4.480   1.794  14.927 -0.2295 -0.2140 -0.3463
  850MPD2    C212484   4.617   1.843  14.923  0.2670 -0.0577  0.4588
  850MPD2    C312485   4.719   1.743  14.898 -0.5821  0.5126  0.5211
  850MPD2    C412486   4.686   1.623  14.840  0.7622  0.2464 -0.0626
  850MPD2    C512487   4.554   1.604  14.818  0.1267 -0.8197  0.6531
  850MPD2     H12488   4.647   1.937  14.967  1.0685 -0.0272 -0.1472
  850MPD2    H112489   0.033   1.541  14.823 -0.1325 -0.2853 -1.0656
  850MPD2    H212490   4.348   1.661  14.835  1.2385 -2.3774 -1.9294
  850MPD2    H312491   4.535   1.502  14.786  1.0540 -0.9723  0.5854
  850MPD2     N12492   0.133   1.760  14.928  0.1989 -0.1361 -0.8067
  850MPD2    H512493   0.196   1.694  14.884 -0.2873 -1.1762  0.0572
  850MPD2    N112494   4.373   1.862  14.991  1.1146  0.2387  0.7024
  850MPD2    H712495   4.283   1.840  14.948  0.7458 -0.9781  2.1043
  851MPD2     C12496   0.303   1.794  15.504 -0.1917  0.2717  0.0954
  851MPD2    C112497   0.172   1.755  15.475  1.0932 -0.0651  0.7103
  851MPD2    C212498   0.137   1.620  15.467 -0.4419  0.9010 -0.2063
  851MPD2    C312499   0.237   1.525  15.472  0.0064  0.1408 -0.3852
  851MPD2    C412500   0.358   1.564  15.521 -0.1077 -0.2946 -0.0048
  851MPD2    C512501   0.390   1.694  15.529  0.0942 -0.3556  0.6453
  851MPD2     H12502   0.036   1.588  15.444 -0.4496  0.4998  0.3896
  851MPD2    H112503   0.432   1.488  15.545  1.3046  0.7437 -1.0436
  851MPD2    H212504   0.322   1.899  15.522  0.3231  0.4810 -1.6283
  851MPD2    H312505   0.490   1.721  15.560 -0.6947 -0.7426  3.6291
  851MPD2     N12506   0.205   1.399  15.416 -0.5790  0.3503 -0.5856
  851MPD2    H512507   0.108   1.381  15.392 -0.2151 -1.4660 -0.7265
  851MPD2    N112508   0.092   1.862  15.430  0.5208  0.0905 -0.5502
  851MPD2    H712509   0.114   1.961  15.434 -3.4962  1.1001 -2.5792
  852MPD2     C12510   4.181   3.813   9.245  0.4974 -0.0749  0.1221
  852MPD2    C112511   4.272   3.841   9.345 -0.0590 -0.2215  0.0881
  852MPD2    C212512   4.285   3.972   9.384 -0.2690  0.5169 -0.6400
  852MPD2    C312513   4.216   4.075   9.326  0.4438 -0.3777  0.0739
  852MPD2    C412514   4.142   4.051   9.215 -0.6071  0.4071 -0.0535
  852MPD2    C512515   4.118   3.923   9.185  0.5479  0.0131 -0.2082
  852MPD2     H12516   4.362   3.989   9.458  0.1170 -1.1816 -0.6465
  852MPD2    H112517   4.089   4.128   9.159 -1.9373 -0.7403 -0.3577
  852MPD2    H212518   4.155   3.710   9.223 -0.5232  0.2425 -0.1839
  852MPD2    H312519   4.054   3.911   9.099 -1.1919  2.9613  0.6648
  852MPD2     N12520   4.228   4.205   9.379  0.2178 -0.0273 -0.4109
  852MPD2    H512521   4.301   4.219   9.448 -0.2379  0.4774 -0.0377
  852MPD2    N112522   4.353   3.741   9.405 -0.3812  0.2210 -0.2996
  852MPD2    H712523   4.406   3.763   9.489  2.3690 -1.4403 -1.5974
  853MPD2     C12524   1.609   4.589  12.323 -0.6767  0.3069  0.2735
  853MPD2    C112525   1.475   4.594  12.324  0.0984  0.1391 -0.3217
  853MPD2    C212526   1.400   4.554  12.214  0.1820  0.7568  0.4467
  853MPD2    C312527   1.475   4.517  12.101  0.0831 -0.3237 -0.6091
  853MPD2    C412528   1.610   4.513  12.105 -0.5668  0.0658 -1.1847
  853MPD2    C512529   1.678   4.553  12.213  0.1170  0.8416  0.1971
  853MPD2     H12530   1.292   4.560  12.214 -0.0672 -3.8527 -0.4292
  853MPD2    H112531   1.679   4.495  12.023  0.2779  1.1238 -0.7097
  853MPD2    H212532   1.664   4.620  12.411  0.0649  0.0562 -0.0977
  853MPD2    H312533   1.784   4.573  12.220  0.2851  0.3663 -1.0177
  853MPD2     N12534   1.421   4.466  11.976  0.1778 -0.1379  0.0289
  853MPD2    H512535   1.479   4.417  11.909  0.4563  0.3313 -0.0716
  853MPD2    N112536   1.420   4.634  12.448 -0.5240 -0.1254 -0.4509
  853MPD2    H712537   1.488   4.657  12.519 -1.5522 -0.8055  0.7454
  854MPD2     C12538   2.950   4.408  12.905 -0.2753 -0.7542  0.5247
  854MPD2    C112539   3.036   4.445  12.804 -0.4476  0.8526 -0.2944
  854MPD2    C212540   3.139   4.367  12.765  0.0975 -0.5085  0.4807
  854MPD2    C312541   3.166   4.251  12.830 -0.7818  0.5923  0.1395
  854MPD2    C412542   3.093   4.214  12.943  0.3880 -0.4023 -0.0931
  854MPD2    C512543   2.985   4.297  12.979 -0.6003  0.3756 -0.5783
  854MPD2     H12544   3.204   4.390  12.681 -0.3463 -0.0647  0.2592
  854MPD2    H112545   3.124   4.123  12.993  0.1746 -0.8568 -0.7731
  854MPD2    H212546   2.861   4.469  12.918  0.6616  0.9832 -1.1292
  854MPD2    H312547   2.918   4.258  13.055 -0.5179  0.7967 -0.2917
  854MPD2     N12548   3.281   4.175  12.807 -0.2287  0.2645 -0.0892
  854MPD2    H512549   3.304   4.107  12.878 -2.5655  0.0434  0.4648
  854MPD2    N112550   3.021   4.574  12.749 -0.0386  0.5107 -0.6682
  854MPD2    H712551   2.939   4.626  12.778 -1.3123 -2.2817  0.7112
  855MPD2     C12552   4.117   4.057  13.289 -0.1267 -0.6736 -0.0656
  855MPD2    C112553   3.985   4.053  13.311 -0.4289 -0.3346  0.1270
  855MPD2    C212554   3.897   4.056  13.203 -0.3081 -0.1852 -0.1858
  855MPD2    C312555   3.936   4.053  13.073 -0.4021 -0.7870 -0.3772
  855MPD2    C412556   4.078   4.041  13.051  0.1916  0.1086 -0.0620
  855MPD2    C512557   4.159   4.045  13.159  0.0203 -0.5353  0.4932
  855MPD2     H12558   3.792   4.073  13.223 -0.6547 -0.3156 -1.9137
  855MPD2    H112559   4.112   4.021  12.951  0.5564 -0.0272  0.0896
  855MPD2    H212560   4.184   4.042  13.373 -1.3006 -1.8750  0.6792
  855MPD2    H312561   4.263   4.024  13.137 -0.4222  1.3554 -3.3460
  855MPD2     N12562   3.851   4.049  12.961  0.0902  0.2767 -0.2660
  855MPD2    H512563   3.894   4.042  12.869  0.3864 -1.3665  0.0067
  855MPD2    N112564   3.925   4.055  13.441  0.4603  1.0321  0.6820
  855MPD2    H712565   3.827   4.029  13.438  1.1603 -1.0043 -3.7379
  856MPD2     C12566   0.360   0.472  14.244  0.0992  0.5437  0.1604
  856MPD2    C112567   0.438   0.554  14.165  0.1702  0.5452  0.3758
  856MPD2    C212568   0.387   0.672  14.109 -0.1112  0.4610 -0.2820
  856MPD2    C312569   0.256   0.710  14.133 -0.5321  0.8535  0.1365
  856MPD2    C412570   0.187   0.627  14.217 -0.5860  0.4745  0.1070
  856MPD2    C512571   0.231   0.507  14.267  0.0547  0.1714 -0.4827
  856MPD2     H12572   0.453   0.727  14.042 -0.1861 -0.6459 -1.2723
  856MPD2    H112573   0.084   0.651  14.243 -1.1859 -2.7253  0.6580
  856MPD2    H212574   0.396   0.377  14.281  0.6128  0.3905 -0.7284
  856MPD2    H312575   0.159   0.436  14.305  1.2537  0.0272  1.5102
  856MPD2     N12576   0.189   0.826  14.089 -0.1196  0.1023  0.1641
  856MPD2    H512577   0.088   0.835  14.100 -0.4081 -0.2476 -2.1982
  856MPD2    N112578   0.579   0.528  14.140  0.2758  0.7254  0.6512
  856MPD2    H712579   0.629   0.588  14.075  0.1867 -3.7145 -3.5589
  857MPD2     C12580   1.975   2.398  13.228  0.1211 -0.0579  0.2520
  857MPD2    C112581   2.086   2.415  13.150 -0.3958 -0.0480 -0.4815
  857MPD2    C212582   2.146   2.540  13.147  0.1582 -0.2572  0.1290
  857MPD2    C312583   2.084   2.647  13.202  1.2682  0.3756 -0.1430
  857MPD2    C412584   1.964   2.635  13.272  0.3745 -0.6490 -0.2140
  857MPD2    C512585   1.914   2.508  13.276  0.1951  0.1279  0.0808
  857MPD2     H12586   2.230   2.558  13.081 -0.2373  0.4601 -0.1739
  857MPD2    H112587   1.910   2.703  13.337  1.9153  1.3030 -0.9701
  857MPD2    H212588   1.930   2.302  13.248  0.3875 -0.4253 -0.9128
  857MPD2    H312589   1.828   2.504  13.342 -1.2643 -1.4820 -1.9118
  857MPD2     N12590   2.151   2.777  13.190 -0.1749  0.6052 -0.0589
  857MPD2    H512591   2.225   2.787  13.121  0.4977 -0.9004  0.4196
  857MPD2    N112592   2.142   2.306  13.080  0.0275 -0.7938  0.1642
  857MPD2    H712593   2.100   2.214  13.088  0.6213 -0.9322  1.6043
  858MPD2     C12594   2.662   1.372  17.167 -0.7852 -0.3583  0.3968
  858MPD2    C112595   2.798   1.374  17.143  0.2414  0.8969 -0.0496
  858MPD2    C212596   2.887   1.449  17.219 -0.1156  0.9885  0.2966
  858MPD2    C312597   2.844   1.528  17.327  0.3521 -0.1224 -0.5334
  858MPD2    C412598   2.708   1.527  17.348  0.0391 -1.2904 -0.7993
  858MPD2    C512599   2.620   1.450  17.272  0.1568  0.0659 -0.6305
  858MPD2     H12600   2.990   1.451  17.186 -0.9578  2.3678 -2.2705
  858MPD2    H112601   2.650   1.595  17.409  1.9110 -0.1707 -0.2862
  858MPD2    H212602   2.598   1.311  17.105  0.5061 -0.5727 -0.7141
  858MPD2    H312603   2.513   1.447  17.293  0.0964 -1.5103 -1.2208
  858MPD2     N12604   2.926   1.605  17.410  0.5488  0.6587  0.1476
  858MPD2    H512605   2.875   1.653  17.483 -0.2952 -2.2815  1.4682
  858MPD2    N112606   2.839   1.300  17.028 -0.0768  0.2570 -0.0700
  858MPD2    H712607   2.765   1.253  16.976  2.6565 -2.6817 -1.2433
  859MPD2     C12608   2.189   3.715  15.253  0.0574  0.2867  0.4103
  859MPD2    C112609   2.106   3.663  15.154 -0.1113 -0.1044 -0.5892
  859MPD2    C212610   2.101   3.527  15.143 -0.5535 -0.1261  0.0834
  859MPD2    C312611   2.180   3.445  15.224 -0.3826 -0.6483 -0.2991
  859MPD2    C412612   2.255   3.498  15.321 -0.0409  1.0365  0.2096
  859MPD2    C512613   2.265   3.634  15.320 -0.1612  0.1996 -0.2981
  859MPD2     H12614   2.033   3.485  15.070  1.7512  0.8250 -2.6193
  859MPD2    H112615   2.334   3.446  15.375 -1.4264  0.4212  1.6407
  859MPD2    H212616   2.199   3.821  15.275 -0.3005  0.5475 -0.6621
  859MPD2    H312617   2.345   3.669  15.384 -0.1561 -0.8935  0.3005
  859MPD2     N12618   2.201   3.314  15.196 -0.1044 -0.4098  0.0902
  859MPD2    H512619   2.258   3.272  15.269  0.6103  0.9100  0.2857
  859MPD2    N112620   2.045   3.752  15.063  0.4013  0.4005  0.0161
  859MPD2    H712621   2.056   3.848  15.093  0.3937  0.1949  0.6776
  860MPD2     C12622   4.566   4.694  11.540 -0.1358 -0.1621 -0.5973
  860MPD2    C112623   4.543   4.670  11.679  0.3508  1.0104 -0.3012
  860MPD2    C212624   4.404   4.661  11.715 -0.0064 -0.1209  0.1980
  860MPD2    C312625   4.305   4.675  11.618  0.3080 -0.0423 -0.1411
  860MPD2    C412626   4.336   4.707  11.488 -0.6418 -0.1829 -0.0430
  860MPD2    C512627   4.467   4.714  11.448 -1.0053  0.1013  0.2973
  860MPD2     H12628   4.376   4.630  11.815  0.8576 -1.3354  0.0625
  860MPD2    H112629   4.256   0.002  11.417 -0.0660  1.7207 -0.2626
  860MPD2    H212630   4.668   4.691  11.502 -0.6666 -0.4746 -2.0092
  860MPD2    H312631   4.489   0.005  11.342  0.0109  0.9073  0.5998
  860MPD2     N12632   4.171   4.648  11.660  0.9683 -0.0523  0.0881
  860MPD2    H512633   4.146   4.630  11.757  2.2538 -0.6908  0.2925
  860MPD2    N112634   4.648   4.656  11.770  0.1054  0.0131 -0.5441
  860MPD2    H712635   4.619   4.638  11.865  0.2677  4.1905  0.3037
  861MPD2     C12636   3.244   2.661  11.016 -0.5978  0.0616 -0.2652
  861MPD2    C112637   3.140   2.587  11.068 -0.7310 -0.4789  0.2865
  861MPD2    C212638   3.014   2.607  11.016 -0.2753  0.5022 -0.4539
  861MPD2    C312639   3.005   2.677  10.898  0.3614  0.1041 -0.7788
  861MPD2    C412640   3.113   2.749  10.852 -0.3964 -0.1264 -0.3076
  861MPD2    C512641   3.234   2.743  10.909  0.6111  0.4015  0.5070
  861MPD2     H12642   2.933   2.554  11.064  0.4245  0.8665  1.1238
  861MPD2    H112643   3.098   2.820  10.771 -0.0531  0.7178  0.3625
  861MPD2    H212644   3.342   2.667  11.062  0.3219 -2.9110 -1.8237
  861MPD2    H312645   3.316   2.810  10.883  0.6988 -1.0871 -3.1096
  861MPD2     N12646   2.878   2.683  10.829 -0.4389 -0.1853 -0.0949
  861MPD2    H512647   2.863   2.745  10.750  1.5062 -1.2217 -1.2690
  861MPD2    N112648   3.153   2.496  11.175 -0.3956  0.1193  0.8411
  861MPD2    H712649   3.060   2.469  11.207 -1.2445  0.9189 -0.9833
  862MPD2     C12650   2.193   2.784  10.446 -0.0691  0.3916  0.2323
  862MPD2    C112651   2.314   2.761  10.508 -0.1439 -0.3012 -0.2661
  862MPD2    C212652   2.344   2.647  10.583  0.0672 -0.8370 -0.3305
  862MPD2    C312653   2.239   2.561  10.600  0.9608 -0.1749 -0.2531
  862MPD2    C412654   2.117   2.586  10.546 -0.2437  0.4548 -0.8293
  862MPD2    C512655   2.089   2.697  10.468  0.1460  0.1053 -0.1663
  862MPD2     H12656   2.447   2.625  10.611 -0.4155 -1.8721  0.5978
  862MPD2    H112657   2.033   2.517  10.548  0.7907 -0.8233 -2.1197
  862MPD2    H212658   2.187   2.870  10.380 -0.9263 -1.2300 -1.8282
  862MPD2    H312659   1.987   2.711  10.434  1.3112  0.3609 -3.5486
  862MPD2     N12660   2.253   2.439  10.676  0.4349 -0.1726 -0.1565
  862MPD2    H512661   2.176   2.375  10.684  0.7631 -0.4614  0.7025
  862MPD2    N112662   2.403   2.871  10.485 -0.6639 -0.1148 -0.5808
  862MPD2    H712663   2.377   2.934  10.410  1.0186  1.3802  0.1018
  863MPD2     C12664   1.083   0.713  17.535  0.5669  0.3027 -0.4913
  863MPD2    C112665   1.193   0.686  17.469  0.0047  0.6851 -0.6365
  863MPD2    C212666   1.306   0.644  17.540  0.0531  0.5923  0.2990
  863MPD2    C312667   1.307   0.639  17.677 -0.4363 -0.2301 -0.1139
  863MPD2    C412668   1.192   0.683   0.054  0.6368  0.7480  0.5180
  863MPD2    C512669   1.082   0.703  17.670  0.2192 -0.1642 -0.9607
  863MPD2     H12670   1.396   0.627  17.483  0.2818  2.5474  0.0798
  863MPD2    H112671   1.180   0.667   0.160  1.4515  1.2785  0.6878
  863MPD2    H212672   0.990   0.739  17.486  0.8588 -0.5595 -1.5006
  863MPD2    H312673   0.985   0.723   0.026  1.1513 -1.0415  1.4990
  863MPD2     N12674   1.418   0.593   0.069 -0.1016  0.1770  0.1524
  863MPD2    H512675   1.422   0.633   0.163 -0.5447 -0.4212  0.4257
  863MPD2    N112676   1.180   0.695  17.328 -0.7483  0.1963 -0.7184
  863MPD2    H712677   1.094   0.733  17.291 -1.3508 -0.5853 -0.1082
  864MPD2     C12678   1.948   1.782  17.629 -0.1748  0.3113  0.1426
  864MPD2    C112679   2.003   1.708  17.530 -0.1447 -0.6712 -0.1429
  864MPD2    C212680   2.094   1.775  17.439  0.1651  0.2096 -0.2449
  864MPD2    C312681   2.114   1.910  17.454 -0.3804  0.4906 -0.8070
  864MPD2    C412682   2.059   1.976  17.557 -0.6568  0.0406  0.3006
  864MPD2    C512683   1.971   1.918  17.642 -0.5534 -0.5390 -0.4845
  864MPD2     H12684   2.130   1.716  17.355 -0.8736  1.5364 -1.6206
  864MPD2    H112685   2.066   2.084  17.557  1.2058 -0.0933 -2.3391
  864MPD2    H212686   1.890   1.738   0.021  0.1373 -0.8346 -0.2646
  864MPD2    H312687   1.935   1.970   0.042  0.6286  1.0490 -0.9351
  864MPD2     N12688   2.174   1.992  17.359  0.3033  0.1808  0.5110
  864MPD2    H512689   2.184   2.091  17.380  1.2860  1.2120 -4.6522
  864MPD2    N112690   1.961   1.573  17.515  0.7170  0.0621 -0.2078
  864MPD2    H712691   1.874   1.544  17.558  0.5829 -0.0009 -0.5183
  865MPD2     C12692   2.378   2.444  16.607 -0.2869 -0.1371 -0.2828
  865MPD2    C112693   2.338   2.335  16.679 -0.2497 -0.1041 -0.6932
  865MPD2    C212694   2.306   2.346  16.813 -0.1401  0.3648  0.3462
  865MPD2    C312695   2.320   2.473  16.871 -0.9971 -0.7364 -0.0291
  865MPD2    C412696   2.362   2.582  16.804  0.1598  0.1061 -0.4965
  865MPD2    C512697   2.387   2.566  16.671  0.3802 -0.1965 -0.0235
  865MPD2     H12698   2.271   2.261  16.870 -1.0065 -0.1703 -0.9800
  865MPD2    H112699   2.374   2.683  16.841 -0.1910 -0.3198  0.7661
  865MPD2    H212700   2.416   2.433  16.505  1.7425  2.5569  0.1785
  865MPD2    H312701   2.430   2.650  16.618 -1.7741  2.3126  2.1953
  865MPD2     N12702   2.289   2.503  17.007 -0.2624  0.3415  0.2850
  865MPD2    H512703   2.276   2.601  17.029  2.0352  0.4979  0.9630
  865MPD2    N112704   2.347   2.211  16.615 -0.0810  0.8141  0.0741
  865MPD2    H712705   2.351   2.221  16.514  0.4572 -0.5398 -0.0508
  866MPD2     C12706   3.480   2.803  11.731 -0.0259  1.1548 -1.1580
  866MPD2    C112707   3.502   2.780  11.592 -0.2096  0.2491 -0.7616
  866MPD2    C212708   3.411   2.825  11.501 -0.5669  0.0887  0.8648
  866MPD2    C312709   3.285   2.872  11.547 -0.7396 -0.5076 -0.6287
  866MPD2    C412710   3.264   2.874  11.682  0.4744 -0.2714  1.1173
  866MPD2    C512711   3.363   2.848  11.773 -0.1234 -0.0279  0.5900
  866MPD2     H12712   3.423   2.821  11.394 -0.6018 -0.5188  0.8842
  866MPD2    H112713   3.165   2.906  11.714  0.4712 -0.0705  0.9080
  866MPD2    H212714   3.550   2.774  11.808 -1.6631  0.3118  0.0203
  866MPD2    H312715   3.338   2.836  11.878 -0.8089  0.3843  0.4756
  866MPD2     N12716   3.174   2.900  11.467 -0.2373  0.8311 -0.3827
  866MPD2    H512717   3.082   2.908  11.510  0.2706  3.1145  0.2949
  866MPD2    N112718   3.627   2.738  11.536 -0.1000  0.3987 -0.3917
  866MPD2    H712719   3.633   2.732  11.435 -0.8147  1.1218 -0.4777
  867MPD2     C12720   0.795   1.703  16.415  0.3985 -0.3466  0.0708
  867MPD2    C112721   0.878   1.681  16.531  0.4085 -0.4937  0.1247
  867MPD2    C212722   0.890   1.790  16.623  0.0543  0.7217 -0.3410
  867MPD2    C312723   0.819   1.905  16.603 -0.2617 -0.2336  0.1503
  867MPD2    C412724   0.742   1.917  16.486 -1.0097 -0.8331 -0.4333
  867MPD2    C512725   0.731   1.819  16.395 -0.0003 -0.3073 -0.1046
  867MPD2     H12726   0.944   1.769  16.715 -0.3068  0.4212 -0.1951
  867MPD2    H112727   0.686   2.004  16.455 -0.5453 -0.1526  0.6381
  867MPD2    H212728   0.789   1.637  16.329 -4.2063  0.0304  0.1117
  867MPD2    H312729   0.680   1.843  16.302  0.9296 -0.5604 -0.6810
  867MPD2     N12730   0.852   2.021  16.677 -0.1649  0.2621  0.1074
  867MPD2    H512731   0.828   2.112  16.637 -0.7673  0.8786  1.8840
  867MPD2    N112732   0.950   1.560  16.540  0.2781  1.3228  0.2205
  867MPD2    H712733   0.954   1.505  16.455 -1.0818  0.6068  0.6182
  868MPD2     C12734   2.775   1.509  13.326  0.2271  0.3857  0.1206
  868MPD2    C112735   2.718   1.387  13.300  0.3093 -0.2328  0.6272
  868MPD2    C212736   2.597   1.351  13.359  0.1986  0.1859 -0.1000
  868MPD2    C312737   2.540   1.435  13.452 -0.3111 -0.6114 -0.6065
  868MPD2    C412738   2.600   1.553  13.486 -0.2232  0.2269  0.7894
  868MPD2    C512739   2.714   1.594  13.412  1.2031 -0.0787 -0.0170
  868MPD2     H12740   2.543   1.258  13.343 -2.2946  1.7505 -0.6588
  868MPD2    H112741   2.551   1.621  13.553 -0.8935 -0.0376  0.5622
  868MPD2    H212742   2.849   1.547  13.257  0.3516 -1.9838 -1.0463
  868MPD2    H312743   2.752   1.694  13.429 -0.2208  0.4407  0.1101
  868MPD2     N12744   2.415   1.392  13.511  0.4077 -0.1010  0.1336
  868MPD2    H512745   2.356   1.337  13.450  1.0736 -0.3546 -0.2830
  868MPD2    N112746   2.798   1.300  13.228  0.1124 -0.1443 -0.7881
  868MPD2    H712747   2.891   1.333  13.204  0.0092  0.9287  0.2250
  869MPD2     C12748   0.157   3.332   1.617  0.0688  0.8289 -0.5376
  869MPD2    C112749   0.054   3.381   1.689 -0.8371  0.2648 -0.0484
  869MPD2    C212750   4.671   3.449   1.629 -0.6508  0.3563 -0.9986
  869MPD2    C312751   4.660   3.462   1.484  0.2896  0.7413 -0.0825
  869MPD2    C412752   0.047   3.410   1.414 -0.3023  0.1246  0.3172
  869MPD2    C512753   0.154   3.356   1.483  0.0338 -0.6047 -0.2392
  869MPD2     H12754   4.583   3.470   1.689  0.2695  1.3467 -0.0214
  869MPD2    H112755   0.057   3.417   1.306  0.9763 -0.2488  0.4098
  869MPD2    H212756   0.242   3.281   1.661  0.7179  1.7865 -0.6687
  869MPD2    H312757   0.241   3.326   1.426  2.5562  0.6538  2.9855
  869MPD2     N12758   4.547   3.522   1.428  0.3237  0.1718  0.3204
  869MPD2    H512759   4.537   3.521   1.327  1.9155  0.2097  0.1555
  869MPD2    N112760   0.072   3.359   1.827  0.1354  0.2359 -0.3536
  869MPD2    H712761   0.162   3.329   1.864 -1.2741 -2.6114  0.7484
  870MPD2     C12762   3.769   2.865   2.073  0.0326 -0.4707 -0.0140
  870MPD2    C112763   3.885   2.788   2.087  0.4267  0.6833  0.0429
  870MPD2    C212764   3.937   2.714   1.983 -0.1412  0.0533  0.3433
  870MPD2    C312765   3.875   2.725   1.861 -0.1418  0.6865  0.0166
  870MPD2    C412766   3.755   2.799   1.848 -0.8174  1.3196  0.3069
  870MPD2    C512767   3.713   2.873   1.956  0.0569  0.2913 -0.5779
  870MPD2     H12768   4.024   2.651   2.000 -0.8898 -0.7991  1.0804
  870MPD2    H112769   3.690   2.798   1.762  0.7680 -2.7657 -0.8716
  870MPD2    H212770   3.726   2.931   2.148  0.2122 -0.8124  0.3896
  870MPD2    H312771   3.629   2.940   1.945 -2.0638 -2.5474 -1.8197
  870MPD2     N12772   3.929   2.639   1.763 -0.0103  0.3790 -0.1445
  870MPD2    H512773   4.009   2.585   1.795 -1.0034 -0.8204  0.3027
  870MPD2    N112774   3.918   2.776   2.225  0.3459 -0.9576 -0.2035
  870MPD2    H712775   3.858   2.822   2.294  0.7858 -1.0077  0.2134
  871MPD2     C12776   4.313   1.907  16.178  0.4143 -0.0015 -0.0003
  871MPD2    C112777   4.370   1.860  16.287  0.2996  0.1213  0.3141
  871MPD2    C212778   4.473   1.764  16.269  0.2144  0.1740  0.1167
  871MPD2    C312779   4.508   1.713  16.143 -0.2895  0.1377  0.5288
  871MPD2    C412780   4.436   1.759  16.037  0.1295 -0.6854  0.4248
  871MPD2    C512781   4.341   1.862  16.056  0.4047 -1.0967 -0.6661
  871MPD2     H12782   4.521   1.729  16.360 -1.7097  0.6951  1.3363
  871MPD2    H112783   4.470   1.733  15.938  0.7975 -0.4418  0.5882
  871MPD2    H212784   4.232   1.980  16.178  0.5252  0.1241 -0.4821
  871MPD2    H312785   4.302   1.905  15.964  0.8855 -0.7682 -0.7204
  871MPD2     N12786   4.609   1.622  16.113  0.8687 -0.2896  0.7549
  871MPD2    H512787   4.614   1.595  16.015 -0.9752 -0.2232  0.6501
  871MPD2    N112788   4.343   1.919  16.413  0.6229 -0.1846  0.0245
  871MPD2    H712789   4.272   1.991  16.416  0.0800 -0.7499  0.8966
  872MPD2     C12790   0.655   4.195  14.132 -0.2006 -0.3642 -0.2453
  872MPD2    C112791   0.608   4.319  14.088 -0.1110 -0.0809  0.1688
  872MPD2    C212792   0.490   4.366  14.144 -0.2863  0.5968  0.2693
  872MPD2    C312793   0.428   4.299  14.254  0.1791  0.5331 -0.0973
  872MPD2    C412794   0.495   4.185  14.309 -0.4482  0.6040 -0.2779
  872MPD2    C512795   0.608   4.140  14.249 -0.6224  0.2122 -0.3009
  872MPD2     H12796   0.447   4.459  14.108  0.3078  0.0196 -1.9238
  872MPD2    H112797   0.444   4.134  14.390  1.8749 -0.6864  0.3715
  872MPD2    H212798   0.740   4.149  14.083  0.8258  2.3293 -1.0128
  872MPD2    H312799   0.646   4.048  14.291  2.3958  1.3209 -0.6348
  872MPD2     N12800   0.304   4.338  14.307  0.7243 -0.2935  0.1813
  872MPD2    H512801   0.263   4.279  14.380  1.1097 -1.4457 -0.5379
  872MPD2    N112802   0.671   4.396  13.988  0.3313 -0.4172  0.0859
  872MPD2    H712803   0.634   4.485  13.958 -1.7820 -0.7293  1.7659
  873MPD2     C12804   2.154   0.045   1.313  0.2937  0.9111  0.4567
  873MPD2    C112805   2.296   0.039   1.324  0.3567 -0.1316  0.7368
  873MPD2    C212806   2.357   4.685   1.225  0.1173 -0.7074 -0.8131
  873MPD2    C312807   2.285   4.610   1.132  0.2045 -0.1583  0.6139
  873MPD2    C412808   2.149   4.605   1.139  0.1890 -0.2955  0.7579
  873MPD2    C512809   2.086   4.691   1.221 -0.1196 -0.4476 -0.4559
  873MPD2     H12810   2.465   4.689   1.219  0.2569 -4.4003 -0.4269
  873MPD2    H112811   2.094   4.553   1.061  0.6745  0.2295  0.0799
  873MPD2    H212812   2.088   0.101   1.378  0.8701  2.1842 -0.0476
  873MPD2    H312813   1.978   4.684   1.229 -0.3880  2.4254 -1.2682
  873MPD2     N12814   2.345   4.541   1.023  0.3553 -0.1053 -0.6228
  873MPD2    H512815   2.281   4.488   0.964  0.7652  0.4949 -1.6112
  873MPD2    N112816   2.360   0.111   1.431 -0.0348  0.1432  0.5574
  873MPD2    H712817   2.301   0.166   1.491 -0.9452  0.3547 -0.5253
  874MPD2     C12818   2.291   4.547  15.879  0.2981 -0.6880 -0.1233
  874MPD2    C112819   2.383   4.493  15.958  0.0567 -0.5428  0.6860
  874MPD2    C212820   2.516   4.546  15.957  0.1958  0.5451  0.3805
  874MPD2    C312821   2.550   4.651  15.864 -0.3964 -0.1183  0.3202
  874MPD2    C412822   2.453   4.706  15.785 -0.5739  0.6894  0.4145
  874MPD2    C512823   2.321   4.664  15.800 -0.1697  0.8187 -0.6502
  874MPD2     H12824   2.593   4.524  16.030  0.8887  1.4889 -0.0625
  874MPD2    H112825   2.479   0.071  15.724  0.8931 -0.4928 -0.6109
  874MPD2    H212826   2.194   4.500  15.863  0.3619 -0.9715  0.3206
  874MPD2    H312827   2.248   4.696  15.727  0.3542 -1.1876 -2.0539
  874MPD2     N12828   2.681   4.705  15.853  0.2923 -1.1614  0.1752
  874MPD2    H512829   2.698   0.071  15.803  0.8843 -0.9934  0.6672
  874MPD2    N112830   2.338   4.391  16.043 -0.0927 -0.3612 -0.1218
  874MPD2    H712831   2.239   4.368  16.039 -0.2083 -0.0895  1.1210
  875MPD2     C12832   2.828   2.481  14.577  0.9403 -0.3500  1.0006
  875MPD2    C112833   2.890   2.586  14.507 -1.2725 -0.4249  0.3568
  875MPD2    C212834   2.937   2.692  14.589  0.2181  0.0740  0.1977
  875MPD2    C312835   2.937   2.687  14.724  0.3175 -0.1637  0.0808
  875MPD2    C412836   2.890   2.571  14.784  0.6787  0.1826  0.4781
  875MPD2    C512837   2.831   2.469  14.711  0.0750 -0.1980  0.2708
  875MPD2     H12838   2.983   2.771  14.530 -1.1043 -0.2067 -1.2098
  875MPD2    H112839   2.876   2.567  14.892 -1.3888 -0.3227  0.1916
  875MPD2    H212840   2.797   2.388  14.529  0.3956  0.7181 -0.6994
  875MPD2    H312841   2.785   2.380  14.753  2.2826 -1.3260  0.3129
  875MPD2     N12842   3.012   2.776  14.799 -0.2433  0.0999 -0.7192
  875MPD2    H512843   3.021   2.754  14.898  2.2597  1.6289 -0.6055
  875MPD2    N112844   2.901   2.583  14.363 -0.2975  0.2475  0.6452
  875MPD2    H712845   2.930   2.668  14.316  0.7967 -0.7309 -0.4417
  876MPD2     C12846   1.852   4.008  15.193  0.1657  0.5430 -0.2017
  876MPD2    C112847   1.931   4.096  15.259 -0.6940  0.1564  0.6832
  876MPD2    C212848   2.002   4.060  15.372 -0.6476  0.1314 -0.1160
  876MPD2    C312849   1.985   3.940  15.418  0.3649  0.0093 -0.0957
  876MPD2    C412850   1.912   3.846  15.351 -0.6017  0.0407 -0.2725
  876MPD2    C512851   1.837   3.884  15.241 -0.6205  0.3165  0.3679
  876MPD2     H12852   2.053   4.144  15.419  1.8685  0.1644 -2.9231
  876MPD2    H112853   1.917   3.742  15.382  0.5981  0.5138  1.1507
  876MPD2    H212854   1.803   4.029  15.099  2.1695  0.3792 -1.2847
  876MPD2    H312855   1.781   3.810  15.185 -0.2095  0.1375  0.1923
  876MPD2     N12856   2.057   3.900  15.533 -0.0038 -0.4582 -0.6956
  876MPD2    H512857   2.123   3.973  15.556 -0.5531 -0.5182  1.0237
  876MPD2    N112858   1.947   4.225  15.199  0.7419  0.3465  0.2432
  876MPD2    H712859   1.912   4.233  15.105  3.0457 -0.4445 -0.6798
  877MPD2     C12860   1.657   4.616  14.604  0.4228  0.8570  1.1442
  877MPD2    C112861   1.792   4.628  14.613  0.0194  0.2988 -0.3459
  877MPD2    C212862   1.860   4.680  14.508  0.3991 -0.6650  0.8660
  877MPD2    C312863   1.794   4.712  14.391 -0.0131  1.2210 -0.1820
  877MPD2    C412864   1.661   4.680  14.382 -0.1604  0.5506  0.1594
  877MPD2    C512865   1.589   4.638  14.487  0.4590  0.0512  0.0495
  877MPD2     H12866   1.968   4.690  14.511  0.4173 -0.5120 -0.2377
  877MPD2    H112867   1.606   4.707  14.293  2.0266 -1.7067 -1.8560
  877MPD2    H212868   1.590   4.579  14.681 -0.4784  0.7678  0.3154
  877MPD2    H312869   1.481   4.632  14.486  0.4973 -0.4717 -1.5395
  877MPD2     N12870   1.854   0.030  14.273 -0.1042  0.0112 -0.1228
  877MPD2    H512871   1.795   0.008  14.193  0.4588  0.1347 -0.5705
  877MPD2    N112872   1.872   4.595  14.728 -0.5948 -0.6830 -0.0175
  877MPD2    H712873   1.965   4.633  14.738 -1.3304  1.1517 -0.1629
  878MPD2     C12874   1.158   3.940  13.388 -0.2322  0.2862 -1.1197
  878MPD2    C112875   1.205   3.891  13.264  0.2177 -0.0566  0.0411
  878MPD2    C212876   1.211   3.753  13.245  0.2044  1.6096  0.5025
  878MPD2    C312877   1.158   3.671  13.341  0.0550 -0.2074  0.1480
  878MPD2    C412878   1.118   3.715  13.466 -0.1181 -0.5604  0.4215
  878MPD2    C512879   1.119   3.853  13.482  0.3244  0.1286  0.2928
  878MPD2     H12880   1.245   3.701  13.156  0.0198  2.6070 -0.1552
  878MPD2    H112881   1.068   3.651  13.538 -0.7349 -1.2803 -0.6656
  878MPD2    H212882   1.142   4.045  13.411 -1.3271 -0.0709 -0.2710
  878MPD2    H312883   1.078   3.891  13.575 -3.8847  0.0094 -1.5230
  878MPD2     N12884   1.172   3.532  13.306  0.4797  0.1057 -0.0381
  878MPD2    H512885   1.196   3.515  13.209  1.8071 -2.1191  0.6688
  878MPD2    N112886   1.266   3.984  13.177 -0.3856 -0.0664 -0.0649
  878MPD2    H712887   1.271   4.081  13.208 -1.0034  0.3950 -1.4364
  879MPD2     C12888   2.595   0.777  17.548  0.5158  0.6017 -0.7518
  879MPD2    C112889   2.717   0.725  17.508  0.5157 -0.1457 -0.7920
  879MPD2    C212890   2.715   0.617  17.420  0.3423  0.9387 -0.0720
  879MPD2    C312891   2.598   0.547  17.391 -0.0689 -0.5761  0.4515
  879MPD2    C412892   2.479   0.590  17.444  0.0666 -0.3960  0.3365
  879MPD2    C512893   2.476   0.712  17.507  0.0088  0.0432  0.3462
  879MPD2     H12894   2.812   0.584  17.383  0.2439  1.0776 -0.4564
  879MPD2    H112895   2.385   0.540  17.424  0.8045 -2.1464  1.2617
  879MPD2    H212896   2.588   0.863  17.612 -0.6221  2.8786 -3.9165
  879MPD2    H312897   2.383   0.742  17.553  1.4068  1.4308  2.2298
  879MPD2     N12898   2.611   0.429  17.315 -0.0880  0.2581  0.0904
  879MPD2    H512899   2.701   0.418  17.269 -0.9184 -0.8102 -1.2874
  879MPD2    N112900   2.832   0.788  17.567  0.4894 -1.0000  0.0850
  879MPD2    H712901   2.820   0.858  17.639  0.3419 -1.2873  0.3367
  880MPD2     C12902   4.461   2.070   0.131 -0.6512 -0.1998  0.4828
  880MPD2    C112903   4.448   2.098   0.261  0.0356 -0.1387 -0.2687
  880MPD2    C212904   4.561   2.089   0.346 -0.0474 -0.2617  0.2067
  880MPD2    C312905   4.682   2.062   0.291  0.8185 -0.2673  0.0726
  880MPD2    C412906   4.693   2.040   0.150  0.0323 -0.4548  0.5070
  880MPD2    C512907   4.579   2.029   0.079  0.0303 -0.2949 -0.0750
  880MPD2     H12908   4.545   2.100   0.452  2.8438 -0.1168  0.6405
  880MPD2    H112909   0.065   2.010   0.103 -2.7115 -1.3224 -4.3594
  880MPD2    H212910   4.375   2.070   0.065 -1.1468  0.9411  1.1310
  880MPD2    H312911   4.585   1.985  17.668  3.2753 -1.6307  0.7234
  880MPD2     N12912   0.073   2.057   0.378  0.0245 -0.1957  0.1398
  880MPD2    H512913   0.060   2.060   0.479  0.0974 -0.6880  0.1621
  880MPD2    N112914   4.320   2.137   0.305  0.1620  0.5880 -0.6199
  880MPD2    H712915   4.247   2.140   0.235  1.0520 -2.6214 -1.6907
  881MPD2     C12916   3.816   2.933   0.020 -0.2240 -0.1827  0.1122
  881MPD2    C112917   3.836   2.809  17.647  0.7357  0.2879 -0.1118
  881MPD2    C212918   3.869   2.703   0.040  0.3051 -0.2205  0.0918
  881MPD2    C312919   3.883   2.715   0.180 -0.1127  0.0216 -0.3343
  881MPD2    C412920   3.859   2.835   0.237  0.1306  0.1989  0.4175
  881MPD2    C512921   3.831   2.946   0.153 -0.3583  0.9853  0.0744
  881MPD2     H12922   3.890   2.604   0.000 -2.0736 -0.9336  0.5811
  881MPD2    H112923   3.865   2.864   0.341 -0.8644 -0.1736  0.5714
  881MPD2    H212924   3.824   3.026  17.653 -0.0279 -0.6593 -0.6885
  881MPD2    H312925   3.822   3.046   0.195 -0.6883  0.0513  2.2053
  881MPD2     N12926   3.933   2.616   0.267 -0.8514 -0.0180  0.0586
  881MPD2    H512927   3.951   2.646   0.362  1.1568  1.5812 -0.8256
  881MPD2    N112928   3.858   2.812  17.509  0.6090 -0.0412  0.5083
  881MPD2    H712929   3.821   2.895  17.463  1.4732  0.1529  0.1763
  882MPD2     C12930   1.654   0.137  13.616  0.0870 -0.0631  0.0057
  882MPD2    C112931   1.664   0.129  13.755  0.0572 -0.5420  0.9158
  882MPD2    C212932   1.539   0.101  13.823 -0.2910  0.4238  0.0735
  882MPD2    C312933   1.421   0.082  13.763 -0.4198  0.3090 -0.2036
  882MPD2    C412934   1.426   0.078  13.625  0.2338  0.4388  0.1614
  882MPD2    C512935   1.536   0.115  13.558  0.8922  0.2755  0.2054
  882MPD2     H12936   1.552   0.094  13.930 -0.3475 -0.4501  0.0240
  882MPD2    H112937   1.334   0.065  13.568  1.1662  4.1167 -2.2263
  882MPD2    H212938   1.744   0.155  13.558  0.0877  0.9092  0.3091
  882MPD2    H312939   1.532   0.125  13.450  3.9743 -0.0903  0.0410
  882MPD2     N12940   1.303   0.045  13.840  0.3999  0.3812 -0.3872
  882MPD2    H512941   1.239   4.718  13.778  1.8284 -1.2223 -0.6142
  882MPD2    N112942   1.788   0.135  13.829  0.3624  0.4423  0.7402
  882MPD2    H712943   1.783   0.132  13.930  0.3163  2.6282  0.8046
  883MPD2     C12944   4.093   4.462  16.726 -0.2387 -0.2589 -0.1837
  883MPD2    C112945   4.183   4.496  16.632  0.4178 -0.0034  0.1654
  883MPD2    C212946   4.315   4.477  16.651  0.2010 -0.1643  0.3054
  883MPD2    C312947   4.368   4.432  16.770 -0.4606  0.0858 -0.1371
  883MPD2    C412948   4.281   4.395  16.865 -0.2038  0.2000  0.0967
  883MPD2    C512949   4.144   4.403  16.839  0.4250 -0.5745 -0.0057
  883MPD2     H12950   4.382   4.511  16.573 -0.1109  1.6428  0.8344
  883MPD2    H112951   4.313   4.348  16.957  2.2222  2.1370  0.2467
  883MPD2    H212952   3.986   4.482  16.727  0.0545  1.3099 -0.1174
  883MPD2    H312953   4.073   4.367  16.914 -0.3559 -1.7945 -1.3305
  883MPD2     N12954   4.509   4.444  16.790 -0.0636 -0.2938  0.8092
  883MPD2    H512955   4.560   4.476  16.709 -0.0631  0.7730  1.2263
  883MPD2    N112956   4.153   4.555  16.508 -0.3295  0.9823 -0.3306
  883MPD2    H712957   4.221   4.577  16.437  1.4937  1.3380  1.5158
  884MPD2     C12958   1.458   0.102  15.537  0.1139  0.2154 -0.3057
  884MPD2    C112959   1.429   0.229  15.493  0.1231 -0.1341  0.1140
  884MPD2    C212960   1.296   0.269  15.483  0.0303 -0.2398 -0.0987
  884MPD2    C312961   1.187   0.184  15.506  0.3445 -0.0843 -0.4619
  884MPD2    C412962   1.218   0.055  15.542  1.1083 -0.2630  0.2685
  884MPD2    C512963   1.350   0.016  15.563  0.2685 -0.2495 -0.1670
  884MPD2     H12964   1.272   0.372  15.459  0.3907 -0.2147 -0.3359
  884MPD2    H112965   1.144   4.697  15.536  0.7503  0.2104 -1.6671
  884MPD2    H212966   1.559   0.066  15.551 -0.1590 -0.8809 -1.1460
  884MPD2    H312967   1.360   4.635  15.599  0.4023 -0.4402 -0.7492
  884MPD2     N12968   1.059   0.238  15.490  0.0416  0.3667 -0.6737
  884MPD2    H512969   1.051   0.335  15.461  1.4997  1.3543  2.2177
  884MPD2    N112970   1.529   0.328  15.466 -0.2982  0.3719  0.0196
  884MPD2    H712971   1.498   0.423  15.450  0.3744  0.9721  2.2773
  885MPD2     C12972   4.044   0.721   0.347 -1.0706 -0.3072 -0.0346
  885MPD2    C112973   4.135   0.828   0.329  0.7506 -0.3276  0.3033
  885MPD2    C212974   4.149   0.879   0.201 -0.7382 -0.4852  0.5712
  885MPD2    C312975   4.098   0.816   0.087 -0.7719  0.5710  0.2170
  885MPD2    C412976   4.019   0.707   0.107 -0.5501 -0.3776 -0.2558
  885MPD2    C512977   3.992   0.660   0.232 -0.0247 -0.1994  0.3969
  885MPD2     H12978   4.209   0.969   0.190 -3.0457  0.9666 -0.0103
  885MPD2    H112979   3.986   0.642   0.028  0.8004  1.1149 -2.0406
  885MPD2    H212980   4.021   0.685   0.446  0.7793 -1.8694 -0.1603
  885MPD2    H312981   3.920   0.580   0.245  1.1575 -1.1734  0.9535
  885MPD2     N12982   4.134   0.865  17.645 -0.2364 -0.0620  0.1826
  885MPD2    H512983   4.201   0.942  17.640  0.7290 -1.0196 -1.5994
  885MPD2    N112984   4.190   0.890   0.441 -0.0930 -0.3339 -0.0558
  885MPD2    H712985   4.171   0.839   0.527  0.0735 -1.9282 -0.9525
  886MPD2     C12986   0.577   3.433  15.263  0.0812  0.2402  0.4904
  886MPD2    C112987   0.711   3.478  15.268 -0.1945  0.4738 -0.6636
  886MPD2    C212988   0.746   3.580  15.180  0.2909 -0.8818 -0.3190
  886MPD2    C312989   0.656   3.651  15.107  0.0478  0.0448  0.8618
  886MPD2    C412990   0.526   3.602  15.102 -0.3976  0.2626  0.1561
  886MPD2    C512991   0.484   3.503  15.187  1.0652 -0.3153 -0.7746
  886MPD2     H12992   0.851   3.609  15.185 -0.0046  0.4453 -2.2326
  886MPD2    H112993   0.453   3.642  15.033  0.7867 -0.9500 -1.7934
  886MPD2    H212994   0.540   3.369  15.342 -0.1062  1.7907  1.6568
  886MPD2    H312995   0.380   3.474  15.190  1.1404 -0.6595 -1.6593
  886MPD2     N12996   0.693   3.753  15.017  0.5605 -0.2827 -0.1354
  886MPD2    H512997   0.630   3.775  14.941  0.4562 -1.3634 -0.3653
  886MPD2    N112998   0.817   3.422  15.344  0.0709 -0.5401 -0.7219
  886MPD2    H712999   0.905   3.472  15.344  0.1667 -0.7072 -0.4121
  887MPD2     C13000   1.530   3.506  15.474 -0.0455 -0.0768  1.0503
  887MPD2    C113001   1.405   3.531  15.528 -0.0213 -0.1136 -0.0910
  887MPD2    C213002   1.390   3.641  15.608  1.1972  0.4368 -0.3448
  887MPD2    C313003   1.494   3.738  15.618 -0.0084 -0.3289 -0.4791
  887MPD2    C413004   1.616   3.720  15.557 -0.5535 -0.1133 -0.1945
  887MPD2    C513005   1.634   3.601  15.492 -0.0592  0.7324 -0.1550
  887MPD2     H13006   1.299   3.659  15.663 -0.0312 -1.0398 -1.9123
  887MPD2    H113007   1.702   3.786  15.555 -1.0210  0.5117  0.2927
  887MPD2    H213008   1.547   3.418  15.412  1.9580 -0.0855  1.6206
  887MPD2    H313009   1.736   3.584  15.461 -0.6112 -2.0013 -0.4923
  887MPD2     N13010   1.461   3.849  15.695  0.4607 -0.1274 -0.5997
  887MPD2    H513011   1.378   3.831  15.751  1.5810  0.2947  1.2084
  887MPD2    N113012   1.296   3.448  15.513 -0.4098 -0.1727 -0.3825
  887MPD2    H713013   1.209   3.482  15.552  0.5120  0.3328  1.2466
  888MPD2     C13014   2.929   4.147  14.668  0.1304 -0.4345 -0.2527
  888MPD2    C113015   2.884   4.207  14.784 -0.1582 -0.1901  0.2312
  888MPD2    C213016   2.923   4.335  14.817 -0.4283  0.4158  0.2635
  888MPD2    C313017   3.003   4.403  14.729 -0.3307  0.2529  0.3496
  888MPD2    C413018   3.033   4.354  14.605 -0.0568 -0.6645  0.8430
  888MPD2    C513019   2.997   4.223  14.577  0.4254  0.1580 -0.5043
  888MPD2     H13020   2.876   4.381  14.904 -0.5605 -0.0415  0.4314
  888MPD2    H113021   3.093   4.401  14.528  0.6594  0.0936  1.8605
  888MPD2    H213022   2.891   4.052  14.632 -1.8066  1.7958 -4.0770
  888MPD2    H313023   3.027   4.182  14.481 -0.3676  0.5597 -0.9247
  888MPD2     N13024   3.029   4.536  14.779 -0.2651  1.0483 -0.6189
  888MPD2    H513025   2.982   4.565  14.864 -0.2254 -1.5604  0.2953
  888MPD2    N113026   2.789   4.144  14.871  0.0331  0.0337 -0.0984
  888MPD2    H713027   2.745   4.199  14.945 -1.7929 -0.1103 -1.0647
  889MPD2     C13028   2.265   3.435  12.725  0.2836 -0.3850  0.2035
  889MPD2    C113029   2.355   3.434  12.828 -0.1812 -0.3137  0.3566
  889MPD2    C213030   2.423   3.551  12.855 -0.1451 -0.4160  0.3794
  889MPD2    C313031   2.411   3.659  12.775 -0.2525  0.3764  0.1424
  889MPD2    C413032   2.332   3.655  12.659  0.4452 -0.1577 -1.0838
  889MPD2    C513033   2.260   3.542  12.635  0.4329  0.2256  0.2881
  889MPD2     H13034   2.464   3.555  12.955  1.5115 -4.5101 -0.1574
  889MPD2    H113035   2.324   3.739  12.590 -1.7795  0.4531 -0.0735
  889MPD2    H213036   2.222   3.344  12.686 -1.7983  0.1771  1.1880
  889MPD2    H313037   2.200   3.532  12.545 -0.4620 -1.4220  1.0769
  889MPD2     N13038   2.476   3.777  12.825  0.6440  0.4585 -0.2114
  889MPD2    H513039   2.499   3.780  12.924 -1.0460  1.1743  0.1765
  889MPD2    N113040   2.350   3.336  12.933 -0.6964  0.4667 -0.2351
  889MPD2    H713041   2.415   3.345  13.010  0.1872 -0.3269 -0.8721
  890MPD2     C13042   1.475   0.477  14.820 -0.7165 -0.0411 -0.1126
  890MPD2    C113043   1.559   0.553  14.899  1.0694 -0.2940  0.0536
  890MPD2    C213044   1.657   0.483  14.972  0.2040  0.3321 -0.3547
  890MPD2    C313045   1.679   0.348  14.958  0.6268 -0.4456 -0.0843
  890MPD2    C413046   1.594   0.273  14.878  0.3229 -0.4622 -0.5358
  890MPD2    C513047   1.492   0.339  14.809  0.1551 -0.6877  1.1407
  890MPD2     H13048   1.718   0.536  15.045 -0.0969  1.1396 -0.6861
  890MPD2    H113049   1.606   0.166  14.869  0.8561 -0.5056  0.6075
  890MPD2    H213050   1.391   0.524  14.770 -1.9188 -1.8192  0.2240
  890MPD2    H313051   1.427   0.281  14.744  2.5337 -0.9287 -1.0132
  890MPD2     N13052   1.787   0.287  15.031  0.0091  0.2607  0.2439
  890MPD2    H513053   1.853   0.352  15.071 -1.9713  1.5502  1.4396
  890MPD2    N113054   1.546   0.693  14.891  0.4339 -0.0055  0.6093
  890MPD2    H713055   1.492   0.726  14.811  0.2115 -1.4802  0.1610
  891MPD2     C13056   0.388   3.839  16.302 -0.3411 -0.6989 -0.7476
  891MPD2    C113057   0.324   3.837  16.420 -0.4541  0.3943  0.8429
  891MPD2    C213058   0.389   3.826  16.544  0.4059  0.3400  0.5541
  891MPD2    C313059   0.524   3.814  16.536 -0.8598 -0.9100 -0.4444
  891MPD2    C413060   0.591   3.813  16.414  0.0770 -0.3712 -0.2317
  891MPD2    C513061   0.526   3.831  16.301  0.2190 -0.7682 -0.7218
  891MPD2     H13062   0.348   3.835  16.644  1.9357 -2.4134  1.4068
  891MPD2    H113063   0.699   3.825  16.410  0.0784  0.0499  0.9522
  891MPD2    H213064   0.334   3.859  16.210 -1.1424  0.3326 -0.0510
  891MPD2    H313065   0.587   3.829  16.212 -0.4342  0.1885 -1.1984
  891MPD2     N13066   0.594   3.794  16.656 -0.1142 -0.2994  0.0723
  891MPD2    H513067   0.542   3.811  16.742  1.8387 -1.5824  1.4924
  891MPD2    N113068   0.185   3.838  16.406 -0.4750  1.0958  0.4884
  891MPD2    H713069   0.139   3.833  16.316  0.1631 -1.3484  0.2759
  892MPD2     C13070   1.142   4.371  14.846 -0.2980  0.1750  0.4922
  892MPD2    C113071   1.052   4.453  14.774  0.1573 -1.0570 -0.0371
  892MPD2    C213072   1.086   4.473  14.640 -0.0703  0.6470 -0.6303
  892MPD2    C313073   1.201   4.428  14.581  0.6951  0.1603  0.2458
  892MPD2    C413074   1.285   4.342  14.658 -0.2960 -0.0731  0.3567
  892MPD2    C513075   1.248   4.314  14.788 -0.1692 -0.5661 -0.0278
  892MPD2     H13076   1.019   4.542  14.590  1.0016  1.1400 -1.4004
  892MPD2    H113077   1.364   4.285  14.609 -0.3805  0.0648  0.0606
  892MPD2    H213078   1.132   4.354  14.952  0.9595 -0.4557  0.5130
  892MPD2    H313079   1.307   4.244  14.846 -2.6193 -1.9030  0.8824
  892MPD2     N13080   1.220   4.446  14.442  0.3280  0.0121  0.5152
  892MPD2    H513081   1.297   4.398  14.398 -0.3111 -0.1972 -0.3649
  892MPD2    N113082   0.940   4.517  14.830 -0.3002 -0.1903  0.0991
  892MPD2    H713083   0.888   4.585  14.776 -0.9316 -0.9391 -0.2481
  893MPD2     C13084   3.426   3.416   2.263  1.4075  0.1168  0.5599
  893MPD2    C113085   3.461   3.426   2.132  0.8733  0.4367 -0.7860
  893MPD2    C213086   3.402   3.523   2.048 -0.2535  1.0371  0.0488
  893MPD2    C313087   3.310   3.610   2.099  0.4143 -0.4976  0.1357
  893MPD2    C413088   3.283   3.604   2.235 -0.1879  0.1709 -0.2864
  893MPD2    C513089   3.340   3.513   2.314  0.2725 -0.1982  0.0716
  893MPD2     H13090   3.418   3.529   1.941  1.3424  0.9328  0.2743
  893MPD2    H113091   3.215   3.669   2.289 -0.8833 -0.0807 -0.8608
  893MPD2    H213092   3.467   3.344   2.332  0.1618 -1.3872 -0.2852
  893MPD2    H313093   3.317   3.514   2.419 -1.3332 -1.0654 -0.2654
  893MPD2     N13094   3.241   3.713   2.024  0.4757  0.0824  0.8860
  893MPD2    H513095   3.202   3.788   2.080 -1.3449  0.4248 -0.8294
  893MPD2    N113096   3.549   3.326   2.084  0.4871 -0.1250  0.0012
  893MPD2    H713097   3.591   3.252   2.139  0.7558  1.2308  1.6015
  894MPD2     C13098   0.961   1.043   1.720  0.1438  0.1358  0.5819
  894MPD2    C113099   1.063   1.119   1.658  0.8991  0.6365  0.3626
  894MPD2    C213100   1.042   1.194   1.546 -0.0937  0.0199 -0.2660
  894MPD2    C313101   0.914   1.198   1.498 -0.0653  0.5208 -0.1719
  894MPD2    C413102   0.815   1.113   1.554  0.7308 -0.5731  0.0561
  894MPD2    C513103   0.838   1.035   1.658 -0.4606  0.2152 -0.5254
  894MPD2     H13104   1.119   1.251   1.495 -2.9894  4.1337  0.0345
  894MPD2    H113105   0.711   1.127   1.530  0.4568  0.4906  1.9065
  894MPD2    H213106   0.982   0.983   1.807 -0.2340 -1.9499 -0.7621
  894MPD2    H313107   0.761   0.969   1.696 -1.5445  0.4876 -2.2425
  894MPD2     N13108   0.889   1.282   1.382 -1.0594  0.2505 -0.0056
  894MPD2    H513109   0.964   1.339   1.346  0.9192 -2.6609 -0.5054
  894MPD2    N113110   1.195   1.121   1.713  0.1301  0.3092 -0.7702
  894MPD2    H713111   1.265   1.176   1.665  1.1926  1.0926  1.7011
  895MPD2     C13112   0.106   4.065  14.175 -0.0041  0.1842  0.6860
  895MPD2    C113113   0.091   4.091  14.045  0.9191  0.7922  0.8130
  895MPD2    C213114   0.186   4.045  13.961  0.1016  0.7288  0.1903
  895MPD2    C313115   0.270   3.937  14.003  1.0632 -0.0004  0.9072
  895MPD2    C413116   0.270   3.903  14.135 -0.9748 -0.0456  0.9638
  895MPD2    C513117   0.202   3.983  14.223  0.4954 -0.2052  0.1652
  895MPD2     H13118   0.165   4.055  13.855  0.3014 -0.7176  0.0025
  895MPD2    H113119   0.335   3.830  14.184 -1.0018 -0.7938 -0.1127
  895MPD2    H213120   0.039   4.114  14.245 -1.4394  0.7581 -1.0994
  895MPD2    H313121   0.211   3.950  14.326 -1.6701 -0.2112  0.3379
  895MPD2     N13122   0.342   3.861  13.913  1.0202  0.0928  0.3070
  895MPD2    H513123   0.394   3.783  13.954  0.8718 -1.6290 -2.8283
  895MPD2    N113124   4.704   4.161  13.989  0.5902  0.4441 -1.1293
  895MPD2    H713125   4.616   4.153  14.040  1.6776 -0.3483  0.6483
  896MPD2     C13126   3.113   2.349   1.607 -0.3714  0.2611 -0.7135
  896MPD2    C113127   3.122   2.210   1.591 -0.0437  0.4257  0.4779
  896MPD2    C213128   3.036   2.142   1.497 -0.7342 -0.1366 -0.3374
  896MPD2    C313129   2.933   2.212   1.432  0.5808 -0.1901  0.0083
  896MPD2    C413130   2.943   2.351   1.443  0.1937 -0.0745  0.4032
  896MPD2    C513131   3.029   2.415   1.524 -0.2730  0.1652  0.4578
  896MPD2     H13132   3.040   2.035   1.476  0.1545 -0.2996  0.7039
  896MPD2    H113133   2.873   2.413   1.389 -0.3939 -1.0391  0.0607
  896MPD2    H213134   3.183   2.404   1.669 -3.0145  0.8101  1.8242
  896MPD2    H313135   3.042   2.522   1.524  0.8981  0.0191  1.4608
  896MPD2     N13136   2.825   2.155   1.356 -0.2491 -0.1193  0.0243
  896MPD2    H513137   2.831   2.054   1.354  4.9238  0.2331 -1.3729
  896MPD2    N113138   3.216   2.134   1.661 -0.1210 -0.2328  0.2171
  896MPD2    H713139   3.214   2.034   1.640  1.6562  0.1510 -1.7568
  897MPD2     C13140   3.831   3.888  10.532  0.2701  0.0824 -0.0793
  897MPD2    C113141   3.756   3.856  10.424  0.9213  0.5870 -0.2103
  897MPD2    C213142   3.634   3.794  10.442  0.4498  0.1849  0.1136
  897MPD2    C313143   3.595   3.771  10.570  0.0497 -0.0760  0.0089
  897MPD2    C413144   3.668   3.818  10.680  0.1760  0.6071  0.1470
  897MPD2    C513145   3.787   3.884  10.664 -0.3327 -0.1972 -0.1017
  897MPD2     H13146   3.573   3.760  10.359 -1.5473 -0.8176  1.9869
  897MPD2    H113147   3.625   3.808  10.778 -1.5739  0.3100 -0.6470
  897MPD2    H213148   3.931   3.927  10.522  1.5889 -2.8879  1.5928
  897MPD2    H313149   3.844   3.912  10.752  1.0038 -1.0132 -0.7100
  897MPD2     N13150   3.471   3.700  10.591  0.3692 -0.1699 -0.3508
  897MPD2    H513151   3.424   3.659  10.511  1.3222 -1.5291 -0.2045
  897MPD2    N113152   3.816   3.883  10.300 -0.3539 -0.4752 -0.0242
  897MPD2    H713153   3.901   3.938  10.300 -0.7036  0.0598  0.8345
  898MPD2     C13154   0.467   4.538   0.654  0.3838  0.0536 -0.2192
  898MPD2    C113155   0.501   4.490   0.525  0.4762  0.2146 -0.1477
  898MPD2    C213156   0.473   4.571   0.422  0.5099  0.0219 -0.2520
  898MPD2    C313157   0.427   4.700   0.433  0.2056  0.4819  0.1477
  898MPD2    C413158   0.406   0.024   0.556  0.3501 -0.0494  0.5338
  898MPD2    C513159   0.420   4.662   0.659  0.1124  0.6656  0.7193
  898MPD2     H13160   0.486   4.539   0.319 -0.6788 -2.6280  0.4319
  898MPD2    H113161   0.366   0.123   0.572 -0.8279 -0.1674 -1.7041
  898MPD2    H213162   0.490   4.484   0.745 -1.2958  0.0694  0.2136
  898MPD2    H313163   0.388   4.696   0.757  0.0982  0.4316  0.7957
  898MPD2     N13164   0.412   0.055   0.314  0.2996  0.7147  1.3344
  898MPD2    H513165   0.453   0.009   0.233 -2.7998  1.3568 -0.5884
  898MPD2    N113166   0.565   4.369   0.497 -0.4005 -0.1224 -0.2511
  898MPD2    H713167   0.585   4.337   0.403  0.0277 -1.9958  0.4719
  899MPD2     C13168   1.296   0.188   0.545 -0.0640  0.5146 -0.0368
  899MPD2    C113169   1.358   0.307   0.549 -0.2535 -0.4063 -0.0805
  899MPD2    C213170   1.297   0.410   0.626 -0.1623  0.2021 -0.4059
  899MPD2    C313171   1.176   0.389   0.689  0.3515 -0.1515 -0.1805
  899MPD2    C413172   1.117   0.262   0.692  0.6816  0.3324 -0.2328
  899MPD2    C513173   1.180   0.166   0.614  0.5235 -0.1173 -0.4891
  899MPD2     H13174   1.346   0.505   0.645 -1.1831  0.7515 -0.5227
  899MPD2    H113175   1.025   0.242   0.746  0.6447 -0.1093 -0.4552
  899MPD2    H213176   1.347   0.109   0.490 -3.2934 -1.1745 -0.5617
  899MPD2    H313177   1.133   0.068   0.604  1.8573 -0.6623 -1.4601
  899MPD2     N13178   1.119   0.501   0.756 -0.3080  0.1314  0.3942
  899MPD2    H513179   1.171   0.588   0.756 -2.9371  1.7217  1.1989
  899MPD2    N113180   1.473   0.321   0.473 -0.5728  0.1126 -0.0455
  899MPD2    H713181   1.495   0.239   0.417 -0.6112  0.4259 -0.5168
  900MPD2     C13182   1.642   1.737  12.107 -0.0226  0.3424 -0.2291
  900MPD2    C113183   1.565   1.753  12.221 -0.0063  0.1463  0.0376
  900MPD2    C213184   1.449   1.839  12.215  0.1508 -0.5078  0.7189
  900MPD2    C313185   1.414   1.890  12.091 -0.2527  0.1990  0.0452
  900MPD2    C413186   1.502   1.880  11.986 -0.0882  0.2406  0.0542
  900MPD2    C513187   1.620   1.809  11.996  0.7585  0.3468  0.0673
  900MPD2     H13188   1.384   1.853  12.301  1.2879 -0.5444  1.5907
  900MPD2    H113189   1.482   1.929  11.891  3.4317 -0.7794 -1.1998
  900MPD2    H213190   1.729   1.673  12.104  1.8734  2.8974 -0.5113
  900MPD2    H313191   1.684   1.796  11.909  0.6727  2.4323 -0.3070
  900MPD2     N13192   1.289   1.959  12.082  0.8556 -0.1370 -0.2924
  900MPD2    H513193   1.248   2.001  12.165 -1.1754 -0.9198 -0.9085
  900MPD2    N113194   1.614   1.704  12.343  0.2395 -0.3277  0.1720
  900MPD2    H713195   1.704   1.657  12.333  0.1378 -0.9823  2.3739
  901MPD2     C13196   1.455   1.042  13.230 -0.7757 -0.0652 -0.1221
  901MPD2    C113197   1.505   0.984  13.119  0.2019 -0.1048 -0.0308
  901MPD2    C213198   1.518   1.057  13.002  0.3451  0.0044  0.6152
  901MPD2    C313199   1.492   1.199  12.994  0.6421 -0.5048 -0.4477
  901MPD2    C413200   1.436   1.256  13.106  0.6617  0.4507  0.1567
  901MPD2    C513201   1.418   1.179  13.223  0.5792 -0.8061  0.1708
  901MPD2     H13202   1.563   1.009  12.916 -0.4451 -1.6854  1.1428
  901MPD2    H113203   1.402   1.358  13.113  0.6641  0.5633 -1.6322
  901MPD2    H213204   1.435   0.994  13.326 -1.1543  0.7654  0.2160
  901MPD2    H313205   1.358   1.221  13.303  0.3782  0.9573 -0.8982
  901MPD2     N13206   1.526   1.260  12.868  0.7373  0.5008 -0.0688
  901MPD2    H513207   1.566   1.205  12.793  1.8785 -0.4373  1.2282
  901MPD2    N113208   1.543   0.848  13.137  0.5221  0.1263  0.7204
  901MPD2    H713209   1.524   0.794  13.221  0.6568  0.7786  1.1654
  902MPD2     C13210   0.413   4.101  12.324  0.0958 -0.3642  0.0557
  902MPD2    C113211   0.493   4.199  12.387  0.1583 -0.1120  0.1784
  902MPD2    C213212   0.614   4.164  12.430 -0.2149  0.2912  0.2278
  902MPD2    C313213   0.663   4.031  12.425 -0.0753  0.1735  0.2314
  902MPD2    C413214   0.581   3.931  12.361 -0.8415 -0.2157 -0.0521
  902MPD2    C513215   0.462   3.975  12.309 -0.6163  0.5063 -0.9151
  902MPD2     H13216   0.683   4.240  12.463 -0.9760  1.5081 -0.9748
  902MPD2    H113217   0.596   3.824  12.362 -0.2955 -0.1341  0.9342
  902MPD2    H213218   0.318   4.127  12.278 -1.1391 -0.8686  2.3015
  902MPD2    H313219   0.399   3.901  12.262  0.2973  1.8188 -4.2287
  902MPD2     N13220   0.797   4.009  12.475 -0.3523 -0.0087  0.3096
  902MPD2    H513221   0.839   3.916  12.471  0.8277  0.5618 -0.5749
  902MPD2    N113222   0.452   4.330  12.387  0.0593 -0.1590  0.2230
  902MPD2    H713223   0.367   4.348  12.336 -0.1412  2.0936  1.3602
  903MPD2     C13224   0.916   4.672  12.212 -0.2868 -0.1615 -0.3035
  903MPD2    C113225   0.882   4.544  12.215  0.1230  0.3256  0.6042
  903MPD2    C213226   0.772   4.494  12.155 -0.2701  0.6302 -0.5290
  903MPD2    C313227   0.689   4.578  12.088 -0.1695 -0.6908  0.2235
  903MPD2    C413228   0.713   4.711  12.099  0.4679 -0.1451 -0.2069
  903MPD2    C513229   0.819   0.040  12.162  0.0519  0.3128 -0.7945
  903MPD2     H13230   0.751   4.388  12.157  0.6599  0.5039  1.8049
  903MPD2    H113231   0.641   0.065  12.071  0.3179  0.2297  1.1673
  903MPD2    H213232   1.001   4.715  12.264 -0.8971  0.5471  0.0975
  903MPD2    H313233   0.826   0.148  12.171 -0.8020  0.0689  2.5413
  903MPD2     N13234   0.576   4.527  12.033 -0.4378  0.3398 -0.3713
  903MPD2    H513235   0.561   4.429  12.011  0.5690  0.6803 -2.5749
  903MPD2    N113236   0.968   4.461  12.296  0.6755 -0.0343 -0.1116
  903MPD2    H713237   1.032   4.510  12.358  0.4810 -0.9574  0.8256
  904MPD2     C13238   4.484   3.186  13.947 -0.1883  0.2606 -0.3423
  904MPD2    C113239   4.557   3.282  13.878  0.2231 -0.2079 -0.1245
  904MPD2    C213240   4.696   3.258  13.867  0.5715 -0.3072 -0.5593
  904MPD2    C313241   0.036   3.151  13.919 -1.0798  0.1666 -0.3732
  904MPD2    C413242   4.689   3.062  13.997 -0.9069 -0.0159  0.1079
  904MPD2    C513243   4.555   3.081  14.005  0.2396 -0.9370 -0.1526
  904MPD2     H13244   0.031   3.341  13.826 -1.2292  1.4878  0.5896
  904MPD2    H113245   0.010   2.972  14.042 -2.3386 -0.6762  0.1459
  904MPD2    H213246   4.377   3.196  13.963  0.1231  0.0834  1.9630
  904MPD2    H313247   4.504   3.004  14.062 -1.2247  0.2029  0.0780
  904MPD2     N13248   0.173   3.136  13.882 -0.1243  0.0324 -0.1142
  904MPD2    H513249   0.216   3.225  13.860  1.6472 -0.6902  0.4124
  904MPD2    N113250   4.516   3.396  13.814  0.7850 -0.0792 -0.9279
  904MPD2    H713251   4.592   3.450  13.772  1.0765  1.4440  1.5622
  905MPD2     C13252   0.008   3.523  13.290  0.3376  0.0196  0.3333
  905MPD2    C113253   0.049   3.611  13.390 -0.5831 -0.2603  0.1611
  905MPD2    C213254   0.175   3.667  13.379  0.5672 -0.5554  0.3347
  905MPD2    C313255   0.255   3.640  13.273 -0.7317 -0.1252 -1.0060
  905MPD2    C413256   0.215   3.562  13.171  1.1320 -0.8322  0.2850
  905MPD2    C513257   0.095   3.502  13.182  0.7062  0.3237  0.5478
  905MPD2     H13258   0.207   3.739  13.454 -0.8509  1.0903 -0.6494
  905MPD2    H113259   0.280   3.535  13.088  1.9533  1.2387  0.2600
  905MPD2    H213260   4.630   3.480  13.291  0.3768 -0.1280 -1.6151
  905MPD2    H313261   0.062   3.436  13.103 -0.0892  0.3815  0.8365
  905MPD2     N13262   0.374   3.709  13.246 -0.7249  0.3546 -0.0194
  905MPD2    H513263   0.391   3.725  13.147  1.8752 -3.1054 -0.1558
  905MPD2    N113264   4.685   3.633  13.505  0.1160 -0.2772  0.8279
  905MPD2    H713265   4.610   3.566  13.522 -1.4673  1.0413 -0.9555
  906MPD2     C13266   2.312   3.403  11.564 -0.0440 -0.4568  0.4210
  906MPD2    C113267   2.241   3.344  11.458 -0.1056 -0.0823  0.2616
  906MPD2    C213268   2.170   3.223  11.484 -0.0342 -0.0609 -0.3728
  906MPD2    C313269   2.154   3.175  11.606 -0.1160 -0.1084 -0.5302
  906MPD2    C413270   2.213   3.237  11.712 -0.4484 -0.1659  0.2195
  906MPD2    C513271   2.292   3.350  11.693  0.2964  1.0850  0.2515
  906MPD2     H13272   2.117   3.180  11.399 -0.6433 -1.1060  0.5321
  906MPD2    H113273   2.209   3.210  11.817 -0.8377  3.1531  1.0639
  906MPD2    H213274   2.378   3.487  11.546 -0.3094 -0.5930 -1.1915
  906MPD2    H313275   2.340   3.400  11.776  1.1765 -0.2777  0.5698
  906MPD2     N13276   2.068   3.060  11.629 -0.0041  0.6606  0.2716
  906MPD2    H513277   2.043   3.014  11.542 -2.4932  0.5066  1.0751
  906MPD2    N113278   2.234   3.395  11.328 -0.7053  0.6000  0.7600
  906MPD2    H713279   2.185   3.337  11.260  1.1911 -0.2249  0.0998
  907MPD2     C13280   1.172   2.413  15.606  0.4321  0.1908 -0.0412
  907MPD2    C113281   1.244   2.293  15.580  0.0799 -0.7346 -0.8937
  907MPD2    C213282   1.354   2.267  15.662  0.9565  0.0070  0.0183
  907MPD2    C313283   1.396   2.359  15.759  0.1307 -0.2991  0.3207
  907MPD2    C413284   1.321   2.474  15.782  0.2624  0.4226  0.0328
  907MPD2    C513285   1.213   2.502  15.705  0.1006  1.1627 -0.8152
  907MPD2     H13286   1.402   2.171  15.644  0.4503 -0.1889 -0.2637
  907MPD2    H113287   1.338   2.539  15.867 -1.6752 -0.2377  0.9440
  907MPD2    H213288   1.081   2.441  15.555 -0.2307 -1.9207 -0.0056
  907MPD2    H313289   1.162   2.597  15.716 -0.1524  0.8597  0.6096
  907MPD2     N13290   1.510   2.324  15.832 -0.1662 -0.7241  0.5409
  907MPD2    H513291   1.560   2.237  15.818 -0.2920 -0.4668 -1.5172
  907MPD2    N113292   1.216   2.206  15.469 -0.9426  0.1976 -0.0057
  907MPD2    H713293   1.269   2.120  15.456  2.0135  1.5505  2.8481
  908MPD2     C13294   3.357   3.721   9.465  0.1301 -0.0153 -0.5140
  908MPD2    C113295   3.439   3.632   9.522 -0.3002  0.1043 -0.1228
  908MPD2    C213296   3.542   3.682   9.604  0.6746 -0.1134  0.6722
  908MPD2    C313297   3.563   3.818   9.615  0.2598  0.4924  0.6016
  908MPD2    C413298   3.479   3.906   9.548  0.6115  0.4599  0.4059
  908MPD2    C513299   3.372   3.861   9.476  0.3995 -0.6605  0.3908
  908MPD2     H13300   3.608   3.621   9.664  1.0164  0.6271  1.0479
  908MPD2    H113301   3.492   4.013   9.543  0.4169  0.4222 -0.7624
  908MPD2    H213302   3.287   3.693   9.387 -2.2897  1.2171  1.2319
  908MPD2    H313303   3.304   3.930   9.427  1.2561  1.6696  2.4351
  908MPD2     N13304   3.663   3.865   9.704  0.1968  0.0001 -0.2978
  908MPD2    H513305   3.719   3.795   9.750 -2.8680 -2.4115 -0.2383
  908MPD2    N113306   3.418   3.490   9.493 -0.4282  0.1060  0.0340
  908MPD2    H713307   3.339   3.482   9.430 -1.3355  0.4943  1.1164
  909MPD2     C13308   3.895   1.494  11.962  0.1166  0.1926  0.0526
  909MPD2    C113309   3.898   1.624  11.929 -0.3614 -0.4708  0.2830
  909MPD2    C213310   3.862   1.721  12.014  0.1539 -0.1784 -0.3975
  909MPD2    C313311   3.810   1.680  12.137 -0.0231 -0.8490  0.1772
  909MPD2    C413312   3.817   1.545  12.179  0.2087  0.6498  0.8197
  909MPD2    C513313   3.859   1.456  12.086 -0.6593  0.5819 -0.8957
  909MPD2     H13314   3.854   1.825  11.982 -0.7824 -0.0429  0.2720
  909MPD2    H113315   3.784   1.508  12.275  1.6328  2.1116  1.8713
  909MPD2    H213316   3.932   1.410  11.905  0.6759  1.2350 -1.0947
  909MPD2    H313317   3.852   1.348  12.092  0.0759  0.6866  1.5773
  909MPD2     N13318   3.759   1.787  12.222  0.2245  0.3366  0.1628
  909MPD2    H513319   3.730   1.872  12.175 -0.6090  1.0707  2.0278
  909MPD2    N113320   3.946   1.679  11.808 -0.1155 -0.5800  0.1959
  909MPD2    H713321   3.966   1.778  11.801  1.5757 -0.8700  0.9023
  910MPD2     C13322   0.390   3.098  15.922 -0.6286 -0.1179  0.3887
  910MPD2    C113323   0.486   3.031  15.848 -0.9185  0.0112 -0.2542
  910MPD2    C213324   0.489   3.049  15.711 -0.0997 -0.0637 -0.2921
  910MPD2    C313325   0.405   3.134  15.639  0.1087  0.5255  0.3128
  910MPD2    C413326   0.324   3.206  15.721  0.8568 -0.5014 -0.9335
  910MPD2    C513327   0.317   3.192  15.856  0.2733  0.1731 -0.0486
  910MPD2     H13328   0.560   2.988  15.656 -0.7935 -1.5323  0.4601
  910MPD2    H113329   0.249   3.275  15.682  0.9759 -1.1014 -2.2527
  910MPD2    H213330   0.369   3.095  16.028  1.3590  1.9082  0.8446
  910MPD2    H313331   0.253   3.260  15.910 -0.9314 -0.0044 -1.2818
  910MPD2     N13332   0.391   3.146  15.497  0.4390 -0.1097 -0.5437
  910MPD2    H513333   0.324   3.217  15.470 -0.0802 -1.4447 -2.7567
  910MPD2    N113334   0.572   2.929  15.902  0.1207 -0.3399 -0.2035
  910MPD2    H713335   0.629   2.872  15.840 -1.5271  1.0290 -2.9934
  911MPD2     C13336   3.481   4.062  16.544  0.0342 -0.3264  0.0522
  911MPD2    C113337   3.436   3.947  16.488  0.1038 -0.3842 -0.3818
  911MPD2    C213338   3.333   3.950  16.391 -0.0660  0.0686  0.0509
  911MPD2    C313339   3.302   4.072  16.327 -0.2250  0.0938  0.1777
  911MPD2    C413340   3.343   4.185  16.390 -0.0760 -0.1382  0.7537
  911MPD2    C513341   3.426   4.179  16.500  0.3949  0.2943  0.2321
  911MPD2     H13342   3.298   3.859  16.344 -0.6649  1.3267 -1.9687
  911MPD2    H113343   3.315   4.283  16.352 -1.2272 -0.2054  1.4086
  911MPD2    H213344   3.550   4.060  16.627  1.5140  0.0092 -1.1614
  911MPD2    H313345   3.462   4.271  16.545 -1.7470  1.3328 -0.1367
  911MPD2     N13346   3.204   4.072  16.230 -0.2207  0.3433  0.1812
  911MPD2    H513347   3.163   3.984  16.200 -0.6045 -0.1926  2.2225
  911MPD2    N113348   3.502   3.829  16.546  0.3352 -0.0792 -0.2950
  911MPD2    H713349   3.586   3.841  16.601  0.4210  0.2016 -0.4882
  912MPD2     C13350   2.985   3.494  15.749 -0.2405 -0.0695 -0.3574
  912MPD2    C113351   2.989   3.550  15.876  0.1731 -0.6027 -0.3622
  912MPD2    C213352   2.968   3.469  15.988 -0.2096 -0.9284  0.1477
  912MPD2    C313353   2.944   3.332  15.976  0.3959 -0.5459  0.3660
  912MPD2    C413354   2.944   3.280  15.840 -0.3991 -0.1843 -0.4474
  912MPD2    C513355   2.946   3.363  15.733 -0.3203 -0.2237 -0.4362
  912MPD2     H13356   2.965   3.523  16.082 -3.0341 -1.2252  0.2326
  912MPD2    H113357   2.923   3.175  15.823  1.2030 -0.6154  0.1761
  912MPD2    H213358   2.989   3.553  15.658  0.0727 -0.0002 -0.2960
  912MPD2    H313359   2.935   3.323  15.633  0.8365  0.6204 -0.9145
  912MPD2     N13360   2.917   3.259  16.091 -0.0714  0.1280  0.1045
  912MPD2    H513361   2.914   3.312  16.178 -1.4963  2.0187 -1.0916
  912MPD2    N113362   3.030   3.687  15.886 -0.8696  0.1281 -0.4199
  912MPD2    H713363   3.055   3.729  15.797  3.2115 -1.5686 -0.0955
  913MPD2     C13364   3.521   0.315  10.637  0.0117  0.4607 -0.3673
  913MPD2    C113365   3.482   0.222  10.535 -0.0638  0.4799 -0.0260
  913MPD2    C213366   3.385   0.272  10.448  0.5632 -0.2341 -0.5617
  913MPD2    C313367   3.323   0.398  10.460  0.0053 -0.1389 -0.1378
  913MPD2    C413368   3.359   0.481  10.560  0.2391 -0.3962  0.3881
  913MPD2    C513369   3.454   0.434  10.652  0.0471  0.1469  0.5287
  913MPD2     H13370   3.361   0.211  10.362 -3.5347  1.3095 -0.4944
  913MPD2    H113371   3.303   0.573  10.572  2.2394  0.9232 -0.3777
  913MPD2    H213372   3.582   0.283  10.720 -1.9587 -1.8292  0.1939
  913MPD2    H313373   3.473   0.492  10.742 -0.1002  0.5995  0.2696
  913MPD2     N13374   3.230   0.455  10.376 -0.2721 -0.8393 -0.6876
  913MPD2    H513375   3.209   0.555  10.372  0.7820 -0.7163 -3.6070
  913MPD2    N113376   3.524   0.084  10.538 -0.3304 -0.4278 -0.4375
  913MPD2    H713377   3.583   0.059  10.617  0.0894  2.3973  0.1538
  914MPD2     C13378   1.791   0.696  12.349  0.3854  1.3021 -0.0276
  914MPD2    C113379   1.739   0.787  12.443 -0.6101 -0.1172  0.1870
  914MPD2    C213380   1.723   0.752  12.578  0.4097  0.0684  0.2394
  914MPD2    C313381   1.757   0.621  12.615 -0.4583  0.4686  0.2205
  914MPD2    C413382   1.814   0.536  12.523  1.1889  0.1967  0.0207
  914MPD2    C513383   1.819   0.568  12.393  0.3157  0.2501  0.2829
  914MPD2     H13384   1.673   0.824  12.643 -0.7404 -0.7394  0.2402
  914MPD2    H113385   1.841   0.434  12.545  1.9309  0.3875 -0.0098
  914MPD2    H213386   1.800   0.712  12.242 -2.0162 -0.6493 -0.5266
  914MPD2    H313387   1.857   0.493  12.326  3.3593  0.4011  1.8674
  914MPD2     N13388   1.722   0.581  12.748 -0.0886  0.0672 -0.7223
  914MPD2    H513389   1.682   0.654  12.807  1.1331 -1.4035  1.9471
  914MPD2    N113390   1.707   0.913  12.396 -0.2444 -0.0768  0.0914
  914MPD2    H713391   1.726   0.935  12.299 -1.1299 -0.1602 -0.1076
  915MPD2     C13392   4.179   0.147  15.908 -0.0551  0.2509  0.5954
  915MPD2    C113393   4.107   0.235  15.838  0.1766  0.4371  0.3809
  915MPD2    C213394   4.040   0.338  15.903 -0.4278  0.7050  0.8822
  915MPD2    C313395   4.067   0.366  16.032  0.1464  0.4191  0.0365
  915MPD2    C413396   4.155   0.276  16.099  0.3817 -0.0495  0.1195
  915MPD2    C513397   4.205   0.170  16.035 -0.3327 -0.2741  1.0731
  915MPD2     H13398   3.975   0.403  15.845  0.1489 -0.2405 -0.8159
  915MPD2    H113399   4.191   0.292  16.200 -1.3779 -0.3603  0.8112
  915MPD2    H213400   4.247   0.084  15.852 -0.1112 -0.2992  1.1471
  915MPD2    H313401   4.286   0.113  16.080 -1.4803 -2.0778  0.8332
  915MPD2     N13402   4.002   0.458  16.114  1.0524 -0.0924 -0.2653
  915MPD2    H513403   3.916   0.494  16.073  1.9215  2.1550 -0.1147
  915MPD2    N113404   4.088   0.210  15.698  0.0144  0.0409 -0.1488
  915MPD2    H713405   4.116   0.120  15.662  0.6834  0.1497  0.0952
  916MPD2     C13406   2.728   3.673  15.438 -0.3887 -0.2868  0.7289
  916MPD2    C113407   2.639   3.591  15.507  0.2814  0.0196  0.0067
  916MPD2    C213408   2.661   3.455  15.493 -0.0758  0.2585  0.1494
  916MPD2    C313409   2.762   3.403  15.410  0.3399 -0.2521  0.5701
  916MPD2    C413410   2.835   3.486  15.326 -0.5546 -0.9305 -0.0193
  916MPD2    C513411   2.827   3.620  15.351 -0.2324 -0.1787  0.7054
  916MPD2     H13412   2.600   3.380  15.543 -0.1552 -0.6706 -1.3394
  916MPD2    H113413   2.922   3.462  15.267  2.3673  1.7911  3.2579
  916MPD2    H213414   2.719   3.780  15.446  1.2830  0.0009 -1.0616
  916MPD2    H313415   2.893   3.689  15.299 -1.6790 -0.6275 -1.7191
  916MPD2     N13416   2.781   3.268  15.413 -0.2089 -0.2083 -0.6895
  916MPD2    H513417   2.741   3.212  15.488 -0.0540  2.5888  1.4516
  916MPD2    N113418   2.534   3.646  15.586  0.6592  0.8644 -0.0412
  916MPD2    H713419   2.539   3.746  15.601 -1.5615  0.6522  2.0763
  917MPD2     C13420   2.932   0.930  11.649  0.3161 -0.4734  0.3983
  917MPD2    C113421   2.838   1.032  11.639  0.2785 -0.2991 -0.4925
  917MPD2    C213422   2.879   1.151  11.577 -0.7987 -0.1410 -0.0048
  917MPD2    C313423   3.005   1.173  11.522  0.1997  0.0894  0.5539
  917MPD2    C413424   3.091   1.063  11.516 -0.2560 -0.4236 -0.8067
  917MPD2    C513425   3.053   0.950  11.582  0.4809  0.4295  0.7942
  917MPD2     H13426   2.817   1.239  11.567 -1.5323 -0.5368  0.9543
  917MPD2    H113427   3.184   1.075  11.462  0.1408 -0.6429 -0.1769
  917MPD2    H213428   2.903   0.833  11.687 -1.3023  0.8351  2.4805
  917MPD2    H313429   3.114   0.861  11.583 -1.5568 -1.0307 -4.1184
  917MPD2     N13430   3.048   1.296  11.467  0.0739 -0.1339  0.2776
  917MPD2    H513431   3.134   1.296  11.413  0.9678 -0.4152  1.7134
  917MPD2    N113432   2.707   1.012  11.695  0.3272 -0.0751 -0.0766
  917MPD2    H713433   2.689   0.925  11.744  0.5488  1.0100  1.9427
  918MPD2     C13434   2.596   1.687  12.182  0.0073  0.5424 -0.2114
  918MPD2    C113435   2.680   1.586  12.147 -0.0473 -0.2486  0.8961
  918MPD2    C213436   2.635   1.456  12.133 -0.0811 -0.0695 -0.0933
  918MPD2    C313437   2.493   1.430  12.148 -0.0904  0.4026  0.1515
  918MPD2    C413438   2.411   1.540  12.179  0.1830 -0.2029  0.2175
  918MPD2    C513439   2.466   1.668  12.200  0.1631  0.5197  0.3719
  918MPD2     H13440   2.706   1.385  12.092  0.5634 -0.5357  1.8569
  918MPD2    H113441   2.304   1.521  12.177  0.2715 -0.7059  0.2511
  918MPD2    H213442   2.621   1.792  12.192  0.6710  0.3631  0.0591
  918MPD2    H313443   2.402   1.754  12.220  0.4119  0.9118 -0.4984
  918MPD2     N13444   2.454   1.304  12.096 -0.5375 -0.0697  0.3283
  918MPD2    H513445   2.530   1.240  12.080 -0.4209 -0.2544  1.5882
  918MPD2    N113446   2.823   1.597  12.136  0.4204 -0.7247 -1.1739
  918MPD2    H713447   2.885   1.518  12.119  0.3173 -0.8802 -0.8231
  919MPD2     C13448   3.332   0.619  11.508 -0.2536  0.5039  0.2268
  919MPD2    C113449   3.320   0.489  11.479 -0.3968 -0.5777  0.3117
  919MPD2    C213450   3.297   0.439  11.350 -0.5091  0.3447 -0.6917
  919MPD2    C313451   3.290   0.529  11.240 -0.3512  0.3284  0.1119
  919MPD2    C413452   3.305   0.664  11.269  0.9572  0.7378  0.0206
  919MPD2    C513453   3.331   0.706  11.402  0.4028 -0.0770 -0.0336
  919MPD2     H13454   3.291   0.331  11.337  1.6043  0.2309 -0.7157
  919MPD2    H113455   3.309   0.733  11.186 -1.6459 -0.3035 -0.9749
  919MPD2    H213456   3.367   0.643  11.608 -2.1453  0.6278  0.8519
  919MPD2    H313457   3.384   0.800  11.406  0.9546 -0.3407 -1.4472
  919MPD2     N13458   3.280   0.479  11.107  0.0021  0.0638  0.0851
  919MPD2    H513459   3.270   0.547  11.032  0.2211  0.1390  0.1214
  919MPD2    N113460   3.344   0.382  11.570  0.2065  0.1311  0.1130
  919MPD2    H713461   3.320   0.291  11.533  1.3163 -0.0685 -0.1068
  920MPD2     C13462   2.808   0.702  10.281 -0.8535  0.1841  0.2128
  920MPD2    C113463   2.727   0.594  10.317  0.5041  0.8663  0.5078
  920MPD2    C213464   2.762   0.519  10.428  0.0954 -0.2182 -0.2487
  920MPD2    C313465   2.878   0.548  10.498 -0.4388 -0.1867 -0.5964
  920MPD2    C413466   2.961   0.649  10.455  0.6271 -0.0880  0.0327
  920MPD2    C513467   2.918   0.732  10.356  0.2303  0.3584 -0.2896
  920MPD2     H13468   2.703   0.433  10.455 -0.5538  0.9089  1.9313
  920MPD2    H113469   3.058   0.668  10.500  0.4859  0.3436  0.1528
  920MPD2    H213470   2.775   0.776  10.209 -0.0204 -1.9572 -2.3470
  920MPD2    H313471   2.964   0.825  10.323  1.7788 -0.9716 -1.8561
  920MPD2     N13472   2.920   0.463  10.596 -0.4115  0.2268 -0.3298
  920MPD2    H513473   2.863   0.379  10.606 -0.3394  0.1990 -0.1410
  920MPD2    N113474   2.608   0.561  10.242  0.0738 -0.8963 -0.5986
  920MPD2    H713475   2.549   0.484  10.273  0.6846 -0.7625  0.8900
  921MPD2     C13476   4.189   3.952  16.795  0.2994  0.0319 -0.0428
  921MPD2    C113477   4.214   3.823  16.757 -0.1927 -0.2742 -0.7724
  921MPD2    C213478   4.111   3.732  16.771 -0.0054  0.5856 -0.2415
  921MPD2    C313479   3.985   3.765  16.819  1.0042 -0.5781  0.2831
  921MPD2    C413480   3.963   3.899  16.859  0.4837 -0.2226  0.8287
  921MPD2    C513481   4.067   3.986  16.853 -0.2078  0.2806  0.1754
  921MPD2     H13482   4.125   3.629  16.741  1.2741  0.5835  0.3337
  921MPD2    H113483   3.870   3.936  16.900  0.7150 -1.7596  2.7378
  921MPD2    H213484   4.261   4.032  16.789 -0.5819  0.8561  0.3751
  921MPD2    H313485   4.047   4.089  16.880 -2.0891 -0.4113  1.3694
  921MPD2     N13486   3.875   3.689  16.800  0.6364  0.2786 -0.5317
  921MPD2    H513487   3.788   3.720  16.842  0.8084 -0.8333  0.6192
  921MPD2    N113488   4.333   3.802  16.688  0.0692  0.2137  0.3067
  921MPD2    H713489   4.391   3.885  16.677  0.1291 -0.0100 -0.9854
  922MPD2     C13490   0.269   1.340  16.848 -0.7935 -0.3947  0.4808
  922MPD2    C113491   0.163   1.420  16.883  0.2266  0.2346 -0.2032
  922MPD2    C213492   0.038   1.362  16.910 -0.3529  0.1273 -0.3456
  922MPD2    C313493   0.028   1.224  16.920 -0.5037  0.3310 -0.3549
  922MPD2    C413494   0.138   1.154  16.889 -0.3131  0.5259 -0.4031
  922MPD2    C513495   0.261   1.203  16.858  0.8297 -0.0415  0.3208
  922MPD2     H13496   4.676   1.431  16.915 -0.7312 -0.2490 -1.6231
  922MPD2    H113497   0.139   1.047  16.908  1.0739  0.3272 -1.6151
  922MPD2    H213498   0.362   1.385  16.813 -2.8384  1.0935 -3.0773
  922MPD2    H313499   0.344   1.136  16.840 -0.7011 -1.9932  0.6105
  922MPD2     N13500   4.627   1.163  16.950  0.0783  0.0632 -0.8781
  922MPD2    H513501   4.550   1.226  16.971  0.5418  0.0153  0.9826
  922MPD2    N113502   0.162   1.560  16.884  0.0669  0.2800  0.2629
  922MPD2    H713503   0.081   1.610  16.920  1.8358  3.2915  0.0582
  923MPD2     C13504   1.829   3.074   9.348 -0.1640  0.8965 -0.2697
  923MPD2    C113505   1.735   3.162   9.393 -0.5758 -0.4142  0.6122
  923MPD2    C213506   1.766   3.247   9.496  0.9407  0.3618  0.1242
  923MPD2    C313507   1.893   3.249   9.551  0.0679  0.4099 -0.1838
  923MPD2    C413508   1.991   3.172   9.498 -0.5060 -1.0051  0.0313
  923MPD2    C513509   1.957   3.087   9.397 -0.5249  0.6118  0.1867
  923MPD2     H13510   1.685   3.315   9.522  0.5794  0.8439 -2.2727
  923MPD2    H113511   2.094   3.168   9.532 -0.9896  0.0318  1.6217
  923MPD2    H213512   1.801   2.993   9.282 -1.4918 -0.5927  2.0979
  923MPD2    H313513   2.036   3.021   9.363 -3.1159 -3.0529  1.3475
  923MPD2     N13514   1.934   3.328   9.659  0.9378  0.0738  0.4618
  923MPD2    H513515   2.026   3.312   9.698  1.1497  1.0565  0.3613
  923MPD2    N113516   1.612   3.150   9.322  0.4761  0.0553  0.4324
  923MPD2    H713517   1.620   3.094   9.238 -1.8792 -0.4582  0.5659
  924MPD2     C13518   1.521   1.616  15.982 -0.6169 -0.2426 -0.0874
  924MPD2    C113519   1.536   1.692  16.095  0.0921 -0.2743 -0.2186
  924MPD2    C213520   1.622   1.800  16.097  0.2150  0.1136  0.1703
  924MPD2    C313521   1.702   1.828  15.988 -0.2015 -0.5516  0.5698
  924MPD2    C413522   1.693   1.743  15.883  0.1179 -0.3438 -0.0807
  924MPD2    C513523   1.611   1.636  15.881 -0.1395 -0.6068 -0.2089
  924MPD2     H13524   1.632   1.860  16.187 -0.1639 -0.4380  0.5786
  924MPD2    H113525   1.747   1.775  15.795  1.2810 -1.6945  0.1455
  924MPD2    H213526   1.442   1.542  15.983 -0.3222 -0.5234  2.9008
  924MPD2    H313527   1.588   1.584  15.789 -0.7608 -0.2341 -0.2624
  924MPD2     N13528   1.788   1.934  15.975  0.3963  0.0389  0.5749
  924MPD2    H513529   1.841   1.943  15.889  0.4952  0.4878  0.6785
  924MPD2    N113530   1.457   1.661  16.205 -0.3537  0.2418 -0.0726
  924MPD2    H713531   1.388   1.588  16.187 -1.0148  0.5469  1.2585
  925MPD2     C13532   4.269   4.444  14.746  0.3214  0.5429 -0.2384
  925MPD2    C113533   4.407   4.438  14.745  0.1970  0.6227  0.4627
  925MPD2    C213534   4.472   4.433  14.870  0.3173 -0.2534 -0.9657
  925MPD2    C313535   4.390   4.434  14.981  0.2648 -0.4634  0.0909
  925MPD2    C413536   4.255   4.445  14.973  0.4018  0.5039  0.0077
  925MPD2    C513537   4.192   4.447  14.857 -0.0853 -0.0818  0.1567
  925MPD2     H13538   4.580   4.438  14.879  0.2522  0.2632 -0.4460
  925MPD2    H113539   4.198   4.462  15.063 -0.8928  0.1154 -0.7338
  925MPD2    H213540   4.217   4.443  14.651 -0.4528 -1.0042  0.2101
  925MPD2    H313541   4.084   4.446  14.840  0.0563  0.5522 -0.7836
  925MPD2     N13542   4.442   4.438  15.111 -0.2244 -0.0256  0.6940
  925MPD2    H513543   4.370   4.438  15.183 -0.2055  1.3154  0.7175
  925MPD2    N113544   4.477   4.434  14.624  0.4963 -0.7329  0.4053
  925MPD2    H713545   4.418   4.440  14.542  1.0147 -2.7167 -0.1218
  926MPD2     C13546   3.714   2.923  13.283 -0.5702  0.1734  0.5540
  926MPD2    C113547   3.635   3.038  13.293 -0.2827  0.8508  0.3635
  926MPD2    C213548   3.667   3.146  13.214 -0.1676  0.0195 -0.1238
  926MPD2    C313549   3.781   3.154  13.140 -0.3807 -0.8047  0.3039
  926MPD2    C413550   3.867   3.039  13.143  0.2723 -0.7360  0.7472
  926MPD2    C513551   3.831   2.928  13.206  0.3876  0.0710  0.0839
  926MPD2     H13552   3.611   3.238  13.223  0.4894  0.5652 -1.6327
  926MPD2    H113553   3.963   3.044  13.091 -1.5660 -1.7379 -2.7798
  926MPD2    H213554   3.691   2.836  13.343 -2.0039  0.8934  1.0456
  926MPD2    H313555   3.891   2.839  13.189  0.7337  0.5965 -1.4429
  926MPD2     N13556   3.825   3.274  13.080  0.0389  0.1825 -0.8379
  926MPD2    H513557   3.920   3.296  13.050  0.4054 -1.2066 -0.7232
  926MPD2    N113558   3.518   3.038  13.371  0.5110  0.6051  0.0272
  926MPD2    H713559   3.464   3.124  13.366  0.1267  0.2360 -1.9989
  927MPD2     C13560   3.220   0.799   0.514  0.4156  0.1126 -0.6154
  927MPD2    C113561   3.256   0.669   0.486 -0.2611  0.2974 -0.5934
  927MPD2    C213562   3.354   0.652   0.385  0.6093 -0.4373  0.4667
  927MPD2    C313563   3.405   0.769   0.325  0.6672  0.4505 -0.2383
  927MPD2    C413564   3.349   0.890   0.349 -0.7863  0.2626  0.2579
  927MPD2    C513565   3.257   0.912   0.445  0.3628 -0.3935  0.4372
  927MPD2     H13566   3.383   0.552   0.354 -0.9254 -0.4336 -1.0030
  927MPD2    H113567   3.394   0.975   0.299 -2.5565  1.0452 -0.0112
  927MPD2    H213568   3.157   0.818   0.600  0.2211  0.1044 -0.7555
  927MPD2    H313569   3.218   1.011   0.464  0.3645 -0.3805  0.3728
  927MPD2     N13570   3.512   0.757   0.226  0.1460  0.6243  0.9446
  927MPD2    H513571   3.570   0.675   0.237  0.2710  0.5081 -0.6082
  927MPD2    N113572   3.193   0.562   0.548 -0.1424 -0.4658  0.5822
  927MPD2    H713573   3.119   0.585   0.613  1.8043 -0.3246  2.7264
  928MPD2     C13574   2.254   3.223   1.013  0.8225 -0.4872 -0.0241
  928MPD2    C113575   2.216   3.353   1.039 -0.6672 -0.7202  0.2275
  928MPD2    C213576   2.102   3.398   0.967  0.4365 -0.2857  0.5075
  928MPD2    C313577   2.041   3.322   0.872 -0.3069  0.2520 -0.2618
  928MPD2    C413578   2.083   3.187   0.858 -0.4029  0.3115  0.7204
  928MPD2    C513579   2.187   3.139   0.928  0.5354  0.6436 -0.6280
  928MPD2     H13580   2.070   3.500   0.985  1.9491  0.4531 -0.9830
  928MPD2    H113581   2.037   3.131   0.777  2.9935  1.2888 -1.8672
  928MPD2    H213582   2.341   3.184   1.064 -0.0464  0.5625  2.2552
  928MPD2    H313583   2.225   3.038   0.913 -2.3864 -0.4718 -0.5257
  928MPD2     N13584   1.940   3.367   0.785  0.0675  0.1608 -0.0117
  928MPD2    H513585   1.913   3.310   0.705  0.3880  0.9220 -0.6614
  928MPD2    N113586   2.282   3.414   1.137 -0.1372 -0.1932  0.1467
  928MPD2    H713587   2.359   3.365   1.181  0.2599  0.7625  0.5303
  929MPD2     C13588   1.580   3.641  10.543  0.0477  0.1022 -0.2604
  929MPD2    C113589   1.500   3.528  10.559  0.3357 -0.7045  0.1975
  929MPD2    C213590   1.422   3.486  10.453 -0.9592  0.2717 -0.1303
  929MPD2    C313591   1.430   3.539  10.328 -0.7587 -0.0980  0.7436
  929MPD2    C413592   1.519   3.650  10.311  0.0145 -0.0085  0.4941
  929MPD2    C513593   1.584   3.704  10.421 -0.2230 -0.1903 -0.1120
  929MPD2     H13594   1.378   3.387  10.458  0.5521 -0.4474 -1.2234
  929MPD2    H113595   1.523   3.699  10.215  0.3177 -3.2768 -1.1455
  929MPD2    H213596   1.643   3.673  10.626  0.4794 -0.2957 -0.4420
  929MPD2    H313597   1.656   3.785  10.424 -0.7260  0.2601 -0.3051
  929MPD2     N13598   1.355   3.503  10.211  0.0100  0.1049 -0.4619
  929MPD2    H513599   1.373   3.552  10.125  0.4678 -0.1079 -0.4865
  929MPD2    N113600   1.512   3.445  10.670 -0.6912  0.7074 -0.0811
  929MPD2    H713601   1.464   3.356  10.667 -0.4106  0.6378 -2.9973
  930MPD2     C13602   3.195   1.048  14.234  0.4563 -0.1221  0.2259
  930MPD2    C113603   3.182   1.144  14.138 -0.2939 -0.1825  0.5728
  930MPD2    C213604   3.106   1.113  14.023 -0.4031 -0.1358 -0.3022
  930MPD2    C313605   3.063   0.983  13.997 -0.0837 -0.8623 -0.1371
  930MPD2    C413606   3.077   0.891  14.098  0.0720 -0.8117  0.2708
  930MPD2    C513607   3.133   0.925  14.218 -0.1940 -0.1947 -0.0814
  930MPD2     H13608   3.086   1.184  13.943 -0.5768  1.0224  0.7809
  930MPD2    H113609   3.049   0.787  14.086 -1.2917 -0.1681 -2.0499
  930MPD2    H213610   3.258   1.080  14.316  0.2000  1.8575 -0.3320
  930MPD2    H313611   3.140   0.857  14.302  0.1575 -1.3346 -1.0394
  930MPD2     N13612   3.013   0.940  13.869  0.3776 -0.1775  0.4476
  930MPD2    H513613   3.018   0.842  13.846 -1.2039 -0.4238  1.1143
  930MPD2    N113614   3.266   1.261  14.141 -0.2178  0.4659  0.7552
  930MPD2    H713615   3.311   1.284  14.229  0.1426 -1.0152  0.9540
  931MPD2     C13616   3.432   4.572   0.716 -0.6838 -0.1592 -0.6337
  931MPD2    C113617   3.361   4.632   0.810 -0.1998 -0.9895 -0.9567
  931MPD2    C213618   3.375   4.584   0.941 -0.4593 -0.5963 -0.0723
  931MPD2    C313619   3.456   4.479   0.976 -0.1933 -0.7102 -0.1999
  931MPD2    C413620   3.538   4.424   0.878  0.4985  0.3476 -0.2667
  931MPD2    C513621   3.517   4.475   0.754  0.1781  0.2391 -0.5777
  931MPD2     H13622   3.309   4.631   1.014 -0.9230 -1.6012  0.1647
  931MPD2    H113623   3.608   4.342   0.887 -0.3815 -0.2777  0.9126
  931MPD2    H213624   3.436   4.606   0.613  0.0242  1.1028 -0.1922
  931MPD2    H313625   3.563   4.424   0.670  1.4926  0.0900  0.2421
  931MPD2     N13626   3.466   4.416   1.101  0.0592 -0.1888  0.0257
  931MPD2    H513627   3.526   4.335   1.108  0.7305  0.2129 -1.0808
  931MPD2    N113628   3.272   0.005   0.765  0.6696 -0.6173 -0.3472
  931MPD2    H713629   3.267   0.020   0.665  1.8207  0.4710 -0.2421
  932MPD2     C13630   4.553   4.372  11.450  0.2661 -0.8134  0.3260
  932MPD2    C113631   4.694   4.387  11.462 -0.5538  0.2903  0.6176
  932MPD2    C213632   0.036   4.309  11.553 -0.9017  0.3192 -0.0458
  932MPD2    C313633   4.699   4.192  11.598 -0.3199 -0.4908 -0.1071
  932MPD2    C413634   4.565   4.163  11.570 -0.2311 -0.0382  0.6477
  932MPD2    C513635   4.498   4.256  11.491 -0.1546  0.1669 -0.0530
  932MPD2     H13636   0.137   4.341  11.577 -0.7053 -0.7412  0.5385
  932MPD2    H113637   4.516   4.071  11.598  0.4513 -0.5350  0.2017
  932MPD2    H213638   4.497   4.438  11.386 -0.9210 -1.9972  0.1395
  932MPD2    H313639   4.392   4.246  11.471 -0.8395  2.0579  2.5596
  932MPD2     N13640   0.050   4.083  11.652 -0.2315  0.1787 -0.9384
  932MPD2    H513641   4.715   4.000  11.668  0.5169 -0.2886 -0.7362
  932MPD2    N113642   0.039   4.478  11.382  0.5765 -0.0407  0.3315
  932MPD2    H713643   0.137   4.479  11.408  0.8494 -1.6073 -0.6499
  933MPD2     C13644   2.553   4.142   1.676 -0.0025 -0.3149 -0.4017
  933MPD2    C113645   2.443   4.066   1.654  0.2791 -0.2135 -0.2199
  933MPD2    C213646   2.325   4.088   1.716  0.7786 -0.0741 -0.2069
  933MPD2    C313647   2.312   4.199   1.801 -0.0068 -0.2118 -0.0140
  933MPD2    C413648   2.429   4.263   1.839 -0.1780  0.9406 -0.0166
  933MPD2    C513649   2.541   4.233   1.776  0.1999 -0.2167 -0.8505
  933MPD2     H13650   2.236   4.034   1.685  0.4448  0.9496 -1.0617
  933MPD2    H113651   2.429   4.344   1.911 -1.7096 -0.2892  1.3663
  933MPD2    H213652   2.650   4.121   1.632 -1.3508 -2.9012 -2.1333
  933MPD2    H313653   2.627   4.288   1.812  0.5247 -0.0698 -1.8718
  933MPD2     N13654   2.182   4.236   1.847 -0.3178 -0.0651 -0.0346
  933MPD2    H513655   2.104   4.179   1.817 -0.6199  0.2543  0.1530
  933MPD2    N113656   2.457   3.960   1.565 -0.8418  0.0629  0.5023
  933MPD2    H713657   2.542   3.959   1.509 -1.0042 -3.1253  0.3071
  934MPD2     C13658   2.222   2.263   1.448  1.0162 -0.3856  0.6596
  934MPD2    C113659   2.274   2.144   1.494 -0.1477  0.2470 -0.0476
  934MPD2    C213660   2.200   2.030   1.502 -0.1679 -0.2198 -0.2743
  934MPD2    C313661   2.071   2.028   1.449 -0.0340  0.0516  0.4400
  934MPD2    C413662   2.030   2.143   1.372 -0.3563 -0.8008  0.1375
  934MPD2    C513663   2.109   2.252   1.372 -0.3455 -0.0801 -0.0813
  934MPD2     H13664   2.248   1.946   1.553  1.1860  0.4155 -0.5019
  934MPD2    H113665   1.944   2.143   1.306 -0.0610  1.7185 -0.2384
  934MPD2    H213666   2.280   2.354   1.456 -0.0678  0.4808 -1.2379
  934MPD2    H313667   2.082   2.334   1.306  0.1433 -1.6486 -2.2341
  934MPD2     N13668   1.984   1.914   1.453 -0.2438  0.3223 -0.7909
  934MPD2    H513669   1.890   1.916   1.416 -0.8855 -0.5842  0.8252
  934MPD2    N113670   2.402   2.139   1.566  0.4568 -0.2306  0.1050
  934MPD2    H713671   2.422   2.056   1.621  0.8445  0.1330  0.5147
  935MPD2     C13672   2.221   1.001   1.705 -0.0429  0.2228 -0.8834
  935MPD2    C113673   2.090   0.990   1.658  0.7294 -0.5787 -0.1657
  935MPD2    C213674   2.010   1.099   1.670 -0.0828  0.5995  0.5067
  935MPD2    C313675   2.059   1.223   1.710 -0.2654  0.7287 -0.0248
  935MPD2    C413676   2.197   1.234   1.730 -0.2211 -0.2688 -0.0840
  935MPD2    C513677   2.271   1.120   1.748  0.3456  0.0602 -0.7645
  935MPD2     H13678   1.905   1.083   1.650  0.4777 -0.4591 -1.6845
  935MPD2    H113679   2.240   1.332   1.748 -0.0363 -0.4321  0.3653
  935MPD2    H213680   2.286   0.917   1.727 -0.4152  0.9827  3.2597
  935MPD2    H313681   2.372   1.132   1.785 -0.2751  0.5031  0.7793
  935MPD2     N13682   1.982   1.341   1.696 -0.0918  0.3560  0.6397
  935MPD2    H513683   2.020   1.426   1.735 -0.4855  1.2575 -0.9520
  935MPD2    N113684   2.033   0.874   1.591  0.0892  0.2223 -0.2177
  935MPD2    H713685   1.944   0.886   1.543  0.8226  0.2875 -1.5292
  936MPD2     C13686   0.303   2.302  12.345 -0.5666 -0.2040 -0.5228
  936MPD2    C113687   0.376   2.282  12.461 -0.6583  0.2527  0.3878
  936MPD2    C213688   0.508   2.309  12.470  0.5708  0.6302 -0.2472
  936MPD2    C313689   0.580   2.336  12.357  0.3273  0.6263 -0.2161
  936MPD2    C413690   0.515   2.349  12.236 -0.4571 -0.9419 -0.1066
  936MPD2    C513691   0.378   2.339  12.232 -0.6379 -0.3981 -0.6737
  936MPD2     H13692   0.555   2.291  12.566 -0.3499  2.0498  0.4648
  936MPD2    H113693   0.575   2.366  12.147 -1.6269  1.9338 -0.3208
  936MPD2    H213694   0.198   2.282  12.330 -0.9619  1.9379 -0.6253
  936MPD2    H313695   0.332   2.355  12.135 -1.1690 -0.6237 -0.4553
  936MPD2     N13696   0.720   2.335  12.374  0.3832  0.0590 -0.9229
  936MPD2    H513697   0.750   2.323  12.470 -0.2433 -0.3046 -0.7700
  936MPD2    N113698   0.324   2.243  12.589 -0.3882 -0.3439  0.0057
  936MPD2    H713699   0.397   2.207  12.650  1.7445  0.4852 -2.0599
  937MPD2     C13700   3.536   4.475  11.485  0.3568 -0.2391 -0.2742
  937MPD2    C113701   3.608   4.592  11.509 -1.0277 -0.0634  0.1804
  937MPD2    C213702   3.702   4.631  11.414 -0.2438 -0.2636 -0.0620
  937MPD2    C313703   3.734   4.553  11.301  0.0622  0.2923  0.0794
  937MPD2    C413704   3.668   4.430  11.288  0.4656  0.4147 -0.7534
  937MPD2    C513705   3.571   4.400  11.376  0.0017  0.2325  0.2416
  937MPD2     H13706   3.738   0.012  11.413  0.7790 -0.6125  1.4914
  937MPD2    H113707   3.681   4.359  11.207 -3.0704 -1.5794  0.4277
  937MPD2    H213708   3.445   4.458  11.542  1.7471 -2.9811  1.1046
  937MPD2    H313709   3.505   4.316  11.358  1.7785 -1.1620  0.1662
  937MPD2     N13710   3.815   4.602  11.192  0.0443 -0.3977  0.6457
  937MPD2    H513711   3.861   4.691  11.211 -0.4793  0.0576 -0.2106
  937MPD2    N113712   3.567   4.688  11.601 -0.5293  0.1925  0.5271
  937MPD2    H713713   3.616   0.055  11.595  0.9126 -0.8162 -2.5819
  938MPD2     C13714   1.670   0.837   1.620 -0.5010 -0.0360 -0.0314
  938MPD2    C113715   1.564   0.892   1.547 -1.1113 -0.0400  0.0155
  938MPD2    C213716   1.440   0.837   1.561  0.2973 -0.2695 -0.5125
  938MPD2    C313717   1.422   0.727   1.648  0.4495 -0.0435 -0.0224
  938MPD2    C413718   1.535   0.677   1.720 -0.3921 -0.9201  0.1488
  938MPD2    C513719   1.659   0.728   1.699 -0.2898 -0.2566 -0.3247
  938MPD2     H13720   1.354   0.871   1.505  0.1299  0.4270  0.1557
  938MPD2    H113721   1.520   0.599   1.794 -0.3309 -4.3666 -3.4461
  938MPD2    H213722   1.772   0.872   1.635 -0.6857  0.2220  0.6532
  938MPD2    H313723   1.746   0.686   1.747  0.6320  1.5213 -0.4300
  938MPD2     N13724   1.305   0.650   1.660  0.1279  0.4596 -0.3357
  938MPD2    H513725   1.309   0.570   1.723 -0.7966 -1.7788 -3.0813
  938MPD2    N113726   1.590   0.999   1.463 -0.7562  0.0691  0.0296
  938MPD2    H713727   1.515   1.048   1.415 -2.2276  1.0980  3.3314
  939MPD2     C13728   3.294   2.198   1.236 -0.3660 -0.3312 -0.0188
  939MPD2    C113729   3.426   2.188   1.277 -0.7750 -0.0749 -0.3734
  939MPD2    C213730   3.521   2.160   1.186  0.3890 -0.6178  0.8623
  939MPD2    C313731   3.485   2.145   1.052  0.3393  0.3303 -0.4339
  939MPD2    C413732   3.355   2.164   1.008  0.7574 -0.4920 -0.2535
  939MPD2    C513733   3.259   2.194   1.102 -0.2925 -0.1488  0.1066
  939MPD2     H13734   3.626   2.155   1.213  1.0307  1.5160 -1.1464
  939MPD2    H113735   3.337   2.187   0.904 -1.9288  0.5897  0.4331
  939MPD2    H213736   3.221   2.227   1.311  0.1914  1.9672 -0.3633
  939MPD2    H313737   3.157   2.218   1.071 -1.3548 -1.5234  2.5722
  939MPD2     N13738   3.585   2.117   0.959 -0.0214  0.1183  0.0091
  939MPD2    H513739   3.676   2.127   1.002  0.5598  0.4285 -1.2851
  939MPD2    N113740   3.445   2.230   1.409 -0.4179  0.3830  0.0179
  939MPD2    H713741   3.366   2.267   1.461 -0.9759  1.6335 -1.7472
  940MPD2     C13742   1.127   1.928  13.214  0.3922  0.2393  0.0283
  940MPD2    C113743   1.237   2.001  13.225 -0.4225  0.3758 -0.4946
  940MPD2    C213744   1.318   2.016  13.119  0.2292 -0.4305 -0.7058
  940MPD2    C313745   1.291   1.966  12.994 -0.2969  0.2142 -0.2244
  940MPD2    C413746   1.173   1.903  12.978  0.4782  0.0142  0.5174
  940MPD2    C513747   1.096   1.878  13.091  0.8464 -0.2261  0.1139
  940MPD2     H13748   1.411   2.069  13.139 -0.6248  0.8601 -0.2118
  940MPD2    H113749   1.139   1.869  12.881  2.8462  0.5832 -0.5093
  940MPD2    H213750   1.064   1.909  13.301  2.2626 -1.2110  1.0772
  940MPD2    H313751   1.006   1.819  13.078 -1.9895  3.9078  0.8108
  940MPD2     N13752   1.382   1.976  12.887  0.2170 -0.2370 -0.5644
  940MPD2    H513753   1.340   1.943  12.801 -0.7688 -2.5005  0.7783
  940MPD2    N113754   1.279   2.059  13.358  0.8700 -0.3406  0.3467
  940MPD2    H713755   1.364   2.114  13.364  0.8663 -0.2915 -0.0836
  941MPD2     C13756   0.740   1.654   9.542 -0.3056  0.2232 -0.1479
  941MPD2    C113757   0.744   1.700   9.674 -0.0861 -0.2724 -0.1914
  941MPD2    C213758   0.691   1.618   9.772  0.1657  0.3074 -0.1265
  941MPD2    C313759   0.626   1.498   9.746 -0.4834 -0.4212  0.2495
  941MPD2    C413760   0.615   1.463   9.622 -0.3037  0.3632 -0.3234
  941MPD2    C513761   0.659   1.541   9.519 -0.6096  0.1329 -0.2200
  941MPD2     H13762   0.718   1.657   9.869  2.9157 -0.0628 -0.7250
  941MPD2    H113763   0.557   1.377   9.592 -1.4828  0.8621  0.5140
  941MPD2    H213764   0.784   1.704   9.456 -0.0714  1.2635  0.5771
  941MPD2    H313765   0.650   1.506   9.417 -1.2021  0.7120 -0.3636
  941MPD2     N13766   0.571   1.416   9.844  0.2105 -0.8816 -0.1762
  941MPD2    H513767   0.520   1.335   9.812  0.1164  0.8236 -4.2934
  941MPD2    N113768   0.818   1.810   9.723 -0.4154  0.2816  0.3047
  941MPD2    H713769   0.824   1.833   9.821 -0.9877 -2.7792  1.0495
  942MPD2     C13770   4.127   2.780   9.618  0.1054  0.2012  0.6903
  942MPD2    C113771   4.170   2.853   9.507 -0.4615  0.1368  0.0740
  942MPD2    C213772   4.297   2.833   9.467  0.0264  0.0480  0.0891
  942MPD2    C313773   4.380   2.742   9.530  0.9137 -0.0080  0.3273
  942MPD2    C413774   4.330   2.669   9.634 -0.0170 -0.9449 -0.2264
  942MPD2    C513775   4.206   2.689   9.686 -0.3886 -0.3227  0.2523
  942MPD2     H13776   4.331   2.886   9.378 -0.8198 -2.1811 -1.5814
  942MPD2    H113777   4.395   2.603   9.691  0.6886  1.3199  1.5736
  942MPD2    H213778   4.034   2.795   9.672 -1.3439  0.2042 -1.7989
  942MPD2    H313779   4.176   2.642   9.779 -2.2033  0.0873 -0.1282
  942MPD2     N13780   4.514   2.722   9.492  1.0522  0.1910 -0.1813
  942MPD2    H513781   4.566   2.659   9.553  4.8832  2.5413 -1.0383
  942MPD2    N113782   4.092   2.950   9.448 -0.1385 -0.4647  0.6002
  942MPD2    H713783   4.145   3.008   9.385 -0.2365  0.5266  1.4318
  943MPD2     C13784   4.084   1.583   9.545 -0.2657  0.4781 -0.0247
  943MPD2    C113785   3.966   1.588   9.614 -0.1275 -0.3206 -0.4135
  943MPD2    C213786   3.881   1.695   9.587 -0.2080 -0.8780  0.6736
  943MPD2    C313787   3.924   1.804   9.519  0.7923  0.0856 -0.4264
  943MPD2    C413788   4.051   1.802   9.466 -0.5816  0.6745 -0.1583
  943MPD2    C513789   4.131   1.692   9.481 -0.0174  0.4135  0.0249
  943MPD2     H13790   3.794   1.710   9.650 -0.4856  0.5283 -0.0575
  943MPD2    H113791   4.082   1.882   9.400  1.0641 -3.0296 -3.8015
  943MPD2    H213792   4.148   1.496   9.557  1.0868  1.3934 -0.6560
  943MPD2    H313793   4.230   1.706   9.439 -0.0794  1.0388  0.0811
  943MPD2     N13794   3.844   1.915   9.494  0.0157  0.1383  0.2680
  943MPD2    H513795   3.879   1.984   9.428  1.7866 -0.8428  0.1714
  943MPD2    N113796   3.928   1.479   9.695 -0.5927  0.4406 -0.3663
  943MPD2    H713797   3.994   1.402   9.696 -0.2841  0.7060 -0.1373
  944MPD2     C13798   4.035   0.549  11.282  0.2624  0.8893  0.0619
  944MPD2    C113799   3.998   0.587  11.159  0.1902 -0.6065  0.1227
  944MPD2    C213800   3.883   0.657  11.151 -0.2220  0.3764 -0.2885
  944MPD2    C313801   3.813   0.701  11.260 -0.1012 -0.5486  0.1091
  944MPD2    C413802   3.849   0.657  11.386  0.0045 -0.0760  0.1890
  944MPD2    C513803   3.957   0.571  11.393 -0.9125  0.1200 -0.4901
  944MPD2     H13804   3.849   0.687  11.053  0.1247  0.6568 -0.3233
  944MPD2    H113805   3.787   0.679  11.472 -0.6292  1.3055 -0.6036
  944MPD2    H213806   4.132   0.503  11.299  0.4578  0.7659 -1.3918
  944MPD2    H313807   3.987   0.544  11.493 -0.5284 -2.2635 -1.2657
  944MPD2     N13808   3.715   0.803  11.231  0.1331 -0.3004  0.2273
  944MPD2    H513809   3.703   0.826  11.133 -0.8582  0.2025  0.4674
  944MPD2    N113810   4.088   0.551  11.057 -0.0901 -0.3338  0.3121
  944MPD2    H713811   4.180   0.512  11.077  0.4583  0.7664 -0.1235
    1TCq1    O113812   2.554   2.888  14.694 -0.7648 -0.0116 -0.2940
    1TCq1    C113813   2.627   2.877  14.583  0.6013  0.7071 -0.2836
    1TCq1    O213814   2.666   2.971  14.514 -0.8006 -0.0567 -0.4672
    1TCq1    C213815   2.569   2.754  14.521  0.3894 -0.0888  0.1061
    1TCq1    C313816   2.517   2.658  14.602 -0.6183  0.4716  0.7223
    1TCq1    C413817   2.449   2.556  14.545 -0.4154  0.2952  0.5271
    1TCq1    C513818   2.436   2.547  14.411 -0.1979  0.2253  0.2078
    1TCq1    C613819   2.488   2.648  14.336  0.1155  0.2647 -0.5941
    1TCq1    C713820   2.550   2.753  14.391 -0.1920  0.0576 -0.2047
    1TCq1    C813821   2.455   2.648  14.195  0.8359 -0.4451  0.4145
    1TCq1    O413822   2.441   2.534  14.145 -0.3536 -0.6618  0.1187
    1TCq1    C913823   2.393   2.450  14.625 -0.1614 -0.1781  0.0352
    1TCq1    O513824   2.401   2.461  14.746 -0.4095  0.3949 -0.3608
    1TCq1    O613825   2.328   2.359  14.572  0.5004 -0.2328 -0.0013
    1TCq1    H113826   2.506   2.805  14.718 -0.3055  0.1044  1.0068
    1TCq1    H213827   2.544   2.646  14.706  0.9030  0.2055  0.2973
    1TCq1    H313828   2.374   2.470  14.367  1.0768 -0.5633 -0.2089
    1TCq1    H413829   2.587   2.837  14.334 -0.3789 -0.6045 -1.3088
    2MPD2     C13830   2.395   2.887  13.741 -0.0265  0.0206 -0.1928
    2MPD2    C113831   2.393   2.976  13.841  0.2553  0.0293 -0.3203
    2MPD2    C213832   2.404   2.934  13.972  0.4094 -0.7852  0.4926
    2MPD2    C313833   2.420   2.803  14.004  0.5937 -0.5855 -0.8673
    2MPD2    C413834   2.416   2.717  13.895  0.1855  0.1472  0.1423
    2MPD2    C513835   2.411   2.751  13.766  0.4462  0.1593  0.4040
    2MPD2     H13836   2.402   2.996  14.061  1.0921 -0.4541  0.2776
    2MPD2    H113837   2.431   2.610  13.908  2.1306  0.4967  0.7970
    2MPD2    H213838   2.408   2.921  13.639  0.8587  1.3785  0.3855
    2MPD2    H313839   2.421   2.677  13.687 -1.1037  0.1242  0.2238
    2MPD2     N13840   2.433   2.773  14.145 -0.4835  0.3163  0.2962
    2MPD2    H513841   2.447   2.849  14.212 -0.3294  0.9829 -0.4925
    2MPD2    N113842   2.391   3.113  13.808 -0.3292  0.2963  0.5957
    2MPD2    H713843   2.363   3.133  13.713  1.1209  0.9455  0.2999
    3TMC2    C113844   2.448   3.335  13.845 -0.0101  0.9598  0.0217
    3TMC2    C213845   2.473   3.430  13.948 -0.0875  0.2181 -0.3070
    3TMC2    C313846   2.516   3.553  13.909 -0.3215 -0.5014  0.6211
    3TMC2    C413847   2.464   3.358  13.709  0.1718  0.6004  0.2490
    3TMC2    C513848   2.502   3.489  13.674 -0.5049 -1.0545  0.4026
    3TMC2    C613849   2.517   3.586  13.770 -0.0293 -0.1003 -0.8193
    3TMC2     C13850   2.432   3.208  13.899  0.6483  0.0377 -0.7194
    3TMC2     O13851   2.486   3.192  14.006 -0.3037 -0.0856 -0.2802
    3TMC2     H13852   2.465   3.397  14.051  1.8684 -0.6002 -0.4122
    3TMC2    H113853   2.419   3.284  13.645 -3.0914  3.3656 -0.6565
    3TMC2    H213854   2.525   3.689  13.739 -1.4886 -0.0506 -1.0134
    3TMC2    C713855   2.496   3.515  13.537  0.0919 -0.1923  0.0296
    3TMC2    C813856   2.492   3.669  13.994 -0.4939  0.7407 -0.6163
    3TMC2    O113857   2.418   3.445  13.472 -0.0822  0.0482  0.5956
    3TMC2    O213858   2.434   3.770  13.957 -0.1280 -0.1801 -0.5129
    3TMC2    O513859   2.489   3.609  14.114 -0.0871  0.9047 -0.2666
    3TMC2    H513860   2.556   3.538  14.116  0.0561  1.1640  3.5437
    4MPD2     C13861   1.600   3.003  12.974  0.1964 -0.0361 -0.3069
    4MPD2    C113862   1.604   3.047  12.841 -0.1783  0.1016  0.5995
    4MPD2    C213863   1.689   3.154  12.820  0.0360 -0.4553  0.5390
    4MPD2    C313864   1.766   3.215  12.923  0.5493  0.0105 -0.2302
    4MPD2    C413865   1.769   3.160  13.045  0.0294  0.1877  0.0054
    4MPD2    C513866   1.683   3.058  13.069  0.1034 -0.4624 -0.4275
    4MPD2     H13867   1.687   3.198  12.721  1.0308 -0.1947  0.6324
    4MPD2    H113868   1.837   3.177  13.127  0.7307  0.0685 -0.5494
    4MPD2    H213869   1.521   2.938  13.011 -0.8231  0.3962 -1.7313
    4MPD2    H313870   1.677   3.020  13.171 -0.1099 -1.1100 -0.6818
    4MPD2     N13871   1.851   3.327  12.889 -0.9484  0.4889 -0.1220
    4MPD2    H513872   1.841   3.376  12.801  3.0848 -0.0087 -0.8161
    4MPD2    N113873   1.507   2.996  12.756  0.0865 -0.3209  0.6092
    4MPD2    H713874   1.438   2.933  12.795 -0.4291  0.5304  1.0913
    5TCq2    C113875   1.949   3.390  12.969  0.6441 -0.3510 -0.3862
    5TCq2    O213876   1.992   3.359  13.080 -0.0560  0.4031  0.0345
    5TCq2    C213877   1.987   3.522  12.910  0.1250 -0.4598 -0.2527
    5TCq2    C313878   1.918   3.585  12.810 -0.8556  0.2392  0.4065
    5TCq2    C413879   1.937   3.719  12.792  0.4948  0.2434 -0.4524
    5TCq2    C513880   2.030   3.786  12.858 -0.9021 -0.0467 -0.2070
    5TCq2    C613881   2.098   3.716  12.956 -0.0374  1.1309  0.0388
    5TCq2    C713882   2.078   3.587  12.993 -0.2254 -0.6346 -0.2740
    5TCq2    C813883   2.192   3.802  13.032  0.8619 -0.0224  0.7375
    5TCq2    O413884   2.199   3.924  13.003 -0.0846  0.0669 -0.0414
    5TCq2    C913885   1.857   3.793  12.701  0.0354  0.8453  0.2433
    5TCq2    O513886   1.890   3.909  12.670 -0.1149 -0.1305 -0.0321
    5TCq2    O613887   1.775   3.726  12.636 -0.1701  0.0004  0.0494
    5TCq2    H213888   1.841   3.539  12.749  1.7014  0.4874 -3.0072
    5TCq2    H313889   2.065   3.887  12.837 -0.5818 -0.4464 -1.6155
    5TCq2    H413890   2.128   3.538  13.076  2.7233  1.9179 -0.5783
    6MPD1     C13891   0.513   4.252  13.032 -0.8928 -0.4860  0.1096
    6MPD1    C113892   0.478   4.137  13.095  0.0516  0.9260  0.7741
    6MPD1    C213893   0.491   4.017  13.019  1.0335  0.5601 -0.4440
    6MPD1    C313894   0.511   4.011  12.883  0.0131  0.2054 -0.2852
    6MPD1    C413895   0.546   4.130  12.824 -0.1056 -0.1930 -0.4229
    6MPD1    C513896   0.535   4.252  12.898 -0.0894  0.1868  0.1550
    6MPD1     H13897   0.481   3.926  13.077 -0.7100  1.0598  0.0472
    6MPD1    H113898   0.583   4.132  12.722 -1.7528 -0.4315 -1.0226
    6MPD1    H213899   0.512   4.353  13.073 -1.4610 -0.7474  0.7390
    6MPD1    H313900   0.547   4.345  12.843  1.2512  0.5612  1.0789
    6MPD1     N13901   0.537   3.893  12.818  0.6750 -0.4823  0.0077
    6MPD1    H513902   0.548   3.896  12.717  0.5361 -0.7117 -0.0162
    6MPD1    N113903   0.466   4.126  13.229 -0.2530  0.9400  0.0605
    6MPD1    H613904   0.420   4.211  13.263 -2.0736  0.1468 -0.4313
    6MPD1    H713905   0.408   4.046  13.253  1.6353 -0.5603 -0.4427
    7MPD2     C13906   0.697   3.017  12.874  0.5497  0.2046 -0.0276
    7MPD2    C113907   0.725   3.079  12.755  0.3552  0.3375 -0.0207
    7MPD2    C213908   0.814   3.028  12.666  0.8948 -0.6305 -0.2789
    7MPD2    C313909   0.890   2.921  12.698  0.4788 -0.3130  0.6026
    7MPD2    C413910   0.873   2.861  12.822 -0.5213 -0.2443  0.5201
    7MPD2    C513911   0.769   2.903  12.900 -0.0058  0.1859 -0.5661
    7MPD2     H13912   0.839   3.088  12.579 -2.2748  1.0690 -0.0077
    7MPD2    H113913   0.926   2.772  12.853  2.7443  0.9046 -1.7668
    7MPD2    H213914   0.615   3.034  12.942 -0.3127 -0.8046 -0.8178
    7MPD2    H313915   0.744   2.842  12.986 -1.5122 -2.5509 -2.9816
    7MPD2     N13916   0.991   2.881  12.604  0.5353 -0.1282 -0.6343
    7MPD2    H513917   1.002   2.940  12.523  0.7488  0.4581 -0.1772
    7MPD2    N113918   0.681   3.206  12.720  0.6166  0.1247 -0.5582
    7MPD2    H713919   0.701   3.234  12.624  1.4545  0.6121 -0.2442
    8TMC3    C113920   1.203   2.819  12.532  0.2036  0.7385 -1.0932
    8TMC3    C213921   1.322   2.860  12.595 -0.1356  0.1842 -0.5340
    8TMC3    C313922   1.382   2.968  12.548 -0.1819  0.4040  0.3172
    8TMC3    C413923   1.162   2.886  12.418  0.6484 -0.0114 -0.4721
    8TMC3    C513924   1.236   2.992  12.369 -0.6240  0.2829  0.5268
    8TMC3    C613925   1.345   3.035  12.437  0.8751  0.0070 -0.0867
    8TMC3     C13926   1.098   2.794  12.626  0.4614  0.8737  0.4475
    8TMC3     O13927   1.135   2.746  12.730 -0.3708  0.3022 -0.2104
    8TMC3     H13928   1.364   2.804  12.678 -1.5880 -0.7340 -0.4336
    8TMC3    H113929   1.104   2.835  12.342  1.6339 -1.4834 -0.2473
    8TMC3    H213930   1.404   3.122  12.411 -1.7819  1.4193 -1.4257
    8TMC3    C713931   1.141   3.099  12.342 -0.5211  0.1948 -0.6662
    8TMC3    C813932   1.499   3.030  12.618 -0.7261 -0.0207  0.5994
    8TMC3    O113933   1.029   3.083  12.390 -0.2955 -0.1216  0.0567
    8TMC3    O213934   1.565   3.117  12.553 -0.1832 -0.6808 -0.3496
    9TMC3    C113935   0.593   3.666  12.788 -0.5866 -0.2808  0.0121
    9TMC3    C213936   0.663   3.697  12.676  0.3048  0.3086 -0.7525
    9TMC3    C313937   0.702   3.594  12.592  0.1644 -0.2418  0.0246
    9TMC3    C413938   0.568   3.535  12.817 -0.0264  0.1842 -0.2197
    9TMC3    C513939   0.617   3.430  12.741 -0.2309  0.1693 -0.5061
    9TMC3    C613940   0.684   3.460  12.627 -1.2351 -0.1631 -0.2542
    9TMC3     C13941   0.529   3.766  12.868 -0.3354 -0.2926  0.5623
    9TMC3     O13942   0.465   3.728  12.966  0.1771  0.1196 -0.0797
    9TMC3     H13943   0.680   3.801  12.650 -0.3733  0.6591  0.2084
    9TMC3    H113944   0.523   3.507  12.911 -1.9420 -1.1811 -1.5646
    9TMC3    H213945   0.714   3.383  12.556 -0.2718 -1.6162  1.7087
    9TMC3    C713946   0.627   3.304  12.803 -1.1199 -0.2558 -0.0756
    9TMC3    C813947   0.807   3.630  12.495  0.4529 -0.5527 -0.4992
    9TMC3    O113948   0.587   3.289  12.920  0.3232 -0.0758  0.2945
    9TMC3    O213949   0.822   3.741  12.452 -0.1576  0.1930  0.3280
   10MPD2     C13950   1.197   3.440  12.206 -0.1142  0.1360 -0.0492
   10MPD2    C113951   1.140   3.341  12.279  0.8349 -0.2499 -0.2399
   10MPD2    C213952   1.036   3.375  12.363 -0.9433 -0.0208  0.1250
   10MPD2    C313953   0.984   3.506  12.371 -0.8508  0.1517  0.4152
   10MPD2    C413954   1.046   3.607  12.295 -0.5974 -0.1162  0.0997
   10MPD2    C513955   1.144   3.565  12.209 -0.1396  0.2083 -0.5694
   10MPD2     H13956   0.994   3.303  12.433 -1.5939  0.2438 -0.0026
   10MPD2    H113957   1.007   3.708  12.299 -0.7013  0.0359 -4.4220
   10MPD2    H213958   1.276   3.431  12.133 -0.2285  1.5181 -0.3523
   10MPD2    H313959   1.174   3.635  12.132 -0.7023 -0.2107 -1.1624
   10MPD2     N13960   0.876   3.524  12.459  0.1301  0.2327 -0.5479
   10MPD2    H513961   0.864   3.441  12.517  0.3612 -0.0549 -0.9080
   10MPD2    N113962   1.192   3.207  12.276 -0.0086 -0.2807 -0.7705
   10MPD2    H713963   1.275   3.195  12.219  0.1970  1.7473 -0.8772
   11MPD2     C13964   2.570   3.843  13.385  0.6141  0.8442 -0.2999
   11MPD2    C113965   2.517   3.716  13.391  0.1838  0.5922 -0.3605
   11MPD2    C213966   2.420   3.683  13.304  0.5131 -0.1928  0.0047
   11MPD2    C313967   2.365   3.781  13.219 -0.2792 -0.2237 -0.3516
   11MPD2    C413968   2.410   3.908  13.218  0.2679  0.7621 -0.5269
   11MPD2    C513969   2.503   3.939  13.312  0.3929  0.2117 -0.0555
   11MPD2     H13970   2.372   3.586  13.307  1.2628 -0.5539  0.4222
   11MPD2    H113971   2.356   3.987  13.167  0.4156  2.0555  1.3193
   11MPD2    H213972   2.635   3.884  13.462 -2.0905  2.1319  1.2962
   11MPD2    H313973   2.533   4.042  13.324  1.1715  0.0916 -0.9255
   11MPD2     N13974   2.254   3.734  13.135 -0.1014  0.5029  0.2844
   11MPD2    H513975   2.219   3.640  13.147 -3.6404  1.5984 -1.6254
   11MPD2    N113976   2.554   3.634  13.503  1.2451  0.7723  0.2008
   11MPD2    H713977   2.613   3.678  13.573 -1.4579  0.0220  2.9840
    1MPD1     C13978   4.507   4.091  17.660 -0.3806  0.3102  0.5799
    1MPD1    C113979   4.638   4.139  17.643  0.0875 -0.9012  0.9696
    1MPD1    C213980   4.688   4.135  17.513 -0.1827  0.1089 -0.6987
    1MPD1    C313981   4.619   4.082  17.407  0.2263 -0.3504  0.3832
    1MPD1    C413982   4.487   4.048  17.428 -0.0865  0.1038  0.1200
    1MPD1    C513983   4.435   4.052  17.553  0.0726 -0.1856  0.5943
    1MPD1     H13984   0.073   4.154  17.500  0.5492 -2.6763  1.1785
    1MPD1    H113985   4.426   4.018  17.343  0.4075  2.8516 -1.2155
    1MPD1    H213986   4.454   4.076   0.066  1.3119 -2.4816  1.0817
    1MPD1    H313987   4.342   4.000  17.571  0.7647 -1.2482  1.1059
    1MPD1     N13988   4.666   4.071  17.274 -0.2013  0.3279 -0.2519
    1MPD1    H513989   4.604   4.036  17.202 -0.2195 -1.6429  0.7151
    1MPD1    N113990   4.720   4.168   0.072  0.5377  0.3044  0.1102
    1MPD1    H613991   4.655   4.206   0.142 -0.2105 -0.0863 -0.3697
    1MPD1    H713992   0.078   4.221   0.036 -1.3180  2.3179 -1.0172
    2MPD1     C13993   0.872   4.290  16.947  0.2280 -0.9187 -0.0684
    2MPD1    C113994   0.797   4.301  17.064 -0.2036  0.8237 -0.4324
    2MPD1    C213995   0.664   4.276  17.059 -0.1978  0.3912  0.2653
    2MPD1    C313996   0.611   4.207  16.953  0.1391  0.3000 -0.1780
    2MPD1    C413997   0.698   4.156  16.863  0.3468  0.9585 -0.0154
    2MPD1    C513998   0.823   4.207  16.853  0.1747  0.5385  0.0465
    2MPD1     H13999   0.606   4.313  17.142 -0.5413  0.0377  0.1820
    2MPD1    H114000   0.668   4.093  16.780  0.8931  0.4848  0.1403
    2MPD1    H214001   0.979   4.309  16.945 -0.0210  0.9053  2.4344
    2MPD1    H314002   0.896   4.179  16.778  0.3848  0.1599  0.3899
    2MPD1     N14003   0.476   4.186  16.961  0.2113  0.2518  0.4820
    2MPD1    H514004   0.431   4.227  17.042 -1.1655 -1.1309  0.4354
    2MPD1    N114005   0.855   4.379  17.168  0.0296 -1.3856  0.9568
    2MPD1    H614006   0.953   4.351  17.175  0.4752  0.0427  0.2735
    2MPD1    H714007   0.806   4.368  17.257 -0.1257  1.0065  1.1650
    3TMC3    C114008   0.267   4.089  16.923  0.2887  0.1459  0.1142
    3TMC3    C214009   0.174   4.073  16.824  0.9677  0.1112 -0.3397
    3TMC3    C314010   0.042   4.067  16.864 -0.3603 -0.0199  0.5795
    3TMC3    C414011   0.237   4.103  17.058  0.6267  0.0454  0.8706
    3TMC3    C514012   0.107   4.093  17.092  0.2235 -0.3759 -0.5650
    3TMC3    C614013   0.009   4.078  16.996  0.1657  0.2300  0.1111
    3TMC3     C14014   0.401   4.105  16.881 -0.5411  0.6148 -0.0954
    3TMC3     O14015   0.433   4.021  16.800 -0.5546  0.2086 -0.7568
    3TMC3     H14016   0.208   4.045  16.725  0.6690 -3.2100  0.4926
    3TMC3    H114017   0.320   4.101  17.128 -0.3657 -0.2989  2.0142
    3TMC3    H214018   4.624   4.091  17.015 -0.0144 -0.0554 -0.7106
    3TMC3    C714019   0.068   4.123  17.232 -0.3711 -0.3006 -0.5772
    3TMC3    C814020   4.655   4.054  16.765  0.5412 -0.2231 -1.1290
    3TMC3    O114021   0.152   4.185  17.295  0.1024  0.3410  0.0903
    3TMC3    O214022   4.543   4.045  16.810  0.3734 -0.2085 -0.1931
    4MPD1     C14023   4.465   4.249  16.323  0.5646  0.1034  0.3054
    4MPD1    C114024   4.600   4.223  16.305 -0.2074 -0.0046 -0.8210
    4MPD1    C214025   4.670   4.195  16.421  0.1359  0.2979  0.4358
    4MPD1    C314026   4.611   4.158  16.541 -0.1009  0.1096 -0.2445
    4MPD1    C414027   4.472   4.167  16.553  0.5705  0.3628  0.6863
    4MPD1    C514028   4.409   4.220  16.442  0.1725  0.4477  0.0251
    4MPD1     H14029   0.056   4.187  16.417  0.0867  0.1169 -0.5519
    4MPD1    H114030   4.422   4.141  16.646  0.0114 -0.4839  0.1490
    4MPD1    H214031   4.397   4.294  16.251 -0.4764 -0.1242  1.1574
    4MPD1    H314032   4.302   4.238  16.444  0.2316  0.8521 -0.3493
    4MPD1     N14033   4.695   4.103  16.643 -0.3145  0.0482 -0.1674
    4MPD1    H514034   0.074   4.101  16.629 -0.1079  1.9911  1.0986
    4MPD1    N114035   4.667   4.265  16.186 -0.0361  0.4057  0.1677
    4MPD1    H614036   0.024   4.204  16.167 -1.1931 -1.0437  0.0241
    4MPD1    H714037   4.606   4.256  16.105  0.5953 -0.6984 -0.1808
    1TCq1    O114038   4.673   4.558  10.734  0.1327  0.3970  0.1838
    1TCq1    C114039   4.663   4.422  10.730 -0.0301 -0.4807  0.4366
    1TCq1    O214040   4.555   4.368  10.733 -0.1235  0.1157 -0.4084
    1TCq1    C214041   0.052   4.374  10.810  0.5204  0.3050 -0.1256
    1TCq1    C314042   0.031   4.271  10.901  0.0655  0.1455  0.3913
    1TCq1    C414043   0.144   4.211  10.948  0.2302 -0.2080  1.0445
    1TCq1    C514044   0.268   4.260  10.913  0.2524  0.0530 -0.4931
    1TCq1    C614045   0.284   4.357  10.818  0.2013 -0.0086 -0.3480
    1TCq1    C714046   0.176   4.415  10.767  0.7796  1.0115  0.8036
    1TCq1    C814047   0.402   4.358  10.730  0.0061 -0.1211 -0.1014
    1TCq1    O414048   0.419   4.450  10.656  0.1508 -0.0022 -0.6148
    1TCq1    C914049   0.134   4.115  11.051  0.4490 -0.3431  0.2517
    1TCq1    O514050   0.240   4.062  11.088  0.5581  0.0625  0.3635
    1TCq1    O614051   0.020   4.105  11.111 -0.3963 -0.7086 -1.4121
    1TCq1    H114052   0.043   4.582  10.758 -0.7635  2.5923  1.4142
    1TCq1    H214053   4.652   4.231  10.911  1.1099 -2.4725  0.3126
    1TCq1    H314054   0.353   4.208  10.954  0.1702 -0.5946 -1.1497
    1TCq1    H414055   0.185   4.475  10.677  1.8692  2.4960  1.9080
    2MPD1     C14056   0.816   4.116  10.532  0.0236 -0.2002  0.2443
    2MPD1    C114057   0.750   4.032  10.624  0.2139 -0.3816 -0.5546
    2MPD1    C214058   0.627   4.073  10.679 -0.3973 -0.0023 -0.2335
    2MPD1    C314059   0.585   4.199  10.666 -0.3356  1.0140  0.0594
    2MPD1    C414060   0.667   4.288  10.593  0.2350  0.6023  0.3523
    2MPD1    C514061   0.774   4.247  10.518 -0.1594 -0.3651  0.2571
    2MPD1     H14062   0.573   4.001  10.739 -0.6784 -0.3865 -0.9538
    2MPD1    H114063   0.641   4.393  10.584 -0.2276  0.4512 -0.0565
    2MPD1    H214064   0.897   4.083  10.468 -0.0970 -1.4377  0.7339
    2MPD1    H314065   0.825   4.321  10.456 -2.0001  1.1732  0.5745
    2MPD1     N14066   0.464   4.236  10.733  0.3248  0.1690  0.4353
    2MPD1    H514067   0.420   4.159  10.782 -1.0531 -0.4735 -1.8008
    2MPD1    N114068   0.784   3.900  10.633 -0.2896  0.4107 -0.0505
    2MPD1    H614069   0.880   3.870  10.616 -0.3013  0.4528 -0.1948
    2MPD1    H714070   0.759   3.877  10.729  0.2041  0.5984  0.1203
    1TCq1    O114071   0.975   0.031   8.674  0.0195  0.0596 -0.9615
    1TCq1    C114072   0.968   0.097   8.788  0.6671 -0.1005  0.5077
    1TCq1    O214073   1.067   0.114   8.855  0.2757  0.0503 -0.4227
    1TCq1    C214074   0.867   0.195   8.758  0.0383  0.1289 -0.5233
    1TCq1    C314075   0.895   0.331   8.783 -0.1060 -0.5188  0.9049
    1TCq1    C414076   0.786   0.417   8.779 -0.4625 -0.3994 -0.3964
    1TCq1    C514077   0.661   0.361   8.774  0.1779 -0.1313  0.1418
    1TCq1    C614078   0.636   0.230   8.747 -0.1448  0.3222  0.2868
    1TCq1    C714079   0.746   0.146   8.742 -0.6406  0.2863  0.6724
    1TCq1    C814080   0.503   0.186   8.710  0.0466 -0.5974  0.1713
    1TCq1    O414081   0.469   0.073   8.739  0.0730  0.3113 -0.1781
    1TCq1    C914082   0.797   0.559   8.824  0.5437  0.6813  0.3302
    1TCq1    O514083   0.914   0.605   8.824  0.9702  0.6537  0.6077
    1TCq1    O614084   0.694   0.627   8.820  0.4724 -0.6387 -0.6944
    1TCq1    H114085   0.920   0.067   8.602  1.4037  1.3676 -1.3700
    1TCq1    H214086   0.999   0.361   8.775  0.3611 -2.1507  0.8423
    1TCq1    H314087   0.581   0.434   8.778  0.3613  0.0396  0.8214
    1TCq1    H414088   0.736   0.038   8.742 -3.2514  0.5206  0.7472
    2MPD1     C14089   0.057   0.279   8.459  0.1512  0.4586 -0.5970
    2MPD1    C114090   0.125   0.392   8.472 -0.0289 -0.4197  1.1372
    2MPD1    C214091   0.251   0.386   8.525 -0.4880  0.1619  0.1786
    2MPD1    C314092   0.309   0.278   8.578 -0.5077 -0.3222  0.1942
    2MPD1    C414093   0.233   0.165   8.583  0.1700  0.7377  0.4699
    2MPD1    C514094   0.108   0.166   8.523  0.1193  0.0702 -0.6696
    2MPD1     H14095   0.318   0.471   8.524 -0.7987  0.4121  0.6234
    2MPD1    H114096   0.261   0.078   8.641  1.5885  0.9667  0.1244
    2MPD1    H214097   4.685   0.281   8.404 -0.7443 -0.3780  0.8933
    2MPD1    H314098   0.035   0.086   8.524  0.5703 -0.3473 -1.0682
    2MPD1     N14099   0.438   0.287   8.643  0.3686  0.0279 -0.2516
    2MPD1    H514100   0.483   0.377   8.627  1.2551 -0.1076  1.5258
    2MPD1    N114101   0.079   0.496   8.391  0.2426  0.0185  0.3284
    2MPD1    H614102   0.122   0.586   8.409  0.2791  0.3175 -1.2708
    2MPD1    H714103   4.699   0.501   8.381  0.2753 -0.8058 -0.4305
    1MPD1     C14104   2.527   4.311  12.151  0.7486 -0.3085  0.0267
    1MPD1    C114105   2.657   4.275  12.186 -0.8144  0.0753 -0.2848
    1MPD1    C214106   2.761   4.351  12.135  0.8622 -0.0201  0.5282
    1MPD1    C314107   2.730   4.465  12.055  0.3190  0.0845 -0.6716
    1MPD1    C414108   2.597   4.512  12.037 -0.5715  0.9482  0.0029
    1MPD1    C514109   2.500   4.430  12.086  0.9542  0.4650 -0.4504
    1MPD1     H14110   2.861   4.310  12.124  1.1167  0.5194  0.8315
    1MPD1    H114111   2.566   4.587  11.965  1.4399  0.7365 -1.0927
    1MPD1    H214112   2.439   4.252  12.174  1.3299 -0.5565  1.6060
    1MPD1    H314113   2.400   4.454  12.052  1.5578 -1.0675 -3.3414
    1MPD1     N14114   2.832   4.524  11.980 -0.1131  0.0559 -0.0026
    1MPD1    H514115   2.925   4.483  11.981 -0.3441 -0.3874  2.4207
    1MPD1    N114116   2.670   4.142  12.236  0.1973 -0.3166  0.0689
    1MPD1    H614117   2.599   4.115  12.304 -0.5242 -0.1982 -0.6324
    1MPD1    H714118   2.761   4.132  12.281 -0.7359 -2.2243  1.5180
    2MPD1     C14119   1.301   0.165  10.678 -0.1530 -0.2481 -0.1011
    2MPD1    C114120   1.419   0.151  10.602 -0.0919 -0.3232  0.8302
    2MPD1    C214121   1.511   0.050  10.636 -0.0929  0.2544  0.6471
    2MPD1    C314122   1.484   4.684  10.742 -0.4035 -0.0029  0.5026
    2MPD1    C414123   1.362   4.693  10.813  0.8496 -1.0939 -0.0080
    2MPD1    C514124   1.280   0.076  10.779 -0.0972 -0.4196 -0.6524
    2MPD1     H14125   1.610   0.058  10.593  0.7070 -2.3204  2.0187
    2MPD1    H114126   1.338   4.631  10.898  1.9286 -1.9107 -0.3095
    2MPD1    H214127   1.236   0.249  10.659  0.4687 -0.4952 -3.3337
    2MPD1    H314128   1.194   0.092  10.843  0.9968  2.1541  0.1741
    2MPD1     N14129   1.576   4.584  10.785  0.1269  0.1055 -0.3645
    2MPD1    H514130   1.538   4.522  10.856 -0.1105  0.9570  0.2546
    2MPD1    N114131   1.444   0.254  10.511  0.3361 -0.5915 -0.4402
    2MPD1    H614132   1.366   0.300  10.464  0.8501 -0.3332 -1.0514
    2MPD1    H714133   1.508   0.218  10.440  0.1469  1.1749 -1.4986
    3MPD1     C14134   1.545   4.091  11.475  0.2226  0.3205 -0.4345
    3MPD1    C114135   1.499   4.219  11.444 -0.2329  0.2846 -0.2775
    3MPD1    C214136   1.554   4.280  11.335  0.5262  0.2592 -0.1012
    3MPD1    C314137   1.636   4.204  11.246 -0.0394  0.3257  0.0885
    3MPD1    C414138   1.662   4.072  11.283 -0.0106  0.3331  0.7511
    3MPD1    C514139   1.615   4.013  11.393 -0.2691 -0.3215 -0.1508
    3MPD1     H14140   1.539   4.387  11.321 -0.6404  0.3590  1.9832
    3MPD1    H114141   1.716   4.008  11.215 -0.9458  1.5161 -1.0771
    3MPD1    H214142   1.503   4.043  11.563  1.7742  2.1309  1.2956
    3MPD1    H314143   1.643   3.918  11.435  1.7041  0.3709  0.0996
    3MPD1     N14144   1.697   4.264  11.135  0.0798 -0.5527  0.5429
    3MPD1    H514145   1.660   4.356  11.113  0.8749 -0.4289 -0.2398
    3MPD1    N114146   1.416   4.288  11.530  0.1439  0.0928 -0.5724
    3MPD1    H614147   1.357   4.351  11.478 -1.0900 -0.8077 -0.2702
    3MPD1    H714148   1.351   4.223  11.575  0.1384 -0.6677 -1.6677
    4MPD2     C14149   2.971   0.288  11.304 -0.5203  0.1880 -0.5269
    4MPD2    C114150   3.009   0.160  11.333 -0.9212 -0.0749 -0.1200
    4MPD2    C214151   3.007   0.066  11.233  0.8160 -0.6715 -0.4833
    4MPD2    C314152   2.969   0.091  11.102 -0.8034  0.4771  0.2174
    4MPD2    C414153   2.935   0.225  11.074 -0.4960  0.3239  0.1650
    4MPD2    C514154   2.943   0.321  11.175 -0.4886 -0.0568  0.5845
    4MPD2     H14155   3.034   4.686  11.260  0.2967 -0.4915  0.7199
    4MPD2    H114156   2.897   0.257  10.978  1.3775 -2.4579 -1.5166
    4MPD2    H214157   2.972   0.366  11.379  2.5539  0.2219 -0.5899
    4MPD2    H314158   2.906   0.422  11.160 -0.6792 -0.2201 -0.0523
    4MPD2     N14159   2.965   4.710  11.007  0.1751 -0.4419 -0.1465
    4MPD2    H514160   2.977   4.618  11.049  3.3310  0.1071  0.1211
    4MPD2    N114161   3.031   0.113  11.466  0.2047  0.1289 -1.1563
    4MPD2    H714162   3.035   0.012  11.477  1.0930  0.1967 -0.8458
    5TMC3    C114163   3.076   0.092  11.690  0.0922 -0.2269  0.4285
    5TMC3    C214164   2.972   0.070  11.785  0.7428  0.1922  0.7939
    5TMC3    C314165   2.948   4.668  11.840 -0.4533 -0.5797  0.1312
    5TMC3    C414166   3.150   4.708  11.645 -0.0370 -0.4698 -0.0585
    5TMC3    C514167   3.110   4.585  11.685 -0.2200 -0.3580  0.4144
    5TMC3    C614168   3.008   4.556  11.779 -0.4522  0.5831 -0.1503
    5TMC3     C14169   3.040   0.184  11.585 -0.8807 -0.4423 -0.6881
    5TMC3     O14170   3.035   0.306  11.613 -0.3019 -0.2297  0.3239
    5TMC3     H14171   2.918   0.157  11.819 -1.4756 -0.8223 -0.1615
    5TMC3    H114172   3.233   4.715  11.576 -1.0738  0.3831 -1.2066
    5TMC3    H214173   2.990   4.456  11.815 -0.2190  0.9979  1.1312
    5TMC3    C714174   3.115   4.501  11.573 -0.0225 -0.3412 -0.1837
    5TMC3    C814175   2.827   4.644  11.912 -0.5943  0.2035  0.5022
    5TMC3    O114176   3.111   4.557  11.464  0.4378 -0.3392 -0.3147
    5TMC3    O214177   2.743   0.011  11.904 -0.4726 -0.1079 -0.2964
    6TMC3    C114178   1.778   4.469  10.784  0.3124  0.9470 -0.1533
    6TMC3    C214179   1.734   4.386  10.886  0.4978 -0.9808 -0.7480
    6TMC3    C314180   1.826   4.296  10.935  0.5593  0.0115 -0.2569
    6TMC3    C414181   1.899   4.449  10.730 -0.2992 -0.1675 -0.1468
    6TMC3    C514182   1.979   4.351  10.779 -0.8267  0.1649 -0.5002
    6TMC3    C614183   1.951   4.290  10.891 -1.2244  1.1826 -1.0653
    6TMC3     C14184   1.696   4.574  10.719  1.2283 -0.2915 -0.9333
    6TMC3     O14185   1.763   4.638  10.638 -0.3312 -0.3189 -0.4878
    6TMC3     H14186   1.630   4.381  10.919  1.7446 -2.9195  2.8789
    6TMC3    H114187   1.931   4.508  10.645 -1.1718  1.2399  0.4882
    6TMC3    H214188   2.021   4.217  10.930 -1.9452  1.2743  0.3989
    6TMC3    C714189   2.106   4.320  10.721  0.1336  0.6900  0.2515
    6TMC3    C814190   1.790   4.206  11.046 -0.3070 -0.2536 -0.6885
    6TMC3    O114191   2.186   4.249  10.779 -0.0753  0.1853 -0.0425
    6TMC3    O214192   1.853   4.100  11.061  0.1565  0.0096 -0.0006
    7MPD2     C14193   2.965   4.081  11.339  0.1844 -0.3789  0.2183
    7MPD2    C114194   2.966   4.211  11.295  0.1467 -0.9944 -0.0616
    7MPD2    C214195   3.012   4.302  11.385  0.1219 -0.0289  0.6455
    7MPD2    C314196   3.044   4.270  11.515  0.3907 -0.1511 -0.5816
    7MPD2    C414197   3.032   4.142  11.556  0.0573  0.1929  0.0730
    7MPD2    C514198   3.002   4.049  11.464 -0.3215  0.0448  0.2450
    7MPD2     H14199   3.012   4.403  11.346 -3.2715 -1.0997 -2.0857
    7MPD2    H114200   3.078   4.108  11.648  1.1206  0.7676 -0.2445
    7MPD2    H214201   2.945   4.002  11.268 -2.8518  0.2347  0.3803
    7MPD2    H314202   3.014   3.943  11.481  0.7421  0.6780  3.3666
    7MPD2     N14203   3.078   4.374  11.609 -0.0840  0.2229 -0.0752
    7MPD2    H514204   3.095   4.337  11.702 -0.3681  0.3002  0.0067
    7MPD2    N114205   2.947   4.243  11.161  0.5113  0.4121  0.3979
    7MPD2    H714206   2.932   4.165  11.099 -2.1276  1.4124 -0.2418
    8TMC3    C114207   2.944   4.376  10.958 -0.0889 -0.4678 -0.1668
    8TMC3    C214208   2.811   4.352  10.913 -0.2101 -0.2524 -1.1626
    8TMC3    C314209   2.766   4.428  10.814  0.0900  0.3837  1.3054
    8TMC3    C414210   3.010   4.489  10.911  0.4211 -1.2534 -0.4344
    8TMC3    C514211   2.942   4.572  10.832 -0.0660 -0.0059 -0.3161
    8TMC3    C614212   2.826   4.540  10.768 -0.5746 -0.4240  0.7034
    8TMC3     C14213   2.960   4.367  11.103  0.5879  0.0121  0.0817
    8TMC3     O14214   2.964   4.481  11.151 -0.5422  0.3051  0.5981
    8TMC3     H14215   2.752   4.268  10.948 -1.0994  0.5503 -0.7288
    8TMC3    H114216   3.106   4.511  10.957 -0.0888 -0.5651  0.3097
    8TMC3    H214217   2.779   4.617  10.709 -0.7502 -1.0975 -0.0312
    8TMC3    C714218   2.934   4.711  10.876 -0.4093 -0.0635  0.6248
    8TMC3    C814219   2.632   4.410  10.779  0.8278 -0.7551  0.3874
    8TMC3    O114220   2.866   0.070  10.813 -0.0842  0.4658  0.1207
    8TMC3    O214221   2.561   4.349  10.857 -0.3154 -0.2523 -0.1760
    9MPD2     C14222   2.487   4.501  10.440  0.0898  0.5239  0.2893
    9MPD2    C114223   2.485   4.452  10.571  0.1344  0.4267 -0.2599
    9MPD2    C214224   2.363   4.410  10.619  0.5116 -0.7508 -0.1973
    9MPD2    C314225   2.250   4.421  10.547 -0.0345 -0.2245 -0.3691
    9MPD2    C414226   2.251   4.472  10.425 -0.1276 -0.9587 -1.1210
    9MPD2    C514227   2.371   4.510  10.368  0.1064  0.0361 -0.3007
    9MPD2     H14228   2.349   4.376  10.721  0.1206  0.0998  0.0308
    9MPD2    H114229   2.155   4.497  10.381 -0.3771 -1.6569 -0.9759
    9MPD2    H214230   2.575   4.546  10.394  0.7079 -0.4869  0.4979
    9MPD2    H314231   2.366   4.575  10.282 -2.5094 -0.8357 -0.8081
    9MPD2     N14232   2.124   4.395  10.606 -0.2865 -0.4320 -0.7717
    9MPD2    H514233   2.041   4.416  10.551 -0.6329 -1.2803 -0.5745
    9MPD2    N114234   2.605   4.457  10.642 -0.1836  0.0497  0.1619
    9MPD2    H714235   2.689   4.498  10.602 -0.2353  1.1456  1.1607
    1MPD1     C14236   2.583   3.712  16.423 -0.5612 -0.2873 -0.3901
    1MPD1    C114237   2.680   3.687  16.323 -0.5392  0.0498 -0.1127
    1MPD1    C214238   2.649   3.587  16.236  0.1878 -0.3623  0.7478
    1MPD1    C314239   2.526   3.523  16.242 -0.6769 -0.0019  0.1036
    1MPD1    C414240   2.438   3.550  16.340 -0.1339  0.0607 -0.4206
    1MPD1    C514241   2.457   3.651  16.427  0.1542  0.4656 -0.7308
    1MPD1     H14242   2.720   3.553  16.161  1.0002  1.0109  0.8811
    1MPD1    H114243   2.340   3.504  16.345  0.6278 -1.8371 -2.8370
    1MPD1    H214244   2.607   3.777  16.506  2.0331 -2.0325  0.2659
    1MPD1    H314245   2.386   3.667  16.508  0.7206 -2.8886  0.4181
    1MPD1     N14246   2.501   3.404  16.167  0.0593 -0.0729 -0.3263
    1MPD1    H514247   2.424   3.348  16.202 -0.7748  1.8745  0.9511
    1MPD1    N114248   2.817   3.720  16.335  0.1171  0.0585 -0.0275
    1MPD1    H614249   2.863   3.725  16.244 -1.6949 -1.6044 -1.0448
    1MPD1    H714250   2.848   3.800  16.389  2.0229 -0.7895  0.1142
    2MPD1     C14251   2.485   2.732  15.308 -0.0610  0.2948 -0.2881
    2MPD1    C114252   2.504   2.654  15.419 -0.2492  0.0331  0.2557
    2MPD1    C214253   2.524   2.726  15.538 -0.2084 -0.1795 -0.6687
    2MPD1    C314254   2.549   2.860  15.549 -0.3259 -0.1193 -0.0450
    2MPD1    C414255   2.548   2.927  15.429  0.4716  0.0310  0.3205
    2MPD1    C514256   2.513   2.863  15.318 -0.1713  0.4178  0.2098
    2MPD1     H14257   2.522   2.664  15.627  0.5801  0.9598  0.1403
    2MPD1    H114258   2.557   3.035  15.424  1.5792 -0.0642  0.1098
    2MPD1    H214259   2.441   2.692  15.218  1.9985  0.2350 -1.2648
    2MPD1    H314260   2.506   2.927  15.230  4.8255 -0.4330 -0.7930
    2MPD1     N14261   2.569   2.917  15.681  0.0323  0.2127  0.3040
    2MPD1    H514262   2.564   2.855  15.761  2.4054  0.2205  0.4615
    2MPD1    N114263   2.482   2.520  15.407 -0.7478 -0.5997  0.6306
    2MPD1    H614264   2.498   2.473  15.318 -0.1057 -0.3079  0.5897
    2MPD1    H714265   2.528   2.466  15.480 -2.3082  0.3242  2.2873
    3TCq2    C114266   2.601   3.051  15.704  0.3969 -0.5555  0.0332
    3TCq2    O214267   2.620   3.141  15.619 -0.4944  0.0532 -0.1010
    3TCq2    C214268   2.593   3.078  15.848 -0.0465 -0.6889  0.6858
    3TCq2    C314269   2.553   2.974  15.934 -0.0249  0.0113 -0.1841
    3TCq2    C414270   2.500   3.008  16.051 -0.1212  0.9401  0.5338
    3TCq2    C514271   2.492   3.131  16.098  0.6664 -0.1189  0.1089
    3TCq2    C614272   2.549   3.225  16.011  0.4298 -0.2042  0.0858
    3TCq2    C714273   2.605   3.207  15.889 -0.1304  0.4194  0.0098
    3TCq2    C814274   2.569   3.367  16.053  0.1347  0.2493 -0.0511
    3TCq2    O414275   2.647   3.439  15.985 -0.4302  0.0946 -0.0289
    3TCq2    C914276   2.454   2.906  16.148 -0.3078 -0.4514  1.4079
    3TCq2    O514277   2.456   2.788  16.107  0.0734 -0.6551 -0.8238
    3TCq2    O614278   2.431   2.944  16.263 -0.6207  0.1616 -0.6383
    3TCq2    H214279   2.571   2.869  15.915  0.4754  0.1509 -0.5071
    3TCq2    H314280   2.442   3.155  16.191  2.0010 -1.1694  1.0941
    3TCq2    H414281   2.633   3.290  15.825 -3.4013  0.4180 -1.4037
    1TCq1    O114282   4.635   2.246  12.360 -0.3617  0.0435 -0.0306
    1TCq1    C114283   4.526   2.167  12.361 -0.3896 -0.3021 -0.0148
    1TCq1    O214284   4.434   2.178  12.280 -0.0953  0.7775 -0.0758
    1TCq1    C214285   4.550   2.057  12.450 -0.2405  0.1444  0.2040
    1TCq1    C314286   4.456   2.036  12.543 -0.2254 -0.3878  0.1014
    1TCq1    C414287   4.484   1.936  12.631  0.6265 -0.3938  0.3035
    1TCq1    C514288   4.602   1.867  12.634  0.8551  0.0473 -0.7889
    1TCq1    C614289   4.698   1.897  12.541  0.0868  0.0756 -0.0218
    1TCq1    C714290   4.670   1.991  12.444  0.1187 -0.6350  0.2951
    1TCq1    C814291   0.114   1.846  12.555  0.2017 -0.1571 -0.2789
    1TCq1    O414292   0.184   1.872  12.458 -0.3482  0.4494 -0.1604
    1TCq1    C914293   4.390   1.910  12.740  0.1316  0.3023 -0.9444
    1TCq1    O514294   4.439   1.875  12.852 -0.6859 -0.5828 -0.4606
    1TCq1    O614295   4.279   1.975  12.737  0.5904  0.2172  0.5187
    1TCq1    H114296   4.699   2.229  12.433  0.9717  2.7340 -0.5640
    1TCq1    H214297   4.365   2.095  12.537 -1.0018 -1.2261  3.9421
    1TCq1    H314298   4.614   1.787  12.706 -1.1620 -0.4334 -0.9898
    1TCq1    H414299   0.024   2.010  12.368  0.6301  2.4928  1.6155
    2MPD2     C14300   0.364   1.727  12.628  0.3830  0.3091 -0.4687
    2MPD2    C114301   0.271   1.767  12.720  0.2153  0.4389 -0.4434
    2MPD2    C214302   0.302   1.750  12.855  0.3472 -0.5532  0.3480
    2MPD2    C314303   0.430   1.715  12.898  0.4002  0.8941 -0.1274
    2MPD2    C414304   0.523   1.683  12.802 -0.1638  0.0393  0.2664
    2MPD2    C514305   0.479   1.679  12.671 -0.0847  0.0409  0.0429
    2MPD2     H14306   0.225   1.751  12.931  0.8318  0.4270  0.8221
    2MPD2    H114307   0.626   1.660  12.824 -0.2227 -1.5505 -1.1280
    2MPD2    H214308   0.339   1.716  12.523 -0.2903 -0.4509 -0.2300
    2MPD2    H314309   0.552   1.645  12.598  0.0396 -1.4511  0.8551
    2MPD2     N14310   0.451   1.720  13.036  0.2804  0.3909 -0.0690
    2MPD2    H514311   0.367   1.737  13.091  0.1369  1.2262 -0.5449
    2MPD2    N114312   0.144   1.814  12.685  0.1198 -0.4040 -0.0572
    2MPD2    H714313   0.070   1.798  12.752  1.0169 -1.5365  0.6526
    3TCq1    O114314   0.321   2.029  13.398 -0.1195 -0.0845 -0.0526
    3TCq1    C114315   0.372   1.931  13.475 -0.0808  0.2271 -0.1243
    3TCq1    O214316   0.339   1.890  13.585  0.4038 -0.2708 -0.3253
    3TCq1    C214317   0.489   1.870  13.405 -0.1331 -0.3459 -0.1339
    3TCq1    C314318   0.593   1.834  13.490 -0.0554  0.7212  0.4462
    3TCq1    C414319   0.679   1.740  13.447 -0.5224 -0.9050  0.6054
    3TCq1    C514320   0.657   1.675  13.328  0.7330  0.2548  0.3245
    3TCq1    C614321   0.554   1.718  13.247 -0.0703 -0.6703  0.3574
    3TCq1    C714322   0.468   1.813  13.285 -0.3401 -0.0560  0.0454
    3TCq1    C814323   0.563   1.687  13.103  0.9363 -0.0117 -0.4413
    3TCq1    O414324   0.678   1.653  13.061 -0.4759  0.0994  0.5656
    3TCq1    C914325   0.795   1.706  13.519 -0.5359  0.0947  0.5244
    3TCq1    O514326   0.837   1.776  13.608 -0.0183 -0.2929  0.2723
    3TCq1    O614327   0.863   1.600  13.488  0.2640  0.2977 -0.5055
    3TCq1    H114328   0.373   2.046  13.316 -1.6669  1.7744 -0.6595
    3TCq1    H214329   0.608   1.907  13.569  0.9313  0.2756  0.6620
    3TCq1    H314330   0.732   1.601  13.302  0.5194 -0.8835  2.9296
    3TCq1    H414331   0.378   1.836  13.229  0.1353 -0.8045 -1.0399
    1MPD2     C14332   0.281   2.920  14.722 -0.5361  0.0132 -0.4995
    1MPD2    C114333   0.271   2.840  14.834  0.3142 -0.0995  0.5759
    1MPD2    C214334   0.348   2.719  14.841 -1.1007 -0.6361 -0.9534
    1MPD2    C314335   0.430   2.686  14.737  0.7260 -0.3147  0.0549
    1MPD2    C414336   0.449   2.771  14.635 -0.6429  0.3462  0.2419
    1MPD2    C514337   0.379   2.888  14.633 -0.6887  0.2272  0.8290
    1MPD2     H14338   0.332   2.647  14.920 -2.8175  0.8122 -0.0004
    1MPD2    H114339   0.520   2.744  14.558  0.2584 -0.9382  1.5237
    1MPD2    H214340   0.218   3.008  14.710 -2.0362 -1.1183 -0.8528
    1MPD2    H314341   0.379   2.955  14.547 -3.0924  1.2412  1.6113
    1MPD2     N14342   0.494   2.555  14.753 -0.4551 -0.3162  0.2276
    1MPD2    H514343   0.487   2.510  14.844  1.4416 -1.5777 -0.2310
    1MPD2    N114344   0.165   2.884  14.921 -0.0933 -0.7088 -0.4358
    1MPD2    H714345   0.102   2.955  14.885 -0.3052 -0.2187  0.9264
    2TMC3    C114346   4.711   2.826  15.067 -0.8380 -0.3499  0.3145
    2TMC3    C214347   4.662   2.693  15.080 -0.0438 -0.4525  0.5485
    2TMC3    C314348   4.533   2.675  15.027  0.6045 -0.6198  0.3198
    2TMC3    C414349   4.636   2.929  15.021  0.3373 -0.3765 -0.4422
    2TMC3    C514350   4.507   2.902  14.983  0.5824  0.1084 -0.3659
    2TMC3    C614351   4.454   2.774  14.984  0.0664  0.1443 -0.5062
    2TMC3     C14352   0.135   2.820  15.040  0.1655 -0.0160 -0.4649
    2TMC3     O14353   0.197   2.725  15.090  0.4084 -0.0433  0.1932
    2TMC3     H14354   0.003   2.631  15.143  0.7061  1.9669  2.1823
    2TMC3    H114355   4.676   3.029  15.031  1.2753 -0.6125 -1.8603
    2TMC3    H214356   4.363   2.748  14.932 -0.3377 -1.2978  0.9327
    2TMC3    C714357   4.424   2.996  14.914  0.0232 -0.4451 -0.0572
    2TMC3    C814358   4.505   2.533  14.985 -0.2981  0.6016 -0.1749
    2TMC3    O114359   4.318   2.963  14.873 -0.6285 -0.6455 -0.1606
    2TMC3    O214360   4.387   2.514  14.954  0.0375 -0.3029 -0.3275
    3TCq1    O114361   0.157   4.122  14.539 -0.4485  0.1878 -0.1472
    3TCq1    C114362   0.030   4.092  14.570  0.4835 -0.5916 -0.0528
    3TCq1    O214363   4.656   4.111  14.498 -0.1309  0.3836  0.4756
    3TCq1    C214364   0.018   3.993  14.675 -0.0773  0.3558 -0.1414
    3TCq1    C314365   0.123   3.970  14.753  0.1013 -0.6536  0.2489
    3TCq1    C414366   0.116   3.857  14.833 -0.5329  0.0451 -0.1666
    3TCq1    C514367   0.010   3.769  14.837 -0.1141 -0.7516  0.0145
    3TCq1    C614368   4.631   3.796  14.749  0.6218 -0.1022  0.5639
    3TCq1    C714369   4.630   3.910  14.680  0.0557  0.4903  0.7481
    3TCq1    C814370   4.532   3.696  14.716 -1.0909  0.5498  0.1897
    3TCq1    O414371   4.450   3.723  14.629 -0.2949 -0.2839 -0.1095
    3TCq1    C914372   0.221   3.837  14.927  0.5636 -0.7275 -0.3358
    3TCq1    O514373   0.227   3.726  14.981 -0.7000 -0.2183 -0.5951
    3TCq1    O614374   0.307   3.925  14.943  0.5944 -0.2209  0.2807
    3TCq1    H114375   0.222   4.089  14.603 -3.6306 -1.3714  2.2838
    3TCq1    H214376   0.178   4.062  14.771 -0.1210 -0.2821 -0.9485
    3TCq1    H314377   0.003   3.686  14.906 -0.7046 -0.5841  0.1572
    3TCq1    H414378   4.551   3.926  14.608 -0.8937 -2.3273  1.1710
    4MPD2     C14379   4.323   3.473  14.733 -0.6198 -0.5290 -0.6467
    4MPD2    C114380   4.448   3.474  14.790  1.1327 -0.0446 -0.0565
    4MPD2    C214381   4.489   3.359  14.857  0.6014 -0.2406 -0.7376
    4MPD2    C314382   4.418   3.242  14.862 -0.5026 -0.1578  0.1697
    4MPD2    C414383   4.291   3.242  14.797  1.0611  0.3501 -0.3956
    4MPD2    C514384   4.248   3.355  14.738 -0.2333 -0.4830  0.4540
    4MPD2     H14385   4.593   3.359  14.890  0.8063 -0.3751 -1.3879
    4MPD2    H114386   4.222   3.160  14.787 -0.1409  1.1686  1.2499
    4MPD2    H214387   4.279   3.562  14.689 -0.5209 -0.0708  0.1847
    4MPD2    H314388   4.146   3.343  14.703 -0.1917  0.2659  0.0815
    4MPD2     N14389   4.476   3.125  14.917 -0.3824  0.1706  0.2377
    4MPD2    H514390   4.567   3.138  14.959  0.7595 -3.2019 -1.2321
    4MPD2    N114391   4.542   3.580  14.785 -0.3445 -0.1423 -0.0113
    4MPD2    H714392   4.630   3.566  14.833 -0.2754 -3.0392 -1.0017
    5TMC2    C114393   0.450   2.211  14.813 -0.0181 -0.1597 -0.3833
    5TMC2    C214394   0.542   2.206  14.913  0.8780 -0.4331 -0.0794
    5TMC2    C314395   0.664   2.263  14.892 -0.2110  0.3978  0.0228
    5TMC2    C414396   0.476   2.285  14.699  0.3889  1.0817  0.4261
    5TMC2    C514397   0.587   2.356  14.679  0.2507  0.7808  0.2446
    5TMC2    C614398   0.681   2.347  14.779  0.4715  0.5037 -0.3250
    5TMC2     C14399   0.312   2.216  14.863 -0.7144 -0.2674  1.0603
    5TMC2     O14400   0.307   2.208  14.986 -0.0668  0.4442  0.6765
    5TMC2     H14401   0.522   2.155  15.006 -2.7354  0.7798 -0.1805
    5TMC2    H114402   0.397   2.294  14.625  2.5176 -0.2716 -1.9972
    5TMC2    H214403   0.780   2.386  14.760 -0.3492  1.8502 -1.8141
    5TMC2    C714404   0.553   2.493  14.644  0.3421  0.1250  0.0143
    5TMC2    C814405   0.757   2.255  14.997 -0.1241  0.0338  0.5153
    5TMC2    O114406   0.546   2.519  14.526  0.1111  0.0059 -0.2885
    5TMC2    O214407   0.754   2.160  15.075  0.2072 -0.0099 -0.1028
    5TMC2    O514408   0.866   2.337  14.973 -0.3529  0.3672 -0.3990
    5TMC2    H514409   0.833   2.429  14.968 -0.0786  0.5413  0.9955
    6MPD2     C14410   4.528   2.273  14.842  0.8166 -0.1064 -0.3871
    6MPD2    C114411   4.636   2.342  14.899 -0.7731  0.2516 -0.2600
    6MPD2    C214412   0.047   2.301  14.875 -0.7306 -0.1435  0.1908
    6MPD2    C314413   0.082   2.198  14.794 -0.2669  0.1461 -0.1416
    6MPD2    C414414   4.693   2.134  14.734 -0.4000  0.4604 -0.2126
    6MPD2    C514415   4.562   2.168  14.756  0.7977  0.0593  0.1855
    6MPD2     H14416   0.126   2.368  14.908 -1.2692  0.3472  0.4913
    6MPD2    H114417   4.714   2.052  14.666 -1.6140 -0.7880  0.9143
    6MPD2    H214418   4.423   2.296  14.856  0.5750 -0.2524 -2.0360
    6MPD2    H314419   4.482   2.118  14.703 -0.0577  1.8390 -0.2138
    6MPD2     N14420   0.222   2.181  14.769  0.7101 -0.1319 -0.2885
    6MPD2    H514421   0.256   2.138  14.683  0.4050  0.2518 -0.6027
    6MPD2    N114422   4.624   2.465  14.969  0.4153  0.1107  0.5287
    6MPD2    H714423   4.712   2.514  14.981 -0.7155  1.8773  1.7572
  945NH4     N114424   3.172   2.541  16.086  0.0838  0.4516  0.6885
  945NH4     H214425   3.182   2.502  15.990 -2.1393  0.0438  0.6229
  945NH4     H314426   3.084   2.593  16.106  0.6494  1.4975  0.4202
  945NH4     H414427   3.253   2.600  16.113 -2.6329  3.9790  1.0790
  945NH4     H514428   3.163   2.455  16.145  0.8399 -0.4293 -0.4747
  946SOD     NA14429   3.911   4.107   1.222 -0.1072 -0.3346  0.2458
  947SOD     NA14430   1.964   0.789   2.068  0.2614  0.8675  0.2056
  948SOD     NA14431   1.231   1.240   0.978  0.2398 -0.0820  0.0718
  949SOD     NA14432   1.799   0.176   1.820  0.0044 -0.1675 -0.2221
  950SOD     NA14433   1.891   1.056   4.350  0.0846  0.0308 -0.2403
  951SOD     NA14434   4.184   4.075   0.737 -0.2923  0.2060 -0.4399
  952SOD     NA14435   2.086   3.314  14.775  0.1086 -0.5151 -0.0841
  953SOD     NA14436   3.689   1.051  10.720  0.3191 -0.0676 -0.1738
  954SOD     NA14437   4.609   0.761  10.630  0.1316  0.0689 -0.0101
  955SOD     NA14438   4.182   1.053  10.456 -0.0380  0.6543 -0.3344
  956SOD     NA14439   1.104   2.704  13.641  0.2552  0.5459 -0.4858
  957SOD     NA14440   1.662   3.264   1.734  0.3199 -0.6779  0.3085
  958SOD     NA14441   3.923   3.958   3.838  0.1203  0.5466 -0.1269
  959SOD     NA14442   3.805   0.104  12.702  0.4673  0.2782  0.1718
  960SOD     NA14443   2.191   3.990  11.767  0.2069 -0.1614  0.2195
  961SOD     NA14444   1.066   4.229  17.381 -0.0076  0.2215  0.2183
  962SOD     NA14445   3.243   1.308   2.251 -0.2181  0.1362 -0.1081
  963SOD     NA14446   2.448   1.392  11.090 -0.0116 -0.3415 -0.4650
  964SOD     NA14447   4.561   1.088  10.662  0.1044 -0.3605 -0.4529
  965SOD     NA14448   4.365   4.093  11.100 -0.0159  0.1154  0.2080
  966SOD     NA14449   4.129   2.279   0.995  0.2901 -0.0879 -0.5029
  967SOD     NA14450   1.290   2.176  11.471 -0.0079  0.4994 -0.1542
  968SOD     NA14451   0.193   3.254   0.371  0.4575 -0.2598 -0.1065
  969SOD     NA14452   3.553   2.134  10.598 -0.1277  0.2565  0.2824
  970SOD     NA14453   2.278   2.925  16.396  0.1467  0.0592  0.3781
  971SOD     NA14454   0.902   2.038  10.336  0.1125 -0.4108 -0.2140
  972SOD     NA14455   0.322   2.583  15.217  0.1182 -0.0789  0.4057
  973SOD     NA14456   0.117   1.844   9.766  0.0879  0.5188  0.2014
  974SOD     NA14457   4.473   1.255  10.435 -0.2533  0.2767  0.0526
  975SOD     NA14458   2.881   0.556   7.737  0.5362 -0.2586  0.1196
  976SOD     NA14459   2.095   0.806  12.916 -0.3582 -0.2462 -0.0545
  977SOD     NA14460   2.274   2.475  14.926  0.1853  0.0293 -0.0329
  978SOD     NA14461   3.638   0.613   5.424 -0.2234 -0.4705  0.0756
  979SOD     NA14462   3.897   2.850  11.117 -0.1975  0.6658 -0.5542
  980SOD     NA14463   0.555   2.471  11.557 -0.3888  0.1050  0.0660
  981SOD     NA14464   0.873   1.896   4.509 -0.2088  0.3318  0.1372
  982SOD     NA14465   2.161   3.994   0.935 -0.1530 -0.2461 -0.0238
  983SOD     NA14466   3.715   4.523   9.782  0.1190 -0.2844  0.4970
  984SOD     NA14467   2.242   1.160  10.165  0.0592 -0.7122 -0.1726
  985SOD     NA14468   0.414   3.091  11.600  0.0287  0.0827  0.1804
  986SOD     NA14469   4.239   2.169  12.821  0.1991  0.0604 -0.0125
  987SOD     NA14470   2.040   2.820  15.626 -0.6016 -0.2328  0.7565
  988SOD     NA14471   4.114   0.965  15.132 -0.1756 -0.0516 -0.3612
  989SOD     NA14472   1.179   1.723   3.198 -0.2322 -0.0916 -0.4643
  990SOD     NA14473   0.046   3.744  11.347  0.2776 -0.3399 -0.1105
  991SOD     NA14474   4.065   3.518  11.018 -0.2446  0.3502  0.0413
  992SOD     NA14475   3.210   1.516  13.304  0.1627 -0.3383 -0.0588
  993SOD     NA14476   1.500   2.004  14.462 -0.2242  0.1757 -0.2833
  994SOD     NA14477   2.156   3.007  12.761 -0.0488 -0.0403 -0.4351
  995SOD     NA14478   2.737   3.589  12.375  0.0366  0.4320 -0.1064
  996SOD     NA14479   2.337   2.235  14.746 -0.1126 -0.0684  0.2593
  997SOD     NA14480   3.968   1.921  10.436 -0.4402 -0.0201 -0.2045
  998SOD     NA14481   0.268   4.283   3.124 -0.0728  0.1342 -0.3569
  999SOD     NA14482   2.072   2.021  14.691 -0.3677  0.1085 -0.0210
 1000SOD     NA14483   3.683   2.501   8.993  0.1355  0.1348 -0.0958
 1001SOD     NA14484   1.084   2.973  14.917 -0.1938  0.3708  0.4618
 1002SOD     NA14485   0.686   3.759  10.466 -0.4916  0.0874 -0.2160
 1003SOD     NA14486   4.551   3.791   8.416  0.4878 -0.1238  0.0158
 1004SOD     NA14487   0.584   3.218  14.618  0.1293 -0.3386  0.0025
 1005SOD     NA14488   1.005   1.660  13.639 -0.2765  0.3755 -0.1312
 1006SOD     NA14489   0.533   1.267  13.423 -0.2165 -0.1266  0.3776
 1007SOD     NA14490   4.222   0.577  16.874 -0.6768 -0.1290  0.3026
 1008SOD     NA14491   0.054   0.109   2.232 -0.4061  0.1674 -0.0071
 1009SOD     NA14492   1.861   2.897  11.203 -0.2945  0.2413  0.0762
 1010SOD     NA14493   4.003   1.367  15.479  0.5572  0.7398  0.2866
 1011SOL     OW14494   1.410   2.095   3.553  0.0838  0.4258 -0.1221
 1011SOL    HW114495   1.429   2.007   3.585  0.2567  0.6137  0.2907
 1011SOL    HW214496   1.493   2.134   3.578 -0.4813  1.4703  0.1320
 1012SOL     OW14497   3.086   1.539  15.222 -0.7563  0.3224 -0.2162
 1012SOL    HW114498   3.164   1.516  15.170 -0.9879  2.1088 -1.3529
 1012SOL    HW214499   3.025   1.484  15.172  0.0177 -0.7424 -0.0084
 1013SOL     OW14500   1.952   0.421   4.469  0.3405  0.0681 -0.2667
 1013SOL    HW114501   1.969   0.356   4.401 -0.1032 -1.4848  1.1082
 1013SOL    HW214502   1.877   0.470   4.434  0.0723 -0.1737 -0.0320
 1014SOL     OW14503   2.613   1.222   6.993  0.0484 -0.0396  0.4966
 1014SOL    HW114504   2.560   1.301   7.000 -1.4688 -0.8818 -1.4936
 1014SOL    HW214505   2.700   1.255   6.972  0.0530 -0.8724 -0.7971
 1015SOL     OW14506   1.388   1.351   0.544  0.3533 -0.0033 -0.5696
 1015SOL    HW114507   1.301   1.392   0.546  0.8571  1.0434  0.3288
 1015SOL    HW214508   1.443   1.426   0.523  0.6123 -0.4662 -1.5260
 1016SOL     OW14509   3.440   1.322   4.108  0.8684  0.5670  0.0734
 1016SOL    HW114510   3.517   1.341   4.162 -0.1071 -0.1193  1.7195
 1016SOL    HW214511   3.409   1.240   4.146  0.1141  0.6721 -0.3176
 1017SOL     OW14512   2.504   4.493  16.500 -0.7414  0.1541 -0.0976
 1017SOL    HW114513   2.517   4.485  16.405  0.2247 -5.2628  0.5016
 1017SOL    HW214514   2.561   4.568  16.518 -0.4028  0.2531 -1.5570
 1018SOL     OW14515   3.249   1.053   0.063  0.6124 -0.0165 -0.2662
 1018SOL    HW114516   3.325   0.997   0.079  0.4429  0.2682  1.4983
 1018SOL    HW214517   3.281   1.121   0.004 -0.6321  0.3003 -0.5562
 1019SOL     OW14518   4.322   3.440  15.424  0.6629  0.1020  0.2908
 1019SOL    HW114519   4.328   3.434  15.329 -1.1368  4.5417 -0.1069
 1019SOL    HW214520   4.305   3.352  15.458  2.1830 -0.1469  0.3838
 1020SOL     OW14521   3.831   1.695   1.291 -0.3146 -0.5019 -0.6481
 1020SOL    HW114522   3.788   1.624   1.340 -1.3281  1.6165  1.5890
 1020SOL    HW214523   3.762   1.762   1.284 -0.0774 -0.1005  0.7537
 1021SOL     OW14524   0.691   4.387   7.006 -0.7100 -0.2231 -0.0289
 1021SOL    HW114525   0.618   4.437   7.043 -1.0158 -1.9636  1.7572
 1021SOL    HW214526   0.648   4.335   6.939 -0.3221  0.4968 -0.8322
 1022SOL     OW14527   4.645   3.382  15.695 -0.2951  0.2837 -0.4823
 1022SOL    HW114528   4.720   3.359  15.640 -0.1916  0.8830 -0.6007
 1022SOL    HW214529   4.573   3.371  15.633 -0.0916  1.7879 -0.9907
 1023SOL     OW14530   1.738   0.532  16.944 -0.4476  0.0485 -0.1690
 1023SOL    HW114531   1.659   0.561  16.899 -0.3713  0.1115 -0.2607
 1023SOL    HW214532   1.744   0.598  17.014  0.1414 -2.1846  1.9009
 1024SOL     OW14533   1.697   1.927   7.561 -0.0128 -0.4268 -0.5900
 1024SOL    HW114534   1.712   1.891   7.648  0.0145 -0.9706 -0.8165
 1024SOL    HW214535   1.603   1.918   7.545 -0.5465 -0.1012  2.3388
 1025SOL     OW14536   3.853   3.798   8.989  0.5268  0.1749  0.0023
 1025SOL    HW114537   3.917   3.726   8.990  0.1897 -0.0968  1.1947
 1025SOL    HW214538   3.770   3.756   9.009  0.1528 -0.3967 -2.7554
 1026SOL     OW14539   3.332   3.469   3.996 -0.1603 -0.0205 -0.4547
 1026SOL    HW114540   3.398   3.523   3.953  0.0534  1.4038  1.6399
 1026SOL    HW214541   3.393   3.403   4.028  0.1086 -0.1199 -1.1685
 1027SOL     OW14542   0.915   3.116  16.380  0.5186 -0.4256  0.3193
 1027SOL    HW114543   0.943   3.025  16.375 -1.1805 -0.9948  1.0324
 1027SOL    HW214544   1.000   3.158  16.371  0.1871 -0.0214 -0.9159
 1028SOL     OW14545   2.970   4.720   5.245  1.0387  0.0416 -0.5047
 1028SOL    HW114546   3.024   4.650   5.281  1.1462  0.0274 -0.6957
 1028SOL    HW214547   3.021   0.029   5.170  1.5028  0.1107 -0.1581
 1029SOL     OW14548   2.597   1.332   9.211 -0.1938 -0.4221  0.4412
 1029SOL    HW114549   2.648   1.299   9.138  0.2252  2.4896 -0.5755
 1029SOL    HW214550   2.528   1.266   9.225  0.4703 -0.9082  1.4006
 1030SOL     OW14551   1.574   0.518  15.712 -0.2778  0.0883 -0.1483
 1030SOL    HW114552   1.560   0.540  15.804  0.1591  1.2984 -0.3666
 1030SOL    HW214553   1.627   0.439  15.721  1.0283  1.0475  0.6905
 1031SOL     OW14554   0.477   0.814  16.675 -0.4354  0.0336 -0.4799
 1031SOL    HW114555   0.443   0.823  16.765 -2.9012  0.8762 -1.4887
 1031SOL    HW214556   0.554   0.758  16.680 -0.4200  0.0109 -1.0582
 1032SOL     OW14557   1.343   0.376  11.895 -0.2033  0.4250 -0.0705
 1032SOL    HW114558   1.322   0.372  11.989  1.7313 -4.7009  0.0923
 1032SOL    HW214559   1.370   0.285  11.890 -3.3128 -0.3990 -1.8794
 1033SOL     OW14560   1.028   0.535  14.366 -0.1011 -0.4515  0.5855
 1033SOL    HW114561   1.101   0.475  14.351  1.5840  2.0679 -1.3523
 1033SOL    HW214562   0.983   0.501  14.444  0.5895  0.7194  1.4980
 1034SOL     OW14563   1.421   3.708   4.277 -0.2339  0.0718  0.0527
 1034SOL    HW114564   1.450   3.652   4.350 -0.8708  0.4855  0.6216
 1034SOL    HW214565   1.352   3.758   4.320  0.1209  0.9998 -0.4688
 1035SOL     OW14566   3.748   4.241   7.463 -0.3133  0.7645  0.1207
 1035SOL    HW114567   3.700   4.170   7.507  0.8059  0.1599  0.3882
 1035SOL    HW214568   3.700   4.239   7.380 -0.1934 -0.6593  0.0876
 1036SOL     OW14569   0.320   2.265   4.989 -0.4187  0.2146  0.4260
 1036SOL    HW114570   0.394   2.209   5.009  0.6210  2.6654  3.2958
 1036SOL    HW214571   0.249   2.206   4.962 -0.5405  1.3402 -1.6948
 1037SOL     OW14572   2.155   3.898  14.509 -0.7988 -0.0075 -0.9840
 1037SOL    HW114573   2.199   3.888  14.593 -0.4686  1.2887 -1.0015
 1037SOL    HW214574   2.102   3.819  14.517 -0.6446 -0.1926 -1.7008
 1038SOL     OW14575   2.901   3.155   5.679 -0.3843  0.2639 -0.0276
 1038SOL    HW114576   2.955   3.079   5.700  1.6433  1.9550  0.8013
 1038SOL    HW214577   2.825   3.115   5.636  0.4218 -0.1542 -1.0523
 1039SOL     OW14578   3.720   1.154   2.708 -0.3258  0.0153 -0.2648
 1039SOL    HW114579   3.739   1.148   2.614  1.6571 -0.4839  0.1696
 1039SOL    HW214580   3.652   1.087   2.718  0.3583 -1.1618 -3.6857
 1040SOL     OW14581   1.781   2.244   5.729 -0.3513  0.3004  0.1043
 1040SOL    HW114582   1.766   2.327   5.774 -2.0587  0.3207 -0.4760
 1040SOL    HW214583   1.834   2.207   5.799  0.3360  0.2226 -0.4563
 1041SOL     OW14584   1.985   0.258   7.525  0.4266  0.1666  0.4982
 1041SOL    HW114585   1.985   0.339   7.576  2.0721  1.4366 -1.5435
 1041SOL    HW214586   2.002   0.299   7.441  1.5638  0.9714  1.1373
 1042SOL     OW14587   2.473   2.728   2.661  0.0995 -0.1352 -0.6135
 1042SOL    HW114588   2.436   2.656   2.610 -0.5885  1.7481 -2.7742
 1042SOL    HW214589   2.391   2.769   2.688 -0.0662 -1.0019  0.1872
 1043SOL     OW14590   4.364   0.466  11.193 -0.6490  0.0416 -0.3657
 1043SOL    HW114591   4.397   0.411  11.264  1.5306  0.1617 -1.3077
 1043SOL    HW214592   4.451   0.500  11.176 -1.3787  2.1810  0.1819
 1044SOL     OW14593   4.584   0.021   6.320  0.3009 -0.2841 -0.2759
 1044SOL    HW114594   4.603   0.071   6.399 -1.1843 -1.7584  1.0139
 1044SOL    HW214595   4.635   0.061   6.249 -1.4207  1.2222 -0.6505
 1045SOL     OW14596   2.509   4.693   3.407  0.5797  0.2106 -0.8461
 1045SOL    HW114597   2.491   0.024   3.485 -2.4285  1.0110 -2.0707
 1045SOL    HW214598   2.478   4.611   3.445 -0.9184  0.5842 -1.2599
 1046SOL     OW14599   1.161   2.913   1.348  0.4153  0.4472 -0.1313
 1046SOL    HW114600   1.201   2.969   1.414 -1.9988  1.0785  0.7577
 1046SOL    HW214601   1.163   2.827   1.390 -0.1993  2.3269  3.6924
 1047SOL     OW14602   1.758   4.399   3.065  0.1934  0.0646  0.6129
 1047SOL    HW114603   1.727   4.310   3.081  1.4755 -0.2849  1.1542
 1047SOL    HW214604   1.702   4.450   3.124  0.1829 -0.0542  0.7031
 1048SOL     OW14605   3.284   3.936  10.972  0.3654 -0.0193 -0.5945
 1048SOL    HW114606   3.197   3.902  10.993  1.4750 -2.2042  0.4418
 1048SOL    HW214607   3.332   3.857  10.947  0.7154  0.4293 -1.3439
 1049SOL     OW14608   0.318   3.211   2.968 -0.7366 -0.7177 -0.5552
 1049SOL    HW114609   0.309   3.119   2.940 -0.0013  0.8098 -5.7980
 1049SOL    HW214610   0.348   3.246   2.884 -0.8511 -1.5888 -0.9698
 1050SOL     OW14611   1.618   1.288  15.824 -0.2610 -0.0106 -0.4878
 1050SOL    HW114612   1.603   1.194  15.812 -0.5201 -0.1453  0.9196
 1050SOL    HW214613   1.536   1.318  15.785 -1.9023 -2.9086  0.7184
 1051SOL     OW14614   3.763   0.984   8.014 -0.0555 -0.2792 -0.5934
 1051SOL    HW114615   3.727   0.898   8.036  1.1972 -0.8071 -0.5964
 1051SOL    HW214616   3.852   0.966   8.044  0.1667  0.9294 -0.5234
 1052SOL     OW14617   0.100   2.777   7.543  0.8489 -0.1057  0.1679
 1052SOL    HW114618   0.081   2.865   7.512  1.0512 -0.9521 -2.3648
 1052SOL    HW214619   0.130   2.803   7.631 -1.8719  1.1720  0.6941
 1053SOL     OW14620   1.650   3.701  14.220  0.0085  0.0085 -0.0853
 1053SOL    HW114621   1.628   3.657  14.302 -0.6121  0.1429 -0.1787
 1053SOL    HW214622   1.563   3.710  14.182  0.0824 -1.1893 -0.5514
 1054SOL     OW14623   2.115   0.939   7.794  0.2794 -0.7010  0.6664
 1054SOL    HW114624   2.076   0.949   7.707 -1.5702  0.8672  1.6972
 1054SOL    HW214625   2.146   1.028   7.806 -3.8668  0.4866  2.1774
 1055SOL     OW14626   1.298   2.607   0.552  0.1859  0.2443  0.1701
 1055SOL    HW114627   1.325   2.694   0.521  2.0236 -0.4695 -0.2753
 1055SOL    HW214628   1.224   2.584   0.496 -1.1632  0.4682  1.8900
 1056SOL     OW14629   1.193   2.347   7.277 -0.4325  0.1821  1.0037
 1056SOL    HW114630   1.187   2.281   7.345  2.1271  0.3106  1.3415
 1056SOL    HW214631   1.125   2.323   7.214  2.9025  0.3294 -2.6466
 1057SOL     OW14632   1.224   1.013   2.438 -0.9209 -0.0477 -0.5138
 1057SOL    HW114633   1.260   0.944   2.495  1.8386  3.5074  2.0278
 1057SOL    HW214634   1.155   0.966   2.391 -1.2675  1.3019 -1.3303
 1058SOL     OW14635   4.296   0.631   1.199 -0.0424 -0.1787  0.8069
 1058SOL    HW114636   4.219   0.686   1.216 -1.0777 -0.0156 -4.2726
 1058SOL    HW214637   4.360   0.696   1.170 -0.5427 -0.1405 -0.2493
 1059SOL     OW14638   0.561   2.622  12.567 -0.0682  0.4445  0.1379
 1059SOL    HW114639   0.501   2.686  12.606 -1.0436  1.5443 -3.1060
 1059SOL    HW214640   0.536   2.628  12.474 -4.6041 -1.2392  1.2280
 1060SOL     OW14641   1.907   2.075  10.254  0.6299 -0.0443  0.5608
 1060SOL    HW114642   1.864   2.127  10.322  1.3918  2.3859 -0.8085
 1060SOL    HW214643   1.990   2.056  10.296  0.3011 -1.6550  0.4892
 1061SOL     OW14644   2.256   3.952   8.489  0.1790 -0.3196  0.6876
 1061SOL    HW114645   2.192   3.909   8.432  2.3823 -2.3592 -0.2181
 1061SOL    HW214646   2.336   3.906   8.465  0.7266  0.5725  0.8088
 1062SOL     OW14647   4.525   1.504   4.329 -0.2804 -0.3377  0.2865
 1062SOL    HW114648   4.527   1.467   4.240  1.1379  2.8577 -1.0281
 1062SOL    HW214649   4.593   1.571   4.335 -0.2954 -0.2212 -0.7974
 1063SOL     OW14650   4.422   2.268   9.260 -0.0644  0.0013 -0.7581
 1063SOL    HW114651   4.513   2.241   9.248  0.2652  1.4799 -1.5577
 1063SOL    HW214652   4.377   2.203   9.206 -1.5276  1.0616 -0.8358
 1064SOL     OW14653   3.439   0.705   3.832 -0.2338  0.3524  0.3825
 1064SOL    HW114654   3.525   0.666   3.817 -0.8054  0.0109 -2.0574
 1064SOL    HW214655   3.383   0.630   3.849 -0.2756  0.0256 -1.2436
 1065SOL     OW14656   1.654   1.564   8.833 -0.1992  0.8317  0.2042
 1065SOL    HW114657   1.721   1.517   8.883 -0.1512  1.6525  0.8970
 1065SOL    HW214658   1.593   1.590   8.902 -1.3070 -1.1707 -0.0337
 1066SOL     OW14659   1.198   0.570   6.943  0.3253 -0.1795 -0.1883
 1066SOL    HW114660   1.207   0.521   7.024 -3.1814 -0.8580 -0.1741
 1066SOL    HW214661   1.260   0.641   6.957 -1.9384  1.4308  1.7533
 1067SOL     OW14662   1.109   1.614   7.500  0.3054  0.3042 -0.0105
 1067SOL    HW114663   1.033   1.672   7.501 -1.7198 -2.3475  1.4078
 1067SOL    HW214664   1.161   1.639   7.576  1.8811  1.3685 -1.4519
 1068SOL     OW14665   3.537   2.707   2.394 -0.2593  0.8901  0.4783
 1068SOL    HW114666   3.595   2.666   2.330 -2.6600 -0.8784 -0.5369
 1068SOL    HW214667   3.449   2.679   2.371 -0.3158  0.7905  0.8261
 1069SOL     OW14668   4.510   1.267   7.907  0.2241 -0.5564  0.1748
 1069SOL    HW114669   4.510   1.212   7.985  0.3605 -0.6872  0.0815
 1069SOL    HW214670   4.492   1.211   7.832 -0.7158  0.0335 -0.0392
 1070SOL     OW14671   2.227   3.171   6.527 -0.1694  0.2550  0.3798
 1070SOL    HW114672   2.230   3.168   6.431  0.8211  0.5689  0.4045
 1070SOL    HW214673   2.172   3.093   6.535 -1.0910  0.8179 -0.5092
 1071SOL     OW14674   2.680   0.342   7.227 -0.1591 -0.2480 -0.1067
 1071SOL    HW114675   2.753   0.397   7.200 -1.7073  1.7462 -0.1969
 1071SOL    HW214676   2.729   0.280   7.281 -0.5378 -0.3656  0.1025
 1072SOL     OW14677   1.991   1.030   8.893  0.1503  0.3485 -0.1518
 1072SOL    HW114678   1.990   0.938   8.867 -2.2991  0.5458 -0.8230
 1072SOL    HW214679   1.910   1.039   8.943  0.4846  0.4912  0.3584
 1073SOL     OW14680   2.107   2.186   8.196 -0.2409  0.4139  0.2329
 1073SOL    HW114681   2.188   2.146   8.164 -0.2736  1.8323 -1.6014
 1073SOL    HW214682   2.048   2.157   8.126  0.0545 -1.6055  0.8311
 1074SOL     OW14683   0.686   4.381   0.212  0.2809 -0.0660  0.0584
 1074SOL    HW114684   0.641   4.454   0.168  0.7716  0.5801  0.6426
 1074SOL    HW214685   0.775   4.408   0.232 -0.9721  2.6415  1.9287
 1075SOL     OW14686   4.471   1.815   0.529  0.1502  0.0480  0.3069
 1075SOL    HW114687   4.415   1.848   0.458  0.0091 -0.6745  0.0694
 1075SOL    HW214688   4.405   1.786   0.592 -0.9317 -1.0357 -1.3320
 1076SOL     OW14689   1.150   0.454  14.771 -0.0634  0.6117  0.5629
 1076SOL    HW114690   1.183   0.436  14.683 -0.6421  0.2013  0.4313
 1076SOL    HW214691   1.061   0.471  14.742 -0.7441 -1.6359  1.3366
 1077SOL     OW14692   3.455   0.592  15.298  0.1599 -0.9337 -0.2653
 1077SOL    HW114693   3.482   0.672  15.253  4.4649 -1.9602  0.4738
 1077SOL    HW214694   3.497   0.526  15.243 -0.3719 -1.5508  0.0667
 1078SOL     OW14695   3.199   0.995   8.500 -0.0101 -0.2135  0.3557
 1078SOL    HW114696   3.259   1.049   8.449 -0.8147  0.2168 -0.1531
 1078SOL    HW214697   3.185   0.923   8.438  0.3258 -1.2719  1.5154
 1079SOL     OW14698   3.609   3.616   7.886 -0.1778  0.2706 -0.7151
 1079SOL    HW114699   3.686   3.648   7.933  0.6623 -1.2135 -1.1054
 1079SOL    HW214700   3.534   3.655   7.932 -0.6603 -2.4361  0.7786
 1080SOL     OW14701   2.744   1.851   7.911 -0.3899  0.5873  0.4901
 1080SOL    HW114702   2.761   1.924   7.851 -1.1028 -0.5372 -1.0682
 1080SOL    HW214703   2.685   1.889   7.976 -2.9652 -1.8891 -0.4318
 1081SOL     OW14704   0.612   2.578  16.557  0.0954  0.4724  0.2559
 1081SOL    HW114705   0.543   2.634  16.522  0.6940  0.7902 -0.4309
 1081SOL    HW214706   0.571   2.521  16.622  1.1773 -1.3873 -0.6968
 1082SOL     OW14707   2.229   4.624  17.659 -0.1109  0.0051 -0.0497
 1082SOL    HW114708   2.229   4.678  17.580 -1.0744  1.1808  0.7555
 1082SOL    HW214709   2.189   4.545  17.623 -0.2287  0.7452 -1.5260
 1083SOL     OW14710   2.408   3.959  11.826  0.2162 -0.3345  0.6743
 1083SOL    HW114711   2.471   3.920  11.765 -1.2943 -0.5678 -0.7333
 1083SOL    HW214712   2.452   3.944  11.910 -1.5225 -0.5651  1.5591
 1084SOL     OW14713   3.689   4.104   4.433  0.1858 -0.5649  0.2034
 1084SOL    HW114714   3.765   4.120   4.487  2.9159 -2.0948 -3.1722
 1084SOL    HW214715   3.694   4.009   4.426  0.2316 -0.6297  1.2458
 1085SOL     OW14716   4.200   2.768  12.153  0.1035 -0.4592 -0.2283
 1085SOL    HW114717   4.259   2.781  12.228  0.2887 -1.7574 -0.1406
 1085SOL    HW214718   4.187   2.674  12.165  0.8753 -0.3475  1.4683
 1086SOL     OW14719   2.759   1.235  11.297  0.1632  0.6334  0.1468
 1086SOL    HW114720   2.810   1.294  11.242 -2.4091  0.6168 -2.2928
 1086SOL    HW214721   2.720   1.297  11.358  0.2220  1.9836 -1.1831
 1087SOL     OW14722   3.731   0.446  11.724 -0.2626 -0.1320 -0.3071
 1087SOL    HW114723   3.684   0.459  11.806 -0.2501 -1.5208 -0.0887
 1087SOL    HW214724   3.780   0.528  11.726  0.1331 -0.4153  1.3672
 1088SOL     OW14725   4.491   1.675   2.114  0.3957  0.1740 -0.0070
 1088SOL    HW114726   4.502   1.720   2.031 -1.7702 -1.1699 -1.0306
 1088SOL    HW214727   4.568   1.708   2.160 -0.5277  1.2724  0.7716
 1089SOL     OW14728   0.906   0.180   4.662 -0.5642  0.0610  0.5804
 1089SOL    HW114729   0.876   0.234   4.735  0.2393 -0.9141  1.6280
 1089SOL    HW214730   0.824   0.164   4.615  0.0016  1.0511 -0.7612
 1090SOL     OW14731   1.818   2.846  16.021  0.2762  0.2159  0.3477
 1090SOL    HW114732   1.742   2.855  15.964  0.8413 -0.6196 -0.5206
 1090SOL    HW214733   1.772   2.813  16.098  0.6415  1.4138  1.0839
 1091SOL     OW14734   3.230   0.751   7.961 -0.4023 -0.4638 -0.2791
 1091SOL    HW114735   3.229   0.679   8.025 -0.9548  0.1193  0.3684
 1091SOL    HW214736   3.322   0.751   7.936 -0.3557 -1.7943 -0.1252
 1092SOL     OW14737   4.651   3.256   3.002  0.1003 -0.3588 -0.2279
 1092SOL    HW114738   4.613   3.272   2.915 -0.2148 -0.3277 -0.0856
 1092SOL    HW214739   0.011   3.304   2.986  0.9996 -1.9466 -0.4463
 1093SOL     OW14740   1.909   3.240   6.633  0.1345  0.1326  0.1420
 1093SOL    HW114741   1.925   3.238   6.539  0.2380  4.9208  0.0601
 1093SOL    HW214742   1.895   3.333   6.647  1.2817  0.4937 -1.1800
 1094SOL     OW14743   1.681   3.347  15.814  0.1921 -0.3336 -0.5664
 1094SOL    HW114744   1.680   3.442  15.803 -0.7037 -0.4171 -1.2528
 1094SOL    HW214745   1.670   3.334  15.908 -0.4376  0.8286 -0.4816
 1095SOL     OW14746   3.936   1.656   5.538 -0.0098 -0.0902 -0.5792
 1095SOL    HW114747   3.892   1.716   5.478 -0.3797  0.7211  0.4922
 1095SOL    HW214748   3.859   1.617   5.579  0.5466 -0.1553  0.3907
 1096SOL     OW14749   3.945   2.907   5.631  0.1689  0.4086  0.2962
 1096SOL    HW114750   3.956   2.832   5.690  1.5511 -0.4820 -1.0830
 1096SOL    HW214751   3.881   2.962   5.676 -0.3934 -1.3332  1.6543
 1097SOL     OW14752   1.046   4.707  16.843 -0.8976 -0.3132  0.2757
 1097SOL    HW114753   0.986   4.662  16.903 -2.1953  0.8716 -0.1265
 1097SOL    HW214754   1.120   4.647  16.840  1.0019  1.8742  3.1838
 1098SOL     OW14755   0.675   2.717   4.579 -0.0143 -0.7084 -0.3131
 1098SOL    HW114756   0.742   2.722   4.511 -0.3924 -1.8318 -0.7751
 1098SOL    HW214757   0.689   2.799   4.628  0.3362 -1.1010  0.2447
 1099SOL     OW14758   0.477   2.869   7.781  0.0743  0.0227 -0.0570
 1099SOL    HW114759   0.420   2.907   7.714 -0.5630  1.2102  1.1754
 1099SOL    HW214760   0.445   2.779   7.776 -0.2896 -0.0747  3.7757
 1100SOL     OW14761   0.641   3.605   8.187  0.0754  0.6049  0.1752
 1100SOL    HW114762   0.675   3.551   8.116 -1.4701  1.4246 -1.2046
 1100SOL    HW214763   0.703   3.677   8.200  0.1782  0.3432  1.0726
 1101SOL     OW14764   0.310   2.540   4.989 -0.5577 -0.2166  0.1845
 1101SOL    HW114765   0.330   2.448   4.976 -1.6237 -0.2153 -1.3814
 1101SOL    HW214766   0.215   2.541   4.978 -0.3904 -0.3400 -1.2175
 1102SOL     OW14767   0.715   2.616   5.128  0.8681 -0.7458 -0.7634
 1102SOL    HW114768   0.647   2.579   5.072 -0.3665  1.6840 -0.8628
 1102SOL    HW214769   0.720   2.540   5.186 -0.5176  1.9133  2.8037
 1103SOL     OW14770   0.198   0.280  13.048  0.0736 -0.1522 -0.1664
 1103SOL    HW114771   0.215   0.201  12.997 -0.4405 -0.0183 -0.5447
 1103SOL    HW214772   0.240   0.349  12.997 -2.4311  1.2666 -0.2684
 1104SOL     OW14773   1.615   2.064  13.344 -0.2789 -0.4856  0.1224
 1104SOL    HW114774   1.622   2.121  13.267  0.2391  0.4668  0.8742
 1104SOL    HW214775   1.662   1.986  13.315  1.6713  0.6174  0.2971
 1105SOL     OW14776   0.636   2.932   9.023 -0.0453  0.3173  0.1488
 1105SOL    HW114777   0.556   2.985   9.031  1.1290  1.8412  1.8527
 1105SOL    HW214778   0.698   3.005   9.019  0.5754 -0.1355  1.4224
 1106SOL     OW14779   1.723   3.937  13.758  0.0015  0.2677  0.3735
 1106SOL    HW114780   1.667   4.008  13.790 -1.2178 -0.7247  0.4250
 1106SOL    HW214781   1.760   3.984  13.683  0.1709  1.7647  1.4003
 1107SOL     OW14782   1.965   2.487  15.399  0.5610  0.2351 -0.0227
 1107SOL    HW114783   1.892   2.532  15.358  3.2713  2.8113 -1.9978
 1107SOL    HW214784   2.031   2.548  15.366 -1.9526  1.6613 -2.3451
 1108SOL     OW14785   3.365   2.532   2.913  0.2850 -0.7836 -0.2124
 1108SOL    HW114786   3.390   2.469   2.980  1.5776  1.3914  1.3673
 1108SOL    HW214787   3.441   2.580   2.878 -0.6692  2.1874  1.7533
 1109SOL     OW14788   0.817   0.869   9.105 -0.1773 -0.6578  0.0567
 1109SOL    HW114789   0.729   0.905   9.113  0.4881  0.9569  0.0665
 1109SOL    HW214790   0.822   0.828   9.019  0.9681 -1.1137  0.3285
 1110SOL     OW14791   0.946   2.538  15.217  0.3427 -0.8476 -0.2226
 1110SOL    HW114792   0.997   2.466  15.252  1.8973 -0.6747 -2.0995
 1110SOL    HW214793   0.947   2.610  15.281  0.3707  0.9945 -2.2733
 1111SOL     OW14794   4.040   2.089   5.191 -0.0297 -0.3910  0.1599
 1111SOL    HW114795   4.027   2.035   5.113 -2.5669  1.1673 -0.4794
 1111SOL    HW214796   3.961   2.142   5.191 -0.0462 -0.4063 -0.5932
 1112SOL     OW14797   3.518   0.661   6.776 -0.0221  0.6341 -0.1198
 1112SOL    HW114798   3.515   0.691   6.685 -0.5633  0.5443 -0.1306
 1112SOL    HW214799   3.607   0.691   6.797  0.4554 -1.1221  0.3137
 1113SOL     OW14800   3.417   4.351   7.567  0.6113 -0.2333 -0.6768
 1113SOL    HW114801   3.366   4.424   7.531  0.7539  0.3947  0.4054
 1113SOL    HW214802   3.405   4.284   7.499 -0.8419 -0.5219 -0.1420
 1114SOL     OW14803   0.624   0.363   4.314 -0.3810  0.0257  0.0820
 1114SOL    HW114804   0.610   0.356   4.220 -2.0234  1.6847  0.1969
 1114SOL    HW214805   0.711   0.401   4.329  0.6583 -2.5968  0.8439
 1115SOL     OW14806   2.445   3.871   6.497  0.4972 -0.3686  0.7414
 1115SOL    HW114807   2.430   3.964   6.517 -0.8131 -0.4715  0.2932
 1115SOL    HW214808   2.471   3.874   6.405  1.7262  0.8634  1.1458
 1116SOL     OW14809   0.124   2.161  11.038  0.5767 -0.1376  0.1769
 1116SOL    HW114810   0.082   2.077  11.054  1.3421 -0.4791  0.3821
 1116SOL    HW214811   0.155   2.190  11.124  0.7759 -1.5566  0.5788
 1117SOL     OW14812   3.298   1.865   4.376  0.0460 -0.8871  0.6309
 1117SOL    HW114813   3.316   1.822   4.460 -2.0936  1.2264  2.1809
 1117SOL    HW214814   3.285   1.792   4.316 -0.6010 -0.6352  0.4615
 1118SOL     OW14815   2.681   3.507   4.160  0.1027 -0.4086 -0.3432
 1118SOL    HW114816   2.718   3.515   4.072  1.3486 -1.5728  0.0601
 1118SOL    HW214817   2.595   3.472   4.138  0.1711 -0.4147 -0.6053
 1119SOL     OW14818   4.551   1.314   4.946  0.0572  0.1607  0.5752
 1119SOL    HW114819   4.599   1.360   5.014  0.2324 -0.3881  0.8200
 1119SOL    HW214820   4.472   1.363   4.923 -0.1726 -0.5075 -0.0675
 1120SOL     OW14821   3.508   2.677   6.820 -0.0043  0.3413  0.1687
 1120SOL    HW114822   3.601   2.693   6.801 -0.3091  1.6553 -0.1961
 1120SOL    HW214823   3.470   2.735   6.754 -0.8434  1.3320  1.5190
 1121SOL     OW14824   4.178   1.110   6.782  0.1140  0.0572  0.2779
 1121SOL    HW114825   4.121   1.187   6.789 -2.0776 -1.3905 -1.6872
 1121SOL    HW214826   4.208   1.098   6.872  2.7983 -0.2797 -0.6755
 1122SOL     OW14827   3.164   3.224  15.421 -0.3940  0.0462  0.1465
 1122SOL    HW114828   3.199   3.145  15.379 -0.0588 -0.8708  2.1685
 1122SOL    HW214829   3.176   3.212  15.515 -2.0790  1.4003  0.5435
 1123SOL     OW14830   4.104   0.954   8.681  0.3670  0.1339  0.3710
 1123SOL    HW114831   4.019   0.997   8.688  0.5622  0.5636  0.0709
 1123SOL    HW214832   4.070   0.888   8.621  1.5030  0.5218 -0.7008
 1124SOL     OW14833   1.699   0.559   2.950 -0.6438 -0.0910 -0.0720
 1124SOL    HW114834   1.778   0.505   2.960 -0.3376  0.9047  2.8002
 1124SOL    HW214835   1.733   0.648   2.958  0.9725 -0.5630 -1.7117
 1125SOL     OW14836   2.374   0.952   4.499 -0.9993 -0.0858  0.2715
 1125SOL    HW114837   2.310   1.005   4.546  0.6372  2.7708 -0.7134
 1125SOL    HW214838   2.417   1.024   4.454 -1.9714 -0.8973 -1.9291
 1126SOL     OW14839   2.863   1.874   2.583 -0.4943  0.1535  0.2641
 1126SOL    HW114840   2.854   1.969   2.593 -0.6363 -0.0004  1.7048
 1126SOL    HW214841   2.789   1.854   2.526 -0.1376  0.4441 -0.3059
 1127SOL     OW14842   0.136   3.648   3.238  0.0073 -0.2738  0.9439
 1127SOL    HW114843   0.227   3.623   3.256  0.5112 -0.0811 -1.2839
 1127SOL    HW214844   0.133   3.630   3.144  1.4759 -0.2460  0.8860
 1128SOL     OW14845   0.658   1.268   1.805  0.9750 -0.0533  0.1405
 1128SOL    HW114846   0.592   1.271   1.735  0.6584  0.2095  0.4507
 1128SOL    HW214847   0.731   1.220   1.767  2.1638  1.1333  0.9013
 1129SOL     OW14848   1.681   2.653   2.807 -0.1165 -0.2304  0.0651
 1129SOL    HW114849   1.754   2.637   2.866 -0.3906 -2.3068 -0.1810
 1129SOL    HW214850   1.614   2.674   2.872  1.3121 -0.7709  1.7065
 1130SOL     OW14851   2.028   0.905   5.971 -0.5156 -0.4028 -0.4872
 1130SOL    HW114852   2.012   0.961   6.047  0.0648  0.4484 -0.9884
 1130SOL    HW214853   1.956   0.941   5.919 -0.7856 -0.7388 -0.3472
 1131SOL     OW14854   4.159   2.709   5.318  0.0012  0.2446  0.1208
 1131SOL    HW114855   4.138   2.787   5.267  1.0144  0.8211  0.5748
 1131SOL    HW214856   4.083   2.655   5.298  0.2136  0.2040 -0.5863
 1132SOL     OW14857   2.557   3.736  11.385 -0.6941  0.2355 -0.1689
 1132SOL    HW114858   2.490   3.667  11.386 -0.5758  0.1342  0.8712
 1132SOL    HW214859   2.599   3.727  11.299 -0.7014  2.0086 -0.3663
 1133SOL     OW14860   2.011   1.796   1.886 -0.0786  0.0305 -0.1625
 1133SOL    HW114861   1.966   1.857   1.828 -2.1397 -0.2749  1.0774
 1133SOL    HW214862   1.957   1.787   1.965  1.5793 -1.0515  0.8504
 1134SOL     OW14863   3.360   0.460  16.609 -0.8316 -0.1694  0.3249
 1134SOL    HW114864   3.272   0.467  16.646 -1.3355  0.0514 -0.9037
 1134SOL    HW214865   3.357   0.525  16.538  1.5863 -1.3690 -0.8908
 1135SOL     OW14866   4.631   1.124   5.427 -0.2688  0.1082 -0.2769
 1135SOL    HW114867   4.661   1.104   5.516  1.1331  1.3198 -0.4725
 1135SOL    HW214868   4.537   1.125   5.445  0.3653 -0.3821  3.2342
 1136SOL     OW14869   1.768   4.487   0.079  0.3012 -0.7345  0.1883
 1136SOL    HW114870   1.813   4.534   0.009  1.2073 -0.0337  1.2437
 1136SOL    HW214871   1.754   4.403   0.036  1.0899 -0.0883 -1.3382
 1137SOL     OW14872   3.494   2.532  12.469  0.2362 -0.0262  0.5161
 1137SOL    HW114873   3.462   2.448  12.437 -0.1588 -0.3997  1.8533
 1137SOL    HW214874   3.540   2.499  12.547 -0.0581  1.5419  1.3388
 1138SOL     OW14875   0.279   3.986   3.535 -0.4716  0.0663 -0.1093
 1138SOL    HW114876   0.302   4.051   3.469  1.9757 -2.7542 -1.9462
 1138SOL    HW214877   0.204   4.016   3.588 -0.3050 -0.9993  0.7293
 1139SOL     OW14878   1.458   0.334   1.562  0.6886 -0.7630  0.2651
 1139SOL    HW114879   1.444   0.349   1.656 -0.7138  1.1371 -0.2501
 1139SOL    HW214880   1.554   0.333   1.566  0.6348 -0.3138  1.7185
 1140SOL     OW14881   2.010   1.474   2.738 -0.1313 -0.1776 -0.2363
 1140SOL    HW114882   2.064   1.533   2.685  0.5942 -0.8963 -0.2939
 1140SOL    HW214883   2.073   1.409   2.769 -0.5297  0.2240  1.4129
 1141SOL     OW14884   3.490   4.233  13.327  0.1170 -0.8004  0.4396
 1141SOL    HW114885   3.489   4.308  13.386  1.9876  0.8074 -1.6204
 1141SOL    HW214886   3.558   4.251  13.263 -1.1175 -1.0767 -0.9441
 1142SOL     OW14887   0.632   3.387   8.547  0.3500  0.2695 -0.3616
 1142SOL    HW114888   0.555   3.442   8.529  1.1357  2.0722  1.8314
 1142SOL    HW214889   0.587   3.316   8.593  2.4429  0.1320  1.4292
 1143SOL     OW14890   3.770   3.637   3.208  0.6672  0.3085  0.2447
 1143SOL    HW114891   3.811   3.627   3.122 -0.3564 -4.1804  0.2882
 1143SOL    HW214892   3.783   3.732   3.217 -0.5510  0.2229  2.8230
 1144SOL     OW14893   1.713   4.185   8.864  0.8896  0.3004 -0.2525
 1144SOL    HW114894   1.749   4.098   8.849 -0.2549 -0.4564  1.4926
 1144SOL    HW214895   1.715   4.204   8.770  2.4269 -0.1563 -0.3076
 1145SOL     OW14896   4.265   0.992   8.017  0.6437 -0.1759 -0.4722
 1145SOL    HW114897   4.326   0.993   7.943 -0.4599  0.3686 -1.3658
 1145SOL    HW214898   4.318   1.029   8.088  0.2135 -0.5342  0.0382
 1146SOL     OW14899   0.150   2.777   6.104 -0.2191  0.1766  0.5088
 1146SOL    HW114900   0.125   2.752   6.015  0.3690 -1.3340  0.7718
 1146SOL    HW214901   0.099   2.713   6.153 -1.0640  0.0668 -0.5145
 1147SOL     OW14902   3.427   4.698   2.648  0.5691  0.2865 -0.3059
 1147SOL    HW114903   3.485   4.655   2.584  0.7956 -1.2299  0.9185
 1147SOL    HW214904   3.448   0.068   2.633 -0.5534  0.5543 -0.2276
 1148SOL     OW14905   3.116   2.378   5.534  0.0094 -0.0168 -0.2588
 1148SOL    HW114906   3.082   2.312   5.473 -3.2258 -0.4396  1.9638
 1148SOL    HW214907   3.180   2.332   5.588 -0.8346  0.3516  1.0559
 1149SOL     OW14908   0.970   4.200   2.701 -0.3488 -0.4413  0.4665
 1149SOL    HW114909   1.053   4.160   2.725  0.0612 -0.1218 -0.4036
 1149SOL    HW214910   0.971   4.184   2.606  0.7723  2.3724  0.0102
 1150SOL     OW14911   1.723   3.118   4.458  0.4154 -0.2399 -0.3462
 1150SOL    HW114912   1.711   3.071   4.540 -0.5234 -0.8972 -0.8612
 1150SOL    HW214913   1.770   3.195   4.489 -3.0135  1.3452  0.8906
 1151SOL     OW14914   3.820   0.956   1.402  0.1575  0.3706  0.2837
 1151SOL    HW114915   3.864   0.872   1.419 -1.8415 -0.6456  0.4226
 1151SOL    HW214916   3.893   1.001   1.359 -1.0188 -0.9873 -3.1402
 1152SOL     OW14917   1.087   1.301   2.858 -0.1934  0.2043  0.0615
 1152SOL    HW114918   1.118   1.281   2.769  0.2632  0.5016  0.1519
 1152SOL    HW214919   1.028   1.373   2.835 -2.1255 -1.0052  1.2729
 1153SOL     OW14920   3.482   3.835   1.652 -0.5413  0.4434 -0.0165
 1153SOL    HW114921   3.442   3.784   1.722  4.3839 -0.9320  1.7361
 1153SOL    HW214922   3.504   3.910   1.707 -2.6601  1.2664 -0.2920
 1154SOL     OW14923   3.243   1.341   9.342  0.4931  0.0058 -0.5165
 1154SOL    HW114924   3.235   1.429   9.379 -0.1188 -0.4613  0.4551
 1154SOL    HW214925   3.278   1.358   9.254  1.8105  2.1905  0.4332
 1155SOL     OW14926   1.962   2.180   5.555  0.3777 -0.5603  0.1148
 1155SOL    HW114927   1.882   2.205   5.602 -0.6251  1.7378 -2.7766
 1155SOL    HW214928   1.940   2.092   5.522  0.1523 -0.1286 -0.9004
 1156SOL     OW14929   0.466   2.727  15.326 -0.0577 -0.2957 -0.0088
 1156SOL    HW114930   0.561   2.719  15.324 -0.3657 -4.2217  1.7398
 1156SOL    HW214931   0.456   2.788  15.398 -1.0098 -0.0373 -0.3630
 1157SOL     OW14932   3.596   2.954   8.167  0.0642  0.0295 -0.2062
 1157SOL    HW114933   3.641   2.983   8.087 -0.6021  0.0559 -0.5727
 1157SOL    HW214934   3.513   2.919   8.134 -0.2056 -1.5176  2.1180
 1158SOL     OW14935   0.006   1.123   2.744 -0.4954  0.5500  0.2029
 1158SOL    HW114936   0.039   1.080   2.664 -0.8724 -1.1612  0.9670
 1158SOL    HW214937   4.674   1.189   2.701 -0.4076  0.3147 -0.2765
 1159SOL     OW14938   4.368   0.765   2.976  0.3516  0.3810  0.0046
 1159SOL    HW114939   4.319   0.823   2.918 -1.1179 -1.2760 -0.3977
 1159SOL    HW214940   4.421   0.719   2.911  1.0619 -1.1860  1.7106
 1160SOL     OW14941   1.474   3.852   0.127 -0.2645 -0.1882 -0.5618
 1160SOL    HW114942   1.414   3.865   0.054 -1.7999 -0.2127  0.7075
 1160SOL    HW214943   1.486   3.757   0.120 -1.1675 -0.3395 -0.0202
 1161SOL     OW14944   2.235   1.982   2.825 -0.1681  0.0741 -0.0546
 1161SOL    HW114945   2.330   1.978   2.836 -0.3031 -1.0885  0.7016
 1161SOL    HW214946   2.235   1.933   2.743 -2.3779  1.2208 -0.7475
 1162SOL     OW14947   0.141   4.288   4.583  0.0225  0.2507  0.4056
 1162SOL    HW114948   0.102   4.242   4.657 -0.3115  0.1797  0.1883
 1162SOL    HW214949   0.088   4.368   4.594 -0.8786 -0.1613 -1.0017
 1163SOL     OW14950   3.142   1.835   4.146  0.0364 -0.0574 -0.4515
 1163SOL    HW114951   3.072   1.786   4.190  0.8605 -1.4302 -0.6862
 1163SOL    HW214952   3.199   1.765   4.116 -0.5218 -0.2733 -1.0102
 1164SOL     OW14953   2.499   2.642  11.532 -0.5342  0.1130  0.0353
 1164SOL    HW114954   2.482   2.634  11.626 -1.3355  0.8949 -0.0365
 1164SOL    HW214955   2.531   2.555  11.507  1.5319  1.0254 -0.5133
 1165SOL     OW14956   3.285   1.448  15.062  0.8172  0.0601 -0.3611
 1165SOL    HW114957   3.318   1.447  14.972 -0.9217 -0.9091 -0.9885
 1165SOL    HW214958   3.219   1.379  15.066  1.7092 -0.8743 -1.8949
 1166SOL     OW14959   0.098   3.484   7.611  0.6300 -1.1001  0.0998
 1166SOL    HW114960   0.111   3.529   7.527  1.0173  1.4348  1.5291
 1166SOL    HW214961   0.083   3.563   7.663 -1.9168 -1.5383  0.0254
 1167SOL     OW14962   4.106   2.485  12.127 -0.5376 -0.0677 -0.1177
 1167SOL    HW114963   4.048   2.428  12.176  0.4253  0.0447  1.1373
 1167SOL    HW214964   4.179   2.425  12.111 -0.6353  0.1570 -1.3923
 1168SOL     OW14965   3.287   1.602   3.304 -0.2233 -0.2915 -0.0630
 1168SOL    HW114966   3.260   1.585   3.213 -2.5329  1.7398  0.2384
 1168SOL    HW214967   3.376   1.566   3.302 -0.2300 -0.3076 -0.0687
 1169SOL     OW14968   2.287   2.774  11.304  0.6525  0.3912 -0.7249
 1169SOL    HW114969   2.351   2.738  11.366 -0.5719 -0.8898 -0.2055
 1169SOL    HW214970   2.351   2.791  11.234 -2.1506  0.9110 -3.1327
 1170SOL     OW14971   2.059   1.568   0.964  0.2491  0.5934 -0.4372
 1170SOL    HW114972   2.119   1.494   0.967 -1.0310 -0.4325 -0.0167
 1170SOL    HW214973   1.997   1.535   1.029  0.5118  1.0761  0.0595
 1171SOL     OW14974   1.654   3.442   6.881 -0.5947  0.3590  0.2446
 1171SOL    HW114975   1.679   3.431   6.973 -1.5801  0.1322  0.4845
 1171SOL    HW214976   1.633   3.350   6.864 -1.9190  0.1805  2.8073
 1172SOL     OW14977   4.518   0.904  13.913 -0.0613 -0.3354 -0.7596
 1172SOL    HW114978   4.452   0.919  13.981  2.1114  2.2340  0.7465
 1172SOL    HW214979   4.575   0.840  13.956  0.2103  0.7171  0.4227
 1173SOL     OW14980   0.178   2.918  17.270  0.0223  0.1626  0.5234
 1173SOL    HW114981   0.134   2.834  17.287 -0.1749  0.2196  0.2928
 1173SOL    HW214982   0.104   2.973  17.293  0.5395  0.9885  0.2207
 1174SOL     OW14983   3.526   3.420  16.944 -0.1175 -0.0458  0.1156
 1174SOL    HW114984   3.559   3.341  16.987  1.5003  0.2990 -0.5023
 1174SOL    HW214985   3.441   3.386  16.917  0.0740  0.3109 -0.9057
 1175SOL     OW14986   0.217   0.100  13.996  0.0991 -0.2890  0.6380
 1175SOL    HW114987   0.139   0.138  14.037 -1.4903 -0.6706 -1.9822
 1175SOL    HW214988   0.272   0.083  14.072  2.6239  3.2174 -0.4260
 1176SOL     OW14989   1.087   2.034  14.246 -0.0923 -0.5944 -0.8659
 1176SOL    HW114990   1.001   2.006  14.214  0.0092 -4.0613  1.8553
 1176SOL    HW214991   1.111   1.951  14.286  0.1316  0.3770  0.9776
 1177SOL     OW14992   3.938   2.729  10.741 -0.2066 -0.0696 -0.2047
 1177SOL    HW114993   3.944   2.790  10.668  2.2917 -0.7440 -0.5560
 1177SOL    HW214994   3.885   2.774  10.806  0.5987  0.2583  0.2216
 1178SOL     OW14995   0.737   2.138  17.111  0.2246 -0.2692 -0.3478
 1178SOL    HW114996   0.717   2.092  17.029 -0.1212  1.1646 -1.0700
 1178SOL    HW214997   0.689   2.078  17.169 -1.3480  0.6818 -0.6629
 1179SOL     OW14998   3.949   1.923  13.561  0.2198  0.0171  0.2538
 1179SOL    HW114999   3.958   1.869  13.483  2.5181  1.1509 -0.2941
 1179SOL    HW215000   4.038   1.921  13.597  0.1462  1.0236  0.5030
 1180SOL     OW15001   1.881   4.238   0.390 -0.0750 -0.7319  0.6236
 1180SOL    HW115002   1.891   4.317   0.443  1.0264  0.6070 -1.5907
 1180SOL    HW215003   1.945   4.249   0.320  0.3058 -0.8077  0.9578
 1181SOL     OW15004   2.011   4.022   1.764  0.4277  0.1140  0.1213
 1181SOL    HW115005   2.055   4.012   1.849  1.0511  0.9490 -0.0924
 1181SOL    HW215006   2.026   3.944   1.711  0.4768  0.3334 -0.1898
 1182SOL     OW15007   2.710   2.478   2.283 -0.1130 -0.4482 -0.3386
 1182SOL    HW115008   2.637   2.539   2.276  1.0144  1.2372  2.8178
 1182SOL    HW215009   2.679   2.420   2.352  0.3034 -0.5091 -0.2052
 1183SOL     OW15010   2.596   0.236  11.121 -0.4360 -0.2618  0.3841
 1183SOL    HW115011   2.600   0.325  11.157 -0.6988 -0.3838  0.7191
 1183SOL    HW215012   2.624   0.183  11.196  1.5443  1.8959  1.1851
 1184SOL     OW15013   4.117   3.633  12.036  0.1909 -0.0114  0.1150
 1184SOL    HW115014   4.173   3.667  12.106  0.3878  2.6960 -1.3284
 1184SOL    HW215015   4.084   3.560  12.087  0.5123 -1.5828 -1.9356
 1185SOL     OW15016   4.340   1.853   6.894 -0.3136  0.0833  0.1756
 1185SOL    HW115017   4.402   1.816   6.830  0.1263  1.0659  0.0323
 1185SOL    HW215018   4.322   1.938   6.855 -2.4536 -1.2293 -1.6953
 1186SOL     OW15019   0.699   2.923   5.480 -0.0048 -0.1211  0.0592
 1186SOL    HW115020   0.632   2.952   5.542  0.3163  0.3351  0.1899
 1186SOL    HW215021   0.669   2.935   5.390 -0.0331 -2.2380 -0.2187
 1187SOL     OW15022   3.094   2.751   7.289  0.1523 -0.4858  0.2841
 1187SOL    HW115023   3.048   2.688   7.346 -2.9536  0.6867 -0.9244
 1187SOL    HW215024   3.092   2.827   7.346  2.5319 -0.1769 -0.0851
 1188SOL     OW15025   0.174   2.007  14.489 -0.5102 -0.0676 -0.4973
 1188SOL    HW115026   0.122   2.078  14.453 -0.0499  1.5843  2.0765
 1188SOL    HW215027   0.103   1.945  14.506 -0.9736  1.2025  2.1975
 1189SOL     OW15028   1.360   3.528   1.479  0.0438 -0.2001 -0.2038
 1189SOL    HW115029   1.279   3.482   1.455 -0.8191  0.4807  1.3614
 1189SOL    HW215030   1.401   3.525   1.393  0.7737  0.9698  0.1063
 1190SOL     OW15031   3.164   2.923   5.894  0.2144 -0.4587  1.1300
 1190SOL    HW115032   3.158   3.019   5.901  0.3676 -0.3208 -0.6567
 1190SOL    HW215033   3.259   2.908   5.894  0.6571  2.1992  0.9190
 1191SOL     OW15034   2.622   3.790  12.337 -0.1046  0.0671  0.3619
 1191SOL    HW115035   2.641   3.869  12.285  2.0731 -1.1003 -0.6048
 1191SOL    HW215036   2.537   3.805  12.380 -0.6088  1.1771 -1.0258
 1192SOL     OW15037   4.003   0.177   0.536 -0.2179 -0.1843 -0.1649
 1192SOL    HW115038   4.045   0.236   0.474  0.8202 -0.4434  0.2813
 1192SOL    HW215039   3.953   0.242   0.586 -0.2076  1.8847 -2.8565
 1193SOL     OW15040   2.748   4.051  10.762 -0.0254 -0.8207 -0.7363
 1193SOL    HW115041   2.792   4.031  10.679  0.0229 -2.1213 -0.3933
 1193SOL    HW215042   2.658   4.057  10.728 -0.1198  0.5257 -0.2816
 1194SOL     OW15043   2.309   0.218   8.464 -0.0971 -0.5508 -0.0596
 1194SOL    HW115044   2.359   0.230   8.545 -0.6867 -0.1964  0.2511
 1194SOL    HW215045   2.225   0.186   8.496  0.3816 -1.4366  0.3084
 1195SOL     OW15046   3.631   3.108   3.329 -0.2178 -0.0740  0.2842
 1195SOL    HW115047   3.554   3.082   3.379  1.3796 -0.2533  2.6934
 1195SOL    HW215048   3.620   3.201   3.309  0.1814 -0.2521 -0.7747
 1196SOL     OW15049   4.230   3.868  16.283 -0.3592 -0.4115  0.2894
 1196SOL    HW115050   4.325   3.881  16.288 -0.5811  1.4115 -0.1989
 1196SOL    HW215051   4.207   3.950  16.240  0.6787 -0.0641  0.3954
 1197SOL     OW15052   3.168   0.618   0.839 -0.0309 -0.5014  0.4778
 1197SOL    HW115053   3.169   0.599   0.933  0.0535  0.1638  0.6074
 1197SOL    HW215054   3.131   0.706   0.831 -0.1831 -0.3340  3.1834
 1198SOL     OW15055   2.296   3.419   8.555  0.1046 -0.3716  0.9286
 1198SOL    HW115056   2.362   3.424   8.485 -0.1283 -0.4901  0.7021
 1198SOL    HW215057   2.255   3.333   8.546 -2.4571  0.9428  0.2902
 1199SOL     OW15058   1.226   1.556  10.602 -0.0259 -0.1681  0.1874
 1199SOL    HW115059   1.251   1.475  10.647 -1.0457 -0.5858  0.0085
 1199SOL    HW215060   1.199   1.613  10.674 -2.4085  1.4226 -1.9602
 1200SOL     OW15061   3.111   3.255   2.247  0.0503  0.4937  0.7586
 1200SOL    HW115062   3.070   3.335   2.215 -1.2120 -1.2796 -2.1161
 1200SOL    HW215063   3.069   3.198   2.182  2.4901  1.9974 -2.1875
 1201SOL     OW15064   2.724   1.069   4.608  0.5427  0.0479 -0.5807
 1201SOL    HW115065   2.714   0.995   4.548  1.4095 -0.7734  0.3066
 1201SOL    HW215066   2.736   1.150   4.557  2.9692  0.9267  1.4156
 1202SOL     OW15067   1.190   3.066   2.554  0.1275 -0.2608 -0.2769
 1202SOL    HW115068   1.219   3.084   2.643  1.3511 -0.4082 -0.6507
 1202SOL    HW215069   1.116   3.005   2.554  1.7432 -2.2121  0.9292
 1203SOL     OW15070   3.769   3.033   6.883 -0.6254  0.7620 -0.3067
 1203SOL    HW115071   3.807   3.005   6.800 -0.6559 -1.5331  0.4632
 1203SOL    HW215072   3.836   2.997   6.941 -2.2791  1.8506  2.2583
 1204SOL     OW15073   2.956   3.165   3.330 -0.0491 -0.3261  0.1870
 1204SOL    HW115074   2.906   3.236   3.290  0.2717 -1.0010 -1.4135
 1204SOL    HW215075   2.887   3.106   3.359  0.7491 -2.5363 -2.3815
 1205SOL     OW15076   1.062   4.482   2.404  0.4499 -0.8403  0.9131
 1205SOL    HW115077   1.142   4.469   2.353  0.7188  1.1199  0.8337
 1205SOL    HW215078   1.015   4.421   2.348 -1.2762  0.9969  0.3647
 1206SOL     OW15079   0.677   1.344  15.431  0.6852  0.6301 -0.0916
 1206SOL    HW115080   0.695   1.433  15.462  1.0207  0.8353 -0.8780
 1206SOL    HW215081   0.587   1.330  15.461 -0.3684  2.2646 -2.4991
 1207SOL     OW15082   0.834   1.234   3.627  0.4907  0.4902 -0.8618
 1207SOL    HW115083   0.884   1.294   3.572 -2.0910  2.2338 -1.3418
 1207SOL    HW215084   0.902   1.171   3.650 -1.0357 -1.2692 -1.2174
 1208SOL     OW15085   4.052   0.556  17.049 -0.2112  0.4145 -0.7833
 1208SOL    HW115086   3.975   0.540  16.994  0.0810 -2.2880 -0.4021
 1208SOL    HW215087   4.011   0.523  17.129  1.4202  3.0785  1.1557
 1209SOL     OW15088   2.448   2.230   4.355 -0.3687  0.1255 -0.3450
 1209SOL    HW115089   2.361   2.247   4.390 -0.7669 -0.9062 -0.8051
 1209SOL    HW215090   2.484   2.313   4.325 -1.2566  1.0604  1.2092
 1210SOL     OW15091   4.524   4.234   0.761 -0.3387 -0.2724 -0.3040
 1210SOL    HW115092   4.431   4.230   0.785 -0.0279  0.8096  1.0872
 1210SOL    HW215093   4.548   4.322   0.790  1.1553 -0.8484  0.2179
 1211SOL     OW15094   0.802   2.263   5.349 -0.2152  0.5491 -0.1831
 1211SOL    HW115095   0.838   2.274   5.261 -1.1869  0.8399 -0.5336
 1211SOL    HW215096   0.738   2.333   5.363 -0.9219 -0.4750  1.7047
 1212SOL     OW15097   3.148   4.642   0.047 -0.0311 -0.2522 -0.1893
 1212SOL    HW115098   3.164   0.012   0.071  0.3356 -0.2193 -0.5745
 1212SOL    HW215099   3.157   4.590   0.127  1.2938  0.8487  0.3761
 1213SOL     OW15100   1.227   2.910  13.298 -0.1425  0.5201  0.5170
 1213SOL    HW115101   1.134   2.911  13.322  0.3603  0.4879  2.4502
 1213SOL    HW215102   1.225   2.985  13.238  1.6483  0.4592  0.3688
 1214SOL     OW15103   2.837   0.864  14.559 -0.3489  0.4123 -0.0197
 1214SOL    HW115104   2.838   0.905  14.472  1.8411 -0.3491 -0.3394
 1214SOL    HW215105   2.895   0.920  14.611 -0.8787 -0.0182  1.0346
 1215SOL     OW15106   0.551   0.802   3.106 -0.4518  0.0557 -0.4069
 1215SOL    HW115107   0.591   0.838   3.185  1.0940 -0.1738 -1.0844
 1215SOL    HW215108   0.497   0.732   3.143 -1.2595 -0.6412 -2.9143
 1216SOL     OW15109   0.821   1.079  12.565  0.3503 -0.2196 -0.5095
 1216SOL    HW115110   0.771   1.042  12.493  0.4615 -0.6188 -0.3862
 1216SOL    HW215111   0.877   1.144  12.523  2.0555 -1.6755 -0.5120
 1217SOL     OW15112   1.345   4.198  16.335 -0.2768 -0.0362 -0.1868
 1217SOL    HW115113   1.409   4.129  16.320 -0.6361 -0.8971  2.2132
 1217SOL    HW215114   1.296   4.157  16.406  0.1400  1.4929  0.9979
 1218SOL     OW15115   0.539   0.035   8.408 -0.2456 -0.0518  0.9682
 1218SOL    HW115116   0.533   0.032   8.313 -1.1799  1.2848  0.9795
 1218SOL    HW215117   0.450   0.068   8.425 -0.6075 -0.3036 -0.4075
 1219SOL     OW15118   1.221   3.688   8.852 -0.7225 -0.0901  0.5005
 1219SOL    HW115119   1.183   3.671   8.938 -0.1239 -0.9695  0.6004
 1219SOL    HW215120   1.152   3.657   8.793 -0.3950  0.5097 -0.2020
 1220SOL     OW15121   3.444   3.895   2.320 -0.2693 -0.2390 -0.5729
 1220SOL    HW115122   3.521   3.918   2.372 -0.0242 -0.4292 -0.8530
 1220SOL    HW215123   3.478   3.813   2.283  2.4029  0.0762  1.1807
 1221SOL     OW15124   2.793   4.267   5.324 -0.7374 -0.4048 -0.2639
 1221SOL    HW115125   2.717   4.309   5.363  0.8927  0.3870  2.0494
 1221SOL    HW215126   2.758   4.188   5.283 -1.0605 -0.9801  1.1047
 1222SOL     OW15127   0.390   2.296   0.898  0.5504 -0.1605  0.0119
 1222SOL    HW115128   0.366   2.367   0.958 -1.0396  0.3464 -1.2261
 1222SOL    HW215129   0.317   2.234   0.899  0.8628 -0.5282 -1.1126
 1223SOL     OW15130   3.867   2.465  13.633 -0.1281  0.4437  0.0080
 1223SOL    HW115131   3.918   2.532  13.588  0.4351  1.9403  2.8512
 1223SOL    HW215132   3.780   2.484  13.598 -1.4669 -1.1194  2.4863
 1224SOL     OW15133   4.211   2.878   8.330 -0.3171 -0.1377 -0.4251
 1224SOL    HW115134   4.268   2.939   8.377  0.5123  1.3551 -3.4204
 1224SOL    HW215135   4.284   2.825   8.299  2.4760  1.5717  3.1705
 1225SOL     OW15136   3.129   3.894   6.643  0.3510  0.0715 -0.7023
 1225SOL    HW115137   3.132   3.845   6.725  0.0538  2.2719  0.6377
 1225SOL    HW215138   3.101   3.982   6.668 -1.1103 -0.6487  0.1937
 1226SOL     OW15139   1.198   1.556   5.304  0.3730  0.3814  0.4149
 1226SOL    HW115140   1.135   1.602   5.249 -0.7784 -1.9956 -0.2422
 1226SOL    HW215141   1.201   1.468   5.267  0.3012  0.1229  1.0219
 1227SOL     OW15142   0.986   1.735   3.017 -0.3926 -0.2796 -0.4091
 1227SOL    HW115143   0.977   1.674   2.943 -0.4813 -0.9386  0.1441
 1227SOL    HW215144   0.896   1.745   3.047  0.5930  2.4543  1.6401
 1228SOL     OW15145   3.148   1.255   3.209  0.1706  0.3799 -0.0164
 1228SOL    HW115146   3.060   1.219   3.214  0.9373 -1.3626  1.0164
 1228SOL    HW215147   3.200   1.216   3.279  0.6279 -0.3242 -0.7477
 1229SOL     OW15148   1.593   1.145   5.224 -0.1316 -0.5468 -0.0237
 1229SOL    HW115149   1.517   1.108   5.180  0.8251 -0.9972 -1.2856
 1229SOL    HW215150   1.597   1.217   5.161  0.5977  2.9283  3.9724
 1230SOL     OW15151   4.470   2.787   6.605 -0.3452 -0.0205  0.4099
 1230SOL    HW115152   4.385   2.831   6.602 -0.9093 -1.2598 -1.2967
 1230SOL    HW215153   4.488   2.769   6.697 -0.5961  2.2166  0.8936
 1231SOL     OW15154   1.061   2.905   6.876 -0.2159  0.2544 -0.0795
 1231SOL    HW115155   1.141   2.866   6.839  0.5309  0.7584  1.0209
 1231SOL    HW215156   1.009   2.827   6.856  1.9246 -0.7039 -1.9854
 1232SOL     OW15157   1.636   4.285  15.191 -0.0919  0.1954  0.0807
 1232SOL    HW115158   1.606   4.216  15.250 -1.3681  0.9105  0.2661
 1232SOL    HW215159   1.623   4.244  15.106  1.4998 -1.8542  0.8257
 1233SOL     OW15160   3.328   3.704  11.139 -0.4382 -0.4963  0.5122
 1233SOL    HW115161   3.350   3.616  11.169 -0.0252 -0.9365 -1.0892
 1233SOL    HW215162   3.407   3.754  11.119 -0.2281 -1.4589 -1.0552
 1234SOL     OW15163   0.298   4.151   4.395 -0.1523  0.5079 -0.0948
 1234SOL    HW115164   0.255   4.201   4.465 -0.2412 -1.6482  1.3915
 1234SOL    HW215165   0.387   4.127   4.422  0.0537 -0.9639 -2.1169
 1235SOL     OW15166   0.131   1.993  13.906  0.5681  0.4274  0.2182
 1235SOL    HW115167   0.052   1.971  13.856 -0.5094  0.9145  1.7312
 1235SOL    HW215168   0.093   2.049  13.973  3.0723  2.8852 -0.4449
 1236SOL     OW15169   0.532   3.528   4.553 -0.0824  0.7967 -0.5608
 1236SOL    HW115170   0.593   3.557   4.485 -0.3656  2.0246 -0.2775
 1236SOL    HW215171   0.525   3.433   4.539 -2.8513  0.5744  2.2756
 1237SOL     OW15172   4.684   2.966   7.145 -0.1247 -0.6060 -0.3728
 1237SOL    HW115173   0.037   2.980   7.085  0.4809  2.3731  1.0810
 1237SOL    HW215174   4.720   3.013   7.220  0.8024 -0.1725 -1.0806
 1238SOL     OW15175   0.081   3.510   8.323 -0.0675  0.1294 -0.5236
 1238SOL    HW115176   0.119   3.466   8.399 -1.4395  3.5555  2.1565
 1238SOL    HW215177   0.055   3.436   8.269 -3.1884  1.5388 -0.9547
 1239SOL     OW15178   2.164   1.934   2.124 -0.4924  0.2575  0.3382
 1239SOL    HW115179   2.229   2.002   2.139 -2.1550  1.1178  3.6978
 1239SOL    HW215180   2.196   1.858   2.172  0.0024  0.9339  1.0621
 1240SOL     OW15181   0.428   0.422   7.908 -0.0336  0.0831  0.2880
 1240SOL    HW115182   0.335   0.447   7.908 -0.4670 -1.5782 -3.2977
 1240SOL    HW215183   0.432   0.394   8.000  0.1968  0.1418  0.2969
 1241SOL     OW15184   2.801   0.676   2.443  0.0817 -0.2221 -0.1075
 1241SOL    HW115185   2.745   0.690   2.366 -1.8578 -3.8883  0.6384
 1241SOL    HW215186   2.769   0.587   2.461 -1.3313  0.1228 -0.8992
 1242SOL     OW15187   0.455   2.454   0.000  0.0558  0.0477 -0.0810
 1242SOL    HW115188   0.538   2.447  17.641  0.2504 -0.5435  0.3532
 1242SOL    HW215189   0.486   2.475   0.089 -0.0702  0.5577 -0.1545
 1243SOL     OW15190   0.371   1.999   8.447 -0.6027  0.1455 -0.1052
 1243SOL    HW115191   0.283   1.965   8.466 -0.4481  0.4734  1.2309
 1243SOL    HW215192   0.368   2.073   8.508 -0.2637 -0.7244  0.9664
 1244SOL     OW15193   0.770   3.985   7.589 -0.2951  0.4543 -0.0531
 1244SOL    HW115194   0.694   3.948   7.634  0.5061  0.4595  1.2925
 1244SOL    HW215195   0.728   4.068   7.568 -0.5012  0.7869  1.6658
 1245SOL     OW15196   4.543   2.959   8.466  0.0752  0.1886  0.0191
 1245SOL    HW115197   4.508   3.044   8.438  0.3613 -0.7713 -3.2720
 1245SOL    HW215198   4.472   2.928   8.522  1.8011 -1.3291  1.3463
 1246SOL     OW15199   1.216   3.618   2.204  0.0824  0.4051 -0.0588
 1246SOL    HW115200   1.264   3.608   2.286  0.9706 -0.5406 -0.6923
 1246SOL    HW215201   1.278   3.640   2.134 -1.5360  0.7527 -1.3954
 1247SOL     OW15202   1.744   0.851   5.225  0.7354 -0.1092  0.0850
 1247SOL    HW115203   1.747   0.794   5.302 -2.4825 -0.2981  0.1023
 1247SOL    HW215204   1.781   0.934   5.257  0.4804 -0.1133  0.3950
 1248SOL     OW15205   1.393   0.115   2.101  0.2729 -0.4348 -0.1418
 1248SOL    HW115206   1.316   0.170   2.092  0.3560  0.0966  2.4892
 1248SOL    HW215207   1.460   0.183   2.104 -0.7336  0.3967  3.1177
 1249SOL     OW15208   1.345   0.303   5.613  0.0921 -0.0562 -0.1153
 1249SOL    HW115209   1.428   0.267   5.582 -0.8887 -2.2657 -0.1459
 1249SOL    HW215210   1.369   0.323   5.704  1.2112  0.1022 -0.4410
 1250SOL     OW15211   0.601   1.551  16.211 -0.5294 -0.5344 -0.6398
 1250SOL    HW115212   0.563   1.639  16.208 -0.1569 -0.2960  2.1600
 1250SOL    HW215213   0.545   1.504  16.272 -0.8783  0.3877 -0.2542
 1251SOL     OW15214   4.467   4.231   8.655  0.0715 -0.5154  0.0705
 1251SOL    HW115215   4.539   4.217   8.593  1.3983  1.3463  1.1969
 1251SOL    HW215216   4.487   4.174   8.729  0.9041 -2.2577 -1.5005
 1252SOL     OW15217   1.670   4.250  17.052  0.0686 -0.1986 -0.1268
 1252SOL    HW115218   1.631   4.172  17.012  0.0260  0.0916 -0.6474
 1252SOL    HW215219   1.724   4.277  16.978 -1.3203  1.3020 -0.5920
 1253SOL     OW15220   0.656   4.543   7.328  0.0555  0.0638 -0.0157
 1253SOL    HW115221   0.611   4.464   7.300  0.0815 -0.5634  1.7167
 1253SOL    HW215222   0.720   4.502   7.386 -0.0831 -0.5685 -0.3133
 1254SOL     OW15223   0.622   2.102   3.654  0.0668  0.1722  0.0054
 1254SOL    HW115224   0.668   2.128   3.733 -2.3691  4.5112  0.0428
 1254SOL    HW215225   0.581   2.183   3.623 -1.1115  0.3304  1.9922
 1255SOL     OW15226   2.963   1.750   7.120  0.2387 -0.2637  0.1095
 1255SOL    HW115227   2.875   1.719   7.101  0.4619 -0.0395 -1.2652
 1255SOL    HW215228   3.019   1.694   7.068  0.1403  0.2197 -0.5205
 1256SOL     OW15229   1.264   4.355   3.996  0.1088  0.5215  0.2655
 1256SOL    HW115230   1.289   4.263   3.992 -2.5199 -0.2890  2.2239
 1256SOL    HW215231   1.191   4.354   4.059 -1.4617  0.5770 -1.5515
 1257SOL     OW15232   4.599   2.071   3.121 -0.0459 -0.0713 -0.2372
 1257SOL    HW115233   4.630   2.136   3.058  3.7678 -2.4698 -0.8380
 1257SOL    HW215234   4.512   2.051   3.088 -0.1813  0.3888 -0.1565
 1258SOL     OW15235   0.706   3.240   9.155  0.4230  0.8948  0.8300
 1258SOL    HW115236   0.800   3.221   9.162  0.1403 -0.2171  1.6332
 1258SOL    HW215237   0.705   3.333   9.136 -0.6627  0.8030  0.4667
 1259SOL     OW15238   0.424   3.732  16.921 -0.1824  0.4269  0.0029
 1259SOL    HW115239   0.445   3.652  16.969 -2.8435 -0.4047 -0.2243
 1259SOL    HW215240   0.331   3.728  16.899 -0.2328  0.8821  0.1463
 1260SOL     OW15241   4.230   2.820  11.388 -0.9478 -1.0911  0.4293
 1260SOL    HW115242   4.208   2.788  11.476 -4.2110 -0.9000 -0.3135
 1260SOL    HW215243   4.155   2.784  11.340 -1.7166  0.8617  0.2057
 1261SOL     OW15244   0.971   3.346  12.739  0.1083 -0.1057  0.3367
 1261SOL    HW115245   0.978   3.438  12.766 -0.8146 -0.0785  0.4721
 1261SOL    HW215246   0.954   3.308  12.826 -2.0232 -2.7573 -1.2474
 1262SOL     OW15247   3.572   3.318  15.203  0.2567  1.1054 -0.5184
 1262SOL    HW115248   3.499   3.367  15.239 -0.0261  1.3910 -1.4750
 1262SOL    HW215249   3.613   3.379  15.142  1.0139  0.1411 -0.9731
 1263SOL     OW15250   0.667   3.208   6.794 -0.2144 -0.0642 -0.4394
 1263SOL    HW115251   0.607   3.207   6.869  1.3972  1.7171  0.8784
 1263SOL    HW215252   0.643   3.291   6.752 -2.1045  0.0375  0.8448
 1264SOL     OW15253   0.117   3.539   5.339  0.1822 -0.0513  0.2783
 1264SOL    HW115254   0.025   3.552   5.362  0.1080 -0.6393  0.3180
 1264SOL    HW215255   0.118   3.599   5.265  0.5934 -0.2189  0.1536
 1265SOL     OW15256   3.604   2.589   7.246 -0.0449  0.2488 -0.1609
 1265SOL    HW115257   3.560   2.658   7.197 -0.6773 -0.7536 -0.9824
 1265SOL    HW215258   3.570   2.609   7.333  0.6837  0.9860 -0.0423
 1266SOL     OW15259   1.918   0.770  14.219  0.6060 -0.6363  0.3323
 1266SOL    HW115260   1.889   0.720  14.295  0.7766 -0.3923  0.5588
 1266SOL    HW215261   1.846   0.833  14.214  1.7384  0.6840  0.7200
 1267SOL     OW15262   4.348   3.987   3.594  0.3802 -0.2775 -0.3542
 1267SOL    HW115263   4.270   3.941   3.563  1.3194 -2.4551  0.5221
 1267SOL    HW215264   4.354   4.072   3.549  1.5192 -0.5010 -0.6294
 1268SOL     OW15265   3.961   1.614   2.362  0.0420  0.8526 -0.0765
 1268SOL    HW115266   3.950   1.666   2.283  0.5589  0.2588 -0.5369
 1268SOL    HW215267   3.997   1.531   2.331 -2.5652 -1.0312  1.9534
 1269SOL     OW15268   3.122   0.551   6.670  0.8558  0.0785 -0.1876
 1269SOL    HW115269   3.134   0.627   6.614 -0.2751  0.3551 -0.0400
 1269SOL    HW215270   3.088   0.495   6.601  4.2337 -1.1094 -0.9264
 1270SOL     OW15271   0.340   2.698   5.379  0.6998  0.3929 -0.8047
 1270SOL    HW115272   0.371   2.646   5.453 -0.9843  1.9790  1.0172
 1270SOL    HW215273   0.292   2.767   5.425  0.6672 -0.9189  1.0955
 1271SOL     OW15274   4.644   3.203   3.328 -0.1957 -0.6483  0.4611
 1271SOL    HW115275   4.717   3.238   3.277 -0.3394  0.6902  1.1833
 1271SOL    HW215276   4.657   3.254   3.408  0.6234 -1.2915  0.7518
 1272SOL     OW15277   0.352   3.287  11.693  0.3240  0.1324 -0.4576
 1272SOL    HW115278   0.338   3.376  11.661 -4.2031 -0.4959 -0.2386
 1272SOL    HW215279   0.382   3.291  11.784  1.3351  0.9119 -0.8253
 1273SOL     OW15280   2.241   0.514  16.616  0.0806 -0.1711 -1.0558
 1273SOL    HW115281   2.268   0.463  16.692  0.1835  0.7726 -0.4659
 1273SOL    HW215282   2.210   0.592  16.661  0.4203  1.0100 -2.8844
 1274SOL     OW15283   0.645   2.614   2.341 -1.1340  0.3681 -0.2531
 1274SOL    HW115284   0.623   2.544   2.402  2.9655  1.0183  2.0004
 1274SOL    HW215285   0.586   2.685   2.365  0.2347  1.1540  0.7856
 1275SOL     OW15286   0.336   1.720  16.446  0.4965 -0.4204 -0.3541
 1275SOL    HW115287   0.253   1.736  16.400 -0.3553  0.7826  1.6262
 1275SOL    HW215288   0.328   1.642  16.500  1.0764  0.7159  1.3828
 1276SOL     OW15289   2.995   0.831   0.838  0.1832 -0.2707  0.1771
 1276SOL    HW115290   2.910   0.840   0.882  0.7026 -1.8225  1.4730
 1276SOL    HW215291   3.009   0.918   0.802  1.4490  0.0291  1.4315
 1277SOL     OW15292   4.227   2.784   5.001 -0.7015 -0.6373 -0.7665
 1277SOL    HW115293   4.290   2.714   5.016  1.3114  1.6996  1.6521
 1277SOL    HW215294   4.145   2.736   5.013 -2.4180  2.9708  1.9938
 1278SOL     OW15295   1.630   2.631   0.956  0.8223  0.4535  0.2316
 1278SOL    HW115296   1.537   2.625   0.980  0.7336 -0.4017 -0.3061
 1278SOL    HW215297   1.634   2.635   0.861  0.5709 -0.7196  0.1706
 1279SOL     OW15298   2.264   0.086   5.057  0.7187  1.1195 -0.6046
 1279SOL    HW115299   2.223   0.163   5.018  0.5395  1.1878 -0.2765
 1279SOL    HW215300   2.217   0.097   5.140  0.5543 -2.0999 -0.2412
 1280SOL     OW15301   4.075   2.343   7.922  0.2907 -0.2168  0.4458
 1280SOL    HW115302   3.985   2.373   7.937  0.0568 -0.1579 -1.0026
 1280SOL    HW215303   4.127   2.422   7.910 -1.2054  1.0803  2.4296
 1281SOL     OW15304   3.032   2.476  16.705 -0.2054 -0.0803  0.1330
 1281SOL    HW115305   3.011   2.420  16.780 -0.5381  0.9560  0.8063
 1281SOL    HW215306   2.980   2.426  16.642  0.2104 -0.4031  0.0448
 1282SOL     OW15307   2.223   3.152  13.565 -0.0560 -0.0508  0.6635
 1282SOL    HW115308   2.161   3.177  13.497  0.1072  1.9807  1.2782
 1282SOL    HW215309   2.181   3.076  13.607 -1.6415  0.2611 -0.3687
 1283SOL     OW15310   3.816   3.607   2.919  0.2667  1.1241  0.2797
 1283SOL    HW115311   3.886   3.636   2.978  0.3372 -1.4151  1.4840
 1283SOL    HW215312   3.871   3.570   2.850  1.0723 -2.0146  2.5388
 1284SOL     OW15313   3.544   0.172  11.081 -0.4430 -0.0490  0.4780
 1284SOL    HW115314   3.575   0.205  11.165 -0.2196 -1.9489  1.1352
 1284SOL    HW215315   3.456   0.178  11.117 -1.5235  0.4014 -2.2015
 1285SOL     OW15316   2.268   2.219   2.642 -0.4434  0.3346  0.5571
 1285SOL    HW115317   2.213   2.152   2.602  1.0791 -0.8031  0.3603
 1285SOL    HW215318   2.219   2.300   2.629 -0.3542  0.4111  0.6908
 1286SOL     OW15319   3.159   1.759   7.437 -0.4749 -0.2732  0.5296
 1286SOL    HW115320   3.149   1.781   7.344 -0.9686 -0.6215  0.4988
 1286SOL    HW215321   3.219   1.831   7.454 -1.7729  0.4904  1.8289
 1287SOL     OW15322   0.336   1.264   4.932 -0.2815  0.3086 -0.0461
 1287SOL    HW115323   0.290   1.183   4.909  1.0180 -0.7377  1.0327
 1287SOL    HW215324   0.288   1.298   5.008 -0.7887  0.7895 -0.5912
 1288SOL     OW15325   3.821   1.867   8.479  0.1944  0.0896  0.2303
 1288SOL    HW115326   3.915   1.877   8.491 -0.0025  0.3069  1.5977
 1288SOL    HW215327   3.812   1.784   8.432 -0.4243  0.9383 -1.1350
 1289SOL     OW15328   3.672   3.126  16.806 -0.1957 -0.3868  0.4552
 1289SOL    HW115329   3.688   3.159  16.894 -2.4630 -0.2908  0.8399
 1289SOL    HW215330   3.608   3.056  16.818 -1.6302  1.2163  2.0475
 1290SOL     OW15331   0.158   4.134   5.398  0.8768  0.1273  0.8356
 1290SOL    HW115332   0.206   4.051   5.405  0.1578 -0.3435  0.0740
 1290SOL    HW215333   0.228   4.198   5.412  0.0575  1.3519 -0.7685
 1291SOL     OW15334   0.677   0.122  14.429 -0.1201 -0.0124  0.8195
 1291SOL    HW115335   0.639   0.204  14.397 -0.9136 -0.7273 -0.0427
 1291SOL    HW215336   0.610   0.083  14.484  1.3722 -0.8529  2.0534
 1292SOL     OW15337   3.576   1.231  13.515  0.0111  0.0212 -0.9764
 1292SOL    HW115338   3.615   1.157  13.562  0.7678  1.3944  0.5675
 1292SOL    HW215339   3.495   1.251  13.562 -1.3026 -0.9489 -2.8350
 1293SOL     OW15340   4.058   2.005   3.655  0.0087  0.3060 -0.3479
 1293SOL    HW115341   4.044   1.998   3.561  1.4730  0.0465 -0.5375
 1293SOL    HW215342   3.965   2.018   3.677  0.3227  1.7713  0.1371
 1294SOL     OW15343   4.116   2.149   6.652  0.6746 -0.5093 -0.2934
 1294SOL    HW115344   4.180   2.220   6.643 -0.7870  1.2030  3.0554
 1294SOL    HW215345   4.151   2.111   6.733 -1.3709 -1.5803  0.0737
 1295SOL     OW15346   2.984   0.860  10.686 -0.3100  0.7188 -0.5056
 1295SOL    HW115347   2.994   0.765  10.680 -1.0328  0.8251 -3.3344
 1295SOL    HW215348   3.028   0.894  10.608  2.5147  1.6065  1.4291
 1296SOL     OW15349   2.352   1.704   3.593  0.1188 -0.6809 -0.0621
 1296SOL    HW115350   2.381   1.630   3.541  0.3670  0.5294 -1.6540
 1296SOL    HW215351   2.398   1.783   3.566 -0.6872 -0.8727 -1.9748
 1297SOL     OW15352   4.148   4.398   1.401  0.0916 -0.1450 -0.2095
 1297SOL    HW115353   4.099   4.368   1.324 -0.7477 -0.9081  0.6245
 1297SOL    HW215354   4.194   4.470   1.358 -0.0713  2.1563  3.4749
 1298SOL     OW15355   3.726   1.391   9.461  0.4764 -0.3160 -0.0727
 1298SOL    HW115356   3.717   1.479   9.425 -1.3862 -0.1850  0.6855
 1298SOL    HW215357   3.809   1.399   9.508  0.3355 -2.4301  0.5461
 1299SOL     OW15358   0.727   2.868   8.087  0.1650  0.0118  0.0382
 1299SOL    HW115359   0.809   2.877   8.038  1.2301 -2.1094  1.4346
 1299SOL    HW215360   0.746   2.927   8.160 -1.3633 -1.9044  1.9760
 1300SOL     OW15361   3.282   2.156  16.885  0.6441 -0.4329 -0.0076
 1300SOL    HW115362   3.304   2.063  16.890  4.3688  0.5404  2.2046
 1300SOL    HW215363   3.260   2.170  16.793 -0.0129 -0.1097  0.2003
 1301SOL     OW15364   2.756   0.154   4.553  0.4424  0.2410 -0.9093
 1301SOL    HW115365   2.791   0.167   4.641  1.0734  1.9029 -1.4132
 1301SOL    HW215366   2.677   0.106   4.578  0.6212  1.1117  1.2716
 1302SOL     OW15367   3.704   0.933   0.792 -0.2619 -0.5732 -0.5211
 1302SOL    HW115368   3.689   0.979   0.710  2.2265  0.7490 -0.2186
 1302SOL    HW215369   3.618   0.892   0.800 -0.0295 -0.9747 -0.0702
 1303SOL     OW15370   0.539   3.305  16.609  0.1304  0.7295  0.2894
 1303SOL    HW115371   0.612   3.335  16.555  1.7647 -0.8099  1.6361
 1303SOL    HW215372   0.527   3.219  16.571  2.4118  0.8451 -0.7390
 1304SOL     OW15373   4.702   0.995  14.799 -0.0663 -0.2946 -0.1819
 1304SOL    HW115374   4.647   0.920  14.778  0.9076 -0.9833 -0.3075
 1304SOL    HW215375   4.677   1.008  14.891  1.6692  0.6944  0.1560
 1305SOL     OW15376   0.307   4.710  16.498 -0.4485  0.5651 -0.2540
 1305SOL    HW115377   0.332   0.042  16.422  0.6776  1.4738  0.7570
 1305SOL    HW215378   0.379   4.720  16.559 -0.1590  2.3516 -0.8851
 1306SOL     OW15379   0.960   4.170  13.535 -0.3042  0.2326  0.1632
 1306SOL    HW115380   0.885   4.141  13.483 -1.4329  0.3924  1.6906
 1306SOL    HW215381   0.935   4.132  13.619 -2.2840  0.4759 -0.3109
 1307SOL     OW15382   0.758   4.632   8.167  0.8311  0.5531  0.2003
 1307SOL    HW115383   0.822   4.574   8.125  1.0372 -0.2794  1.6497
 1307SOL    HW215384   0.823   4.678   8.221  1.0257  1.6690 -0.9837
 1308SOL     OW15385   3.773   2.313   4.107 -0.0722 -0.3675  0.4308
 1308SOL    HW115386   3.695   2.314   4.162 -0.4412 -0.7619 -0.0753
 1308SOL    HW215387   3.728   2.312   4.022  1.3841 -1.3015 -0.3443
 1309SOL     OW15388   2.132   0.168   1.631  0.3703 -0.4820  0.9137
 1309SOL    HW115389   2.107   0.101   1.694  1.6292 -0.0139  1.9196
 1309SOL    HW215390   2.052   0.220   1.631  0.1627 -0.8020  0.8570
 1310SOL     OW15391   0.933   2.957   2.606  0.3203 -0.0539  0.0215
 1310SOL    HW115392   0.932   2.889   2.538  1.7965 -1.1566  1.1009
 1310SOL    HW215393   0.846   2.994   2.623  0.1400 -1.0495  1.2463
 1311SOL     OW15394   3.356   2.036  16.244 -0.4656 -0.1188  0.5369
 1311SOL    HW115395   3.387   1.965  16.188  0.7086 -1.5623  3.0034
 1311SOL    HW215396   3.276   2.064  16.201 -0.4777 -0.6932  0.1792
 1312SOL     OW15397   3.150   3.014   3.518 -0.0124 -0.1709  0.1114
 1312SOL    HW115398   3.169   3.067   3.596 -1.1980 -0.1180  0.3632
 1312SOL    HW215399   3.106   3.069   3.454 -1.3800 -2.6357 -1.0698
 1313SOL     OW15400   3.051   4.199   5.018  0.0760  0.2788  0.4286
 1313SOL    HW115401   2.996   4.276   5.030  0.0779  0.6181 -1.6952
 1313SOL    HW215402   2.995   4.139   4.969  0.7584  1.3666 -1.7098
 1314SOL     OW15403   0.418   0.015   6.676 -0.4739  0.2624  0.4284
 1314SOL    HW115404   0.378   0.101   6.671 -0.1881  0.3690 -0.0379
 1314SOL    HW215405   0.509   0.045   6.673 -0.0680 -1.3380 -3.6247
 1315SOL     OW15406   4.294   0.357  16.857 -0.2109 -0.0555  0.2213
 1315SOL    HW115407   4.251   0.272  16.868 -1.3540  0.8844  3.1013
 1315SOL    HW215408   4.382   0.327  16.833 -0.4862 -0.0546 -0.7761
 1316SOL     OW15409   3.372   3.891   6.151 -0.1952 -0.0709  0.1414
 1316SOL    HW115410   3.433   3.899   6.077  0.6876  1.1777  1.0040
 1316SOL    HW215411   3.332   3.809   6.121  0.0885  0.0063 -0.4500
 1317SOL     OW15412   0.165   4.560   8.418 -0.1021 -0.2113 -0.1438
 1317SOL    HW115413   0.214   4.508   8.354 -0.2017 -3.2637  2.2298
 1317SOL    HW215414   0.115   4.628   8.373 -1.6579 -2.6136 -2.0484
 1318SOL     OW15415   0.077   4.103   4.218 -0.0147  0.5018 -0.4100
 1318SOL    HW115416   0.083   4.011   4.245  1.7740  0.5926 -0.4879
 1318SOL    HW215417   0.158   4.147   4.245  0.6338 -0.5510 -0.6266
 1319SOL     OW15418   3.670   0.713   6.500  0.2020 -0.1424  0.2924
 1319SOL    HW115419   3.699   0.625   6.522 -1.3439 -0.6455  0.3007
 1319SOL    HW215420   3.750   0.761   6.523  1.0818 -2.0768  1.2575
 1320SOL     OW15421   1.566   0.740  10.961  0.3449 -0.6163 -0.2995
 1320SOL    HW115422   1.529   0.742  10.873 -0.1784 -0.9783 -0.0858
 1320SOL    HW215423   1.587   0.648  10.980  3.1523  0.4071  1.4777
 1321SOL     OW15424   2.351   2.227   9.659 -0.1718  0.2815 -0.3527
 1321SOL    HW115425   2.432   2.241   9.708  0.5779 -2.8736 -0.6653
 1321SOL    HW215426   2.282   2.261   9.715  0.5236  1.1030  0.0154
 1322SOL     OW15427   2.402   2.569   1.671  0.8227  0.0833 -0.2807
 1322SOL    HW115428   2.491   2.603   1.662 -0.1577  3.1025  1.7371
 1322SOL    HW215429   2.416   2.491   1.616  2.9472  0.6908 -0.6301
 1323SOL     OW15430   4.279   1.325   3.321 -0.0826  0.1017 -0.0531
 1323SOL    HW115431   4.351   1.304   3.261 -0.6237 -2.5319  0.2194
 1323SOL    HW215432   4.335   1.355   3.393 -1.1768  2.1133 -0.0343
 1324SOL     OW15433   2.239   0.315   6.420 -0.0246  0.2228  0.6172
 1324SOL    HW115434   2.267   0.404   6.439 -1.8552  0.7154  1.0524
 1324SOL    HW215435   2.153   0.333   6.383 -0.2103  2.0019  1.9291
 1325SOL     OW15436   4.395   0.365   9.947 -0.0567 -0.6140 -0.0141
 1325SOL    HW115437   4.442   0.391  10.026 -0.6321 -1.2760  0.5463
 1325SOL    HW215438   4.356   0.286   9.983 -2.2953  0.6620  0.3140
 1326SOL     OW15439   0.581   4.595  17.159  0.1899 -0.0998  0.1478
 1326SOL    HW115440   0.633   4.675  17.161 -0.8160  0.5875 -1.0412
 1326SOL    HW215441   0.592   4.550  17.075 -1.5454 -0.0246 -0.1201
 1327SOL     OW15442   4.599   1.658   0.185 -0.1133  0.2818  0.5651
 1327SOL    HW115443   4.647   1.711   0.248  0.6841  0.4324 -0.1674
 1327SOL    HW215444   4.511   1.693   0.193 -1.5293 -3.0577 -0.3470
 1328SOL     OW15445   2.650   3.111   8.940 -0.0002  0.1968 -0.3466
 1328SOL    HW115446   2.594   3.184   8.965  0.1323 -0.0902  0.8117
 1328SOL    HW215447   2.615   3.031   8.980  0.0286 -0.8471 -2.3925
 1329SOL     OW15448   2.899   0.351   8.717 -0.5907  0.0120  0.0136
 1329SOL    HW115449   2.920   0.441   8.693  1.4833 -0.3261  0.5876
 1329SOL    HW215450   2.830   0.374   8.779 -1.0484 -2.8847  0.5881
 1330SOL     OW15451   0.437   0.606   6.652 -0.1783 -0.5150  0.1058
 1330SOL    HW115452   0.393   0.526   6.620  0.7063 -1.1252  0.4164
 1330SOL    HW215453   0.527   0.580   6.634 -0.1274 -1.5311  1.8163
 1331SOL     OW15454   1.876   0.860   2.295 -0.3677  0.5282  0.3292
 1331SOL    HW115455   1.916   0.792   2.350  0.9428  1.6578  0.7518
 1331SOL    HW215456   1.796   0.874   2.347  0.4161 -1.5243  2.0751
 1332SOL     OW15457   0.379   3.130   5.880  1.0035 -0.0284 -0.2490
 1332SOL    HW115458   0.411   3.208   5.927  1.9562 -0.2589 -0.5113
 1332SOL    HW215459   0.294   3.164   5.853  2.4237  2.3877 -1.8285
 1333SOL     OW15460   0.017   4.597   2.149  0.0325 -0.2539  0.6119
 1333SOL    HW115461   4.651   4.559   2.160  0.3150 -1.3439 -0.9262
 1333SOL    HW215462   0.048   4.559   2.067 -0.0390 -1.7718  1.2959
 1334SOL     OW15463   0.332   4.582  17.594  0.6660 -0.1054  0.2339
 1334SOL    HW115464   0.347   4.527  17.518  0.1043 -2.4346  1.8161
 1334SOL    HW215465   0.294   4.663  17.559  0.8689  0.2030  0.7340
 1335SOL     OW15466   0.237   4.108   8.537 -0.0106  0.0512 -0.1968
 1335SOL    HW115467   0.329   4.117   8.514  0.2102 -3.6989 -0.8565
 1335SOL    HW215468   0.205   4.140   8.453 -1.2043  0.5431  0.4314
 1336SOL     OW15469   4.350   4.066   3.847 -0.2892 -0.7864  0.3081
 1336SOL    HW115470   4.368   4.017   3.766 -2.3556  0.2554 -0.7750
 1336SOL    HW215471   4.258   4.089   3.834 -0.1094 -0.0822  0.2264
 1337SOL     OW15472   2.327   0.155   3.289 -0.0830  0.5306 -0.1296
 1337SOL    HW115473   2.266   0.086   3.315  0.9289  0.1445  1.2681
 1337SOL    HW215474   2.410   0.108   3.281  0.3989  1.6674 -1.7211
 1338SOL     OW15475   0.895   0.530   3.590 -0.5367  0.3088 -0.5921
 1338SOL    HW115476   0.852   0.495   3.512 -0.2660 -0.6237 -0.3178
 1338SOL    HW215477   0.973   0.475   3.591 -0.0348  1.0597  0.7578
 1339SOL     OW15478   2.751   2.987   8.715 -0.5444  0.2526  0.0037
 1339SOL    HW115479   2.693   3.049   8.670 -1.1968 -1.2455 -1.1858
 1339SOL    HW215480   2.745   3.033   8.799  1.2289  1.0446 -0.2789
 1340SOL     OW15481   4.167   4.462   3.003  0.1374  0.1257  0.2184
 1340SOL    HW115482   4.160   4.472   3.098 -0.5339  0.4010  0.1389
 1340SOL    HW215483   4.259   4.485   2.987 -0.6543  1.6645 -2.0555
 1341SOL     OW15484   3.478   4.297  14.099  0.2395 -0.6951  0.3839
 1341SOL    HW115485   3.504   4.325  14.187 -1.9369 -0.1617  0.8511
 1341SOL    HW215486   3.496   4.203  14.106 -0.8964 -0.9217  0.1908
 1342SOL     OW15487   1.133   1.114   4.952  0.1616  0.0643 -0.0684
 1342SOL    HW115488   1.081   1.082   5.026 -2.0851  1.7583 -0.9270
 1342SOL    HW215489   1.108   1.041   4.895  0.4590 -0.5661  0.6055
 1343SOL     OW15490   0.353   4.690   3.226 -0.1700  0.2370 -0.4161
 1343SOL    HW115491   0.291   0.041   3.233 -0.8195 -0.3738  0.0536
 1343SOL    HW215492   0.435   0.019   3.226 -0.2189  0.3340 -1.5148
 1344SOL     OW15493   0.399   3.573   3.930 -0.0348  0.1916 -0.2449
 1344SOL    HW115494   0.397   3.612   4.018  2.0328 -2.1115  0.8112
 1344SOL    HW215495   0.321   3.618   3.897  0.6741 -0.3409 -2.6467
 1345SOL     OW15496   1.834   2.203   3.877  0.5909 -0.1936 -0.3068
 1345SOL    HW115497   1.914   2.248   3.850 -0.3154  2.6738  1.8182
 1345SOL    HW215498   1.778   2.279   3.891  1.0137  0.3951 -1.8399
 1346SOL     OW15499   2.199   3.173  15.980 -0.0065 -0.3422  0.2363
 1346SOL    HW115500   2.107   3.175  15.955 -0.1358 -1.7739  0.5868
 1346SOL    HW215501   2.204   3.078  15.988  0.1635 -0.3562 -0.0845
 1347SOL     OW15502   2.734   4.495   9.520 -0.4691 -0.0386  0.4039
 1347SOL    HW115503   2.804   4.560   9.510 -2.2592  1.6049 -1.2618
 1347SOL    HW215504   2.742   4.488   9.616  7.4958  0.2331 -0.2137
 1348SOL     OW15505   3.995   0.988   3.868 -0.0962  0.1392  0.5453
 1348SOL    HW115506   4.049   0.922   3.824  0.0703 -0.6944  1.9896
 1348SOL    HW215507   4.053   1.064   3.861 -0.7350  0.6774  1.0873
 1349SOL     OW15508   1.441   3.362   2.099  0.5139 -0.2111  0.1970
 1349SOL    HW115509   1.425   3.449   2.061  0.1946  0.1771  1.2287
 1349SOL    HW215510   1.486   3.391   2.178  0.4394  3.0961 -0.9789
 1350SOL     OW15511   3.152   0.409   3.188  0.3871 -0.0937 -0.8261
 1350SOL    HW115512   3.109   0.395   3.103 -0.3996 -0.6966 -0.3252
 1350SOL    HW215513   3.207   0.330   3.197  0.9401  0.4629  0.6381
 1351SOL     OW15514   0.483   3.362   6.020 -0.6682  0.4497  0.0018
 1351SOL    HW115515   0.413   3.426   6.014 -0.0510  1.1698  0.4838
 1351SOL    HW215516   0.555   3.418   5.990 -0.3316  0.5230  0.9541
 1352SOL     OW15517   0.667   0.217   2.782  0.3604 -0.1225 -0.0279
 1352SOL    HW115518   0.751   0.203   2.737 -0.4185 -1.9342 -0.9058
 1352SOL    HW215519   0.628   0.283   2.725  0.3659  1.2265  1.5216
 1353SOL     OW15520   3.104   1.803   0.995 -0.1767  0.4369  1.0159
 1353SOL    HW115521   3.143   1.717   0.980 -0.5950  0.2520  0.9766
 1353SOL    HW215522   3.022   1.785   0.948 -0.0664 -4.2095  2.6139
 1354SOL     OW15523   2.530   0.583  14.816  0.3175  0.4200 -0.2509
 1354SOL    HW115524   2.528   0.600  14.910 -0.1884  0.4261 -0.2603
 1354SOL    HW215525   2.513   0.666  14.772  1.0492  0.8886  0.3479
 1355SOL     OW15526   2.181   2.138   5.770  0.4647  0.3418 -0.0004
 1355SOL    HW115527   2.093   2.152   5.803 -0.7130 -0.0827 -2.9406
 1355SOL    HW215528   2.168   2.082   5.694  0.1189  1.6052 -0.8674
 1356SOL     OW15529   0.215   4.247  13.543  0.1155  0.5775 -0.2405
 1356SOL    HW115530   0.184   4.164  13.507  0.4270  0.4810 -0.2842
 1356SOL    HW215531   0.201   4.235  13.637  0.1379  1.4190 -0.1307
 1357SOL     OW15532   1.016   1.839   9.337 -0.2479 -0.0420 -0.0179
 1357SOL    HW115533   0.966   1.853   9.417  0.3653  0.4388  0.2868
 1357SOL    HW215534   1.079   1.779   9.376 -0.2667 -0.0533 -0.0050
 1358SOL     OW15535   2.612   4.570   8.195 -0.1123 -0.2149 -0.4564
 1358SOL    HW115536   2.642   4.589   8.107 -0.1357  0.7918 -0.2433
 1358SOL    HW215537   2.694   4.543   8.237 -0.1679  0.1170 -0.1347
 1359SOL     OW15538   4.630   0.754   9.097  0.2311  0.6050 -0.0681
 1359SOL    HW115539   4.567   0.744   9.169 -0.1406 -1.2854 -0.6554
 1359SOL    HW215540   4.688   0.682   9.123  0.7033  0.8001 -0.5950
 1360SOL     OW15541   4.040   1.473  16.651 -0.4512  0.0273  0.2948
 1360SOL    HW115542   4.128   1.487  16.616 -0.7500  0.9560 -0.0768
 1360SOL    HW215543   4.050   1.407  16.719  1.5310  0.0464  0.0054
 1361SOL     OW15544   3.309   0.115   9.096 -0.4759 -0.5318 -0.1692
 1361SOL    HW115545   3.295   0.186   9.158  0.3624 -0.9556  0.5132
 1361SOL    HW215546   3.382   0.146   9.042 -1.8205 -0.3938 -1.9378
 1362SOL     OW15547   0.486   3.418   6.915  0.0250  0.4034 -0.1516
 1362SOL    HW115548   0.406   3.460   6.884 -0.8825 -1.3704 -0.1802
 1362SOL    HW215549   0.547   3.442   6.845  0.1798  2.9825  0.8379
 1363SOL     OW15550   2.415   1.384   7.300 -0.1305 -0.8971 -0.3593
 1363SOL    HW115551   2.410   1.394   7.204 -0.5857  0.5642 -0.1832
 1363SOL    HW215552   2.484   1.446   7.323 -0.8102 -0.9156  1.6741
 1364SOL     OW15553   0.512   0.666   5.244  0.3871  0.3001 -0.3355
 1364SOL    HW115554   0.502   0.725   5.169 -1.5932 -0.3869 -0.6269
 1364SOL    HW215555   0.461   0.592   5.209  0.9331 -0.5790  0.7378
 1365SOL     OW15556   0.553   1.220   3.561 -0.1522  0.3475  0.7726
 1365SOL    HW115557   0.509   1.147   3.604  1.1985 -2.0888 -2.0281
 1365SOL    HW215558   0.645   1.203   3.583 -0.7421 -1.6624  1.6340
 1366SOL     OW15559   3.876   0.610   0.694  0.4310  0.0803 -0.2743
 1366SOL    HW115560   3.869   0.647   0.782 -0.4781  0.1996 -0.3894
 1366SOL    HW215561   3.815   0.661   0.640  2.0688  2.1320 -0.1651
 1367SOL     OW15562   1.082   1.534  15.832 -0.0453 -0.6185  0.6634
 1367SOL    HW115563   1.078   1.443  15.862  0.6157  0.1737  3.1390
 1367SOL    HW215564   1.047   1.531  15.743  1.4362  0.8364  0.0376
 1368SOL     OW15565   4.254   1.572   8.498  0.0062  0.3709  0.1011
 1368SOL    HW115566   4.347   1.550   8.495  0.1702  1.1708 -0.4376
 1368SOL    HW215567   4.239   1.509   8.568  2.2360 -1.5336 -1.1084
 1369SOL     OW15568   0.616   4.532   1.097  0.0245 -0.3266  0.2132
 1369SOL    HW115569   0.581   4.450   1.061  0.2516  0.2974 -1.4422
 1369SOL    HW215570   0.685   4.542   1.032  1.3134 -1.2366  1.4401
 1370SOL     OW15571   4.663   1.797  12.965 -0.1796  0.4968  0.6341
 1370SOL    HW115572   4.610   1.784  13.043 -0.7346  0.1570  0.2019
 1370SOL    HW215573   4.597   1.850  12.921  1.1440  0.6158 -1.2182
 1371SOL     OW15574   2.506   0.584  15.502 -0.0744  0.3275  0.2337
 1371SOL    HW115575   2.421   0.628  15.497 -0.9274 -1.4338 -0.6200
 1371SOL    HW215576   2.514   0.543  15.415  1.0675 -0.7261  0.8362
 1372SOL     OW15577   1.196   0.362  17.521 -0.2353 -0.2676 -0.4713
 1372SOL    HW115578   1.175   0.455  17.524 -1.8338 -0.6319 -0.3415
 1372SOL    HW215579   1.158   0.335  17.437 -0.1847  1.0835 -0.9223
 1373SOL     OW15580   4.357   1.671  10.330 -0.4515  0.2790  0.0152
 1373SOL    HW115581   4.378   1.758  10.365  0.1338 -0.0546  0.4954
 1373SOL    HW215582   4.261   1.672  10.330 -0.4491  0.2537 -3.3551
 1374SOL     OW15583   2.635   2.260   2.126  0.0292  0.3067  0.0829
 1374SOL    HW115584   2.679   2.179   2.101 -1.7518 -0.3651 -0.8765
 1374SOL    HW215585   2.701   2.305   2.179 -0.5216 -2.4034  3.0484
 1375SOL     OW15586   1.745   3.995   2.443 -0.3445 -0.1618  0.2169
 1375SOL    HW115587   1.768   4.028   2.530 -0.9767  1.4126 -0.2216
 1375SOL    HW215588   1.761   4.075   2.393 -0.3188  0.2471  0.8779
 1376SOL     OW15589   4.177   0.357   2.612  0.6373 -0.1056 -0.1816
 1376SOL    HW115590   4.083   0.360   2.632  1.1540  1.8411  1.8939
 1376SOL    HW215591   4.188   0.262   2.602  1.1369  0.1429 -2.0580
 1377SOL     OW15592   3.347   0.231   5.773  0.2624 -0.1662  0.1655
 1377SOL    HW115593   3.318   0.154   5.823 -0.1636  1.0564  1.7789
 1377SOL    HW215594   3.443   0.234   5.775  0.3806 -1.6311 -3.4110
 1378SOL     OW15595   1.033   0.637   4.541  0.0084  0.3328 -0.3955
 1378SOL    HW115596   1.083   0.717   4.554  1.4303 -0.4162 -1.1566
 1378SOL    HW215597   0.970   0.635   4.612 -0.7613 -0.7928 -1.1109
 1379SOL     OW15598   1.337   3.621  14.764 -0.2162 -0.5836  0.7491
 1379SOL    HW115599   1.266   3.663  14.714  1.0863  1.4281  0.6005
 1379SOL    HW215600   1.413   3.676  14.747 -1.6859  0.5414 -2.1240
 1380SOL     OW15601   1.856   0.400   5.511  0.4611  0.1927  0.5146
 1380SOL    HW115602   1.936   0.450   5.529 -0.1130  1.3925 -0.2438
 1380SOL    HW215603   1.793   0.448   5.565 -2.1862 -0.9282 -1.5513
 1381SOL     OW15604   1.185   4.691   5.816  0.2285  0.7774  0.0402
 1381SOL    HW115605   1.251   4.672   5.749  2.4748  2.8263  1.7088
 1381SOL    HW215606   1.111   4.699   5.755 -0.3103  0.5201  0.6580
 1382SOL     OW15607   2.810   3.444   8.012  0.2364 -0.3293 -0.6949
 1382SOL    HW115608   2.877   3.484   8.068 -0.0866  1.5524 -1.6345
 1382SOL    HW215609   2.739   3.509   8.016 -0.6147 -1.2875 -0.4372
 1383SOL     OW15610   1.539   0.899   7.977  0.0629  0.1156 -0.1981
 1383SOL    HW115611   1.633   0.899   7.990 -0.0886  3.0651  0.7941
 1383SOL    HW215612   1.504   0.907   8.066  0.0795 -0.3954 -0.1452
 1384SOL     OW15613   1.110   0.603   8.654 -0.1398 -0.0372 -0.1229
 1384SOL    HW115614   1.157   0.630   8.733 -0.3063 -1.6747  0.5294
 1384SOL    HW215615   1.025   0.603   8.697 -0.2719  0.8726 -0.3939
 1385SOL     OW15616   1.618   4.401   8.422  0.6217  0.2631  0.2359
 1385SOL    HW115617   1.564   4.451   8.484  0.0551  1.4552 -1.2344
 1385SOL    HW215618   1.683   4.379   8.489 -0.1872 -2.1433  0.2377
 1386SOL     OW15619   4.070   4.068   2.675 -0.0532 -0.3069 -0.1203
 1386SOL    HW115620   4.117   4.111   2.746 -2.5509  1.5746  0.3896
 1386SOL    HW215621   4.136   4.009   2.638  2.1840  1.9133  0.3208
 1387SOL     OW15622   4.409   0.314  10.253  0.6950  0.2872 -0.0264
 1387SOL    HW115623   4.339   0.285  10.312  0.2865  0.6343 -0.3385
 1387SOL    HW215624   4.482   0.294  10.311  0.3576 -0.4438  0.1521
 1388SOL     OW15625   4.503   2.195   6.909  0.4082  0.2096 -0.1288
 1388SOL    HW115626   4.592   2.165   6.929  0.2982  0.0074  0.0569
 1388SOL    HW215627   4.512   2.246   6.828  0.1105 -3.0053 -2.1763
 1389SOL     OW15628   2.029   1.818   7.986 -0.3309  0.2894  0.2384
 1389SOL    HW115629   1.990   1.736   7.955 -1.8104  1.2881 -0.5300
 1389SOL    HW215630   2.046   1.810   8.080 -0.5224  3.0503  0.4983
 1390SOL     OW15631   4.169   1.619   3.001  0.5738 -0.0558 -0.1224
 1390SOL    HW115632   4.142   1.527   3.010  2.5776 -0.3843  2.3932
 1390SOL    HW215633   4.216   1.641   3.081  0.9162  0.2469 -0.4102
 1391SOL     OW15634   3.276   4.578   2.934  0.3097 -0.0710 -0.4892
 1391SOL    HW115635   3.267   4.622   2.849  1.3193 -0.3165 -0.7249
 1391SOL    HW215636   3.183   4.584   2.957  0.6094 -1.9155  1.1548
 1392SOL     OW15637   2.319   1.362   3.472 -0.4622  0.3961  0.2782
 1392SOL    HW115638   2.367   1.397   3.396 -0.1640 -2.5509 -0.8932
 1392SOL    HW215639   2.235   1.407   3.466 -0.6820 -0.3804 -2.4456
 1393SOL     OW15640   2.897   4.113  15.264  0.5009 -0.6415 -0.3396
 1393SOL    HW115641   2.990   4.091  15.256  0.7728  0.6135 -0.6780
 1393SOL    HW215642   2.895   4.202  15.229 -0.6159 -0.4429  0.2453
 1394SOL     OW15643   4.463   0.277  15.412 -0.3661  0.3014  0.6220
 1394SOL    HW115644   4.397   0.208  15.418  0.7817 -0.7650  0.9589
 1394SOL    HW215645   4.495   0.274  15.502  1.9468  1.5818 -0.1628
 1395SOL     OW15646   2.230   2.741   8.338 -0.2622  0.5372  0.2265
 1395SOL    HW115647   2.325   2.729   8.328 -0.5061  0.0419 -1.5055
 1395SOL    HW215648   2.211   2.743   8.244 -0.2614  2.2880  0.2643
 1396SOL     OW15649   3.632   0.138  13.426 -0.4962 -0.0703  0.3353
 1396SOL    HW115650   3.538   0.158  13.423  0.0217  1.9776 -1.9893
 1396SOL    HW215651   3.663   0.220  13.466  0.1355  0.1576 -0.6315
 1397SOL     OW15652   4.583   2.234   4.751  0.7860  0.7607 -0.5071
 1397SOL    HW115653   4.671   2.199   4.743 -0.7823 -3.0566 -1.3640
 1397SOL    HW215654   4.535   2.196   4.677  0.1787  3.2668 -1.3952
 1398SOL     OW15655   4.678   4.105   7.052 -0.1939 -0.0781 -0.4024
 1398SOL    HW115656   0.051   4.120   7.050 -0.7245  2.8789 -2.8683
 1398SOL    HW215657   4.680   4.011   7.035  0.5515 -0.1636  0.1551
 1399SOL     OW15658   3.489   2.937   7.303  0.5731  0.0782 -0.1576
 1399SOL    HW115659   3.446   3.017   7.274 -0.0241  0.7979  2.6869
 1399SOL    HW215660   3.477   2.877   7.229  0.8573  0.1336 -0.2463
 1400SOL     OW15661   0.387   4.175   3.842 -0.0633 -0.6597 -0.0814
 1400SOL    HW115662   0.419   4.185   3.931  1.0561  2.2994 -0.8228
 1400SOL    HW215663   0.353   4.086   3.840  0.1077 -0.7020 -1.1404
 1401SOL     OW15664   2.631   4.428   5.604 -0.0389  0.4826  0.2276
 1401SOL    HW115665   2.681   4.351   5.631  0.6902  0.7082 -0.4795
 1401SOL    HW215666   2.693   4.490   5.565 -2.2348  0.8850 -2.5801
 1402SOL     OW15667   0.933   3.513   2.181 -0.3031 -0.3283  0.8763
 1402SOL    HW115668   1.016   3.554   2.206 -1.5861  2.6308  0.2544
 1402SOL    HW215669   0.964   3.424   2.166 -0.0598 -0.0067 -0.4865
 1403SOL     OW15670   2.164   1.151   9.046 -0.6037 -0.3674 -0.4544
 1403SOL    HW115671   2.108   1.100   8.986 -0.1866  0.5222 -1.6107
 1403SOL    HW215672   2.119   1.235   9.039 -0.2988 -0.0388  1.5970
 1404SOL     OW15673   2.710   1.632   5.966  0.4794  0.0427  0.1642
 1404SOL    HW115674   2.803   1.655   5.954  0.1824  2.0267  1.7079
 1404SOL    HW215675   2.698   1.592   5.880  1.1490 -1.4347  0.7521
 1405SOL     OW15676   3.544   0.977   5.915 -0.3974 -0.2583 -0.2628
 1405SOL    HW115677   3.629   1.015   5.937 -0.5034  0.2691 -0.7815
 1405SOL    HW215678   3.502   1.049   5.869 -0.8395  0.8648  1.9057
 1406SOL     OW15679   1.494   2.293  11.412 -0.2609  0.1491  0.0463
 1406SOL    HW115680   1.527   2.298  11.322  1.5664  0.2961  0.7287
 1406SOL    HW215681   1.574   2.267  11.456  0.4914  0.8858 -0.8817
 1407SOL     OW15682   1.494   1.591   2.728  0.2232  0.0843 -0.1803
 1407SOL    HW115683   1.499   1.579   2.634 -0.8850  0.9793 -0.3466
 1407SOL    HW215684   1.400   1.585   2.747  0.2687  0.8071  0.2541
 1408SOL     OW15685   3.656   2.412  12.684 -0.4134  0.0449 -0.0028
 1408SOL    HW115686   3.696   2.325  12.685  1.9298  1.1083 -1.2878
 1408SOL    HW215687   3.669   2.444  12.773 -0.2807  0.5716 -0.2120
 1409SOL     OW15688   0.523   3.447   5.283  0.7299  0.0420 -0.2796
 1409SOL    HW115689   0.480   3.362   5.281 -1.3056  1.0669  0.7546
 1409SOL    HW215690   0.471   3.485   5.212  0.5263 -2.7547 -1.6371
 1410SOL     OW15691   4.147   1.976   7.469  0.2893  0.9529  0.2015
 1410SOL    HW115692   4.239   1.999   7.462  0.5734 -0.1775  0.1941
 1410SOL    HW215693   4.110   2.065   7.466  0.6333  1.1632  2.0973
 1411SOL     OW15694   1.566   4.701   3.435  0.5961 -0.3146 -0.6102
 1411SOL    HW115695   1.656   0.008   3.420  0.2650  0.3386 -1.3673
 1411SOL    HW215696   1.580   4.607   3.423 -2.5031 -0.8523  0.1061
 1412SOL     OW15697   3.604   3.337  13.799 -0.0026  0.0935  0.1259
 1412SOL    HW115698   3.610   3.430  13.818  1.3164  0.3448 -1.5988
 1412SOL    HW215699   3.667   3.292  13.856 -0.7936  1.7137  2.2786
 1413SOL     OW15700   2.518   1.764   7.144 -0.6363  0.2064  0.1400
 1413SOL    HW115701   2.602   1.726   7.116 -1.2919 -0.7981 -0.4830
 1413SOL    HW215702   2.470   1.743   7.064  1.1529  0.4539 -1.0010
 1414SOL     OW15703   0.186   3.339   5.550  0.0994 -0.2161 -0.8260
 1414SOL    HW115704   0.207   3.383   5.467 -0.8956  2.5625  0.3933
 1414SOL    HW215705   0.092   3.354   5.544  0.2338 -0.1419 -2.7163
 1415SOL     OW15706   1.570   1.057  10.575 -0.0851  0.0159 -0.8126
 1415SOL    HW115707   1.611   1.001  10.641 -0.0346  0.6736 -0.2868
 1415SOL    HW215708   1.479   1.027  10.572 -0.0988 -0.1825  1.2863
 1416SOL     OW15709   0.707   0.609   2.136  0.5901 -0.1678 -0.5361
 1416SOL    HW115710   0.673   0.537   2.083 -0.7319 -1.1543  1.6304
 1416SOL    HW215711   0.729   0.556   2.211  2.1140  0.6672 -0.3977
 1417SOL     OW15712   0.874   3.632   0.400  0.1742  0.4863 -0.0645
 1417SOL    HW115713   0.788   3.597   0.422 -1.0588  3.9654  0.5685
 1417SOL    HW215714   0.933   3.562   0.371 -0.7131  0.1005 -0.9293
 1418SOL     OW15715   1.928   4.127   2.112 -0.8199  0.4964 -0.1426
 1418SOL    HW115716   2.008   4.086   2.080 -0.6671  1.8845 -1.5642
 1418SOL    HW215717   1.958   4.171   2.191  1.1841  0.2085 -0.7533
 1419SOL     OW15718   1.966   2.983  11.004 -0.5514 -0.7062 -0.2360
 1419SOL    HW115719   1.888   3.021  10.963 -1.2142 -1.5800  0.2043
 1419SOL    HW215720   1.996   2.927  10.933 -1.7494 -1.1879 -0.3595
 1420SOL     OW15721   2.693   0.842   2.635 -0.2809 -0.0692 -0.3705
 1420SOL    HW115722   2.752   0.917   2.631 -0.4062  0.0106 -0.6890
 1420SOL    HW215723   2.714   0.789   2.559  4.1211 -1.2521  1.6499
 1421SOL     OW15724   2.502   0.547  13.992 -0.3115 -0.3583  0.4038
 1421SOL    HW115725   2.465   0.501  14.068 -1.8042  1.2495  0.6604
 1421SOL    HW215726   2.562   0.480  13.960 -0.8395 -0.4145 -0.4541
 1422SOL     OW15727   1.785   1.339  16.449  0.6187 -1.1547 -0.1927
 1422SOL    HW115728   1.788   1.323  16.543  0.5144  1.1195  0.1945
 1422SOL    HW215729   1.769   1.434  16.450 -0.9688 -1.4163  0.3059
 1423SOL     OW15730   4.186   4.525  11.944 -0.4748  0.2044  0.1785
 1423SOL    HW115731   4.240   4.582  11.999 -0.4452 -0.2370  0.6006
 1423SOL    HW215732   4.150   4.470  12.013 -1.2604  2.8190  1.8466
 1424SOL     OW15733   3.935   2.680   5.025  0.3510 -0.0657  0.4000
 1424SOL    HW115734   3.947   2.631   5.106  1.5584  0.5682  0.5991
 1424SOL    HW215735   3.858   2.733   5.043  0.2768 -0.0247 -0.0493
 1425SOL     OW15736   3.387   3.241   5.099 -0.4234 -0.2152 -0.2293
 1425SOL    HW115737   3.400   3.279   5.012 -1.3584 -0.3403 -0.4239
 1425SOL    HW215738   3.344   3.158   5.078 -0.2313 -0.2107 -0.6503
 1426SOL     OW15739   4.284   0.002   8.197 -0.1931  0.0505 -0.5532
 1426SOL    HW115740   4.238   0.086   8.191  1.2844  1.1515  3.5060
 1426SOL    HW215741   4.359   0.032   8.250  1.0315 -0.6197 -1.9117
 1427SOL     OW15742   3.160   0.647  14.442  0.3034  0.0609 -0.8433
 1427SOL    HW115743   3.170   0.568  14.496 -0.4784 -0.3469 -1.2979
 1427SOL    HW215744   3.083   0.621  14.391  0.1653  0.9902 -1.1144
 1428SOL     OW15745   1.578   2.631   5.914 -0.4426  0.0261  0.7475
 1428SOL    HW115746   1.600   2.539   5.928 -0.5584 -0.0995  0.1307
 1428SOL    HW215747   1.572   2.633   5.818  1.7601  2.8672  0.6951
 1429SOL     OW15748   4.184   4.638   8.572  0.0358  0.3678 -0.1414
 1429SOL    HW115749   4.098   4.626   8.533 -0.4888  1.2767  0.7475
 1429SOL    HW215750   4.236   4.579   8.517 -1.6794 -1.1506 -0.1355
 1430SOL     OW15751   4.006   0.126   3.492  0.0254  0.1196  0.5422
 1430SOL    HW115752   3.987   0.073   3.415  0.1650  1.2710 -0.2862
 1430SOL    HW215753   4.080   0.077   3.527 -0.2137  0.0512  0.9456
 1431SOL     OW15754   4.400   2.590   4.145 -0.4027 -0.2918 -0.2620
 1431SOL    HW115755   4.363   2.508   4.180  3.3478 -1.3050  1.2591
 1431SOL    HW215756   4.391   2.653   4.216 -0.9257  0.8259 -1.3167
 1432SOL     OW15757   4.262   3.582  11.106 -0.2020 -1.2001  0.0502
 1432SOL    HW115758   4.297   3.596  11.194  0.1965 -3.9155  0.3299
 1432SOL    HW215759   4.298   3.647  11.045  0.4017 -0.7993  0.8459
 1433SOL     OW15760   4.470   0.009  15.617 -0.5241  0.0986 -0.1050
 1433SOL    HW115761   4.520   4.666  15.667  1.0827  0.4056 -1.3192
 1433SOL    HW215762   4.529   0.084  15.622 -0.5671  0.0515  1.1668
 1434SOL     OW15763   4.037   4.616   7.038 -0.1422  0.1693 -0.2552
 1434SOL    HW115764   4.075   4.700   7.013 -0.4315  0.9387  1.8605
 1434SOL    HW215765   4.007   4.575   6.957 -0.8638  0.2248 -0.0195
 1435SOL     OW15766   0.150   2.423   7.155 -0.1661 -0.2221  0.1341
 1435SOL    HW115767   0.169   2.491   7.220  2.4366  0.1358 -1.0292
 1435SOL    HW215768   0.233   2.378   7.171  0.8870  1.3498 -0.8508
 1436SOL     OW15769   2.268   1.690   4.134  0.7796 -0.1352  0.1438
 1436SOL    HW115770   2.343   1.636   4.161  1.3728  1.0188  0.8332
 1436SOL    HW215771   2.274   1.676   4.039 -1.2127  0.5137 -0.0657
 1437SOL     OW15772   2.179   4.326   4.327  0.2748  0.1592  0.2830
 1437SOL    HW115773   2.256   4.290   4.284 -1.2329 -1.5367 -0.9790
 1437SOL    HW215774   2.149   4.393   4.266  0.9963 -0.6738 -0.9891
 1438SOL     OW15775   3.799   1.593   2.603 -0.3662  0.6491  0.7027
 1438SOL    HW115776   3.863   1.570   2.536 -0.0394 -3.7529  2.4740
 1438SOL    HW215777   3.749   1.653   2.549 -2.0075 -2.8263 -1.6314
 1439SOL     OW15778   3.834   0.032   1.686  0.3761 -0.0159  0.7378
 1439SOL    HW115779   3.797   0.116   1.658  0.5060  0.7616  2.9032
 1439SOL    HW215780   3.816   4.690   1.616 -0.6762 -3.7035  4.3394
 1440SOL     OW15781   2.264   3.350   7.480  0.6213  0.1219  0.9139
 1440SOL    HW115782   2.324   3.366   7.407 -0.5366 -0.3346 -0.1436
 1440SOL    HW215783   2.276   3.436   7.521 -0.1044  0.3127  0.7321
 1441SOL     OW15784   4.629   1.789   9.303  0.1177 -0.4680 -0.1658
 1441SOL    HW115785   4.553   1.733   9.295  0.7804 -0.7061 -4.7712
 1441SOL    HW215786   4.703   1.733   9.325  0.3380 -0.0703  0.1269
 1442SOL     OW15787   3.512   4.239   4.081 -0.3315  0.3319  0.1603
 1442SOL    HW115788   3.468   4.199   4.155 -1.2587 -0.5553 -0.8632
 1442SOL    HW215789   3.602   4.221   4.109  0.5660  3.0452 -0.9548
 1443SOL     OW15790   0.940   1.270  17.623  0.7498 -0.0229  0.2256
 1443SOL    HW115791   1.014   1.323  17.653  0.9004 -0.3717  0.4773
 1443SOL    HW215792   0.964   1.177  17.628  3.7287  0.7995  1.4483
 1444SOL     OW15793   3.529   3.696   4.240 -0.1440 -0.1394 -0.8028
 1444SOL    HW115794   3.512   3.659   4.327  0.3092  0.3638 -0.5074
 1444SOL    HW215795   3.617   3.660   4.233  0.1598  0.4182  0.1286
 1445SOL     OW15796   0.720   0.618   7.946  0.2217 -0.4134 -0.5165
 1445SOL    HW115797   0.713   0.524   7.960  0.6780 -0.3259  0.2606
 1445SOL    HW215798   0.809   0.634   7.975 -0.7348  3.9840 -0.0176
 1446SOL     OW15799   2.628   0.864   0.341 -0.3230 -0.2979 -0.6542
 1446SOL    HW115800   2.711   0.907   0.359 -0.9469  0.9209 -0.7107
 1446SOL    HW215801   2.634   0.805   0.265  2.0625 -1.1806  0.2209
 1447SOL     OW15802   3.585   2.275  16.983  0.7421 -0.8042  0.1640
 1447SOL    HW115803   3.555   2.363  16.960 -0.7259 -0.9149  1.6269
 1447SOL    HW215804   3.514   2.242  17.038 -0.0654  1.4187  0.4604
 1448SOL     OW15805   4.330   2.643   3.766 -0.4261 -0.2987  0.0107
 1448SOL    HW115806   4.332   2.738   3.754 -1.9635 -0.0428  1.8581
 1448SOL    HW215807   4.405   2.623   3.822 -0.6100  3.1340  1.4494
 1449SOL     OW15808   4.013   4.615   3.748  0.9246  0.0537  0.6933
 1449SOL    HW115809   4.024   4.661   3.664  4.3026  1.0151  1.6654
 1449SOL    HW215810   4.010   4.523   3.722  2.0745  0.1609  0.1442
 1450SOL     OW15811   3.503   3.425  12.112  0.6082  0.5831  0.1332
 1450SOL    HW115812   3.502   3.332  12.089  0.9619  0.0410  2.3753
 1450SOL    HW215813   3.537   3.439  12.200  0.3647 -0.1407  0.3428
 1451SOL     OW15814   4.272   0.720   0.892 -0.4383  0.4592  0.2724
 1451SOL    HW115815   4.322   0.762   0.962 -0.7632  0.1370  0.6984
 1451SOL    HW215816   4.348   0.692   0.841 -1.7666 -2.0609 -0.3043
 1452SOL     OW15817   3.368   3.964  15.343  0.3070  0.0404  0.1896
 1452SOL    HW115818   3.443   3.977  15.400 -0.4439 -0.0502  1.1959
 1452SOL    HW215819   3.308   4.021  15.392  1.4048 -0.0053  1.5902
 1453SOL     OW15820   1.608   3.572  12.298  0.2933 -0.5269 -0.0298
 1453SOL    HW115821   1.599   3.498  12.358  2.6890  0.1032  1.0869
 1453SOL    HW215822   1.525   3.620  12.296  0.3591 -0.4721 -1.2503
 1454SOL     OW15823   3.191   3.612   2.616 -0.0965  0.0758 -0.2126
 1454SOL    HW115824   3.145   3.541   2.572 -1.8719 -0.9630  3.2877
 1454SOL    HW215825   3.236   3.561   2.684 -0.9940  0.7876  0.9270
 1455SOL     OW15826   3.122   1.531   6.469 -0.2152 -0.5143 -0.3341
 1455SOL    HW115827   3.091   1.613   6.431 -1.6281 -0.5874  0.6637
 1455SOL    HW215828   3.216   1.549   6.478 -0.5016  1.5083 -1.2633
 1456SOL     OW15829   0.786   3.395   1.841  0.1369  0.0538  0.8342
 1456SOL    HW115830   0.695   3.374   1.821 -0.1434  0.5359  1.5754
 1456SOL    HW215831   0.804   3.323   1.901 -2.3775 -1.6424 -0.4204
 1457SOL     OW15832   4.491   0.243   9.603 -0.8085 -0.3640  0.5596
 1457SOL    HW115833   4.447   0.303   9.543  1.1884 -0.4778 -1.0127
 1457SOL    HW215834   4.417   0.220   9.659 -1.3785 -0.9650 -0.4467
 1458SOL     OW15835   0.305   2.251  17.398  0.1428  0.8611  0.0618
 1458SOL    HW115836   0.281   2.177  17.341  2.1901  0.6338 -0.5234
 1458SOL    HW215837   0.281   2.214  17.482  0.6541  0.2146 -0.0710
 1459SOL     OW15838   3.531   3.042   3.599  0.3087  0.5680  0.2214
 1459SOL    HW115839   3.603   3.092   3.639  1.9405 -0.8359 -0.9699
 1459SOL    HW215840   3.471   3.116   3.591 -0.6685 -0.5205 -2.2431
 1460SOL     OW15841   0.348   1.155   0.983 -0.3203 -0.0600 -0.2144
 1460SOL    HW115842   0.364   1.250   0.983  0.7284 -0.2319  0.6197
 1460SOL    HW215843   0.365   1.144   0.890  1.5665  1.6386 -0.0881
 1461SOL     OW15844   1.718   0.277  16.855 -0.0553 -0.2358  0.0491
 1461SOL    HW115845   1.774   0.299  16.780 -0.3224 -1.2138 -0.4483
 1461SOL    HW215846   1.715   0.362  16.899  0.5745  0.2772 -0.9048
 1462SOL     OW15847   3.615   0.752   8.455 -0.0847  0.2803 -0.1489
 1462SOL    HW115848   3.691   0.698   8.435 -1.5041 -2.2076  1.2111
 1462SOL    HW215849   3.637   0.781   8.543 -0.0825  0.4991 -0.2218
 1463SOL     OW15850   0.801   0.601   3.827  0.2054 -0.3763  0.3628
 1463SOL    HW115851   0.819   0.514   3.861  2.6561  0.2958  0.7537
 1463SOL    HW215852   0.826   0.583   3.736 -1.9526 -4.2740  0.5191
 1464SOL     OW15853   3.225   1.551   1.008 -0.0221 -0.0495 -0.4416
 1464SOL    HW115854   3.286   1.572   1.079  1.3277 -1.7108 -1.0966
 1464SOL    HW215855   3.156   1.522   1.067 -0.3539  0.6443 -0.4958
 1465SOL     OW15856   3.529   1.825   8.813  0.1181 -0.1524 -0.1599
 1465SOL    HW115857   3.478   1.771   8.874  3.6329 -2.7368  0.5295
 1465SOL    HW215858   3.476   1.905   8.810 -0.6785 -0.6622  0.2398
 1466SOL     OW15859   0.838   2.289   4.325 -0.7801 -0.2891 -0.3143
 1466SOL    HW115860   0.824   2.283   4.231  0.0226  1.3801 -0.5320
 1466SOL    HW215861   0.758   2.339   4.340 -1.3453 -0.9406 -1.1758
 1467SOL     OW15862   2.161   3.249   2.993  0.1569  0.3433  0.1394
 1467SOL    HW115863   2.251   3.281   2.988 -0.2459  1.2768 -1.2478
 1467SOL    HW215864   2.172   3.159   3.023  2.4741  0.4522 -0.3712
 1468SOL     OW15865   3.428   4.505  12.527 -0.5684  0.0966  0.2693
 1468SOL    HW115866   3.340   4.534  12.549 -0.8085 -0.8685  0.5871
 1468SOL    HW215867   3.479   4.581  12.557 -1.1511  0.5747  0.0497
 1469SOL     OW15868   1.596   3.555   4.109 -0.1750 -0.8462  0.9217
 1469SOL    HW115869   1.526   3.599   4.157 -1.9712 -0.5096 -2.0026
 1469SOL    HW215870   1.655   3.624   4.082  0.1428 -2.1775 -1.7614
 1470SOL     OW15871   1.820   0.595  17.454  0.2707 -0.2487  0.2534
 1470SOL    HW115872   1.784   0.634  17.375 -0.1914 -0.0458  0.5659
 1470SOL    HW215873   1.741   0.594  17.508 -0.4561  0.2164 -0.8203
 1471SOL     OW15874   4.360   2.415   1.964  0.1004 -0.0940 -0.0443
 1471SOL    HW115875   4.269   2.389   1.978  0.0733 -0.2083 -0.4174
 1471SOL    HW215876   4.388   2.445   2.050 -0.9541  1.3083 -0.1720
 1472SOL     OW15877   2.860   4.041   2.971 -0.1883  0.0747 -0.5489
 1472SOL    HW115878   2.949   4.058   2.943 -1.0066  0.1929 -3.0650
 1472SOL    HW215879   2.816   4.126   2.962 -0.4250 -0.2887 -2.7601
 1473SOL     OW15880   4.187   2.985   5.549 -0.0711  0.8294  0.3064
 1473SOL    HW115881   4.235   2.908   5.578  0.7831  1.3684  0.3529
 1473SOL    HW215882   4.097   2.960   5.568 -0.1887  0.8607 -0.2013
 1474SOL     OW15883   1.388   0.836   7.015  0.1464  0.7089 -0.8955
 1474SOL    HW115884   1.324   0.901   7.043 -0.6858 -1.2804  1.7948
 1474SOL    HW215885   1.434   0.815   7.096 -3.1894  2.7843  1.5001
 1475SOL     OW15886   0.833   0.947  11.598 -0.1842 -0.0518  0.3133
 1475SOL    HW115887   0.749   0.924  11.558 -0.7721  0.1020  1.4731
 1475SOL    HW215888   0.827   0.924  11.690  2.4556  0.4135  0.6102
 1476SOL     OW15889   4.371   0.860   5.673 -0.0338  0.6909  0.3564
 1476SOL    HW115890   4.315   0.921   5.721 -1.2193 -1.0298  1.1734
 1476SOL    HW215891   4.302   0.810   5.630  0.6146 -0.8848  1.1262
 1477SOL     OW15892   3.350   4.470  15.184 -0.0219 -0.2024  0.0249
 1477SOL    HW115893   3.376   4.536  15.120  1.0641  0.0044  0.6727
 1477SOL    HW215894   3.416   4.410  15.150  1.9122  2.5806 -1.1399
 1478SOL     OW15895   1.504   4.240   0.075 -0.2152  0.0914  0.1275
 1478SOL    HW115896   1.556   4.216  17.686  1.5960 -1.3428  1.7889
 1478SOL    HW215897   1.419   4.251   0.034  0.3856  0.5915 -0.9840
 1479SOL     OW15898   4.097   1.553   5.323 -0.4014  0.1643  0.0642
 1479SOL    HW115899   4.149   1.624   5.362 -4.1400  2.2587  1.2002
 1479SOL    HW215900   4.014   1.564   5.368  0.2248 -0.6168  1.4187
 1480SOL     OW15901   1.526   4.399   4.186 -0.2759 -0.3836  0.2203
 1480SOL    HW115902   1.537   4.474   4.244  1.6566  0.3617 -1.1295
 1480SOL    HW215903   1.500   4.446   4.107 -1.6807  0.0113  0.8982
 1481SOL     OW15904   3.759   0.655  10.227 -0.0589 -0.0788  0.2789
 1481SOL    HW115905   3.824   0.720  10.254  2.0275 -2.8165  1.8202
 1481SOL    HW215906   3.694   0.699  10.172  1.8008 -0.0099 -1.8586
 1482SOL     OW15907   4.624   1.615   7.197  0.0552  0.1007 -0.7500
 1482SOL    HW115908   4.545   1.591   7.245  0.5328 -0.2635 -0.1511
 1482SOL    HW215909   4.609   1.705   7.169 -0.1682  0.6043  0.9990
 1483SOL     OW15910   3.528   3.840  11.744 -0.4093 -0.0677 -0.3654
 1483SOL    HW115911   3.486   3.840  11.830  0.9915 -1.6155  0.3128
 1483SOL    HW215912   3.452   3.844  11.686 -1.0414  0.3292  0.4944
 1484SOL     OW15913   2.008   2.702   2.544 -0.5735 -0.2506 -0.0862
 1484SOL    HW115914   2.070   2.717   2.472  1.2864  0.6825  1.7045
 1484SOL    HW215915   2.011   2.793   2.572  1.3426 -1.1369  2.6258
 1485SOL     OW15916   0.754   1.344  12.405  0.6639 -0.0187  0.1209
 1485SOL    HW115917   0.718   1.331  12.492 -0.0861  0.6987 -0.0811
 1485SOL    HW215918   0.791   1.432  12.409 -1.5508  0.8871  0.9420
 1486SOL     OW15919   2.522   0.750  12.650  0.1846 -1.1952  0.3729
 1486SOL    HW115920   2.596   0.690  12.642 -0.8538 -2.2628 -1.2675
 1486SOL    HW215921   2.571   0.828  12.677  0.3244 -2.0658  2.6257
 1487SOL     OW15922   3.350   3.211   2.725 -0.4136  0.1423 -0.0528
 1487SOL    HW115923   3.332   3.117   2.732 -0.1371  0.1218  0.3844
 1487SOL    HW215924   3.295   3.241   2.652 -0.5045 -2.3222 -1.0214
 1488SOL     OW15925   1.236   3.058   1.548  0.1472 -0.1930  0.0809
 1488SOL    HW115926   1.198   3.091   1.629 -0.4957  1.1971 -0.7709
 1488SOL    HW215927   1.302   3.126   1.534  0.3090 -0.1886  0.8841
 1489SOL     OW15928   3.690   0.087   2.419 -0.1367  0.3670  0.0476
 1489SOL    HW115929   3.652   0.025   2.356  0.7387  1.4010 -1.4863
 1489SOL    HW215930   3.671   0.160   2.361 -1.0251 -0.6687 -0.9815
 1490SOL     OW15931   2.157   3.794   5.237 -0.4933 -0.0718  0.1399
 1490SOL    HW115932   2.063   3.816   5.237 -0.3512  0.5335  0.3135
 1490SOL    HW215933   2.199   3.871   5.199  0.5414 -1.1059 -0.8100
 1491SOL     OW15934   4.156   0.551   7.925 -0.1902 -0.0391  0.4594
 1491SOL    HW115935   4.137   0.484   7.990  0.0877 -2.6711 -2.1648
 1491SOL    HW215936   4.108   0.621   7.969 -0.3485  0.5139 -0.5810
 1492SOL     OW15937   2.085   3.922   7.211  0.2717 -0.6355 -0.0461
 1492SOL    HW115938   2.039   3.838   7.222  3.6401 -2.0222  3.2718
 1492SOL    HW215939   2.023   3.994   7.203  0.5616 -0.6664 -2.5300
 1493SOL     OW15940   3.717   3.134   4.444  0.5507  0.8659 -0.1652
 1493SOL    HW115941   3.744   3.045   4.465 -0.4535  0.6979  0.4078
 1493SOL    HW215942   3.723   3.194   4.519  0.0456 -0.0502  0.5952
 1494SOL     OW15943   2.972   2.566   7.420 -0.4626  0.3928  0.4307
 1494SOL    HW115944   2.885   2.537   7.449  0.3160 -0.6905  1.7289
 1494SOL    HW215945   3.030   2.493   7.441 -0.4967 -0.5828 -2.7971
 1495SOL     OW15946   4.284   3.996   7.090  0.2427  0.4757 -0.3805
 1495SOL    HW115947   4.225   3.966   7.021  1.5229  1.3095 -1.8473
 1495SOL    HW215948   4.351   4.052   7.050  1.4244 -0.9199 -0.3630
 1496SOL     OW15949   2.223   1.728   5.812  0.4695 -0.2365  0.0860
 1496SOL    HW115950   2.215   1.816   5.776 -0.0108 -0.1966  0.2990
 1496SOL    HW215951   2.189   1.750   5.898 -1.1139 -2.6433  0.0670
 1497SOL     OW15952   3.780   4.277   4.133  0.3306  0.2666  0.7438
 1497SOL    HW115953   3.828   4.340   4.080 -0.2904  0.8379  0.8592
 1497SOL    HW215954   3.787   4.321   4.218  1.0631 -0.2966  0.9737
 1498SOL     OW15955   3.121   1.237  11.005  0.3232 -0.2312 -0.2817
 1498SOL    HW115956   3.034   1.273  11.020  0.3345 -1.7507  3.1839
 1498SOL    HW215957   3.183   1.303  11.035 -1.9268  1.1709  1.2521
 1499SOL     OW15958   1.290   4.264   5.202 -0.6527  0.0318  0.4335
 1499SOL    HW115959   1.335   4.348   5.210  1.1118 -0.9313  0.3988
 1499SOL    HW215960   1.359   4.199   5.209 -0.2120  0.6835  2.0764
 1500SOL     OW15961   2.099   4.069  13.292  0.4416 -0.2983  0.6497
 1500SOL    HW115962   2.105   4.161  13.316 -0.8903 -0.0740  0.1119
 1500SOL    HW215963   2.162   4.069  13.220  1.1495 -1.8510  1.2548
 1501SOL     OW15964   2.742   2.587   4.445 -0.0307  0.3881 -0.2828
 1501SOL    HW115965   2.756   2.592   4.539  0.9467 -1.1416 -0.3639
 1501SOL    HW215966   2.814   2.640   4.410 -1.0568  0.4830 -2.2695
 1502SOL     OW15967   0.257   0.994   3.802  0.2320 -0.0127  0.5364
 1502SOL    HW115968   0.187   0.954   3.854 -0.2375 -0.8752 -0.7520
 1502SOL    HW215969   0.243   0.939   3.724  3.4253  1.4543 -1.0630
 1503SOL     OW15970   4.498   3.223  15.210  0.6062 -0.0957 -0.2279
 1503SOL    HW115971   4.593   3.232  15.210  0.6609 -0.6926  0.0243
 1503SOL    HW215972   4.468   3.305  15.169 -1.4261  0.6548  2.7485
 1504SOL     OW15973   3.095   2.772   3.609  0.4322 -0.8723  0.2800
 1504SOL    HW115974   3.054   2.749   3.526  0.0617 -0.1967  0.2752
 1504SOL    HW215975   3.142   2.848   3.574  0.2903 -0.7689  0.3179
 1505SOL     OW15976   0.412   4.593   8.925 -0.6162  0.0497 -0.8421
 1505SOL    HW115977   0.367   4.553   8.850  0.6412 -1.2384 -0.9226
 1505SOL    HW215978   0.447   4.671   8.882 -0.3607  1.2308  1.5344
 1506SOL     OW15979   4.263   3.601   7.588  0.0376 -0.2545  0.1439
 1506SOL    HW115980   4.321   3.651   7.646  0.9620  1.4155 -2.2099
 1506SOL    HW215981   4.296   3.512   7.602 -2.2618 -1.2200 -0.6634
 1507SOL     OW15982   2.896   0.156   5.751  0.2571  0.1005  0.2838
 1507SOL    HW115983   2.961   0.124   5.688  1.0786 -1.4453  1.9345
 1507SOL    HW215984   2.842   0.077   5.750  0.6169 -0.1543  1.2776
 1508SOL     OW15985   3.542   4.434   8.155 -0.7012 -0.1579 -0.5215
 1508SOL    HW115986   3.555   4.477   8.240  1.6928  0.1082 -1.0415
 1508SOL    HW215987   3.519   4.349   8.192  0.0190 -0.0430  0.1769
 1509SOL     OW15988   2.838   1.273  14.270 -0.4976  0.0991 -0.0824
 1509SOL    HW115989   2.792   1.227  14.199  0.9136  0.8695 -1.4828
 1509SOL    HW215990   2.906   1.310  14.215  0.4169 -0.6355  0.5574
 1510SOL     OW15991   2.421   2.041   7.261 -0.0015  0.2385 -0.3977
 1510SOL    HW115992   2.400   2.092   7.182  2.4752  0.3339 -0.9920
 1510SOL    HW215993   2.500   1.994   7.236 -0.4761 -1.1796  0.7871
 1511SOL     OW15994   0.874   0.553   2.895 -0.3148  0.1836 -0.6136
 1511SOL    HW115995   0.849   0.585   2.808 -1.7878 -0.9319 -0.6066
 1511SOL    HW215996   0.946   0.609   2.923  1.0773 -1.6074 -0.5588
 1512SOL     OW15997   1.537   4.080  14.995 -0.0806 -0.0388  0.2306
 1512SOL    HW115998   1.447   4.109  15.006  0.4188  2.0623 -1.0184
 1512SOL    HW215999   1.518   3.988  14.976 -0.6072  0.1286 -0.0453
 1513SOL     OW16000   2.830   3.912   0.713 -0.0753  0.4108 -0.4916
 1513SOL    HW116001   2.877   3.899   0.795  0.7108 -0.0685 -1.0111
 1513SOL    HW216002   2.834   3.821   0.682  0.1542  0.6301 -1.1084
 1514SOL     OW16003   3.153   2.586  16.927 -0.9107 -0.2742  0.5573
 1514SOL    HW116004   3.106   2.574  16.845 -0.5811  0.2757  0.2863
 1514SOL    HW216005   3.140   2.679  16.945  1.7259  0.4524 -1.2379
 1515SOL     OW16006   1.259   3.754   4.536  0.3535 -0.2965 -0.8239
 1515SOL    HW116007   1.270   3.726   4.627  0.5209  1.4961 -0.2898
 1515SOL    HW216008   1.168   3.781   4.526  0.2718 -0.6204 -0.9589
 1516SOL     OW16009   3.215   0.824   9.328  0.0968 -0.1639  0.2683
 1516SOL    HW116010   3.242   0.915   9.344 -1.2961 -0.2624  3.2752
 1516SOL    HW216011   3.291   0.778   9.294 -0.7365 -2.1907  1.1512
 1517SOL     OW16012   1.699   0.041   4.762 -0.1034 -0.6258 -0.3069
 1517SOL    HW116013   1.669   0.122   4.804  0.9499 -0.5810  0.3628
 1517SOL    HW216014   1.663   0.040   4.673 -1.0379  2.5562  0.0124
 1518SOL     OW16015   1.270   4.586  16.869 -0.3050 -0.1302  0.1305
 1518SOL    HW116016   1.334   4.629  16.813 -1.0216  2.0176  0.9842
 1518SOL    HW216017   1.258   4.496  16.837  0.6480 -1.2772  2.9354
 1519SOL     OW16018   2.804   4.421   4.756 -0.1271 -0.1187  0.1123
 1519SOL    HW116019   2.776   4.513   4.760  1.0185  0.2682 -0.5800
 1519SOL    HW216020   2.748   4.392   4.828  1.7373 -0.4518  1.4245
 1520SOL     OW16021   2.201   3.193   8.461 -0.2096 -0.0408  0.0287
 1520SOL    HW116022   2.255   3.177   8.383 -0.9712 -2.2953 -0.0188
 1520SOL    HW216023   2.159   3.108   8.461 -0.7112  0.2092 -1.6486
 1521SOL     OW16024   1.780   2.357   7.686 -0.5959 -0.3298 -0.7703
 1521SOL    HW116025   1.835   2.430   7.716 -2.1361 -0.1424  1.6558
 1521SOL    HW216026   1.817   2.342   7.599  0.2648  2.8524 -0.9793
 1522SOL     OW16027   1.768   2.957  14.119 -0.0118  0.4372 -0.1253
 1522SOL    HW116028   1.675   2.975  14.105 -0.7173 -2.2300  1.1330
 1522SOL    HW216029   1.772   2.893  14.048 -2.4178  0.6941 -0.4921
 1523SOL     OW16030   3.623   1.415   2.749  0.6122  0.5641 -0.2268
 1523SOL    HW116031   3.690   1.347   2.735 -0.5423 -0.5560 -0.3549
 1523SOL    HW216032   3.656   1.488   2.696 -2.0030  1.5189 -0.5259
 1524SOL     OW16033   2.684   2.281   7.290  0.0320 -0.4035  0.1603
 1524SOL    HW116034   2.709   2.189   7.282 -2.3108 -1.1614  1.5734
 1524SOL    HW216035   2.597   2.284   7.252  1.0799 -0.5792 -2.2528
 1525SOL     OW16036   0.075   1.237  14.733  0.0222 -0.5345 -0.0742
 1525SOL    HW116037   0.036   1.150  14.742 -0.5727 -0.1146  1.4028
 1525SOL    HW216038   0.014   1.291  14.783  0.9284  0.3301  0.1040
 1526SOL     OW16039   2.104   1.445   8.687  0.1997  0.2684  0.1712
 1526SOL    HW116040   2.047   1.369   8.692 -0.9444  1.2841  2.7100
 1526SOL    HW216041   2.045   1.498   8.633  1.7342  0.5205 -1.2728
 1527SOL     OW16042   3.650   2.956   6.389 -0.1726 -0.4739 -0.0150
 1527SOL    HW116043   3.704   2.995   6.321  0.8092 -0.8114  0.5770
 1527SOL    HW216044   3.605   2.879   6.354 -1.9521  0.8054 -0.5123
 1528SOL     OW16045   4.019   0.274   2.894 -0.0127  0.3532 -0.4934
 1528SOL    HW116046   3.957   0.324   2.947  1.2890 -0.0219  1.3950
 1528SOL    HW216047   4.098   0.328   2.888  0.7895 -0.5712  1.7184
 1529SOL     OW16048   4.137   4.657   4.080 -0.0605  0.2212 -0.2782
 1529SOL    HW116049   4.190   0.013   4.103 -1.4208  0.3343  2.4609
 1529SOL    HW216050   4.192   4.613   4.016 -0.2397  0.7495 -0.7955
 1530SOL     OW16051   2.414   1.301   6.714 -1.0066  0.0369  0.2677
 1530SOL    HW116052   2.508   1.310   6.695 -1.0080  0.6897  0.6036
 1530SOL    HW216053   2.416   1.240   6.787 -1.0958  1.0150  1.0797
 1531SOL     OW16054   2.466   2.046   9.237  0.3991 -0.3809 -0.1019
 1531SOL    HW116055   2.505   1.959   9.226  2.5478  0.4351  1.0140
 1531SOL    HW216056   2.471   2.046   9.332 -0.3355  0.9294 -0.0599
 1532SOL     OW16057   0.077   3.904   6.910  0.1303 -0.3031  0.2172
 1532SOL    HW116058   0.075   3.851   6.831  2.3309 -0.2338  0.1095
 1532SOL    HW216059   0.090   3.988   6.866  0.5349 -0.3893  0.1681
 1533SOL     OW16060   3.430   0.819   4.272 -0.4784  0.0410  0.3858
 1533SOL    HW116061   3.497   0.765   4.315  1.2828  1.0357 -1.0938
 1533SOL    HW216062   3.375   0.750   4.235  0.1602  0.5790 -1.6011
 1534SOL     OW16063   2.685   4.033  14.338  0.2708 -0.8890  0.1873
 1534SOL    HW116064   2.712   3.977  14.411  1.6343  0.6319  0.8499
 1534SOL    HW216065   2.602   3.995  14.312  1.6038 -1.6875 -2.8730
 1535SOL     OW16066   2.356   3.384   6.670  0.2111  0.4263  0.2395
 1535SOL    HW116067   2.320   3.312   6.618  0.2304 -1.0350  2.2701
 1535SOL    HW216068   2.301   3.460   6.653 -1.4231 -0.9052 -0.3928
 1536SOL     OW16069   2.154   0.985  17.477  0.2243 -0.3396  0.5273
 1536SOL    HW116070   2.061   0.985  17.455  0.1955  1.4682  0.6130
 1536SOL    HW216071   2.152   0.892  17.500  1.4003 -0.9643 -1.8290
 1537SOL     OW16072   1.878   3.521   1.226 -0.2914  0.0810 -0.5157
 1537SOL    HW116073   1.814   3.567   1.172  1.6841  2.7376 -0.5642
 1537SOL    HW216074   1.938   3.488   1.159  0.9378  0.7265  0.2609
 1538SOL     OW16075   0.148   1.650   9.003  0.0552 -0.4689  0.3311
 1538SOL    HW116076   0.080   1.586   9.024 -1.3291  1.3755  1.5032
 1538SOL    HW216077   0.218   1.601   8.960  0.8361  1.6501 -0.8277
 1539SOL     OW16078   2.525   2.682   2.341 -0.2598  0.5625  0.0328
 1539SOL    HW116079   2.463   2.642   2.402  0.1125  1.4108  0.9619
 1539SOL    HW216080   2.462   2.745   2.304 -1.6393 -1.5316 -1.1887
 1540SOL     OW16081   4.250   2.432  10.567  0.3442 -0.0514 -0.0072
 1540SOL    HW116082   4.243   2.405  10.658 -1.3863  2.2458  0.5426
 1540SOL    HW216083   4.174   2.390  10.527  1.2050 -0.7350 -0.9282
 1541SOL     OW16084   2.438   4.275   7.907 -0.2284 -0.3279  0.1339
 1541SOL    HW116085   2.436   4.210   7.978 -1.3092 -1.2550 -0.7418
 1541SOL    HW216086   2.429   4.351   7.965 -0.9509  0.8251 -1.5024
 1542SOL     OW16087   2.160   3.947   6.879 -0.5399  0.1114  0.3460
 1542SOL    HW116088   2.072   3.920   6.903  0.1684 -0.5774  2.1802
 1542SOL    HW216089   2.205   3.940   6.964 -0.7311  1.1615  0.5404
 1543SOL     OW16090   4.579   3.134   5.684 -0.1634  0.0846  0.2209
 1543SOL    HW116091   4.506   3.147   5.745 -1.8391  1.3926 -2.1015
 1543SOL    HW216092   4.533   3.155   5.603 -0.4941  0.2739  0.4578
 1544SOL     OW16093   1.570   1.834  16.900 -0.6257  0.0379 -0.0780
 1544SOL    HW116094   1.513   1.909  16.913 -0.7691 -0.0027 -0.4804
 1544SOL    HW216095   1.554   1.788  16.983  1.1721 -1.1267 -0.3637
 1545SOL     OW16096   4.204   3.947  11.059  0.2693 -0.4124  0.3250
 1545SOL    HW116097   4.185   3.862  11.018  0.7177 -0.5107  0.3227
 1545SOL    HW216098   4.145   3.941  11.133 -0.4378 -1.2313 -0.3021
 1546SOL     OW16099   0.703   2.796  17.154 -0.2366 -0.0497 -0.1046
 1546SOL    HW116100   0.684   2.787  17.248 -0.1111 -0.3778 -0.1097
 1546SOL    HW216101   0.747   2.881  17.153  1.0379 -0.6861  1.2247
 1547SOL     OW16102   0.695   0.523  10.141 -0.4648  0.4462  0.1985
 1547SOL    HW116103   0.615   0.481  10.173 -2.1284  2.3420 -1.4942
 1547SOL    HW216104   0.716   0.474  10.061  0.9792  0.9696  0.2555
 1548SOL     OW16105   3.406   3.689   8.581  0.0451 -0.3838 -0.4728
 1548SOL    HW116106   3.491   3.729   8.601 -0.6878  0.4699  0.9472
 1548SOL    HW216107   3.406   3.618   8.646  2.1727 -0.2479 -0.3202
 1549SOL     OW16108   0.885   1.800   4.722 -0.2776  0.1482 -0.1109
 1549SOL    HW116109   0.957   1.817   4.783 -1.6488 -1.1640  1.8843
 1549SOL    HW216110   0.829   1.754   4.785  0.9405  0.8258  1.4634
 1550SOL     OW16111   0.162   1.496   7.229 -0.0687  0.5449 -0.5266
 1550SOL    HW116112   0.076   1.538   7.229 -1.0600 -1.4948 -0.5807
 1550SOL    HW216113   0.209   1.557   7.172  1.9365 -1.1609 -0.7127
 1551SOL     OW16114   2.776   0.351   2.914  0.1969  0.2213 -0.0246
 1551SOL    HW116115   2.828   0.369   2.836 -0.2256  0.0415 -0.3453
 1551SOL    HW216116   2.765   0.256   2.911 -2.1246  0.4635  1.1273
 1552SOL     OW16117   4.681   2.298   7.347 -0.1254 -0.3739  0.4621
 1552SOL    HW116118   0.017   2.221   7.353 -0.5849 -0.8678 -1.5457
 1552SOL    HW216119   0.014   2.361   7.299  0.8687 -1.0601  0.6724
 1553SOL     OW16120   3.151   4.483   8.432 -0.2550  0.1806 -0.5459
 1553SOL    HW116121   3.179   4.445   8.515 -2.7237 -1.6728 -0.5716
 1553SOL    HW216122   3.077   4.431   8.402 -1.8545  0.8357  2.2922
 1554SOL     OW16123   3.579   2.649  11.277 -0.3824 -0.0753 -0.1972
 1554SOL    HW116124   3.507   2.589  11.256 -0.1151 -0.5170  0.1678
 1554SOL    HW216125   3.639   2.630  11.205 -1.3742 -2.9514 -0.2515
 1555SOL     OW16126   1.578   2.398  11.149 -0.1565  0.1763 -0.5685
 1555SOL    HW116127   1.648   2.462  11.162 -0.3008  0.1468  0.3579
 1555SOL    HW216128   1.506   2.460  11.161  0.6325  1.2683 -1.6022
 1556SOL     OW16129   0.201   0.755   5.436  0.8795 -0.4785  0.1707
 1556SOL    HW116130   0.124   0.791   5.480  0.9585 -0.7782  0.5501
 1556SOL    HW216131   0.177   0.665   5.414  0.4714 -0.6565  1.3517
 1557SOL     OW16132   4.533   0.811  16.417 -0.3730  0.0710 -0.1325
 1557SOL    HW116133   4.554   0.718  16.423 -1.8098 -0.4254 -2.8147
 1557SOL    HW216134   4.458   0.801  16.359  2.7335 -1.4242 -3.8819
 1558SOL     OW16135   1.505   2.989   7.552  0.5211  0.2788 -0.2948
 1558SOL    HW116136   1.448   2.995   7.629 -1.6342  2.2720 -2.0319
 1558SOL    HW216137   1.564   3.060   7.576  0.8857 -0.4392  0.9487
 1559SOL     OW16138   4.148   2.493  10.275 -0.1326  0.6950 -0.2359
 1559SOL    HW116139   4.106   2.479  10.190  0.8615 -0.0785 -0.5909
 1559SOL    HW216140   4.080   2.537  10.326  1.0963 -0.6002  2.4854
 1560SOL     OW16141   1.689   4.227   3.901  0.0248  0.2971 -0.3417
 1560SOL    HW116142   1.728   4.304   3.943 -1.7450  0.6976  0.5547
 1560SOL    HW216143   1.744   4.233   3.822  0.7056  0.9844  0.1844
 1561SOL     OW16144   3.360   1.303   6.916 -0.0192 -0.2377  0.2527
 1561SOL    HW116145   3.280   1.268   6.955 -0.8360 -0.0858 -1.2999
 1561SOL    HW216146   3.324   1.375   6.864 -1.4360 -0.5641  0.7626
 1562SOL     OW16147   1.296   2.777  13.530 -0.4060  0.3800  0.2889
 1562SOL    HW116148   1.272   2.848  13.471  0.3018  1.6456  1.5216
 1562SOL    HW216149   1.379   2.806  13.567 -0.9064  0.0551  1.6778
 1563SOL     OW16150   2.105   0.306   3.625 -0.4035 -0.1536 -0.0155
 1563SOL    HW116151   2.130   0.351   3.545  0.1371  2.0921  1.3953
 1563SOL    HW216152   2.074   0.387   3.667 -2.7592 -0.9045 -0.3680
 1564SOL     OW16153   4.439   1.223   2.859 -0.4952  0.2887 -0.2574
 1564SOL    HW116154   4.456   1.156   2.925 -2.4321  0.8080  0.7842
 1564SOL    HW216155   4.412   1.303   2.905 -2.4458 -0.6754  0.2970
 1565SOL     OW16156   2.460   1.198  10.220  0.3476 -0.0515 -0.2791
 1565SOL    HW116157   2.521   1.263  10.255 -0.0506 -0.3774  1.0412
 1565SOL    HW216158   2.516   1.140  10.169  1.4615 -0.9376  1.9302
 1566SOL     OW16159   0.740   1.227  11.505 -0.0972  0.0007 -0.2157
 1566SOL    HW116160   0.704   1.272  11.581  0.4273  0.7274 -0.4023
 1566SOL    HW216161   0.788   1.148  11.530 -0.6045  0.0854  1.0042
 1567SOL     OW16162   2.576   4.094   6.270  0.5420  0.2466 -0.2850
 1567SOL    HW116163   2.561   4.082   6.176 -0.6366  0.7430 -0.1650
 1567SOL    HW216164   2.488   4.117   6.301 -0.1092 -0.8155 -1.3284
 1568SOL     OW16165   1.915   2.092   2.047  0.4260 -1.1943  0.0608
 1568SOL    HW116166   1.870   2.103   2.131 -1.3487  0.2383 -1.0652
 1568SOL    HW216167   2.000   2.056   2.072  1.3029  0.5105 -0.4435
 1569SOL     OW16168   3.113   4.532   5.413  0.0809 -0.3978 -0.1357
 1569SOL    HW116169   3.193   4.546   5.362  0.1431  0.4030  0.1765
 1569SOL    HW216170   3.128   4.447   5.452 -0.8096 -0.9944 -1.0817
 1570SOL     OW16171   3.479   3.119  12.105  0.0650  0.4227  0.3389
 1570SOL    HW116172   3.554   3.116  12.164  0.3194 -0.6760 -0.0310
 1570SOL    HW216173   3.415   3.071  12.158  0.6568 -0.6536  0.0808
 1571SOL     OW16174   1.844   4.073   2.695  0.0006 -0.4952  0.4353
 1571SOL    HW116175   1.829   4.154   2.744 -0.0432 -0.3437  0.1740
 1571SOL    HW216176   1.874   4.016   2.766  0.5534 -0.8963 -0.1177
 1572SOL     OW16177   1.992   2.093  12.395  0.0071  0.0031 -0.4170
 1572SOL    HW116178   1.982   2.159  12.464  0.3918  0.6399 -0.9759
 1572SOL    HW216179   2.058   2.128  12.336  0.7798  0.5683  0.7661
 1573SOL     OW16180   4.537   3.159   7.933 -0.1386  0.2150 -0.0468
 1573SOL    HW116181   4.560   3.081   7.983  4.1098  0.1778 -2.1043
 1573SOL    HW216182   4.474   3.204   7.990 -1.3352 -0.0058 -1.2135
 1574SOL     OW16183   0.930   3.359   2.510 -0.0176 -0.0477  0.1591
 1574SOL    HW116184   0.893   3.351   2.598 -0.1912  0.3248  0.1216
 1574SOL    HW216185   0.999   3.424   2.523  1.0641 -1.0001 -0.8490
 1575SOL     OW16186   0.394   2.150   6.682  0.3662 -0.0655 -0.3606
 1575SOL    HW116187   0.380   2.231   6.731 -0.2303  0.2826 -1.1145
 1575SOL    HW216188   0.336   2.088   6.728 -0.6158  0.5628 -0.7511
 1576SOL     OW16189   3.849   1.961   8.143  0.0967  0.1060  0.1518
 1576SOL    HW116190   3.764   2.006   8.139  0.2416  0.3436 -0.1573
 1576SOL    HW216191   3.916   2.024   8.120 -0.9715  2.1884  2.7160
 1577SOL     OW16192   1.450   2.648  13.077  0.3604 -0.5053 -0.2840
 1577SOL    HW116193   1.384   2.715  13.063  1.0071  0.1843 -0.0478
 1577SOL    HW216194   1.494   2.685  13.154 -0.1868 -0.1821 -0.1289
 1578SOL     OW16195   2.226   1.373  14.245 -0.4057  0.4049 -0.1289
 1578SOL    HW116196   2.270   1.316  14.183 -0.7763  2.6735 -2.4926
 1578SOL    HW216197   2.153   1.392  14.186 -0.2482  0.5980 -0.2606
 1579SOL     OW16198   3.436   3.160   3.055  0.1366 -0.0655  0.3466
 1579SOL    HW116199   3.342   3.147   3.069  0.0689  0.0472  0.0108
 1579SOL    HW216200   3.443   3.088   2.992 -2.2034 -0.7700  0.8852
 1580SOL     OW16201   3.380   1.371   2.424  0.7996 -0.1540  0.4963
 1580SOL    HW116202   3.372   1.390   2.518  0.7133 -0.4968  0.5580
 1580SOL    HW216203   3.443   1.438   2.400  0.5701  0.0098  0.3526
 1581SOL     OW16204   1.273   0.338  11.375  0.2895  0.1917 -0.7323
 1581SOL    HW116205   1.330   0.312  11.447  0.0978 -2.1986 -1.4278
 1581SOL    HW216206   1.286   0.265  11.313 -2.6621 -2.3547  1.6667
 1582SOL     OW16207   2.534   3.075   6.939  0.1027  0.2414  0.4879
 1582SOL    HW116208   2.623   3.064   6.908 -0.7837 -2.4141 -1.1162
 1582SOL    HW216209   2.521   3.163   6.904 -0.7182  0.1904  0.6484
 1583SOL     OW16210   3.089   1.644   1.527 -0.8382 -0.6695  0.1143
 1583SOL    HW116211   3.123   1.586   1.460 -1.2953  0.3286 -0.9934
 1583SOL    HW216212   2.994   1.643   1.512 -0.7564  1.5330 -0.6477
 1584SOL     OW16213   3.857   0.617   9.460  0.0671  0.2316  0.6863
 1584SOL    HW116214   3.869   0.691   9.520 -0.9280  0.1732  0.9553
 1584SOL    HW216215   3.915   0.549   9.495 -0.1930 -0.0406  0.5831
 1585SOL     OW16216   0.677   1.625   6.383  0.5514 -0.0531 -0.1786
 1585SOL    HW116217   0.716   1.651   6.299  1.0749  0.0126  0.0806
 1585SOL    HW216218   0.722   1.542   6.402 -0.1501 -0.2155  0.7647
 1586SOL     OW16219   1.746   4.680   4.186 -0.3021 -0.1480 -0.3387
 1586SOL    HW116220   1.755   0.054   4.179 -1.7333  0.1287  1.3593
 1586SOL    HW216221   1.653   4.668   4.165  0.4525 -3.0162 -1.8989
 1587SOL     OW16222   0.068   3.779   8.391  0.0673  0.2860 -0.7259
 1587SOL    HW116223   0.106   3.799   8.306 -1.8656  1.0656 -1.4180
 1587SOL    HW216224   0.047   3.686   8.376  0.2572  0.2255 -0.6126
 1588SOL     OW16225   2.735   4.047   7.709  0.2177  0.2446 -0.5351
 1588SOL    HW116226   2.709   3.957   7.690 -1.9110  0.8163 -0.3547
 1588SOL    HW216227   2.726   4.095   7.627  0.2174  0.3755 -0.4592
 1589SOL     OW16228   4.545   3.611   8.254 -0.0649  0.1112 -0.2587
 1589SOL    HW116229   4.574   3.568   8.174 -0.4925 -1.0242  0.1973
 1589SOL    HW216230   4.575   3.548   8.320 -1.9179 -2.3047 -1.7224
 1590SOL     OW16231   3.985   2.310  11.864  0.0205 -0.1440 -0.1685
 1590SOL    HW116232   3.927   2.386  11.865  0.5317  0.2291  0.5931
 1590SOL    HW216233   3.944   2.273  11.786 -0.6585  0.3114 -0.0292
 1591SOL     OW16234   3.204   3.300   4.242  0.1108  0.0670  0.5158
 1591SOL    HW116235   3.225   3.242   4.169  0.4691 -0.1263  0.7726
 1591SOL    HW216236   3.292   3.309   4.279  0.1848  0.1364  0.3205
 1592SOL     OW16237   4.140   0.960   2.116 -0.7174  0.4485 -0.0462
 1592SOL    HW116238   4.173   0.882   2.070  5.6335  1.7548  2.3196
 1592SOL    HW216239   4.054   0.967   2.075 -0.9918 -2.2310  0.0213
 1593SOL     OW16240   2.608   1.876   5.942  0.2904 -0.0439  0.0586
 1593SOL    HW116241   2.586   1.867   5.850  2.1148 -0.2380 -0.3536
 1593SOL    HW216242   2.639   1.790   5.970 -0.3197  0.2931  1.7761
 1594SOL     OW16243   4.133   4.041   2.277  0.1984 -0.2170  0.2092
 1594SOL    HW116244   4.042   4.067   2.294  1.1212  3.1967 -0.1896
 1594SOL    HW216245   4.163   4.112   2.220 -1.5500  1.1575  0.9893
 1595SOL     OW16246   1.223   0.447  15.039 -0.1275  0.0579  0.3960
 1595SOL    HW116247   1.200   0.465  14.948  0.8816 -0.6685 -0.0058
 1595SOL    HW216248   1.229   0.351  15.032 -0.4218 -0.0224  1.2676
 1596SOL     OW16249   3.950   2.679   5.793  0.2170  0.3339 -0.0973
 1596SOL    HW116250   3.996   2.598   5.816 -0.6345  0.1589  1.0033
 1596SOL    HW216251   3.873   2.664   5.847 -0.8074  1.8027 -1.1859
 1597SOL     OW16252   3.594   0.939   2.064 -0.1100  0.1423  0.0564
 1597SOL    HW116253   3.677   0.977   2.094 -0.4011  0.0320  0.9919
 1597SOL    HW216254   3.577   0.984   1.981  0.8125  1.4509  0.5722
 1598SOL     OW16255   1.636   2.049  15.660  0.2763 -0.3263  0.5477
 1598SOL    HW116256   1.613   1.956  15.664  0.1165 -0.2637  1.0442
 1598SOL    HW216257   1.677   2.064  15.574 -1.0144  0.4546  0.0717
 1599SOL     OW16258   1.688   2.737   3.786 -0.3523  0.0376 -0.5053
 1599SOL    HW116259   1.639   2.692   3.717  0.6175 -0.8332 -0.6275
 1599SOL    HW216260   1.777   2.729   3.751  0.6519  1.1609  1.7788
 1600SOL     OW16261   1.727   0.548   6.297 -0.0340 -0.5925 -0.3972
 1600SOL    HW116262   1.651   0.536   6.355  1.3520  1.2928  1.7718
 1600SOL    HW216263   1.707   0.627   6.248  0.0255  1.5385  3.0291
 1601SOL     OW16264   4.484   0.530   4.052 -0.2626 -0.6618  0.3403
 1601SOL    HW116265   4.541   0.600   4.021  0.3911 -1.0842  0.5863
 1601SOL    HW216266   4.403   0.547   4.003  0.3695 -1.2965 -0.9355
 1602SOL     OW16267   0.728   0.124   6.719 -0.3805 -0.3008 -0.8010
 1602SOL    HW116268   0.773   0.100   6.638  0.7606  2.1808 -0.9042
 1602SOL    HW216269   0.794   0.094   6.781 -1.3485 -1.5833 -0.3929
 1603SOL     OW16270   2.085   3.967  12.530  0.1410  0.4761  0.4720
 1603SOL    HW116271   2.019   3.952  12.598 -1.4076  0.9610 -0.9388
 1603SOL    HW216272   2.165   3.986  12.579  0.6022 -1.7160  0.5876
 1604SOL     OW16273   3.010   1.903   4.615 -0.1659 -0.0362 -0.1627
 1604SOL    HW116274   2.961   1.825   4.638 -0.5817  0.7334  1.5633
 1604SOL    HW216275   3.078   1.913   4.682  0.4370 -1.9745 -0.4768
 1605SOL     OW16276   4.336   4.402   8.499  0.2939  1.0038 -0.6697
 1605SOL    HW116277   4.388   4.345   8.555  2.0899  2.3990 -0.9239
 1605SOL    HW216278   4.252   4.357   8.487  0.2006  0.7292  0.9774
 1606SOL     OW16279   0.048   1.812   1.651  0.5032 -0.3276 -0.0010
 1606SOL    HW116280   0.003   1.730   1.669 -1.3117  0.7208  0.3342
 1606SOL    HW216281   0.063   1.812   1.556  2.0864  3.2363  0.2226
 1607SOL     OW16282   1.794   4.404  17.255  0.6252  0.2007 -0.3060
 1607SOL    HW116283   1.826   4.484  17.213 -1.1192 -0.7329 -3.4244
 1607SOL    HW216284   1.737   4.368  17.187  0.9941  0.7973 -0.9331
 1608SOL     OW16285   1.424   2.929   1.877  0.3348 -0.3544  0.4060
 1608SOL    HW116286   1.356   2.961   1.818 -0.0145  0.3929  1.2073
 1608SOL    HW216287   1.411   2.976   1.960 -1.2219  1.1509 -0.6973
 1609SOL     OW16288   4.116   0.745   5.866  0.4619 -0.1323 -0.1479
 1609SOL    HW116289   4.180   0.752   5.937  0.8237  0.4444 -0.5257
 1609SOL    HW216290   4.113   0.835   5.833  0.8253 -0.6891 -1.7028
 1610SOL     OW16291   2.927   3.471  16.308 -0.3806  0.2838 -0.7782
 1610SOL    HW116292   3.012   3.509  16.286  0.2542 -0.4450  0.4453
 1610SOL    HW216293   2.876   3.552  16.307  0.5296  0.8610 -0.0643
 1611SOL     OW16294   4.265   3.767  10.869 -0.4141 -0.0972 -0.6093
 1611SOL    HW116295   4.273   3.820  10.790 -0.4802  0.3811 -0.2957
 1611SOL    HW216296   4.210   3.695  10.838 -2.6949  0.7453  1.4549
 1612SOL     OW16297   1.594   3.048  10.254 -0.8308 -0.1286 -0.3119
 1612SOL    HW116298   1.500   3.063  10.265 -0.7577  1.7361 -2.2299
 1612SOL    HW216299   1.606   3.074  10.163  1.2576 -0.1471 -0.0240
 1613SOL     OW16300   3.949   3.888  11.258  0.3018 -0.2940 -0.2994
 1613SOL    HW116301   4.007   3.818  11.288  0.0789 -1.0773 -1.6873
 1613SOL    HW216302   3.959   3.948  11.332  0.4902 -0.0268 -0.5425
 1614SOL     OW16303   3.630   0.984  12.257  0.0838 -0.0802 -0.1396
 1614SOL    HW116304   3.560   1.046  12.237  0.4922 -0.5350 -2.9876
 1614SOL    HW216305   3.699   1.033  12.213 -1.4172  0.4093 -1.9621
 1615SOL     OW16306   0.777   1.927   3.225 -0.3160 -0.0973 -0.0201
 1615SOL    HW116307   0.704   1.981   3.254 -0.7702  0.0125 -1.3637
 1615SOL    HW216308   0.744   1.845   3.189 -0.4667 -1.1417  2.5360
 1616SOL     OW16309   1.471   1.589   2.454 -0.2445 -0.2403  0.3353
 1616SOL    HW116310   1.421   1.529   2.399  1.9442 -2.1570  0.4519
 1616SOL    HW216311   1.484   1.653   2.383 -1.1839 -2.2638 -1.6855
 1617SOL     OW16312   0.278   3.929   4.572  0.1403  0.0381  0.3794
 1617SOL    HW116313   0.321   3.854   4.613 -1.1457 -0.0448  1.5835
 1617SOL    HW216314   0.354   3.968   4.527  1.8192 -1.3268  2.0383
 1618SOL     OW16315   3.283   1.485   9.845  0.0228  0.3114 -0.1070
 1618SOL    HW116316   3.319   1.573   9.854 -1.0155  0.5272  1.9923
 1618SOL    HW216317   3.353   1.437   9.801  1.6470 -0.1755  3.0343
 1619SOL     OW16318   2.302   3.900   3.481 -0.1381  0.2043 -0.2155
 1619SOL    HW116319   2.214   3.863   3.477 -0.2291  0.2456  1.6853
 1619SOL    HW216320   2.336   3.830   3.536 -1.3151  0.1872  0.4923
 1620SOL     OW16321   4.716   3.275   8.203  0.0788  0.4561 -0.0274
 1620SOL    HW116322   4.638   3.220   8.199  1.5809 -1.5657 -1.1502
 1620SOL    HW216323   0.059   3.207   8.224 -1.6624 -0.7583  1.4502
 1621SOL     OW16324   3.463   2.028   7.920  0.1892 -0.1802  0.2043
 1621SOL    HW116325   3.383   1.978   7.906 -1.3401  2.1744  0.4230
 1621SOL    HW216326   3.533   1.974   7.883  0.1835 -0.4563  0.5973
 1622SOL     OW16327   1.921   0.095   4.946  0.3238 -0.2079  0.2897
 1622SOL    HW116328   1.987   0.026   4.951  0.4947 -0.0483  0.2142
 1622SOL    HW216329   1.884   0.067   4.862 -2.4878  1.2603  1.0326
 1623SOL     OW16330   3.073   0.213   3.452 -0.3994  0.2891  0.3975
 1623SOL    HW116331   3.050   0.155   3.380 -0.3006 -1.0804  1.4544
 1623SOL    HW216332   3.133   0.148   3.490 -0.1635  0.3394  0.1104
 1624SOL     OW16333   0.064   0.905   2.093  0.4216 -0.3402 -0.1970
 1624SOL    HW116334   0.054   0.992   2.056  1.8006  0.1560  0.6205
 1624SOL    HW216335   4.700   0.881   2.130  0.1843  1.8106  0.6567
 1625SOL     OW16336   4.636   2.267   2.953  0.0622  1.2050  0.1809
 1625SOL    HW116337   4.645   2.315   2.872 -1.3162 -1.1982 -1.3953
 1625SOL    HW216338   4.591   2.327   3.013 -0.8531  1.9381 -1.2634
 1626SOL     OW16339   4.701   2.736   1.742  0.2697  0.4689  0.4584
 1626SOL    HW116340   0.061   2.780   1.769 -0.0483 -0.3919  2.8096
 1626SOL    HW216341   4.700   2.676   1.817  1.1921 -1.0248 -0.7272
 1627SOL     OW16342   4.272   3.865   2.432 -0.2911 -0.4128 -0.0005
 1627SOL    HW116343   4.220   3.928   2.382  0.0919 -1.0802 -1.2407
 1627SOL    HW216344   4.263   3.786   2.378 -0.3125 -0.8208  0.6060
 1628SOL     OW16345   1.782   0.497  10.977 -0.0604  0.0764 -0.3459
 1628SOL    HW116346   1.709   0.443  11.009 -0.6365  0.4492 -1.0314
 1628SOL    HW216347   1.818   0.444  10.907  2.0281  0.7654  0.2019
 1629SOL     OW16348   0.975   1.629   3.880 -0.1977 -0.4205  0.3540
 1629SOL    HW116349   0.964   1.657   3.971  0.9379  0.5012  0.2197
 1629SOL    HW216350   0.955   1.702   3.821 -1.0176 -0.8427  0.1163
 1630SOL     OW16351   1.600   4.606  16.865  0.6776 -0.4006  0.6746
 1630SOL    HW116352   1.672   4.669  16.872  0.2657  0.2816 -1.2797
 1630SOL    HW216353   1.538   4.642  16.802  1.4034 -0.0388  0.1701
 1631SOL     OW16354   0.430   0.866  15.210 -0.4886 -0.7680  0.6449
 1631SOL    HW116355   0.436   0.888  15.302 -0.8148  0.9905  0.2520
 1631SOL    HW216356   0.497   0.798  15.202 -0.4443 -0.5897 -0.5767
 1632SOL     OW16357   1.758   3.510   7.324  0.4903  0.4980 -0.2036
 1632SOL    HW116358   1.790   3.489   7.411  1.2970  0.8573 -0.4096
 1632SOL    HW216359   1.783   3.435   7.271  2.9294  0.3186  1.2100
 1633SOL     OW16360   3.158   2.193   6.471 -0.0762  0.0239 -0.1883
 1633SOL    HW116361   3.140   2.287   6.466  0.7769  0.2623  1.1453
 1633SOL    HW216362   3.079   2.168   6.519  0.1483 -1.0882 -0.3920
 1634SOL     OW16363   1.535   4.001  16.242  0.3472 -0.1276  0.4750
 1634SOL    HW116364   1.539   3.910  16.271  1.1176  0.1826  1.3502
 1634SOL    HW216365   1.618   3.992  16.195  0.7016 -0.2881  1.1266
 1635SOL     OW16366   2.695   1.843   6.345 -0.1157 -0.3490  0.4890
 1635SOL    HW116367   2.626   1.877   6.402  1.1387  0.6494  1.4141
 1635SOL    HW216368   2.774   1.875   6.388  0.3725 -0.6536 -0.1762
 1636SOL     OW16369   3.979   2.372   4.425 -0.0678 -0.0965  0.4100
 1636SOL    HW116370   3.982   2.387   4.331  1.0634 -0.4454  0.3797
 1636SOL    HW216371   4.006   2.280   4.438  1.0751  0.5464  2.6125
 1637SOL     OW16372   0.302   4.110   7.289  0.4476 -0.0739  0.1282
 1637SOL    HW116373   0.245   4.173   7.245  1.1405 -0.3710 -1.1887
 1637SOL    HW216374   0.263   4.032   7.251 -0.2062  0.4046 -0.1899
 1638SOL     OW16375   2.683   4.103   8.138 -0.4071  0.3524 -0.0234
 1638SOL    HW116376   2.741   4.171   8.107  1.1412 -0.2225  1.6368
 1638SOL    HW216377   2.706   4.028   8.083 -2.1027 -2.1317  2.5820
 1639SOL     OW16378   0.153   2.257   6.780 -0.1637  0.3187  0.0996
 1639SOL    HW116379   0.157   2.277   6.687 -0.4006  0.6575  0.1646
 1639SOL    HW216380   0.159   2.348   6.809 -1.2593  0.2620  0.5099
 1640SOL     OW16381   0.147   2.655   5.758  0.2286  0.5357 -0.3586
 1640SOL    HW116382   0.093   2.704   5.695  0.9993  1.6339 -0.1560
 1640SOL    HW216383   0.216   2.719   5.775  0.2214  0.1884  0.9883
 1641SOL     OW16384   2.043   3.170   1.839 -0.2534  0.1151 -0.1925
 1641SOL    HW116385   2.109   3.240   1.841 -0.7940  0.6101  0.3629
 1641SOL    HW216386   2.065   3.124   1.920  0.9408  0.5632 -0.2565
 1642SOL     OW16387   2.014   1.955   8.873 -0.1400  0.1049  0.3087
 1642SOL    HW116388   2.090   1.980   8.820  0.3327  0.6600  1.2711
 1642SOL    HW216389   2.046   1.881   8.925 -0.3229 -1.3642 -1.6441
 1643SOL     OW16390   1.853   0.579   4.165  0.5713 -0.1868 -0.1195
 1643SOL    HW116391   1.835   0.515   4.095  1.7344 -1.4483  0.7179
 1643SOL    HW216392   1.942   0.601   4.139  0.6396 -0.3844 -0.0588
 1644SOL     OW16393   4.048   3.833  15.230 -0.3846  0.2771  1.4481
 1644SOL    HW116394   3.957   3.816  15.208 -0.1438 -1.9348  2.1776
 1644SOL    HW216395   4.080   3.758  15.281  1.1358  0.5559  0.8994
 1645SOL     OW16396   1.378   0.564   5.508 -0.6867  0.0176 -0.5685
 1645SOL    HW116397   1.333   0.642   5.541 -0.1929  0.2056 -0.3482
 1645SOL    HW216398   1.339   0.492   5.559  1.3810 -0.3502  0.5007
 1646SOL     OW16399   2.017   3.818  16.600 -0.0889  0.2038 -0.4266
 1646SOL    HW116400   2.065   3.865  16.668  0.0576  0.9276 -1.0322
 1646SOL    HW216401   2.034   3.859  16.515  2.1423  0.2003  0.0170
 1647SOL     OW16402   0.520   4.447  16.260 -0.3940  0.2211  0.1872
 1647SOL    HW116403   0.439   4.409  16.295  1.4595 -2.7331  1.2199
 1647SOL    HW216404   0.592   4.405  16.307 -0.2479  1.1475  0.7990
 1648SOL     OW16405   1.573   1.218   7.344 -0.5712 -0.4482  0.3240
 1648SOL    HW116406   1.497   1.264   7.309 -1.1250 -1.6393 -0.0284
 1648SOL    HW216407   1.596   1.284   7.410  1.0142  0.8608 -1.5337
 1649SOL     OW16408   3.313   2.192   5.213  0.8349 -0.4881 -0.1896
 1649SOL    HW116409   3.404   2.216   5.199  0.9022 -1.1049 -0.8170
 1649SOL    HW216410   3.264   2.274   5.211  0.7168 -0.4424  3.4366
 1650SOL     OW16411   3.830   1.379   8.252  0.3556  0.1845 -0.2479
 1650SOL    HW116412   3.828   1.467   8.290 -0.0698 -0.6564  1.6912
 1650SOL    HW216413   3.747   1.385   8.204  0.1417  0.6747  0.1775
 1651SOL     OW16414   0.282   2.855  16.144 -0.4013  0.0685  0.0168
 1651SOL    HW116415   0.221   2.908  16.093 -0.6839  0.4339  0.7294
 1651SOL    HW216416   0.345   2.925  16.160 -0.2496 -0.3285  1.1701
 1652SOL     OW16417   1.374   0.839   9.433  0.3349  0.2448 -0.0852
 1652SOL    HW116418   1.383   0.780   9.508  2.8874  0.7760  0.0415
 1652SOL    HW216419   1.323   0.781   9.377 -0.2730  1.6267 -0.9543
 1653SOL     OW16420   0.227   1.341  10.229 -0.0674 -0.1998 -0.1806
 1653SOL    HW116421   0.280   1.291  10.168 -1.4961 -1.0932 -0.7024
 1653SOL    HW216422   0.227   1.291  10.311  0.1770 -1.2630 -0.8400
 1654SOL     OW16423   4.383   3.167   8.153 -0.3293 -0.0325  0.2836
 1654SOL    HW116424   4.379   3.125   8.239 -0.6300 -1.3237 -0.3579
 1654SOL    HW216425   4.304   3.220   8.160 -0.0715  0.0076  2.8379
 1655SOL     OW16426   2.588   3.386   9.633  0.5218  0.0173 -0.7940
 1655SOL    HW116427   2.637   3.444   9.691 -0.2635  0.5296 -0.6467
 1655SOL    HW216428   2.599   3.430   9.549  0.9055  2.0464  0.3173
 1656SOL     OW16429   0.700   1.472   8.154 -0.3188 -0.3122  0.2172
 1656SOL    HW116430   0.781   1.486   8.105 -0.6005 -0.8121 -0.3940
 1656SOL    HW216431   0.639   1.523   8.101  0.7606 -0.5004 -1.2067
 1657SOL     OW16432   2.415   4.397   2.216 -0.6715  0.4605  0.3038
 1657SOL    HW116433   2.375   4.388   2.129 -0.2312  0.2086  0.1292
 1657SOL    HW216434   2.494   4.346   2.198  0.7938  2.9159 -0.2046
 1658SOL     OW16435   0.362   0.930  13.466 -0.0765 -0.0109  0.0954
 1658SOL    HW116436   0.331   1.018  13.448 -0.2999 -0.2633 -0.7581
 1658SOL    HW216437   0.326   0.883  13.391 -1.7023  0.4777  0.5849
 1659SOL     OW16438   4.144   3.268  15.109  0.0639  0.6259  1.0517
 1659SOL    HW116439   4.187   3.220  15.180  0.5713  0.2389  0.4857
 1659SOL    HW216440   4.216   3.319  15.074 -0.2207  0.2420 -0.0979
 1660SOL     OW16441   2.323   2.519   2.504 -0.1228  0.2991  0.0463
 1660SOL    HW116442   2.239   2.506   2.548 -0.4084  3.2024  0.3743
 1660SOL    HW216443   2.296   2.472   2.425 -0.1966  0.9621 -0.3252
 1661SOL     OW16444   4.100   0.230  11.315 -0.4184  0.2058 -0.3718
 1661SOL    HW116445   4.127   0.144  11.282  0.1166  0.2848 -0.1353
 1661SOL    HW216446   4.023   0.243  11.260  1.5328  2.9824 -2.4257
 1662SOL     OW16447   3.843   3.614   3.500 -0.5089 -0.5703  0.0799
 1662SOL    HW116448   3.915   3.558   3.470  1.8890  0.9660  2.9875
 1662SOL    HW216449   3.805   3.626   3.413  0.8058 -0.5132 -0.4784
 1663SOL     OW16450   3.051   2.857  16.715 -0.5269 -0.2583  0.1540
 1663SOL    HW116451   3.043   2.939  16.666 -0.8998  0.5753  1.6046
 1663SOL    HW216452   3.141   2.833  16.696 -1.2225 -1.1749 -1.9251
 1664SOL     OW16453   3.241   1.292   0.610 -0.9185  0.3762  0.2148
 1664SOL    HW116454   3.175   1.223   0.602 -1.4706  1.1964 -2.0929
 1664SOL    HW216455   3.201   1.346   0.678 -0.5472  0.5602  0.2886
 1665SOL     OW16456   4.043   1.727   0.480 -0.2579  0.2246 -0.0237
 1665SOL    HW116457   4.109   1.659   0.467  0.1164  1.0931 -2.6490
 1665SOL    HW216458   3.963   1.673   0.479 -0.3942  0.3478  2.3751
 1666SOL     OW16459   2.551   4.650  13.770  0.8145  0.2502 -0.1858
 1666SOL    HW116460   2.548   4.717  13.839 -0.7443  1.1539 -1.1391
 1666SOL    HW216461   2.462   4.671  13.740 -0.1242 -2.3719  0.7117
 1667SOL     OW16462   1.835   1.896   5.542  0.1226 -0.7175  0.4170
 1667SOL    HW116463   1.746   1.928   5.557  0.4364  1.5200 -2.4935
 1667SOL    HW216464   1.834   1.806   5.574  2.2490  0.3950  3.6436
 1668SOL     OW16465   3.402   1.140  16.928 -0.2004 -0.3451  0.6883
 1668SOL    HW116466   3.429   1.136  17.020  1.7101 -1.7846  0.0562
 1668SOL    HW216467   3.421   1.051  16.900  1.8558 -0.0589  1.1904
 1669SOL     OW16468   1.633   1.935   8.484  0.2490 -0.5099 -0.5074
 1669SOL    HW116469   1.666   1.858   8.531  0.3781  0.1251  0.4402
 1669SOL    HW216470   1.712   1.967   8.441  0.1692 -0.0956 -0.3514
 1670SOL     OW16471   4.505   1.159  13.441  0.1414  0.0868 -0.2175
 1670SOL    HW116472   4.556   1.090  13.483 -0.6192 -1.0993 -1.2476
 1670SOL    HW216473   4.544   1.240  13.474 -0.7344  1.2988 -2.1716
 1671SOL     OW16474   0.768   4.434   4.297  0.0513  0.0968  0.3164
 1671SOL    HW116475   0.827   4.428   4.372 -1.2991  0.0724  1.3928
 1671SOL    HW216476   0.780   4.525   4.271 -1.4173  0.8862  2.3103
 1672SOL     OW16477   1.799   0.407   6.026  0.2168  0.0474  0.0863
 1672SOL    HW116478   1.767   0.471   6.090 -0.0175 -0.1385  0.1538
 1672SOL    HW216479   1.728   0.344   6.018 -0.0004 -0.0211  2.7311
 1673SOL     OW16480   2.507   0.918  11.282 -0.3745  0.9175 -0.4328
 1673SOL    HW116481   2.601   0.937  11.277 -0.2049  0.5970  1.4065
 1673SOL    HW216482   2.481   0.897  11.193 -2.5159  0.7688  0.2331
 1674SOL     OW16483   1.820   0.797   2.963 -0.4462 -0.3900 -0.0465
 1674SOL    HW116484   1.899   0.843   2.991 -0.2084 -1.3514  0.8785
 1674SOL    HW216485   1.750   0.861   2.969  0.2137  0.4231 -1.0577
 1675SOL     OW16486   1.267   3.245   5.953 -0.6178 -0.0254 -0.2479
 1675SOL    HW116487   1.293   3.177   5.891  1.6107  0.7947 -0.2209
 1675SOL    HW216488   1.210   3.297   5.898  1.6728  1.6296 -1.0858
 1676SOL     OW16489   1.765   2.396  12.866 -0.3413 -0.3410  0.1325
 1676SOL    HW116490   1.689   2.401  12.923  1.0105  2.4394  1.7076
 1676SOL    HW216491   1.739   2.454  12.795 -0.1495 -1.7486 -1.0973
 1677SOL     OW16492   2.348   1.491   5.774  0.5583  0.2654 -0.2068
 1677SOL    HW116493   2.304   1.430   5.833  1.9059 -1.7359 -1.2564
 1677SOL    HW216494   2.299   1.569   5.799  0.8303 -0.0931  1.4009
 1678SOL     OW16495   3.814   2.028   6.345  0.0145  0.2785  0.0928
 1678SOL    HW116496   3.811   2.118   6.378  0.6528  0.7969 -1.2733
 1678SOL    HW216497   3.827   2.042   6.251 -2.0406 -1.8649 -0.5297
 1679SOL     OW16498   3.134   1.798   3.087  0.2406 -0.5061  0.0569
 1679SOL    HW116499   3.065   1.804   3.021  0.1177 -0.9393  0.1402
 1679SOL    HW216500   3.113   1.874   3.142 -1.2158 -0.2479 -0.8728
 1680SOL     OW16501   1.546   2.561   7.640  0.1949  0.0678  0.5796
 1680SOL    HW116502   1.555   2.636   7.582  1.4493  0.3755  1.1888
 1680SOL    HW216503   1.589   2.586   7.721  1.4381 -2.5447  0.7191
 1681SOL     OW16504   3.532   2.623   5.682  0.1395 -0.4119  0.5262
 1681SOL    HW116505   3.556   2.572   5.760  0.3685  0.3249  0.9367
 1681SOL    HW216506   3.446   2.591   5.654  0.8898 -1.5512 -0.4931
 1682SOL     OW16507   4.091   4.074  10.820  0.1841  0.6390  0.2399
 1682SOL    HW116508   4.013   4.032  10.857  1.1547 -1.3672  0.0196
 1682SOL    HW216509   4.158   4.040  10.880 -1.0956  0.3547  1.5305
 1683SOL     OW16510   0.818   2.301   5.951  0.3416  0.0841  0.0737
 1683SOL    HW116511   0.823   2.396   5.938  2.9581 -0.1640 -0.8006
 1683SOL    HW216512   0.732   2.284   5.913  0.7734  0.9262 -1.2866
 1684SOL     OW16513   0.870   0.256  13.350  0.4937  0.2996  0.0462
 1684SOL    HW116514   0.863   0.226  13.441 -1.4917 -1.7000 -0.7915
 1684SOL    HW216515   0.792   0.213  13.315  0.5929  1.3436 -1.4519
 1685SOL     OW16516   1.495   4.504   8.653 -0.3093  0.0330  0.5195
 1685SOL    HW116517   1.521   4.539   8.738  1.2357 -0.5050  0.2628
 1685SOL    HW216518   1.432   4.439   8.683  1.2091 -0.1710  3.2522
 1686SOL     OW16519   1.588   2.052   8.765 -0.1294  0.1396  0.2830
 1686SOL    HW116520   1.619   1.969   8.728 -0.0359  0.4480 -0.3335
 1686SOL    HW216521   1.666   2.102   8.791 -1.1012  2.2463 -0.8289
 1687SOL     OW16522   1.051   3.607   4.117  0.3828 -0.2161  0.0055
 1687SOL    HW116523   1.102   3.565   4.186 -0.0379 -2.3241 -0.9802
 1687SOL    HW216524   1.121   3.643   4.062  0.5249  1.1530  1.0715
 1688SOL     OW16525   2.501   0.997  12.976 -0.0779 -0.6069 -0.2845
 1688SOL    HW116526   2.554   0.973  13.052  1.0247  1.0765 -0.5383
 1688SOL    HW216527   2.422   1.036  13.014 -0.4875 -1.0042 -0.7199
 1689SOL     OW16528   4.351   1.211   6.391 -0.3464  0.0414 -1.3199
 1689SOL    HW116529   4.430   1.265   6.382  1.0717 -2.0687 -1.5544
 1689SOL    HW216530   4.381   1.160   6.466 -1.0137 -0.3516 -1.3232
 1690SOL     OW16531   1.838   1.411  11.557  0.6772  0.7354  0.1619
 1690SOL    HW116532   1.931   1.428  11.542  1.8236 -3.9619  1.9088
 1690SOL    HW216533   1.826   1.398  11.651  1.9849 -3.5352 -0.2499
 1691SOL     OW16534   1.375   1.240   7.015 -1.0228 -0.4652 -0.7936
 1691SOL    HW116535   1.398   1.333   7.011 -1.3943 -0.3090  0.4397
 1691SOL    HW216536   1.457   1.197   6.996 -1.9183 -1.9365 -1.3107
 1692SOL     OW16537   0.907   2.847   0.007  0.1231 -0.0343 -0.0765
 1692SOL    HW116538   0.841   2.846   0.077 -1.3480  1.0700 -1.4386
 1692SOL    HW216539   0.917   2.939  17.670 -1.2928 -0.1379 -1.0681
 1693SOL     OW16540   1.561   4.090  15.357 -0.3381  0.0835  0.2971
 1693SOL    HW116541   1.477   4.047  15.337 -1.3268  2.8508 -1.4322
 1693SOL    HW216542   1.573   4.046  15.441  2.4535  0.3890  0.0627
 1694SOL     OW16543   0.261   2.497  17.482 -0.4135  0.2641 -0.0516
 1694SOL    HW116544   0.308   2.468  17.561 -0.2744 -0.5547 -0.4278
 1694SOL    HW216545   0.275   2.427  17.418  2.7249 -0.5733  1.5461
 1695SOL     OW16546   3.989   0.012  13.075  0.3463  0.5060  0.4014
 1695SOL    HW116547   4.057   4.668  13.053 -1.4932 -0.7049 -1.6871
 1695SOL    HW216548   4.006   0.067  12.999 -2.3230  1.0392  0.2070
 1696SOL     OW16549   3.830   1.570   1.821  0.0976 -0.0585  0.0602
 1696SOL    HW116550   3.897   1.611   1.767 -2.4744  0.2465 -2.8740
 1696SOL    HW216551   3.874   1.555   1.905 -3.5054  3.4381  2.6162
 1697SOL     OW16552   1.081   0.156   2.373 -0.0912  0.3961 -0.1701
 1697SOL    HW116553   0.993   0.125   2.392  0.2845 -0.8237 -0.4110
 1697SOL    HW216554   1.114   0.143   2.462  1.9415  4.9617 -0.2799
 1698SOL     OW16555   3.281   0.944  17.496  0.0168  0.3520 -0.0879
 1698SOL    HW116556   3.244   1.015  17.443  0.4111  1.0092  0.5299
 1698SOL    HW216557   3.285   0.995  17.576 -1.4778 -0.0026  0.2168
 1699SOL     OW16558   0.837   0.915   8.432  0.0694  0.3309 -0.5450
 1699SOL    HW116559   0.862   0.907   8.523  0.6176  2.1439 -0.5319
 1699SOL    HW216560   0.742   0.918   8.443  0.1586  0.1167  0.2776
 1700SOL     OW16561   0.773   0.005  16.573 -0.0361 -0.1628  0.1908
 1700SOL    HW116562   0.791   0.023  16.665 -1.4031 -3.6856  1.1398
 1700SOL    HW216563   0.688   0.047  16.564  0.5394  1.1468  0.8971
 1701SOL     OW16564   0.508   2.315   5.557 -0.1915 -0.1749 -0.0602
 1701SOL    HW116565   0.458   2.383   5.602  0.6930 -0.2534  1.0477
 1701SOL    HW216566   0.553   2.269   5.627  2.0070  1.1807 -0.5784
 1702SOL     OW16567   3.929   4.478   0.758 -0.1084 -0.0819  0.0801
 1702SOL    HW116568   3.842   4.464   0.719  0.4118 -1.4696 -0.5612
 1702SOL    HW216569   3.936   4.435   0.843 -0.2269 -0.2225  0.0181
 1703SOL     OW16570   3.196   1.395   8.456  0.4551  0.8707  0.2479
 1703SOL    HW116571   3.128   1.330   8.473  1.3954 -0.3227 -0.6188
 1703SOL    HW216572   3.231   1.401   8.545  1.6643 -1.0549 -0.1138
 1704SOL     OW16573   0.911   0.069   6.467 -0.3130  0.0235 -0.7395
 1704SOL    HW116574   0.947   4.719   6.519 -0.6753  0.1617 -0.2973
 1704SOL    HW216575   0.973   0.070   6.394  0.4986 -0.8913 -0.0614
 1705SOL     OW16576   2.317   0.981   5.133  0.0039 -0.4315 -0.1428
 1705SOL    HW116577   2.339   0.889   5.115  0.3400 -0.2512 -0.6466
 1705SOL    HW216578   2.238   0.985   5.187  0.2592 -1.8843  0.3524
 1706SOL     OW16579   3.936   0.861  15.237 -0.3106 -0.4210 -0.0952
 1706SOL    HW116580   3.910   0.825  15.322 -0.1456  0.2773  0.2471
 1706SOL    HW216581   3.880   0.814  15.174  1.2456 -0.8093 -1.1772
 1707SOL     OW16582   3.321   3.655   6.028 -0.2375  0.1022 -0.3247
 1707SOL    HW116583   3.386   3.626   5.963 -0.8877  1.4500 -1.5670
 1707SOL    HW216584   3.244   3.679   5.976 -1.1024 -2.4101 -0.1908
 1708SOL     OW16585   4.010   0.416   1.721 -0.4378  0.4516 -0.8210
 1708SOL    HW116586   3.921   0.440   1.698 -0.9761  1.1213  1.9771
 1708SOL    HW216587   4.054   0.406   1.636 -3.1131  1.4042 -2.3221
 1709SOL     OW16588   0.739   1.361  13.429  0.0757  0.1649  0.2932
 1709SOL    HW116589   0.804   1.352  13.360  2.5442 -1.2908  2.8255
 1709SOL    HW216590   0.733   1.453  13.454 -1.1093  0.5075 -1.2160
 1710SOL     OW16591   3.423   1.295   1.511  0.2570 -0.0868 -0.3938
 1710SOL    HW116592   3.354   1.284   1.576  2.7452  0.5555  2.3596
 1710SOL    HW216593   3.505   1.263   1.548 -0.2428 -0.4176  0.4179
 1711SOL     OW16594   2.876   1.469   3.030 -0.4363  0.1368 -0.1388
 1711SOL    HW116595   2.889   1.525   3.106 -0.0904 -1.1476  0.7500
 1711SOL    HW216596   2.953   1.489   2.977  0.8133  0.3986  1.7952
 1712SOL     OW16597   2.224   0.930   2.857 -0.3501  0.0988  0.6650
 1712SOL    HW116598   2.270   0.965   2.782 -0.2511 -1.2722  0.0745
 1712SOL    HW216599   2.286   0.967   2.920  0.1507  0.6131 -0.1451
 1713SOL     OW16600   0.095   3.796   3.629  0.4651 -0.4861  0.0469
 1713SOL    HW116601   0.181   3.826   3.599  1.0787 -1.3075  1.0053
 1713SOL    HW216602   0.039   3.841   3.566  2.5872 -0.4121 -1.8290
 1714SOL     OW16603   2.790   3.506   8.387 -0.2178 -0.2425 -0.6100
 1714SOL    HW116604   2.859   3.442   8.407 -0.8413 -0.0837  2.0222
 1714SOL    HW216605   2.747   3.509   8.472  2.0258  3.6067  0.3788
 1715SOL     OW16606   1.231   3.364  14.162 -0.2538 -0.1697 -0.3103
 1715SOL    HW116607   1.213   3.434  14.099  0.7062  0.2681 -0.0979
 1715SOL    HW216608   1.327   3.367  14.157 -0.2606 -0.5015 -0.6058
 1716SOL     OW16609   3.024   2.044   0.403  0.0930  0.4069 -0.5950
 1716SOL    HW116610   2.939   2.080   0.377 -0.7849 -1.3132 -0.0848
 1716SOL    HW216611   3.090   2.088   0.349 -0.1914  0.3293 -1.0029
 1717SOL     OW16612   3.038   2.512  12.799  0.0882  0.3695 -0.3619
 1717SOL    HW116613   3.094   2.560  12.739  0.2589  0.1742 -0.3587
 1717SOL    HW216614   3.045   2.571  12.874  1.0248  2.0717 -1.7945
 1718SOL     OW16615   4.127   0.359   5.474  0.6463  0.8528 -0.1019
 1718SOL    HW116616   4.185   0.435   5.487  1.8866 -0.0887 -0.1172
 1718SOL    HW216617   4.082   0.345   5.558 -0.8240 -1.0320 -1.2066
 1719SOL     OW16618   1.631   4.595   7.523 -0.4514 -0.3821  0.3520
 1719SOL    HW116619   1.690   4.605   7.598 -0.6167 -1.7565  0.6694
 1719SOL    HW216620   1.577   4.522   7.554 -1.7636  0.2740 -0.4145
 1720SOL     OW16621   1.300   0.402   3.323 -0.4021  0.1910  0.2286
 1720SOL    HW116622   1.386   0.374   3.294 -0.1411  1.2389 -0.0119
 1720SOL    HW216623   1.309   0.402   3.419  1.6656  0.4740  0.0321
 1721SOL     OW16624   2.391   2.763  12.628  0.5967 -0.4542  0.3197
 1721SOL    HW116625   2.358   2.843  12.669  0.5023 -1.0574  1.4133
 1721SOL    HW216626   2.460   2.737  12.689  1.1219  0.7145  0.2167
 1722SOL     OW16627   4.070   0.207  12.317  0.3280  0.0750 -0.5168
 1722SOL    HW116628   4.060   0.122  12.273  0.9675 -0.5130  0.4731
 1722SOL    HW216629   4.162   0.203  12.343  0.4188 -1.0532 -1.0237
 1723SOL     OW16630   2.370   1.104   0.968 -0.2275 -0.2853  0.4793
 1723SOL    HW116631   2.432   1.146   0.908  0.6694 -3.7410 -1.0091
 1723SOL    HW216632   2.389   1.011   0.955  0.6015 -0.0950  0.3510
 1724SOL     OW16633   0.582   4.539   1.819  0.3538  0.2495  0.4564
 1724SOL    HW116634   0.489   4.544   1.796  0.1200 -1.2505  1.1134
 1724SOL    HW216635   0.618   4.602   1.757  3.7350 -0.8704  1.2565
 1725SOL     OW16636   2.457   2.802   7.924 -0.2749 -0.7333  0.4499
 1725SOL    HW116637   2.386   2.862   7.949 -1.0740 -1.9109  0.9986
 1725SOL    HW216638   2.433   2.763   7.840 -0.7394  1.4436 -0.4394
 1726SOL     OW16639   1.197   1.740   1.967 -0.5346 -0.1832  0.4181
 1726SOL    HW116640   1.227   1.700   1.885  1.8230 -0.7550  1.5572
 1726SOL    HW216641   1.118   1.787   1.939 -0.1924  0.1760  0.0637
 1727SOL     OW16642   3.354   3.507   4.650 -0.0624 -0.1245 -0.3658
 1727SOL    HW116643   3.270   3.462   4.655 -0.0182 -0.1251  0.4153
 1727SOL    HW216644   3.400   3.456   4.717  2.1175  3.4978  0.9127
 1728SOL     OW16645   0.344   1.216   5.734 -0.0333  0.9145 -0.3313
 1728SOL    HW116646   0.404   1.290   5.748  0.6807  0.2870 -0.0364
 1728SOL    HW216647   0.388   1.153   5.676 -2.4531 -0.5996 -0.5062
 1729SOL     OW16648   4.712   3.934   4.568 -0.3276  0.0949 -0.1946
 1729SOL    HW116649   0.067   3.990   4.555  0.8623 -1.4841 -0.0992
 1729SOL    HW216650   0.025   3.856   4.523 -1.2218 -0.5586  0.2657
 1730SOL     OW16651   0.628   1.854   8.505  0.3339 -0.5525  0.0278
 1730SOL    HW116652   0.684   1.932   8.509  1.8324 -1.6063 -0.8055
 1730SOL    HW216653   0.541   1.891   8.523 -0.1449 -3.2468  3.3501
 1731SOL     OW16654   1.947   2.252  10.031 -0.5837  0.3079 -0.6558
 1731SOL    HW116655   1.948   2.337  10.075 -0.0735  0.5029 -1.0413
 1731SOL    HW216656   1.910   2.187  10.091  1.7683 -1.5290 -1.2144
 1732SOL     OW16657   0.233   1.825   8.090 -0.0095 -0.1975 -0.3025
 1732SOL    HW116658   0.222   1.894   8.024 -0.4165  0.5558  0.5588
 1732SOL    HW216659   0.169   1.762   8.057  0.3190 -0.7109  0.0395
 1733SOL     OW16660   1.568   2.581   2.339 -0.2905  0.4433 -0.0757
 1733SOL    HW116661   1.629   2.623   2.400  0.8528 -1.9013  0.4069
 1733SOL    HW216662   1.615   2.498   2.331 -1.9349 -0.6624  1.9576
 1734SOL     OW16663   3.603   2.653   2.823 -0.3417 -0.5315 -0.8634
 1734SOL    HW116664   3.665   2.689   2.887  0.1151 -0.4639 -1.3407
 1734SOL    HW216665   3.654   2.577   2.795 -0.7421 -1.0462 -0.2031
 1735SOL     OW16666   1.288   2.344  16.215  0.0739  0.2358 -0.3484
 1735SOL    HW116667   1.365   2.302  16.177 -0.2067 -1.9117  1.4828
 1735SOL    HW216668   1.271   2.272  16.275  1.3866  1.0948  1.0584
 1736SOL     OW16669   3.353   3.176   0.554 -0.3076 -0.1264 -0.2839
 1736SOL    HW116670   3.421   3.168   0.621 -0.1116 -2.7830 -0.8177
 1736SOL    HW216671   3.271   3.169   0.604 -0.0221 -0.6122  0.1196
 1737SOL     OW16672   0.057   1.096  12.994  0.7760 -0.2463  0.2215
 1737SOL    HW116673   0.112   1.093  13.073 -1.8273 -2.5324  1.9517
 1737SOL    HW216674   0.091   1.019  12.949  0.7048  0.6652 -1.3925
 1738SOL     OW16675   1.579   1.073   4.620 -0.4132 -0.8654 -0.3962
 1738SOL    HW116676   1.578   1.060   4.715 -2.5631  0.6125 -0.1978
 1738SOL    HW216677   1.572   1.169   4.619  0.4696 -0.7616  2.5101
 1739SOL     OW16678   3.529   4.425   5.498 -0.0436 -0.4403  0.1885
 1739SOL    HW116679   3.603   4.433   5.558  1.3760  1.1318 -1.7375
 1739SOL    HW216680   3.489   4.508   5.524 -1.2234 -0.6402 -0.9739
 1740SOL     OW16681   0.207   3.967   1.908 -0.5369 -0.3146  0.3556
 1740SOL    HW116682   0.192   3.956   1.814 -0.5312  0.7730  0.2228
 1740SOL    HW216683   0.301   3.948   1.914 -0.6351 -1.5466 -1.8237
 1741SOL     OW16684   1.948   3.730   2.122 -0.5052  0.1944  0.4751
 1741SOL    HW116685   1.900   3.694   2.048  0.1135 -1.1413  0.7355
 1741SOL    HW216686   1.874   3.744   2.181  0.9582  0.0475  2.3711
 1742SOL     OW16687   3.777   4.417  12.989 -0.2405  0.4542 -0.1529
 1742SOL    HW116688   3.754   4.376  13.072 -0.8795 -1.1801 -1.1258
 1742SOL    HW216689   3.792   4.504  13.026  1.2158 -0.0873  0.5219
 1743SOL     OW16690   1.109   4.125   5.520 -0.2419 -0.0034  0.4604
 1743SOL    HW116691   1.201   4.105   5.537  0.2801 -0.1875 -2.6165
 1743SOL    HW216692   1.078   4.050   5.469 -0.1702  1.4534 -1.7100
 1744SOL     OW16693   4.600   2.526   7.110 -0.1262  0.2929  0.3646
 1744SOL    HW116694   4.573   2.574   7.188 -0.5350  1.9520 -0.8126
 1744SOL    HW216695   4.677   2.473   7.131  0.9841  1.2112 -1.4041
 1745SOL     OW16696   3.226   3.179  15.681 -0.3046 -0.3113  0.7905
 1745SOL    HW116697   3.192   3.128  15.755 -0.5571  1.3378  1.8130
 1745SOL    HW216698   3.268   3.254  15.722  1.2297 -2.1143  2.4964
 1746SOL     OW16699   3.282   0.139   6.680  0.1231 -0.1217  0.1415
 1746SOL    HW116700   3.327   0.223   6.677 -0.6284  0.2257 -1.1789
 1746SOL    HW216701   3.269   0.124   6.587 -1.2367  3.4980 -0.2641
 1747SOL     OW16702   2.519   2.991   5.285  0.1096  0.2985 -0.3387
 1747SOL    HW116703   2.569   3.058   5.239 -0.0689  1.2599  0.8677
 1747SOL    HW216704   2.578   2.919   5.308 -0.7370 -0.6039 -1.0111
 1748SOL     OW16705   1.463   1.178   6.097 -0.3270  0.4537  0.6005
 1748SOL    HW116706   1.508   1.181   6.182  1.4020  2.1745 -0.3641
 1748SOL    HW216707   1.382   1.225   6.115 -0.6640  0.2015 -0.2679
 1749SOL     OW16708   2.549   1.079  16.982  0.4214  0.0774  0.7454
 1749SOL    HW116709   2.476   1.140  16.969  0.2341 -0.0549  1.1775
 1749SOL    HW216710   2.541   1.015  16.911 -0.6453 -1.4996  2.2664
 1750SOL     OW16711   2.494   0.543   6.170 -0.4235 -0.5771  0.7419
 1750SOL    HW116712   2.528   0.454   6.170 -1.5087 -0.9870 -1.5955
 1750SOL    HW216713   2.569   0.590   6.134  0.8967 -1.2999  2.5571
 1751SOL     OW16714   3.502   2.078   4.038 -0.0980 -0.8787  0.6329
 1751SOL    HW116715   3.423   2.063   3.986  0.5964 -2.7792  0.1447
 1751SOL    HW216716   3.563   2.010   4.009  0.5643 -0.2274  0.4740
 1752SOL     OW16717   2.978   0.255   4.117  0.4907 -0.4048  0.0914
 1752SOL    HW116718   2.991   0.160   4.120  0.5431 -0.3567  1.1917
 1752SOL    HW216719   3.043   0.280   4.052 -0.2497 -1.9648 -1.2812
 1753SOL     OW16720   2.090   4.620   3.890 -0.0961  0.1030 -0.6612
 1753SOL    HW116721   2.034   4.691   3.856  0.2265  0.1819 -1.0306
 1753SOL    HW216722   2.083   4.558   3.817 -1.9438 -1.0848  0.5423
 1754SOL     OW16723   0.535   2.446  16.766  0.8979 -0.3138 -0.4556
 1754SOL    HW116724   0.466   2.386  16.794  1.8019 -1.0274  0.2330
 1754SOL    HW216725   0.565   2.494  16.844 -0.0155 -1.8920  0.8729
 1755SOL     OW16726   3.103   2.788   7.627 -0.6225 -0.4602 -0.0299
 1755SOL    HW116727   3.104   2.773   7.721  0.6621 -2.7716 -0.4183
 1755SOL    HW216728   3.196   2.807   7.611 -0.3026 -1.5690  0.5718
 1756SOL     OW16729   2.918   3.489   1.868 -0.9720 -0.4246  0.4301
 1756SOL    HW116730   2.863   3.563   1.892  1.7593  1.9529 -0.6224
 1756SOL    HW216731   2.864   3.460   1.795 -1.0941 -0.0378  0.3688
 1757SOL     OW16732   1.043   4.383   6.799 -0.3200  0.1667  0.2213
 1757SOL    HW116733   1.071   4.299   6.763  0.0164 -0.3571  1.6985
 1757SOL    HW216734   0.979   4.367   6.868 -0.3315 -2.3336 -0.3645
 1758SOL     OW16735   3.446   0.786   9.018 -0.5859 -0.2937 -0.3181
 1758SOL    HW116736   3.444   0.873   9.059  2.1315  0.4597 -1.8205
 1758SOL    HW216737   3.444   0.734   9.099 -0.1809  1.2276  0.6843
 1759SOL     OW16738   2.159   4.094   3.199  0.3051  0.5566 -0.0712
 1759SOL    HW116739   2.151   4.085   3.104  0.8610  0.8824 -0.1473
 1759SOL    HW216740   2.115   4.014   3.227 -0.2556  0.6212 -0.7569
 1760SOL     OW16741   3.802   2.229   5.140  0.1371  0.1551 -0.2918
 1760SOL    HW116742   3.761   2.313   5.121  2.3359  1.4077  0.5863
 1760SOL    HW216743   3.731   2.170   5.115 -0.1588  0.4555 -0.1468
 1761SOL     OW16744   4.307   0.754   7.435  0.3972 -0.4888 -0.2187
 1761SOL    HW116745   4.402   0.758   7.420  0.3707  1.0290  0.0138
 1761SOL    HW216746   4.288   0.661   7.449  0.5373 -0.4833  0.0069
 1762SOL     OW16747   3.992   3.323   7.345 -0.6542 -0.3663 -0.0093
 1762SOL    HW116748   4.032   3.404   7.376  2.3848 -1.6955 -0.4402
 1762SOL    HW216749   3.904   3.356   7.330  0.1931  1.0309 -1.9292
 1763SOL     OW16750   2.313   2.284   0.536  0.3976 -0.1170  0.2066
 1763SOL    HW116751   2.246   2.351   0.528 -0.6954 -1.2591 -0.1957
 1763SOL    HW216752   2.258   2.207   0.520  0.0247  0.6739 -2.3526
 1764SOL     OW16753   4.117   1.869   2.485  0.6649  0.1380 -0.0955
 1764SOL    HW116754   4.084   1.779   2.480  2.7075 -0.6185  0.3253
 1764SOL    HW216755   4.121   1.893   2.392 -1.4293 -2.0107 -0.7707
 1765SOL     OW16756   2.847   0.614   7.961 -0.0171 -0.0544  0.0750
 1765SOL    HW116757   2.759   0.581   7.978 -0.7963  1.5725 -0.7478
 1765SOL    HW216758   2.861   0.689   8.019 -0.1519 -0.0704  0.1284
 1766SOL     OW16759   2.251   3.070   7.421 -0.5429  0.3648 -0.0192
 1766SOL    HW116760   2.280   3.074   7.330 -0.6192  0.3791 -0.0429
 1766SOL    HW216761   2.225   3.159   7.442 -2.7012 -0.4317  0.6922
 1767SOL     OW16762   3.877   3.194   8.532 -0.0220 -0.1380 -0.4931
 1767SOL    HW116763   3.847   3.283   8.551  0.0555  0.0377 -1.1841
 1767SOL    HW216764   3.966   3.206   8.564 -0.0869 -0.4661 -0.1872
 1768SOL     OW16765   1.021   4.152   1.373 -0.4279 -0.2959 -0.0361
 1768SOL    HW116766   1.017   4.061   1.342 -0.8129 -1.4736  3.5089
 1768SOL    HW216767   1.060   4.190   1.294 -0.0158 -1.1718 -0.2596
 1769SOL     OW16768   0.668   3.391   7.929  0.0392  0.3561  0.4179
 1769SOL    HW116769   0.729   3.319   7.918 -0.6715  0.0338 -1.3679
 1769SOL    HW216770   0.729   3.462   7.911  0.9148 -0.8370 -1.3128
 1770SOL     OW16771   1.326   4.049   7.295  0.1521  0.3571 -0.0322
 1770SOL    HW116772   1.396   4.112   7.278  2.3389 -1.9157  0.4654
 1770SOL    HW216773   1.374   3.980   7.343 -0.7251 -0.7594 -0.7592
 1771SOL     OW16774   3.803   3.336   8.867  0.6340 -0.2287 -0.1672
 1771SOL    HW116775   3.778   3.247   8.840 -0.0743  0.0877 -0.5407
 1771SOL    HW216776   3.898   3.337   8.856  0.5752 -0.0760 -0.6479
 1772SOL     OW16777   0.516   1.256  14.024  0.4463 -0.5645 -0.1928
 1772SOL    HW116778   0.592   1.254  14.083  0.5281  3.0423 -0.1603
 1772SOL    HW216779   0.532   1.310  13.947 -0.0842  1.5281  1.1608
 1773SOL     OW16780   4.495   1.934   2.878 -0.1895  0.0260  0.2749
 1773SOL    HW116781   4.437   1.917   2.804  1.0715 -0.4049 -0.6111
 1773SOL    HW216782   4.431   1.946   2.949 -1.2819  0.0042 -0.6952
 1774SOL     OW16783   0.359   0.725  13.684  0.1344 -0.1657  0.1381
 1774SOL    HW116784   0.401   0.656  13.632  1.0667 -0.0990  0.8075
 1774SOL    HW216785   0.337   0.790  13.617  2.0300  0.5161  0.1894
 1775SOL     OW16786   2.958   1.131   4.229 -0.3137 -0.1537 -0.3045
 1775SOL    HW116787   3.015   1.157   4.157 -3.4348  1.3047 -2.2563
 1775SOL    HW216788   2.873   1.143   4.186 -0.2214 -0.0126 -0.4450
 1776SOL     OW16789   2.388   3.745   5.720 -0.6358 -0.3933  0.2716
 1776SOL    HW116790   2.427   3.659   5.704  1.9396  0.7799  0.2513
 1776SOL    HW216791   2.359   3.764   5.631 -0.9948 -1.3310  0.1908
 1777SOL     OW16792   3.240   3.296   7.740  0.2993 -0.4511  0.3538
 1777SOL    HW116793   3.174   3.251   7.794 -0.3866  0.4959  0.3106
 1777SOL    HW216794   3.317   3.241   7.754 -0.6782 -1.6699  1.0373
 1778SOL     OW16795   2.126   1.898   9.177 -0.1243 -0.3740 -0.0962
 1778SOL    HW116796   2.195   1.832   9.188 -1.2875 -1.6148 -0.1568
 1778SOL    HW216797   2.060   1.867   9.239 -1.3374  1.1369 -0.6376
 1779SOL     OW16798   0.326   2.693  13.770 -0.8504  0.0193 -0.0639
 1779SOL    HW116799   0.304   2.600  13.771 -0.4497 -0.0658  1.6046
 1779SOL    HW216800   0.247   2.732  13.807  1.7174  2.8297  2.5490
 1780SOL     OW16801   1.536   4.488   7.946  0.9341 -0.7040 -0.1641
 1780SOL    HW116802   1.530   4.578   7.978 -0.4680 -0.9179  0.2024
 1780SOL    HW216803   1.535   4.447   8.032  0.7327  1.5467  0.9107
 1781SOL     OW16804   3.251   4.629   4.499  0.1841 -0.0625  0.0078
 1781SOL    HW116805   3.342   4.620   4.527 -0.1531  0.1835  1.2053
 1781SOL    HW216806   3.206   4.583   4.571  1.7087 -1.0574  0.3197
 1782SOL     OW16807   0.017   4.271   4.897  0.6082  0.5995  0.4096
 1782SOL    HW116808   0.040   4.216   4.972  0.3578 -1.6706 -1.1878
 1782SOL    HW216809   4.656   4.236   4.865  0.7828  1.1811 -0.6841
 1783SOL     OW16810   0.147   1.465  11.967  0.0096  0.1173 -0.0000
 1783SOL    HW116811   0.153   1.407  12.043 -1.5119 -0.1036 -0.0403
 1783SOL    HW216812   0.076   1.427  11.914 -0.9625  0.3290  1.1442
 1784SOL     OW16813   1.722   1.017   8.622 -0.0653  0.2211 -0.1431
 1784SOL    HW116814   1.651   0.963   8.655  1.6712 -1.0750  1.4914
 1784SOL    HW216815   1.684   1.052   8.542  0.8345  1.6491  0.0541
 1785SOL     OW16816   4.212   4.429  10.793 -0.2561 -0.0229 -0.9976
 1785SOL    HW116817   4.232   4.383  10.711  0.2834  1.1608 -1.5213
 1785SOL    HW216818   4.264   4.509  10.792 -0.8397  0.3398 -1.9900
 1786SOL     OW16819   0.558   0.985   3.718 -0.2016  0.2324  0.0576
 1786SOL    HW116820   0.534   0.894   3.699  1.5438 -0.3815  0.9086
 1786SOL    HW216821   0.546   1.001   3.811 -1.7688 -0.2129 -0.0584
 1787SOL     OW16822   1.246   4.266   2.446  0.2923  0.5422 -0.6763
 1787SOL    HW116823   1.192   4.207   2.393 -0.2463  1.0181 -0.6565
 1787SOL    HW216824   1.330   4.246   2.406  0.4729  1.9610 -1.0073
 1788SOL     OW16825   4.288   3.125   9.992  0.4564  0.4886 -0.2421
 1788SOL    HW116826   4.349   3.127   9.918  3.2693 -0.5908  2.0180
 1788SOL    HW216827   4.205   3.141   9.948  0.1945 -1.0459 -0.3015
 1789SOL     OW16828   3.151   4.475   6.670 -0.4313  0.1870 -0.3022
 1789SOL    HW116829   3.207   4.488   6.594 -3.3096  1.9525 -2.1407
 1789SOL    HW216830   3.216   4.446   6.734 -0.8381  2.0644  0.9771
 1790SOL     OW16831   1.661   0.505   8.801 -0.0766 -0.5987  0.0941
 1790SOL    HW116832   1.567   0.524   8.798 -0.0985 -0.4779  1.4569
 1790SOL    HW216833   1.704   0.583   8.765 -0.5390 -1.6826 -2.8009
 1791SOL     OW16834   3.651   2.118   4.359  0.4903 -0.1140  0.0515
 1791SOL    HW116835   3.640   2.199   4.310 -0.0914  2.0707  3.7595
 1791SOL    HW216836   3.690   2.146   4.442 -0.3641  0.6619  0.1816
 1792SOL     OW16837   0.854   2.556  17.386 -0.3347 -0.1354 -0.3508
 1792SOL    HW116838   0.802   2.503  17.325 -2.5004  0.6400  0.8104
 1792SOL    HW216839   0.831   2.514  17.469 -1.7561  0.9009 -0.2065
 1793SOL     OW16840   0.443   4.311  11.652 -0.4708  0.1567  0.1083
 1793SOL    HW116841   0.378   4.241  11.659  1.6003 -1.5884  2.2093
 1793SOL    HW216842   0.496   4.292  11.730  1.0235  1.8360 -0.4842
 1794SOL     OW16843   3.429   0.508   2.979  1.0774 -0.3175 -0.4712
 1794SOL    HW116844   3.468   0.548   3.057  0.1307 -2.9890  1.3953
 1794SOL    HW216845   3.498   0.532   2.917  0.3340 -1.0404 -1.5743
 1795SOL     OW16846   2.818   3.736   4.732  0.3668  0.3103 -0.2240
 1795SOL    HW116847   2.820   3.640   4.730  0.8043  0.3059  0.4098
 1795SOL    HW216848   2.748   3.755   4.669  0.0389  2.1161  0.6961
 1796SOL     OW16849   0.197   3.641  16.815 -0.4776 -0.1253 -0.4551
 1796SOL    HW116850   0.200   3.567  16.755 -1.2023 -1.1987  0.8251
 1796SOL    HW216851   0.174   3.719  16.764  3.3726  1.9620  1.0065
 1797SOL     OW16852   1.061   3.304   2.120  0.1972 -0.7016 -0.2573
 1797SOL    HW116853   1.020   3.230   2.075  0.1960  0.5176 -2.2576
 1797SOL    HW216854   1.061   3.267   2.208 -2.0715  4.0917  1.7489
 1798SOL     OW16855   4.176   3.968  10.207 -0.2522 -0.3465 -0.8468
 1798SOL    HW116856   4.183   3.930  10.295  0.1858  0.3336 -0.5886
 1798SOL    HW216857   4.246   4.032  10.218 -1.7067  1.4470 -1.9083
 1799SOL     OW16858   4.572   0.172   7.722 -0.1689  0.3505 -0.3944
 1799SOL    HW116859   4.493   0.154   7.670 -0.3223  1.1981 -0.4544
 1799SOL    HW216860   4.626   0.115   7.668 -0.2067 -1.3460  1.3672
 1800SOL     OW16861   1.022   3.781   8.500 -0.1676 -0.0993 -0.6445
 1800SOL    HW116862   1.080   3.811   8.430 -0.6457 -0.4260 -1.1846
 1800SOL    HW216863   1.015   3.689   8.471  0.0675 -0.5253  0.6620
 1801SOL     OW16864   2.919   0.976   8.505  0.2262  1.1131 -0.3339
 1801SOL    HW116865   2.894   1.034   8.576  1.7592  2.7248 -1.1243
 1801SOL    HW216866   3.014   0.975   8.503  0.2373  2.0732  0.0712
 1802SOL     OW16867   2.783   2.651   0.347 -0.5105 -0.1637 -0.3578
 1802SOL    HW116868   2.810   2.563   0.372  0.6224  0.2999  0.0642
 1802SOL    HW216869   2.794   2.706   0.425 -1.3172 -1.3937  0.6285
 1803SOL     OW16870   4.392   1.088   1.835 -0.2836  0.6858 -0.5167
 1803SOL    HW116871   4.470   1.089   1.891 -0.4057 -0.8159 -0.3163
 1803SOL    HW216872   4.383   0.995   1.818 -1.3303  0.5991  0.4307
 1804SOL     OW16873   0.899   1.769   7.136  0.1704 -0.2932 -0.0140
 1804SOL    HW116874   0.807   1.746   7.137  0.1434 -0.0217  2.9313
 1804SOL    HW216875   0.906   1.827   7.212  0.6087 -1.7669  1.0734
 1805SOL     OW16876   4.471   1.405   3.817 -0.0027 -0.2446 -0.6105
 1805SOL    HW116877   4.550   1.358   3.791  0.0935  0.9741 -2.5017
 1805SOL    HW216878   4.454   1.380   3.908  2.0787 -0.2104 -0.2122
 1806SOL     OW16879   2.173   4.149  12.869 -0.0718  0.2356  0.4129
 1806SOL    HW116880   2.191   4.078  12.931 -0.5317  1.7746  2.3289
 1806SOL    HW216881   2.079   4.150  12.850 -0.0819  0.7779  0.4773
 1807SOL     OW16882   2.740   2.012   7.250  0.4766  0.5992 -0.8046
 1807SOL    HW116883   2.785   1.929   7.268 -0.3599  0.9271  2.8101
 1807SOL    HW216884   2.697   2.003   7.165 -2.8050  1.9830  0.7054
 1808SOL     OW16885   4.411   3.908  10.674 -0.0604 -0.3932 -0.2682
 1808SOL    HW116886   4.426   3.969  10.602  1.9785 -1.1104 -0.4584
 1808SOL    HW216887   4.475   3.840  10.653  0.2202  0.2150 -1.3974
 1809SOL     OW16888   2.350   4.664  16.193 -0.1784  0.2897 -0.1190
 1809SOL    HW116889   2.388   4.580  16.219  1.5181  0.5550 -1.7552
 1809SOL    HW216890   2.383   4.673  16.104 -0.1586  0.1884 -0.1220
 1810SOL     OW16891   3.685   4.598   6.232  0.2149  0.1075  0.3187
 1810SOL    HW116892   3.686   4.508   6.263  0.7814 -0.3073 -0.9201
 1810SOL    HW216893   3.768   4.600   6.185  0.3646  0.5934  0.6019
 1811SOL     OW16894   1.562   0.458  11.688 -0.4011 -0.3728 -0.1825
 1811SOL    HW116895   1.629   0.426  11.627 -0.7252  0.2924 -0.8808
 1811SOL    HW216896   1.491   0.395  11.679 -0.4115 -0.5316  1.0241
 1812SOL     OW16897   3.723   3.727   5.233 -0.0716 -0.0652 -0.6305
 1812SOL    HW116898   3.787   3.664   5.199 -0.2111 -0.6797  0.2379
 1812SOL    HW216899   3.753   3.806   5.188 -0.1587 -0.4422 -1.3528
 1813SOL     OW16900   0.621   0.966   4.652 -0.0960  0.1061  0.0044
 1813SOL    HW116901   0.528   0.983   4.668 -0.4499  0.1218 -2.1504
 1813SOL    HW216902   0.629   0.921   4.568 -3.8180  1.2024 -0.9497
 1814SOL     OW16903   3.357   3.233  13.873  0.1026 -0.4322 -0.4347
 1814SOL    HW116904   3.442   3.258  13.838  0.0728 -0.2680 -0.3947
 1814SOL    HW216905   3.381   3.189  13.955 -1.1291  0.1821  0.2747
 1815SOL     OW16906   3.965   0.916   4.300  0.1110  0.0500 -0.0194
 1815SOL    HW116907   3.912   0.938   4.223  1.9912 -0.9840 -1.5978
 1815SOL    HW216908   3.995   0.828   4.276  0.9407  0.5067 -0.6600
 1816SOL     OW16909   1.846   1.256   0.303  0.0490  0.0845  0.6035
 1816SOL    HW116910   1.889   1.203   0.370  2.5607  0.7665 -0.4670
 1816SOL    HW216911   1.897   1.221   0.230  0.6162  0.4397  0.8317
 1817SOL     OW16912   2.251   1.856   4.988  0.1259  0.5308  0.7409
 1817SOL    HW116913   2.208   1.933   4.950  1.0173  0.3254 -0.7086
 1817SOL    HW216914   2.269   1.890   5.075 -2.5797  0.3616  1.3657
 1818SOL     OW16915   2.888   3.243   8.378 -0.3042 -0.5096 -0.5212
 1818SOL    HW116916   2.941   3.178   8.424 -1.1727 -0.3861  0.6373
 1818SOL    HW216917   2.856   3.189   8.306  2.6768 -2.9441 -0.0421
 1819SOL     OW16918   4.342   0.493   4.384  0.1380 -0.0289  0.1012
 1819SOL    HW116919   4.384   0.406   4.382 -3.0198 -1.5607  0.5726
 1819SOL    HW216920   4.401   0.546   4.330  1.6740 -0.1537  1.6574
 1820SOL     OW16921   4.166   3.347   4.294  0.0486 -0.7279  0.4510
 1820SOL    HW116922   4.130   3.365   4.207 -1.0633 -1.8937  0.6509
 1820SOL    HW216923   4.134   3.258   4.313 -0.8861 -0.8329 -1.5835
 1821SOL     OW16924   0.116   3.489   9.000  0.2748 -0.0827 -0.3838
 1821SOL    HW116925   0.141   3.581   8.991  3.0183 -0.6279  1.6966
 1821SOL    HW216926   0.101   3.499   9.095 -1.8081  1.0124 -0.8252
 1822SOL     OW16927   1.314   2.990   0.397 -0.3593  0.0809  0.1118
 1822SOL    HW116928   1.273   3.075   0.413 -1.9596 -0.7363  0.3483
 1822SOL    HW216929   1.293   2.971   0.306  0.8195  2.7463 -0.7101
 1823SOL     OW16930   2.263   1.136   9.586  0.4428 -0.6496 -0.1856
 1823SOL    HW116931   2.221   1.143   9.500  0.8140  1.6918 -0.1797
 1823SOL    HW216932   2.315   1.055   9.586  1.7611  0.1870 -0.2374
 1824SOL     OW16933   0.121   2.754   4.631  0.1280 -0.0942  0.2400
 1824SOL    HW116934   0.213   2.775   4.647  0.2074 -1.4159  1.5415
 1824SOL    HW216935   0.089   2.832   4.587 -1.1165 -0.4867  0.4565
 1825SOL     OW16936   0.735   0.230   7.021 -0.3172  0.5263 -0.0825
 1825SOL    HW116937   0.705   0.141   7.000 -1.3566  0.2647  2.5352
 1825SOL    HW216938   0.654   0.273   6.993 -1.6468 -1.7569  0.2249
 1826SOL     OW16939   2.094   1.773   3.675 -0.1316 -0.0933  0.2368
 1826SOL    HW116940   2.055   1.738   3.594  3.5014 -1.8850 -0.7316
 1826SOL    HW216941   2.187   1.779   3.654 -0.5023  2.5122 -0.7280
 1827SOL     OW16942   4.018   0.210   5.285  0.0632  0.4460 -0.6531
 1827SOL    HW116943   4.097   0.172   5.245 -0.3930 -0.3420 -0.7994
 1827SOL    HW216944   4.063   0.283   5.328  0.5221 -0.7994  0.9762
 1828SOL     OW16945   4.090   0.750  16.785  0.0764  0.3762  0.3518
 1828SOL    HW116946   4.031   0.787  16.851  0.9859  0.6104  1.0267
 1828SOL    HW216947   4.096   0.810  16.710 -3.5432  1.3936  0.8701
 1829SOL     OW16948   2.046   3.878  10.362 -0.2565 -0.2706  0.3146
 1829SOL    HW116949   1.968   3.855  10.313 -1.2299  0.9721  1.2811
 1829SOL    HW216950   2.112   3.838  10.305 -2.2029 -0.7789 -1.5434
 1830SOL     OW16951   3.329   2.600   0.394 -0.1992  0.0163  0.2672
 1830SOL    HW116952   3.308   2.676   0.448 -3.0355 -0.8400  0.3685
 1830SOL    HW216953   3.283   2.531   0.442 -0.7960 -0.9624 -1.6853
 1831SOL     OW16954   0.363   0.913   3.396 -0.1232 -0.1171 -0.0489
 1831SOL    HW116955   0.456   0.933   3.386 -0.4100  0.2935 -1.9109
 1831SOL    HW216956   0.324   0.992   3.360 -0.6193  0.5738  2.0492
 1832SOL     OW16957   0.545   3.971   5.920  0.0584  0.1654  0.1501
 1832SOL    HW116958   0.551   3.883   5.957  0.8841 -0.2031 -0.8729
 1832SOL    HW216959   0.467   4.003   5.966  1.7653 -0.0474  3.1496
 1833SOL     OW16960   1.952   2.045  13.147  0.2342 -0.2818 -0.3172
 1833SOL    HW116961   1.881   2.108  13.132  0.6256  0.5774  1.4733
 1833SOL    HW216962   1.919   1.990  13.219  0.2305  1.6744  1.1793
 1834SOL     OW16963   3.910   0.369  11.924  0.0870 -0.4642  0.1024
 1834SOL    HW116964   3.842   0.407  11.868  0.4774  0.9942  0.6369
 1834SOL    HW216965   3.910   0.281  11.884 -1.3021 -0.8257  0.8886
 1835SOL     OW16966   2.158   4.438   0.850  0.3422 -0.5310  0.1641
 1835SOL    HW116967   2.116   4.523   0.840 -0.1870 -0.6433  1.3740
 1835SOL    HW216968   2.077   4.386   0.848 -0.6336  0.9287  1.6373
 1836SOL     OW16969   2.334   3.548   3.409  0.3755  0.1432 -0.0991
 1836SOL    HW116970   2.308   3.593   3.329  0.2770 -1.0277 -0.7168
 1836SOL    HW216971   2.402   3.612   3.434  0.7874 -0.9042  1.4647
 1837SOL     OW16972   2.356   3.145   4.197  0.3980 -0.4217 -0.5335
 1837SOL    HW116973   2.290   3.174   4.134  0.1282  2.4341  1.0870
 1837SOL    HW216974   2.413   3.221   4.205 -0.2530 -0.0606  0.5530
 1838SOL     OW16975   3.546   3.356   5.875 -0.4242 -0.3895 -0.1891
 1838SOL    HW116976   3.522   3.441   5.837  1.3906  0.6132  0.9202
 1838SOL    HW216977   3.499   3.304   5.810 -0.9229 -0.1647 -0.0120
 1839SOL     OW16978   1.152   4.391  17.243  0.4278  0.4153 -1.0000
 1839SOL    HW116979   1.161   4.486  17.248 -0.8954  0.5492 -1.3154
 1839SOL    HW216980   1.224   4.353  17.192  1.6465  2.1147 -0.5731
 1840SOL     OW16981   3.482   0.609   9.508  0.2014 -0.4364 -0.1425
 1840SOL    HW116982   3.406   0.580   9.558 -0.5460  0.5526 -0.7074
 1840SOL    HW216983   3.465   0.704   9.510 -3.2951 -1.0119 -2.3486
 1841SOL     OW16984   0.665   0.146  13.179  0.5836  0.5008  0.2356
 1841SOL    HW116985   0.590   0.188  13.221  2.4887  2.5011  1.6610
 1841SOL    HW216986   0.609   0.090  13.125  0.5082  0.1704  0.6609
 1842SOL     OW16987   4.303   0.403   2.846 -0.6094 -0.1618  0.0086
 1842SOL    HW116988   4.271   0.485   2.885 -2.8721 -0.9077 -0.2301
 1842SOL    HW216989   4.250   0.393   2.767  1.8927  1.9472 -1.9041
 1843SOL     OW16990   3.699   1.430   3.039  0.0756 -0.1463 -0.0358
 1843SOL    HW116991   3.672   1.518   3.012  2.0399 -0.0147 -1.6059
 1843SOL    HW216992   3.725   1.382   2.960  1.3247 -1.2849  1.0635
 1844SOL     OW16993   4.115   1.354   2.586 -0.2371 -0.1195 -0.2833
 1844SOL    HW116994   4.170   1.276   2.595  1.2965  0.7629 -1.9242
 1844SOL    HW216995   4.183   1.417   2.561  0.4064 -0.9660 -0.6770
 1845SOL     OW16996   2.134   0.052   0.164 -0.2714 -0.3546  0.4838
 1845SOL    HW116997   2.163   4.706   0.103 -0.8386 -0.9722  0.8875
 1845SOL    HW216998   2.066   0.100   0.116  1.4395  0.5958 -0.9910
 1846SOL     OW16999   0.201   1.657   6.507  0.5697 -0.3941  0.1400
 1846SOL    HW117000   0.220   1.571   6.470  0.6937 -0.9642  1.5371
 1846SOL    HW217001   0.286   1.700   6.501  0.3590  0.2535  1.8822
 1847SOL     OW17002   2.326   3.788   7.911  0.0860 -1.0290 -0.1607
 1847SOL    HW117003   2.259   3.751   7.969  1.2900 -0.6906  1.4371
 1847SOL    HW217004   2.323   3.882   7.926  2.5934 -1.0755  0.5612
 1848SOL     OW17005   2.680   0.754  13.944 -0.1331  0.3401  0.8210
 1848SOL    HW117006   2.750   0.694  13.917  0.9057  1.6602  0.5826
 1848SOL    HW217007   2.619   0.688  13.978 -0.5748  0.7029  0.7190
 1849SOL     OW17008   0.738   2.416  11.928  0.3301  0.5666  0.2426
 1849SOL    HW117009   0.725   2.330  11.887  0.3144 -0.0727  1.5763
 1849SOL    HW217010   0.771   2.397  12.016  0.9042 -0.7709 -0.2670
 1850SOL     OW17011   4.269   4.461   2.409 -0.3017 -0.2787 -0.1672
 1850SOL    HW117012   4.185   4.416   2.417 -0.1767  0.3384  4.4236
 1850SOL    HW217013   4.251   4.551   2.382 -0.0989 -0.4874 -0.9916
 1851SOL     OW17014   4.093   4.265   8.515  0.8117  0.1949 -0.1826
 1851SOL    HW117015   4.022   4.272   8.452  2.0347  0.9371 -1.4742
 1851SOL    HW217016   4.140   4.191   8.476  0.5499 -0.1436  0.1453
 1852SOL     OW17017   2.306   2.139  14.066  0.2225 -0.2059 -0.7142
 1852SOL    HW117018   2.306   2.105  14.156  0.6717  0.6391 -0.4017
 1852SOL    HW217019   2.370   2.089  14.016  0.7059 -0.7903  0.4809
 1853SOL     OW17020   1.045   4.337   3.491  0.2866  0.7234 -0.0355
 1853SOL    HW117021   1.051   4.431   3.471 -1.1505  0.4873 -1.4940
 1853SOL    HW217022   1.111   4.339   3.561 -2.2636 -1.0039  2.4105
 1854SOL     OW17023   3.023   1.628   9.101  0.5796 -0.1707 -0.6732
 1854SOL    HW117024   3.046   1.709   9.146  1.7998 -0.8471 -0.0661
 1854SOL    HW217025   2.959   1.657   9.036 -0.6895  1.6067  1.3571
 1855SOL     OW17026   0.109   0.588   7.618  0.7752 -0.0161  0.5740
 1855SOL    HW117027   0.028   0.541   7.600  0.3880  1.5191 -1.6254
 1855SOL    HW217028   0.073   0.675   7.635  0.4246  0.2803 -1.7276
 1856SOL     OW17029   1.938   3.531   7.045  0.2332 -0.3391  0.2010
 1856SOL    HW117030   2.028   3.499   7.047 -1.4671 -4.9447  2.9494
 1856SOL    HW217031   1.893   3.448   7.062 -1.1808  0.2918 -0.3821
 1857SOL     OW17032   1.864   0.896  12.951  0.7850  0.1524  0.1876
 1857SOL    HW117033   1.778   0.862  12.928 -0.6289  3.4538  0.5299
 1857SOL    HW217034   1.866   0.982  12.908 -0.2143  1.2635  2.3955
 1858SOL     OW17035   2.495   2.047   0.461  0.0858  0.1087 -0.0416
 1858SOL    HW117036   2.442   2.032   0.539  1.0824  1.0645  0.8187
 1858SOL    HW217037   2.444   1.997   0.397  1.3061 -0.0134 -0.9239
 1859SOL     OW17038   3.963   0.077   3.921  0.3259 -0.0875  0.1456
 1859SOL    HW117039   3.989   0.034   3.839  1.6367  1.5557 -0.3250
 1859SOL    HW217040   4.001   0.020   3.987 -1.2849  1.7495  2.6418
 1860SOL     OW17041   2.689   3.475  14.185  0.6850 -0.0054 -0.1795
 1860SOL    HW117042   2.727   3.389  14.167  1.2540 -0.2501  2.2382
 1860SOL    HW217043   2.687   3.472  14.280  2.2033 -1.0505 -0.1741
 1861SOL     OW17044   4.657   2.212  11.311 -0.2216  0.4711  0.4010
 1861SOL    HW117045   4.607   2.250  11.239  1.4663 -0.3842 -1.1991
 1861SOL    HW217046   4.602   2.136  11.329 -0.3394  0.2598 -0.8716
 1862SOL     OW17047   3.340   2.585   4.229 -0.4581 -0.5265 -0.1082
 1862SOL    HW117048   3.295   2.663   4.260 -1.4308 -1.4757  0.8796
 1862SOL    HW217049   3.310   2.578   4.139 -1.8402 -0.1261  0.3201
 1863SOL     OW17050   3.866   2.602   3.747  0.5033 -0.0351 -0.5605
 1863SOL    HW117051   3.772   2.599   3.764  0.3660  0.7386 -1.2211
 1863SOL    HW217052   3.871   2.569   3.658 -1.9315 -1.1976 -0.2435
 1864SOL     OW17053   3.478   3.213   8.021 -0.4732  0.0571  0.2392
 1864SOL    HW117054   3.465   3.295   7.972  2.0441  0.2572 -0.0709
 1864SOL    HW217055   3.402   3.221   8.079  0.2377 -0.7188  1.2595
 1865SOL     OW17056   4.555   3.160   9.462  0.3091 -0.8862  0.6005
 1865SOL    HW117057   4.642   3.163   9.422 -0.0622  1.2569 -0.0505
 1865SOL    HW217058   4.571   3.104   9.537 -0.7255  1.1558  2.3291
 1866SOL     OW17059   0.375   2.730   8.834 -0.1816  0.2030  0.6341
 1866SOL    HW117060   0.385   2.636   8.850 -0.7499  0.3227  1.7089
 1866SOL    HW217061   0.343   2.758   8.920 -2.8832 -0.0042 -0.2832
 1867SOL     OW17062   0.913   3.326   2.789 -0.4195 -0.4498  0.1311
 1867SOL    HW117063   0.905   3.231   2.797 -1.2888 -0.2324  1.9045
 1867SOL    HW217064   0.937   3.348   2.879  2.2560  0.5303 -0.8362
 1868SOL     OW17065   4.622   1.447   5.805 -0.0261  0.1851 -0.1710
 1868SOL    HW117066   4.588   1.357   5.804  1.7955 -0.4956 -0.5844
 1868SOL    HW217067   4.572   1.488   5.876  1.1711  2.6203 -0.7565
 1869SOL     OW17068   3.471   0.171   8.171  0.6054  0.0876  0.3000
 1869SOL    HW117069   3.415   0.147   8.245  0.1596  0.2119  0.0001
 1869SOL    HW217070   3.414   0.241   8.141 -0.4849 -1.2375 -0.7236
 1870SOL     OW17071   2.257   2.134   9.095 -0.3176 -0.5276  0.3959
 1870SOL    HW117072   2.333   2.109   9.147 -2.0370 -0.2179  3.0649
 1870SOL    HW217073   2.209   2.053   9.113 -0.5548  0.1731  2.8672
 1871SOL     OW17074   1.208   2.209   6.089  0.8740  0.2677 -0.2945
 1871SOL    HW117075   1.146   2.156   6.039 -1.0947  2.7325 -0.5271
 1871SOL    HW217076   1.152   2.240   6.161  1.3227  0.3839  0.0025
 1872SOL     OW17077   3.005   2.682  16.235  0.8838  0.6503  0.3139
 1872SOL    HW117078   3.037   2.674  16.325 -0.9137 -3.8129  0.5862
 1872SOL    HW217079   2.911   2.687  16.253  0.8015 -1.5919  0.5301
 1873SOL     OW17080   2.568   4.030   5.424  0.2627  0.1358  0.6291
 1873SOL    HW117081   2.483   4.063   5.453  0.9395  3.5113 -1.2375
 1873SOL    HW217082   2.605   3.988   5.501 -1.8167 -0.2945  1.3843
 1874SOL     OW17083   1.326   2.478  15.204  0.4675 -0.2135 -0.0920
 1874SOL    HW117084   1.325   2.423  15.282  3.3652  1.5622  1.1841
 1874SOL    HW217085   1.373   2.554  15.238 -0.4972  0.3730 -0.0731
 1875SOL     OW17086   2.473   3.374   7.749 -1.4866 -0.0194  1.0028
 1875SOL    HW117087   2.447   3.463   7.725 -1.2695 -0.2392 -0.0267
 1875SOL    HW217088   2.550   3.387   7.804  0.3891  0.9003 -1.9062
 1876SOL     OW17089   0.674   2.347   3.357  0.5603 -0.6777 -0.2302
 1876SOL    HW117090   0.633   2.282   3.300  0.0285  0.3607 -1.0408
 1876SOL    HW217091   0.752   2.299   3.384  1.0519  1.0887  1.5432
 1877SOL     OW17092   3.039   2.084  16.194  0.5089  0.0739  0.4107
 1877SOL    HW117093   2.978   2.059  16.264 -0.8213 -2.0840 -1.5197
 1877SOL    HW217094   2.983   2.086  16.116 -0.7274  1.7416  1.3180
 1878SOL     OW17095   3.241   1.533   9.521 -0.6603  0.1694 -0.2185
 1878SOL    HW117096   3.168   1.568   9.572 -0.5624  0.9356 -0.6151
 1878SOL    HW217097   3.302   1.606   9.527  3.0797 -2.8836 -0.8449
 1879SOL     OW17098   3.685   2.432   5.311 -0.2288  1.0080  0.6391
 1879SOL    HW117099   3.718   2.399   5.394  0.3879 -2.0170 -0.8318
 1879SOL    HW217100   3.629   2.506   5.336 -2.9814 -0.7347 -0.4585
 1880SOL     OW17101   1.999   0.418   8.763 -0.2816 -0.3635 -0.1021
 1880SOL    HW117102   2.016   0.472   8.840  2.6986 -1.4563  0.0150
 1880SOL    HW217103   2.022   0.487   8.701  0.5835 -1.7144 -1.2732
 1881SOL     OW17104   1.385   0.516   8.712  0.5143  0.2912 -0.3367
 1881SOL    HW117105   1.339   0.549   8.635 -1.5875  0.7136  1.0907
 1881SOL    HW217106   1.359   0.423   8.713 -3.0740  1.2986  0.3607
 1882SOL     OW17107   2.141   0.919  14.650 -0.0417 -0.0555 -0.0148
 1882SOL    HW117108   2.214   0.867  14.618  0.2575 -0.2822  1.0440
 1882SOL    HW217109   2.142   0.981  14.576 -0.0978 -1.8639 -1.5371
 1883SOL     OW17110   1.547   2.948   6.891  0.2844 -0.0200  0.2280
 1883SOL    HW117111   1.619   2.933   6.829  0.0200  3.0209 -0.8281
 1883SOL    HW217112   1.560   2.874   6.950 -1.5330  1.2675  2.2275
 1884SOL     OW17113   0.422   0.577  17.208 -0.2442 -0.3156 -0.2182
 1884SOL    HW117114   0.393   0.668  17.203  0.2011 -0.2331 -1.3711
 1884SOL    HW217115   0.462   0.585  17.295  0.1987  2.7360 -0.7052
 1885SOL     OW17116   3.699   1.370  11.671 -0.3837  0.6594  0.2773
 1885SOL    HW117117   3.654   1.444  11.713 -1.7423  0.4259 -0.7716
 1885SOL    HW217118   3.789   1.389  11.698  0.0197 -2.4501  1.1310
 1886SOL     OW17119   1.685   0.346   7.251 -0.2553 -0.3917  0.2161
 1886SOL    HW117120   1.627   0.410   7.209  0.0341 -0.3910 -0.1901
 1886SOL    HW217121   1.625   0.273   7.261 -1.4233  0.5758  0.2798
 1887SOL     OW17122   2.852   4.461   9.781 -0.5032 -0.3871 -0.4223
 1887SOL    HW117123   2.834   4.378   9.825  1.5118 -0.5655  0.0658
 1887SOL    HW217124   2.943   4.472   9.809 -0.5481 -1.4899  0.1603
 1888SOL     OW17125   4.140   3.097   4.454 -0.7552  0.0112  0.0806
 1888SOL    HW117126   4.116   3.134   4.539  0.1029  0.0052  0.3308
 1888SOL    HW217127   4.097   3.012   4.446 -1.1986  0.2442  0.0312
 1889SOL     OW17128   4.261   4.284   0.670 -0.1250  0.1690 -0.5527
 1889SOL    HW117129   4.312   4.285   0.589  1.8833  1.9396  0.7308
 1889SOL    HW217130   4.235   4.375   0.679  0.7086  0.3948 -0.4484
 1890SOL     OW17131   2.645   0.175  10.411 -0.4295 -0.2739  0.1433
 1890SOL    HW117132   2.690   0.189  10.495 -1.1514 -2.3190  0.8842
 1890SOL    HW217133   2.709   0.120  10.366 -0.1792 -1.5120  1.9961
 1891SOL     OW17134   1.200   1.796  16.856  0.0519  0.0732 -0.5170
 1891SOL    HW117135   1.132   1.823  16.918  0.1217  2.1293 -1.3230
 1891SOL    HW217136   1.155   1.725  16.810 -0.1419  0.3092 -0.6930
 1892SOL     OW17137   3.694   4.090   8.527  0.4085 -0.4546  0.2759
 1892SOL    HW117138   3.757   4.144   8.480 -0.0179  2.3123  2.8606
 1892SOL    HW217139   3.734   4.004   8.520 -1.4047 -1.1888 -1.0729
 1893SOL     OW17140   3.016   3.621   7.304  0.3676  0.0838  0.3670
 1893SOL    HW117141   3.057   3.690   7.251 -0.1074  0.0329 -0.0628
 1893SOL    HW217142   2.944   3.673   7.341  0.1758  1.2184 -1.5893
 1894SOL     OW17143   1.078   4.627   5.366  0.0765 -0.4718 -0.2530
 1894SOL    HW117144   1.150   4.686   5.343 -1.0568  1.0450  0.1041
 1894SOL    HW217145   1.119   4.542   5.381  0.3028 -0.6185 -1.6561
 1895SOL     OW17146   2.981   3.496   2.146 -0.2542  0.5227  0.7602
 1895SOL    HW117147   2.952   3.586   2.164  0.4378  1.2402 -1.6663
 1895SOL    HW217148   2.954   3.477   2.056 -0.3163 -2.3793  1.4088
 1896SOL     OW17149   2.085   2.791   5.519  0.5125 -0.1415 -0.0764
 1896SOL    HW117150   2.041   2.731   5.578  0.2412  1.0901  0.9832
 1896SOL    HW217151   2.133   2.726   5.468 -1.2406 -1.5639  0.1140
 1897SOL     OW17152   1.732   1.419   4.579 -0.2841 -0.0153  0.1056
 1897SOL    HW117153   1.779   1.498   4.552 -1.6502  0.6770 -0.2722
 1897SOL    HW217154   1.646   1.453   4.602  1.5317  2.9500  2.4238
 1898SOL     OW17155   3.748   0.461   6.599 -0.0028 -0.0459  0.1626
 1898SOL    HW117156   3.783   0.455   6.687 -2.4114 -0.1304  1.1178
 1898SOL    HW217157   3.694   0.382   6.593 -0.8727  0.3423  2.8862
 1899SOL     OW17158   0.165   2.703   2.517  0.3694  0.2871 -0.4561
 1899SOL    HW117159   0.184   2.651   2.595  3.1568 -1.1211 -2.0481
 1899SOL    HW217160   0.121   2.639   2.460 -0.2855  0.9240 -0.6602
 1900SOL     OW17161   1.926   1.830   6.560  0.0097 -0.0770  0.4883
 1900SOL    HW117162   2.000   1.776   6.534 -0.6121 -1.0900  0.8222
 1900SOL    HW217163   1.899   1.874   6.479  1.4655  2.0239  1.1356
 1901SOL     OW17164   4.421   0.351   1.993 -0.3283 -0.3487  0.1550
 1901SOL    HW117165   4.342   0.347   2.047  0.6485  1.8090  1.7021
 1901SOL    HW217166   4.380   0.343   1.906  0.5124  1.4420 -0.3897
 1902SOL     OW17167   0.207   1.312   1.578 -0.6134  0.8468 -0.3178
 1902SOL    HW117168   0.302   1.329   1.584 -0.5191 -0.3705  1.8337
 1902SOL    HW217169   0.174   1.398   1.554  0.2635  0.8035 -1.6899
 1903SOL     OW17170   2.035   4.528   8.042 -0.2326 -0.0577 -0.0775
 1903SOL    HW117171   2.096   4.503   8.111  0.8501  0.0867 -0.9820
 1903SOL    HW217172   2.097   4.552   7.973  0.0978 -0.2098  0.1632
 1904SOL     OW17173   0.846   1.817  15.251  0.0787 -0.2333  0.4013
 1904SOL    HW117174   0.806   1.766  15.181 -1.0344  0.6237  0.4090
 1904SOL    HW217175   0.909   1.762  15.297  0.2160 -0.7699 -0.4423
 1905SOL     OW17176   2.694   3.144   8.057  0.3030  0.1103 -0.0615
 1905SOL    HW117177   2.719   3.228   8.019  1.9589 -0.0935  0.5793
 1905SOL    HW217178   2.644   3.106   7.985 -0.1229  1.7602 -0.6260
 1906SOL     OW17179   2.354   3.613   7.692 -0.5568  0.0607  0.5567
 1906SOL    HW117180   2.295   3.656   7.630  0.2390  0.7313  0.2827
 1906SOL    HW217181   2.360   3.676   7.763 -0.5940 -1.3445  1.8252
 1907SOL     OW17182   2.402   2.487   5.512  0.6054  0.7812 -0.0257
 1907SOL    HW117183   2.355   2.567   5.491 -2.1810 -0.7095  0.4601
 1907SOL    HW217184   2.368   2.430   5.443 -2.7672  2.8822 -0.0947
 1908SOL     OW17185   3.143   4.624  17.289 -0.0078 -0.1389  0.1966
 1908SOL    HW117186   3.221   4.624  17.234  0.1404 -2.6948  0.3776
 1908SOL    HW217187   3.132   4.533  17.318  0.7002 -0.6669 -1.1841
 1909SOL     OW17188   0.101   2.466   0.122  0.3171 -0.1473 -1.2987
 1909SOL    HW117189   0.128   2.407   0.052  0.5449  0.9209 -2.1014
 1909SOL    HW217190   0.181   2.473   0.174  0.5132 -1.8772 -1.3650
 1910SOL     OW17191   3.907   0.960   4.993 -0.2948  0.3821  0.7468
 1910SOL    HW117192   3.957   1.018   5.050  1.8958 -0.3329 -0.4394
 1910SOL    HW217193   3.826   0.952   5.042 -0.5197 -0.1068  0.2890
 1911SOL     OW17194   0.516   1.482   7.915  0.2881 -0.1364  0.7532
 1911SOL    HW117195   0.569   1.436   7.849 -0.3292 -0.3447  0.4001
 1911SOL    HW217196   0.449   1.518   7.857  0.8886 -1.0671 -0.5116
 1912SOL     OW17197   4.606   4.416  10.397  0.2364  0.0336 -0.0929
 1912SOL    HW117198   4.514   4.390  10.404  0.3377  0.0730  1.5158
 1912SOL    HW217199   4.606   4.500  10.443 -1.1392 -0.1363  0.2211
 1913SOL     OW17200   4.294   3.342  10.667  0.2533  0.2033  0.2975
 1913SOL    HW117201   4.317   3.313  10.579  2.6534 -0.3728  1.1028
 1913SOL    HW217202   4.356   3.294  10.722 -1.1946  0.0829  1.8057
 1914SOL     OW17203   2.829   0.060   9.769 -0.1587  0.5848  0.2591
 1914SOL    HW117204   2.762   0.080   9.703 -1.3553 -1.2445  0.9109
 1914SOL    HW217205   2.902   0.049   9.709 -0.0663  5.0075 -0.4027
 1915SOL     OW17206   0.436   3.609   5.075  0.1628 -0.0555  0.0392
 1915SOL    HW117207   0.476   3.582   4.992  1.6200 -1.4508  1.1996
 1915SOL    HW217208   0.447   3.704   5.074 -0.0640 -0.0243  0.4146
 1916SOL     OW17209   3.557   4.682   3.932 -0.8821 -0.2207  0.3799
 1916SOL    HW117210   3.463   4.663   3.939 -0.5367 -1.6946  1.0513
 1916SOL    HW217211   3.592   4.593   3.930 -0.6608 -0.0837 -1.7960
 1917SOL     OW17212   1.781   4.165  13.287  0.0810  0.2237 -0.3843
 1917SOL    HW117213   1.820   4.243  13.325 -0.6296  1.1922 -1.6550
 1917SOL    HW217214   1.781   4.189  13.194  0.8256  0.9473 -0.1900
 1918SOL     OW17215   0.021   4.279   3.102 -0.5134 -0.2421 -0.9586
 1918SOL    HW117216   4.713   4.369   3.113 -2.9437 -1.1280 -0.1620
 1918SOL    HW217217   4.654   4.243   3.091 -0.9625  0.1732  1.4662
 1919SOL     OW17218   3.160   1.936  13.426  0.3871  0.4035  0.0527
 1919SOL    HW117219   3.171   1.906  13.517  0.7408  3.0720  0.8843
 1919SOL    HW217220   3.237   1.988  13.401 -0.7566  1.0127 -2.1749
 1920SOL     OW17221   4.179   2.814   6.916 -0.0697 -0.2770  0.0522
 1920SOL    HW117222   4.119   2.828   6.989 -1.9280 -1.4410 -1.2272
 1920SOL    HW217223   4.254   2.869   6.937  0.6718 -1.6116  0.8133
 1921SOL     OW17224   0.996   4.716   7.573  0.4382 -0.3695 -0.4118
 1921SOL    HW117225   1.051   0.041   7.510  1.3724  0.5742  1.1026
 1921SOL    HW217226   0.923   0.056   7.569 -0.3922 -1.2893  0.8423
 1922SOL     OW17227   2.252   4.155   6.243 -0.0678 -0.5204  0.4988
 1922SOL    HW117228   2.171   4.206   6.236  0.4613  0.1187 -0.7949
 1922SOL    HW217229   2.293   4.174   6.159  0.1173  0.9797  0.9356
 1923SOL     OW17230   2.863   1.533  12.960  0.5404  0.3683  0.3159
 1923SOL    HW117231   2.901   1.569  12.880  0.6728  0.7058  0.5341
 1923SOL    HW217232   2.795   1.470  12.937  1.0614  0.6230 -1.8847
 1924SOL     OW17233   1.977   4.474  12.536  0.3046 -0.1708  0.3368
 1924SOL    HW117234   1.885   4.451  12.553  0.0312  1.6454  1.3516
 1924SOL    HW217235   1.987   4.535  12.609 -0.6007  0.4005 -0.0063
 1925SOL     OW17236   1.776   3.091   5.666  0.3118  0.4802 -0.0326
 1925SOL    HW117237   1.722   3.012   5.674  0.1976  0.3820 -1.7226
 1925SOL    HW217238   1.806   3.072   5.577  0.9957 -1.0025  0.5027
 1926SOL     OW17239   2.357   2.917   6.303  0.6579 -0.0895  0.4217
 1926SOL    HW117240   2.364   2.882   6.214  0.0241  0.0831  0.2992
 1926SOL    HW217241   2.407   2.845   6.340  0.1750 -0.4698  0.3373
 1927SOL     OW17242   1.437   1.735   0.320  0.5568 -0.2892  0.4066
 1927SOL    HW117243   1.437   1.820   0.364  2.3508  0.0417 -0.2340
 1927SOL    HW217244   1.476   1.754   0.235 -1.0729  1.3303  0.0282
 1928SOL     OW17245   4.114   0.008   4.936  0.4467  1.1753  0.2868
 1928SOL    HW117246   4.182   4.685   4.987 -1.7392 -1.7668  0.6658
 1928SOL    HW217247   4.034   4.710   4.985  0.2700  0.8158 -0.1481
 1929SOL     OW17248   0.931   4.259   3.224 -0.2495  0.0216 -0.6271
 1929SOL    HW117249   1.007   4.203   3.207 -0.9875 -1.1652 -0.0088
 1929SOL    HW217250   0.976   4.310   3.291  2.4721 -0.2980 -2.2015
 1930SOL     OW17251   2.157   2.723   3.638  0.4640  0.0870  0.0055
 1930SOL    HW117252   2.146   2.741   3.732 -0.4810  0.6814 -0.2186
 1930SOL    HW217253   2.164   2.813   3.605  1.4771  0.3196  0.8349
 1931SOL     OW17254   1.576   0.385   8.459  1.1603  0.4582  0.1957
 1931SOL    HW117255   1.499   0.343   8.497  0.2470  0.8572 -1.1902
 1931SOL    HW217256   1.553   0.477   8.442 -0.3871  0.3905  1.9173
 1932SOL     OW17257   2.974   3.754   0.317  0.3896  0.1741 -0.6086
 1932SOL    HW117258   2.998   3.768   0.408 -0.2370 -0.4954 -0.3394
 1932SOL    HW217259   3.002   3.662   0.307  0.3254 -0.2569  3.3509
 1933SOL     OW17260   2.900   3.631   9.098  0.8742  0.6057  0.6371
 1933SOL    HW117261   2.870   3.721   9.088 -0.1003 -0.0423 -2.3800
 1933SOL    HW217262   2.905   3.630   9.193  1.5373  0.0321  0.5953
 1934SOL     OW17263   4.174   3.087  10.731 -0.6830 -0.0464 -0.6299
 1934SOL    HW117264   4.101   3.148  10.739 -1.3381 -1.0710  1.0566
 1934SOL    HW217265   4.212   3.109  10.646 -1.9124  0.8401 -0.9544
 1935SOL     OW17266   2.764   1.757   7.653  0.6090 -0.1218  0.4152
 1935SOL    HW117267   2.794   1.674   7.691 -3.2816 -1.1335  1.2760
 1935SOL    HW217268   2.749   1.802   7.736  1.6036 -2.5443  1.9226
 1936SOL     OW17269   4.171   0.321   2.133  0.3693  0.1958 -0.5374
 1936SOL    HW117270   4.173   0.414   2.110  0.9573  0.6809  1.4856
 1936SOL    HW217271   4.120   0.285   2.061 -0.0335 -1.0590  0.3819
 1937SOL     OW17272   0.610   4.495   4.720 -0.2969 -0.0822 -0.0736
 1937SOL    HW117273   0.567   4.437   4.784  1.4857 -0.4571  0.8092
 1937SOL    HW217274   0.566   4.576   4.743  0.5009  0.2769  0.1928
 1938SOL     OW17275   3.082   3.860   7.127  0.3427  0.4151 -0.7284
 1938SOL    HW117276   3.010   3.899   7.175  1.5731  1.6868  0.0733
 1938SOL    HW217277   3.126   3.939   7.094  1.1751  0.7536  1.1883
 1939SOL     OW17278   4.252   0.173   8.587 -0.0783  0.0179 -0.1334
 1939SOL    HW117279   4.236   0.079   8.598 -1.5145  0.4379  1.3381
 1939SOL    HW217280   4.166   0.202   8.616 -0.0577 -0.8090  0.7404
 1940SOL     OW17281   3.420   0.014   3.128 -0.3984 -0.1079  0.4157
 1940SOL    HW117282   3.380   4.672   3.069 -0.5859 -0.2236  0.6633
 1940SOL    HW217283   3.383   0.098   3.101 -1.2967 -0.4384  0.6049
 1941SOL     OW17284   1.706   0.203   9.775  0.6056 -0.3102 -0.5474
 1941SOL    HW117285   1.734   0.252   9.852  1.3497 -0.0352 -0.9851
 1941SOL    HW217286   1.619   0.241   9.770  0.5978 -0.3738 -0.9644
 1942SOL     OW17287   4.215   4.157   2.883 -0.7670 -0.0896 -0.3820
 1942SOL    HW117288   4.307   4.133   2.871 -1.0974 -0.2319 -2.7601
 1942SOL    HW217289   4.218   4.239   2.933  0.9904 -0.2762 -0.1950
 1943SOL     OW17290   3.141   2.322  16.247 -0.8977  0.0958  0.1025
 1943SOL    HW117291   3.100   2.238  16.223  0.3184 -1.4929  3.6095
 1943SOL    HW217292   3.156   2.299  16.338 -0.8074  0.1483  0.1006
 1944SOL     OW17293   0.681   0.623  16.994  0.0261  0.2153  0.0540
 1944SOL    HW117294   0.601   0.655  16.952 -1.0116 -0.5139  1.4556
 1944SOL    HW217295   0.734   0.605  16.916 -0.7587 -0.5782 -0.3025
 1945SOL     OW17296   4.341   2.859   3.410  0.1653  0.0334  0.4995
 1945SOL    HW117297   4.406   2.910   3.458  1.6230 -0.1999 -1.2614
 1945SOL    HW217298   4.278   2.928   3.386 -2.0698 -1.8391  0.9553
 1946SOL     OW17299   4.714   1.888   4.783 -0.0778 -0.1513  0.3044
 1946SOL    HW117300   4.646   1.849   4.727  1.4757  1.0521 -2.3842
 1946SOL    HW217301   0.079   1.873   4.745 -0.4288  2.6447 -1.6154
 1947SOL     OW17302   1.777   0.822   7.138 -0.2791 -0.0786  0.1937
 1947SOL    HW117303   1.747   0.913   7.141  0.6168  0.3096 -2.3074
 1947SOL    HW217304   1.700   0.770   7.161 -0.8380  1.3158  1.4252
 1948SOL     OW17305   0.062   2.121   5.606  0.3955 -0.1911 -0.2835
 1948SOL    HW117306   0.070   2.093   5.697 -1.2025  0.1289 -0.0280
 1948SOL    HW217307   4.692   2.092   5.595 -0.2210  1.0782  1.4876
 1949SOL     OW17308   3.548   3.414   1.456  0.1853 -0.3991  0.5472
 1949SOL    HW117309   3.516   3.472   1.387 -0.1834  0.0135  1.0703
 1949SOL    HW217310   3.482   3.415   1.525  0.3620 -1.3192  0.7295
 1950SOL     OW17311   2.636   2.684  13.487  0.4001  0.1142 -0.2659
 1950SOL    HW117312   2.576   2.725  13.549  1.5090  1.1217  0.1227
 1950SOL    HW217313   2.599   2.704  13.401  2.8220  1.1962 -1.0531
 1951SOL     OW17314   2.813   1.091   5.798 -0.1212  0.2701 -0.2485
 1951SOL    HW117315   2.815   1.009   5.749  1.0221 -1.0104  1.9390
 1951SOL    HW217316   2.722   1.097   5.826  0.2231 -2.0390  1.3922
 1952SOL     OW17317   2.309   0.875  15.030  0.8086  0.0098 -0.2125
 1952SOL    HW117318   2.316   0.970  15.024  1.4751 -0.0312 -0.1229
 1952SOL    HW217319   2.249   0.859  15.102  0.1163  0.5757 -0.6729
 1953SOL     OW17320   0.157   0.641   2.642 -0.2414 -0.0976  0.2366
 1953SOL    HW117321   0.189   0.690   2.718  1.8415 -0.3737 -0.4633
 1953SOL    HW217322   0.080   0.694   2.622  1.1893  2.0718  0.4725
 1954SOL     OW17323   1.300   2.955  11.313  0.4107 -0.2255  0.3138
 1954SOL    HW117324   1.290   2.958  11.218 -0.3330  3.5175  0.4884
 1954SOL    HW217325   1.355   2.877  11.324  2.0447  1.0600  1.2131
 1955SOL     OW17326   0.076   0.903   2.531 -0.5838  0.4294  0.6030
 1955SOL    HW117327   0.127   0.870   2.457  2.1682  1.4671  2.0245
 1955SOL    HW217328   0.039   0.979   2.486 -1.4172 -0.6936 -0.5940
 1956SOL     OW17329   1.956   3.732   5.734  0.3727  0.1919 -0.1336
 1956SOL    HW117330   1.944   3.791   5.659  1.0843 -1.2357 -1.3634
 1956SOL    HW217331   1.957   3.652   5.681  3.1309  0.7002 -0.8493
 1957SOL     OW17332   0.364   3.075  12.783 -0.1463 -0.2180 -0.1891
 1957SOL    HW117333   0.375   3.153  12.729  2.2815 -0.7840 -0.4943
 1957SOL    HW217334   0.390   3.083  12.875  0.8215  0.8566 -0.5651
 1958SOL     OW17335   1.684   0.577  17.214 -0.4109 -0.6679 -0.3910
 1958SOL    HW117336   1.688   0.502  17.274  1.2414 -1.3195 -1.3225
 1958SOL    HW217337   1.590   0.595  17.218 -0.2094  0.4733 -0.8208
 1959SOL     OW17338   3.992   0.920   1.717 -0.2076 -0.5228 -0.2498
 1959SOL    HW117339   4.069   0.873   1.684  0.9902  0.5182  1.0951
 1959SOL    HW217340   4.030   1.007   1.727 -0.1065 -0.5127 -0.7128
 1960SOL     OW17341   0.947   0.382   2.557  0.3910  0.1494 -0.2790
 1960SOL    HW117342   1.031   0.397   2.602  0.3182 -0.4965  0.0592
 1960SOL    HW217343   0.927   0.290   2.574 -1.1918 -0.0084 -2.9565
 1961SOL     OW17344   2.971   1.301  16.333 -0.5971 -0.2111 -0.3170
 1961SOL    HW117345   2.991   1.235  16.266 -0.2287 -0.2593 -0.1644
 1961SOL    HW217346   2.876   1.307  16.323 -0.6705  0.0508  0.5198
 1962SOL     OW17347   4.642   3.105   7.686  0.1403  0.5503 -0.0840
 1962SOL    HW117348   4.603   3.128   7.770 -0.9984  0.2081 -0.5242
 1962SOL    HW217349   4.628   3.011   7.691  2.5011  0.1677 -0.7146
 1963SOL     OW17350   2.893   0.700   2.929 -0.1378  0.3067 -0.5533
 1963SOL    HW117351   2.813   0.665   2.890  0.6357 -0.2179 -1.6716
 1963SOL    HW217352   2.867   0.791   2.943  2.2447  1.4055 -3.2747
 1964SOL     OW17353   3.460   2.886   9.171  0.2426  0.1616  0.0696
 1964SOL    HW117354   3.508   2.968   9.172  2.1282 -0.9376 -0.3942
 1964SOL    HW217355   3.501   2.827   9.234  1.2936  2.5615  1.6312
 1965SOL     OW17356   4.186   1.787   3.881  0.1712 -0.6250  0.2297
 1965SOL    HW117357   4.221   1.869   3.846  3.2845 -1.0456  2.3691
 1965SOL    HW217358   4.173   1.799   3.975  0.7487 -0.1198  0.2471
 1966SOL     OW17359   2.715   4.198   7.464  0.9473  0.0174 -0.0718
 1966SOL    HW117360   2.717   4.285   7.505 -4.0278 -1.0519  2.4804
 1966SOL    HW217361   2.676   4.206   7.377  0.6799  0.4443  0.0851
 1967SOL     OW17362   3.846   3.365  17.569  0.0843  0.1269 -0.2042
 1967SOL    HW117363   3.772   3.365  17.631 -0.1605 -0.0094 -0.4987
 1967SOL    HW217364   3.900   3.424  17.622 -0.3037  0.4650 -0.1872
 1968SOL     OW17365   1.667   3.511   1.423 -0.5607 -0.0440  0.2762
 1968SOL    HW117366   1.701   3.478   1.506  0.3743  0.0109 -0.0895
 1968SOL    HW217367   1.751   3.522   1.379 -0.2773  1.8163  1.2730
 1969SOL     OW17368   2.679   1.532  10.866 -0.2002  0.5593  0.2549
 1969SOL    HW117369   2.640   1.459  10.818  1.1438 -1.7987  2.7164
 1969SOL    HW217370   2.714   1.589  10.798  0.4346 -0.1252  0.0033
 1970SOL     OW17371   3.427   4.698   6.226 -0.0928 -0.5450  0.1803
 1970SOL    HW117372   3.517   4.669   6.241  1.1458  2.5719 -1.2736
 1970SOL    HW217373   3.440   0.069   6.204  3.1107 -1.3532 -1.4244
 1971SOL     OW17374   0.894   2.092  13.942 -0.2645 -0.4590 -0.4018
 1971SOL    HW117375   0.910   2.049  13.858  0.5359 -2.6360  0.8729
 1971SOL    HW217376   0.889   2.017  14.002 -0.0280  0.0481  0.2528
 1972SOL     OW17377   0.770   1.240  14.210  0.3438  0.5598 -0.2060
 1972SOL    HW117378   0.821   1.320  14.200  1.3839  0.0705  1.2059
 1972SOL    HW217379   0.825   1.196  14.145  1.2784  2.6736 -0.8541
 1973SOL     OW17380   2.265   0.138   2.433  0.3019  0.4872  0.3942
 1973SOL    HW117381   2.304   0.057   2.400  2.3210  1.9829 -0.8726
 1973SOL    HW217382   2.270   0.192   2.354  1.8170  0.8908  0.7765
 1974SOL     OW17383   1.243   1.321   5.203 -0.2508  0.0276  0.1106
 1974SOL    HW117384   1.321   1.288   5.159 -0.0646 -0.9093  1.1308
 1974SOL    HW217385   1.235   1.265   5.280 -1.4365 -0.1680 -0.1598
 1975SOL     OW17386   3.062   0.417   8.366  0.0186  0.0590 -0.1356
 1975SOL    HW117387   2.983   0.363   8.369  1.1145 -1.5506  0.0505
 1975SOL    HW217388   3.036   0.476   8.437  1.9789 -1.1371  1.5850
 1976SOL     OW17389   3.403   0.834   8.750  0.5742 -0.1550 -1.0184
 1976SOL    HW117390   3.495   0.854   8.734  0.8118  0.8142  1.5095
 1976SOL    HW217391   3.405   0.824   8.845  1.9978  0.0853 -1.0242
 1977SOL     OW17392   1.336   3.391  17.507  0.0043  0.4742 -0.5273
 1977SOL    HW117393   1.406   3.328  17.525 -0.6223 -0.2408 -0.5966
 1977SOL    HW217394   1.313   3.413  17.597 -0.1627  2.0880 -0.9730
 1978SOL     OW17395   0.021   1.795   2.157  0.0787  0.4640  0.1470
 1978SOL    HW117396   0.046   1.887   2.143  2.5236  0.0971  2.1900
 1978SOL    HW217397   0.094   1.752   2.112 -0.0790 -0.3169  0.6542
 1979SOL     OW17398   4.479   2.255   3.973 -0.3195  0.0306  0.7056
 1979SOL    HW117399   4.468   2.215   4.060 -0.4555 -1.7246 -0.1098
 1979SOL    HW217400   4.391   2.235   3.940 -0.3198  0.3798  0.4970
 1980SOL     OW17401   0.121   2.936  11.425  0.0781 -0.3015  0.2697
 1980SOL    HW117402   0.178   2.906  11.496  0.2032  0.9859  0.6957
 1980SOL    HW217403   0.034   2.901  11.445  0.1318 -1.2594 -1.1068
 1981SOL     OW17404   3.392   4.197   2.933  0.7411  0.4982 -0.1471
 1981SOL    HW117405   3.448   4.275   2.939  0.4365  0.6581  0.6501
 1981SOL    HW217406   3.450   4.137   2.979  0.4044  1.9400  2.1453
 1982SOL     OW17407   0.953   4.446   6.201  0.5471  0.3802  0.1461
 1982SOL    HW117408   0.970   4.373   6.141  0.9711  0.5762  0.0225
 1982SOL    HW217409   0.899   4.417   6.273  0.0642  4.6671  1.4813
 1983SOL     OW17410   1.841   2.465  15.647  0.1962  0.5374 -0.0919
 1983SOL    HW117411   1.857   2.558  15.665  0.0157  0.4543  0.5244
 1983SOL    HW217412   1.884   2.439  15.566  0.7539  0.1163  0.3368
 1984SOL     OW17413   4.410   0.959   8.924  0.8895  0.0305  0.6319
 1984SOL    HW117414   4.342   0.892   8.918 -0.6374  1.5379  0.9761
 1984SOL    HW217415   4.421   0.959   9.019  0.9213 -1.5963  0.6160
 1985SOL     OW17416   0.639   1.653   7.067  0.2357  0.0560  0.5008
 1985SOL    HW117417   0.598   1.736   7.045 -0.5344 -0.2462  0.7983
 1985SOL    HW217418   0.603   1.595   7.000 -1.6953 -1.1159  2.5493
 1986SOL     OW17419   3.854   0.309   9.772 -0.3054 -0.0221 -0.7424
 1986SOL    HW117420   3.804   0.338   9.696  1.8495 -0.0601 -2.1765
 1986SOL    HW217421   3.944   0.336   9.759  0.0263 -1.6488 -1.7676
 1987SOL     OW17422   2.063   2.634   4.650  0.0451  0.0568 -0.1094
 1987SOL    HW117423   2.110   2.683   4.583  2.6100 -2.4873 -0.2104
 1987SOL    HW217424   2.024   2.708   4.695 -0.3011 -1.5043  2.1826
 1988SOL     OW17425   2.516   0.369   3.074 -0.2700 -0.5110  0.3131
 1988SOL    HW117426   2.548   0.401   2.989 -0.9567 -1.3060 -0.2478
 1988SOL    HW217427   2.477   0.284   3.054  1.6017 -0.9129 -1.7518
 1989SOL     OW17428   4.111   0.985   6.498  0.1936 -0.5657 -0.5159
 1989SOL    HW117429   4.126   1.040   6.575 -3.4872  2.6815 -2.0555
 1989SOL    HW217430   4.192   0.934   6.494  0.3748 -0.3695  0.6736
 1990SOL     OW17431   0.446   1.290  11.398 -0.1870 -0.2247 -0.2231
 1990SOL    HW117432   0.383   1.357  11.371  2.9957  2.3025 -1.2587
 1990SOL    HW217433   0.463   1.305  11.491 -0.3879  0.2006 -0.2546
 1991SOL     OW17434   4.645   4.262   2.057  0.4022 -0.4261 -0.3464
 1991SOL    HW117435   4.692   4.181   2.036 -0.8955 -1.3544  0.3583
 1991SOL    HW217436   4.638   4.302   1.970 -0.8172 -0.6609 -0.3549
 1992SOL     OW17437   3.510   0.063   7.900  0.0251 -0.1430  0.0045
 1992SOL    HW117438   3.450   0.000   7.860  0.1760  0.3467 -1.0062
 1992SOL    HW217439   3.479   0.093   7.985 -2.2500 -0.4930 -0.6880
 1993SOL     OW17440   2.883   2.331   5.833 -0.3159  0.5362  0.5964
 1993SOL    HW117441   2.967   2.290   5.851 -0.7960  0.4365  2.5846
 1993SOL    HW217442   2.829   2.258   5.863  0.6706 -0.1187  0.7928
 1994SOL     OW17443   2.762   0.712  13.574  0.1556  0.1933  0.6333
 1994SOL    HW117444   2.691   0.722  13.637 -0.7048 -0.3289 -0.2480
 1994SOL    HW217445   2.728   0.749  13.492  0.8962 -1.0087 -0.2138
 1995SOL     OW17446   0.164   0.068  17.502  0.0261  0.1901 -0.1710
 1995SOL    HW117447   0.110   0.024  17.437 -2.1681 -0.6898  2.2485
 1995SOL    HW217448   0.220   0.125  17.449 -0.4455  2.1934  1.4972
 1996SOL     OW17449   0.111   4.539   1.348 -0.0819 -0.2002  0.6540
 1996SOL    HW117450   0.027   4.503   1.377  0.7608 -2.5976  0.0920
 1996SOL    HW217451   0.081   4.601   1.282  1.7052  0.4823  0.4824
 1997SOL     OW17452   1.412   2.955   4.377  0.3913  0.2207  0.2885
 1997SOL    HW117453   1.482   3.002   4.332 -0.3094 -0.2647 -1.2940
 1997SOL    HW217454   1.381   2.896   4.309 -0.9766  1.3507 -0.0669
 1998SOL     OW17455   1.752   0.504   9.058  0.0396 -0.0713 -0.2796
 1998SOL    HW117456   1.800   0.422   9.045 -0.4622 -0.6070  1.1714
 1998SOL    HW217457   1.703   0.505   8.976 -0.1761  1.3762 -0.1314
 1999SOL     OW17458   4.550   2.086   1.209  0.7227 -0.4400  0.0470
 1999SOL    HW117459   4.496   2.042   1.142 -2.5308  1.8473  1.1423
 1999SOL    HW217460   4.522   2.051   1.293 -1.8154  1.5369  0.0261
 2000SOL     OW17461   4.006   1.972   4.941 -0.1200  0.0852  0.5787
 2000SOL    HW117462   4.069   1.958   4.870 -0.1851  1.6284  0.2254
 2000SOL    HW217463   3.977   2.061   4.923  3.3411  1.6659  2.8131
 2001SOL     OW17464   0.787   4.186   4.618  0.6393 -0.3549 -0.1652
 2001SOL    HW117465   0.877   4.162   4.595  0.5937 -1.4525  0.8201
 2001SOL    HW217466   0.804   4.277   4.643 -0.8867 -0.9998  3.1513
 2002SOL     OW17467   0.193   0.394   3.620  0.8058 -0.2054 -0.1940
 2002SOL    HW117468   0.100   0.404   3.601  0.6711  0.9231  1.0926
 2002SOL    HW217469   0.215   0.392   3.527 -0.9216  2.6192 -0.6771
 2003SOL     OW17470   4.061   3.747  12.470  0.0439  0.0674  0.6189
 2003SOL    HW117471   3.972   3.772  12.446  0.0563 -0.3453  0.1335
 2003SOL    HW217472   4.109   3.824  12.441  0.6347 -1.0523 -1.3249
 2004SOL     OW17473   2.156   3.367   6.972 -1.1400  0.1049  0.3465
 2004SOL    HW117474   2.231   3.328   7.018 -1.7417 -2.4687 -0.8566
 2004SOL    HW217475   2.120   3.295   6.921 -2.2559  0.9709 -0.0858
 2005SOL     OW17476   0.866   2.547  15.714 -0.5163  0.1593  0.2726
 2005SOL    HW117477   0.862   2.487  15.640 -0.5765 -0.0372  0.4346
 2005SOL    HW217478   0.930   2.499  15.767 -1.6778  1.5576  2.9560
 2006SOL     OW17479   2.661   2.524   5.606  0.4399  0.1211  0.2495
 2006SOL    HW117480   2.701   2.449   5.561  2.9593  0.6546  1.6043
 2006SOL    HW217481   2.571   2.501   5.584 -0.1888  1.0170  1.9464
 2007SOL     OW17482   0.937   2.914  13.303  0.2581  0.2026  0.3606
 2007SOL    HW117483   0.945   2.903  13.397  0.8129 -1.8256  0.0955
 2007SOL    HW217484   0.890   2.832  13.286  0.8964 -0.0136 -0.3672
 2008SOL     OW17485   2.731   4.264   9.362  0.1864 -0.1776 -0.2483
 2008SOL    HW117486   2.721   4.345   9.412 -0.0604 -0.3676  0.0112
 2008SOL    HW217487   2.786   4.297   9.292 -0.6251  1.2893 -0.1844
 2009SOL     OW17488   1.962   0.183  17.683  0.4900 -0.6593  0.5668
 2009SOL    HW117489   1.891   0.222  17.633  0.8058  1.4677  1.7921
 2009SOL    HW217490   2.040   0.210  17.635 -1.6799  1.4585 -1.7312
 2010SOL     OW17491   2.496   3.256  17.255 -0.0736 -0.4248  0.8005
 2010SOL    HW117492   2.500   3.328  17.192 -0.2911  0.4119  1.7432
 2010SOL    HW217493   2.516   3.282  17.345 -1.6696 -0.0329  1.0456
 2011SOL     OW17494   2.269   0.479  16.347  0.5747 -0.0517  0.1563
 2011SOL    HW117495   2.255   0.469  16.441 -1.5461 -0.6632 -0.2301
 2011SOL    HW217496   2.235   0.568  16.331  2.5105  0.8195  0.8762
 2012SOL     OW17497   2.948   0.063  10.046 -0.3770 -0.0751 -0.3481
 2012SOL    HW117498   2.911   0.056   9.957  1.1420 -1.0850 -0.9027
 2012SOL    HW217499   3.036   0.098  10.035 -0.6899  0.5997 -0.7300
 2013SOL     OW17500   1.480   4.651   4.118  0.1135 -0.2313 -0.5094
 2013SOL    HW117501   1.428   4.654   4.038 -1.5274  0.1379  0.5756
 2013SOL    HW217502   1.408   4.641   4.180  0.0992 -1.3868 -0.7189
 2014SOL     OW17503   3.097   0.551   9.305 -0.8386 -0.4078  0.2466
 2014SOL    HW117504   3.156   0.626   9.317 -1.1295 -0.1705  0.2014
 2014SOL    HW217505   3.128   0.509   9.226  1.6765 -1.3983  1.7569
 2015SOL     OW17506   2.588   4.343   6.554  0.0413  0.1933  0.2055
 2015SOL    HW117507   2.544   4.405   6.496 -1.1327 -2.3610 -1.6474
 2015SOL    HW217508   2.528   4.271   6.533 -1.9812  1.6043  1.1413
 2016SOL     OW17509   3.907   0.557   8.897 -0.2986 -0.0666  0.4886
 2016SOL    HW117510   3.837   0.543   8.961 -0.1147 -2.5780  0.1395
 2016SOL    HW217511   3.854   0.563   8.817  0.2203 -0.7593  0.0998
 2017SOL     OW17512   4.090   3.573  10.792  0.1563 -0.1236 -0.5490
 2017SOL    HW117513   4.031   3.593  10.720 -0.3204 -0.1075 -0.1543
 2017SOL    HW217514   4.125   3.492  10.753 -1.1028  0.7658 -3.5324
 2018SOL     OW17515   2.246   3.868   4.592  0.6992  0.0297 -0.7411
 2018SOL    HW117516   2.260   3.907   4.678  2.2149  1.0356 -1.4399
 2018SOL    HW217517   2.204   3.938   4.542  2.0534 -0.4729 -2.5914
 2019SOL     OW17518   1.789   3.661   3.542  0.8702 -0.1163 -0.0154
 2019SOL    HW117519   1.774   3.610   3.621  1.7205  0.7401  0.6898
 2019SOL    HW217520   1.781   3.593   3.475 -1.0437  0.4129 -0.3415
 2020SOL     OW17521   3.195   4.140   6.102 -0.5224  0.0868 -0.0713
 2020SOL    HW117522   3.262   4.072   6.107  0.3543  1.1921  3.0690
 2020SOL    HW217523   3.154   4.126   6.187 -0.2059  0.6823  0.1795
 2021SOL     OW17524   2.441   0.360  10.430 -0.0125 -0.9461  0.1423
 2021SOL    HW117525   2.511   0.302  10.460  1.5326  1.4860  1.2428
 2021SOL    HW217526   2.389   0.382  10.507  0.7727 -0.4994  0.5476
 2022SOL     OW17527   1.043   3.114   2.323 -0.2384  0.5883 -0.3025
 2022SOL    HW117528   0.991   3.170   2.380  0.5557  1.3308 -0.3100
 2022SOL    HW217529   1.102   3.070   2.384 -0.1856 -0.1451 -0.8793
 2023SOL     OW17530   3.244   2.409   6.782 -0.5423  0.1324 -0.3579
 2023SOL    HW117531   3.322   2.376   6.738  0.1899 -0.1037  1.1234
 2023SOL    HW217532   3.188   2.449   6.715 -2.7610 -0.6753  1.0271
 2024SOL     OW17533   3.354   3.945   2.626 -0.1720 -0.7346  0.1087
 2024SOL    HW117534   3.405   3.896   2.561  1.6432  0.5474  0.5778
 2024SOL    HW217535   3.268   3.926   2.588 -0.1726 -2.1976  0.8394
 2025SOL     OW17536   1.171   3.272  14.671  0.4545 -0.1945 -0.3868
 2025SOL    HW117537   1.173   3.250  14.578  0.1784 -0.9770 -0.2059
 2025SOL    HW217538   1.091   3.226  14.694  0.7024 -0.7061 -0.5630
 2026SOL     OW17539   1.577   2.528   7.206 -0.0582 -0.2851  0.3068
 2026SOL    HW117540   1.633   2.583   7.150  0.2145  0.2696  1.1286
 2026SOL    HW217541   1.555   2.587   7.278  2.9292  0.5506  0.5576
 2027SOL     OW17542   3.310   0.755  10.389 -0.4205  0.4096 -0.4909
 2027SOL    HW117543   3.400   0.758  10.357  0.5092  0.0096  2.0773
 2027SOL    HW217544   3.309   0.838  10.437  4.6181 -0.0064  0.3634
 2028SOL     OW17545   2.355   2.298   3.148 -0.0767  0.2727 -0.0920
 2028SOL    HW117546   2.279   2.354   3.168 -1.4475 -0.4676 -3.1676
 2028SOL    HW217547   2.328   2.214   3.110  2.0684 -0.0907 -0.7763
 2029SOL     OW17548   0.329   1.421   8.825 -0.1845 -1.2903 -0.2904
 2029SOL    HW117549   0.334   1.480   8.750  0.2168  0.1919  0.9043
 2029SOL    HW217550   0.424   1.409   8.830 -0.3430 -0.8235  3.7998
 2030SOL     OW17551   1.805   0.217   9.079 -0.1414  0.2292 -0.3496
 2030SOL    HW117552   1.881   0.159   9.087 -0.1307  0.3684  0.5448
 2030SOL    HW217553   1.773   0.210   9.168  0.7456  1.3106  0.0584
 2031SOL     OW17554   3.064   1.724  13.281  0.3561 -0.0877  0.3448
 2031SOL    HW117555   3.073   1.804  13.332 -0.4222  0.7608 -0.8558
 2031SOL    HW217556   2.979   1.742  13.241  0.7562  0.2780 -0.3483
 2032SOL     OW17557   3.406   1.797   7.739  0.0973 -0.2849  0.5393
 2032SOL    HW117558   3.330   1.740   7.752  0.0689 -0.6879 -1.5257
 2032SOL    HW217559   3.467   1.743   7.690  0.8714 -0.3007  1.5042
 2033SOL     OW17560   2.894   3.210   7.090 -0.1006  0.2687 -0.2648
 2033SOL    HW117561   2.841   3.281   7.127 -1.5405  0.0405 -1.8403
 2033SOL    HW217562   2.973   3.223   7.141 -0.0994 -1.7670  0.2785
 2034SOL     OW17563   1.521   2.344   9.404 -0.3560 -0.8693  0.2694
 2034SOL    HW117564   1.474   2.382   9.478 -0.0099  0.1619 -0.0365
 2034SOL    HW217565   1.534   2.419   9.345 -3.8986 -0.8185 -0.4282
 2035SOL     OW17566   1.455   0.382  12.524  0.4717 -0.4481 -0.1556
 2035SOL    HW117567   1.439   0.476  12.518  2.1467 -0.0356  1.5923
 2035SOL    HW217568   1.434   0.362  12.615  0.3805  1.3130  0.1939
 2036SOL     OW17569   1.870   2.366   6.995  0.2961  0.1991 -0.3980
 2036SOL    HW117570   1.956   2.388   6.960 -0.3177  3.3845  0.1083
 2036SOL    HW217571   1.873   2.270   7.005  3.8442  0.0168 -3.2419
 2037SOL     OW17572   3.949   4.364   8.743  0.3513  0.2409 -0.0579
 2037SOL    HW117573   3.967   4.352   8.650 -1.5192 -0.0104 -0.3903
 2037SOL    HW217574   4.029   4.323   8.777 -0.0780 -0.0832  0.5810
 2038SOL     OW17575   2.556   1.996   4.274  0.6936  0.0545  0.4793
 2038SOL    HW117576   2.641   1.987   4.317  0.5425 -3.7345 -0.0290
 2038SOL    HW217577   2.530   2.082   4.308  1.8523  1.3108 -1.8378
 2039SOL     OW17578   2.606   2.436  14.920 -0.0923 -0.7436 -0.0986
 2039SOL    HW117579   2.539   2.457  14.855 -0.5632  1.5527  1.1445
 2039SOL    HW217580   2.631   2.347  14.896  1.0449  0.0452 -1.7893
 2040SOL     OW17581   2.897   4.047   4.859 -0.3402  0.0138  0.1974
 2040SOL    HW117582   2.868   3.957   4.874  3.2242 -1.0275  0.8302
 2040SOL    HW217583   2.847   4.070   4.780  1.3879  0.3861 -0.7734
 2041SOL     OW17584   2.685   4.017   5.166 -0.1363 -0.5655  0.0328
 2041SOL    HW117585   2.640   4.022   5.250 -0.8226  2.8236 -0.5640
 2041SOL    HW217586   2.621   3.974   5.109  2.5057 -1.9448 -1.9023
 2042SOL     OW17587   3.169   0.693  16.316 -0.1194  0.3164  0.2451
 2042SOL    HW117588   3.126   0.682  16.401 -0.0803  5.4036  0.9103
 2042SOL    HW217589   3.258   0.717  16.342 -0.2855 -0.6985  1.7449
 2043SOL     OW17590   3.056   1.897   6.687  0.1984  0.1299 -0.1214
 2043SOL    HW117591   3.146   1.918   6.661  0.3695 -0.3745  0.0604
 2043SOL    HW217592   3.069   1.907   6.781  0.8390 -0.9467 -0.0985
 2044SOL     OW17593   3.050   1.327   2.412  0.0911  0.3057  0.5039
 2044SOL    HW117594   3.019   1.385   2.481 -0.9679 -0.1660  0.4144
 2044SOL    HW217595   2.980   1.337   2.347 -0.1685  0.2159  0.7722
 2045SOL     OW17596   1.118   1.527   8.301 -0.1155  0.3826  0.3051
 2045SOL    HW117597   1.205   1.559   8.324  1.1351 -2.6552 -0.1582
 2045SOL    HW217598   1.068   1.553   8.379  1.5697 -0.3701  1.6491
 2046SOL     OW17599   1.519   0.743  10.699  0.3212 -0.0326 -0.1044
 2046SOL    HW117600   1.439   0.762  10.650  0.2481 -0.8074 -0.2962
 2046SOL    HW217601   1.542   0.659  10.659 -0.7814 -0.3471 -0.0756
 2047SOL     OW17602   2.108   4.105   8.876 -0.2006 -0.2870 -0.0466
 2047SOL    HW117603   2.150   4.131   8.794 -0.9251 -1.2702 -0.7308
 2047SOL    HW217604   2.075   4.017   8.858  0.0337 -0.0781 -1.5152
 2048SOL     OW17605   0.115   4.166   3.662 -0.8883 -0.0824 -0.1195
 2048SOL    HW117606   0.173   4.242   3.653 -0.5440 -0.3869 -0.4706
 2048SOL    HW217607   0.073   4.196   3.742 -0.4265 -0.7050  0.3502
 2049SOL     OW17608   4.329   1.481   4.870  0.3828 -0.0517  0.2060
 2049SOL    HW117609   4.278   1.403   4.849 -0.4742  0.4593  0.3903
 2049SOL    HW217610   4.299   1.501   4.958  0.6453 -4.0520  1.1904
 2050SOL     OW17611   1.804   0.102   3.222  0.0678  0.6409 -0.3237
 2050SOL    HW117612   1.876   0.146   3.177  1.3501 -1.4299 -0.3258
 2050SOL    HW217613   1.836   0.081   3.310 -2.9306  1.5347  0.9889
 2051SOL     OW17614   3.872   0.196  11.185  0.0045  0.9986  0.2137
 2051SOL    HW117615   3.780   0.211  11.209 -0.3992 -1.8427  0.3383
 2051SOL    HW217616   3.873   0.231  11.096  0.4197 -0.3816 -0.3097
 2052SOL     OW17617   2.948   3.158   4.882 -0.0461  0.0117  0.5294
 2052SOL    HW117618   2.920   3.217   4.952 -0.2783  1.3437 -0.6830
 2052SOL    HW217619   2.871   3.104   4.864 -0.9874  1.6983 -0.4998
 2053SOL     OW17620   3.724   4.178  15.963  0.0062 -0.6005 -0.3111
 2053SOL    HW117621   3.717   4.086  15.988  2.0318 -0.3813  1.0534
 2053SOL    HW217622   3.643   4.215  15.998 -0.5139 -0.6486 -1.4505
 2054SOL     OW17623   3.118   0.477   2.385 -0.1978  0.0323 -0.2798
 2054SOL    HW117624   3.185   0.409   2.384 -1.4180 -1.1881  0.3860
 2054SOL    HW217625   3.050   0.442   2.327  1.3166 -0.1181 -1.9827
 2055SOL     OW17626   0.846   1.603  12.452  0.3344  0.0929  0.0248
 2055SOL    HW117627   0.868   1.589  12.544 -1.2799 -0.0703  0.3905
 2055SOL    HW217628   0.844   1.699  12.449  3.6809  0.1058 -1.5720
 2056SOL     OW17629   0.878   1.558   8.922  0.5527  0.0179 -0.2261
 2056SOL    HW117630   0.952   1.513   8.883  1.6629  0.4069  1.4301
 2056SOL    HW217631   0.889   1.637   8.869 -1.9353 -0.1616 -1.0340
 2057SOL     OW17632   2.761   4.016   9.473  0.2314  0.3213 -0.6304
 2057SOL    HW117633   2.748   4.097   9.425 -1.2505  0.6624  0.3583
 2057SOL    HW217634   2.736   3.949   9.410  0.3467  0.6937 -1.0687
 2058SOL     OW17635   1.672   3.670   5.872  0.0835 -0.0054  0.1100
 2058SOL    HW117636   1.714   3.639   5.952  0.9804  0.4760 -0.1752
 2058SOL    HW217637   1.753   3.674   5.822 -1.0115 -0.1914 -1.6827
 2059SOL     OW17638   4.144   3.148   6.664 -0.0208 -0.5611  0.1939
 2059SOL    HW117639   4.234   3.144   6.632 -0.4687 -0.7153 -1.0568
 2059SOL    HW217640   4.092   3.191   6.596 -1.0023 -1.1434  0.5779
 2060SOL     OW17641   3.635   2.354  10.465 -0.6382  0.0880 -0.4653
 2060SOL    HW117642   3.592   2.421  10.413  0.0794  1.6211  0.9219
 2060SOL    HW217643   3.717   2.349  10.416 -0.2149  0.3264  0.2125
 2061SOL     OW17644   0.327   3.878   6.758  0.2653  0.3182 -0.0796
 2061SOL    HW117645   0.412   3.883   6.803 -0.1594 -0.2700  0.8059
 2061SOL    HW217646   0.271   3.911   6.828 -0.2022 -1.7344  0.5243
 2062SOL     OW17647   4.024   4.384   2.204 -0.3304 -0.2832 -0.6403
 2062SOL    HW117648   4.038   4.347   2.291  1.5056  2.7983  0.3853
 2062SOL    HW217649   4.066   4.319   2.148  2.2655 -0.3855  1.4455
 2063SOL     OW17650   1.086   1.579  17.429  0.7872 -0.1406 -0.4618
 2063SOL    HW117651   1.011   1.529  17.398  1.0312  0.5683 -2.2205
 2063SOL    HW217652   1.073   1.663  17.383  0.6631 -0.4359 -0.9652
 2064SOL     OW17653   1.863   1.859   3.900 -0.0747  0.1169 -0.0418
 2064SOL    HW117654   1.890   1.840   3.810 -0.2580 -0.1201 -0.0464
 2064SOL    HW217655   1.871   1.955   3.903 -0.0229  0.0396  2.0459
 2065SOL     OW17656   0.534   2.743   6.737  0.5760  0.3648  0.2704
 2065SOL    HW117657   0.515   2.679   6.668  0.4012 -1.1202  1.6981
 2065SOL    HW217658   0.567   2.682   6.803 -0.6774 -0.1339  0.4452
 2066SOL     OW17659   3.370   1.717   2.961  0.2284  0.5077 -0.1082
 2066SOL    HW117660   3.296   1.753   3.010  1.2397  2.6320 -0.1341
 2066SOL    HW217661   3.361   1.625   2.986 -0.0161  1.3593  3.0027
 2067SOL     OW17662   2.966   2.355  15.075 -0.7221  0.2144 -0.0323
 2067SOL    HW117663   2.924   2.436  15.045 -0.9485 -0.3952 -1.3578
 2067SOL    HW217664   2.893   2.298  15.100  0.9532 -0.9452  2.1283
 2068SOL     OW17665   4.631   3.760   3.356 -0.4617  0.4867 -0.2800
 2068SOL    HW117666   4.644   3.848   3.321 -0.5098 -0.1536 -1.8983
 2068SOL    HW217667   4.705   3.714   3.317 -1.0291 -1.8796  1.3847
 2069SOL     OW17668   2.139   1.307   9.734  0.5712 -0.5344  0.0190
 2069SOL    HW117669   2.185   1.244   9.679 -0.6738 -1.9652  0.6291
 2069SOL    HW217670   2.054   1.264   9.740  0.5668 -0.3836  0.9590
 2070SOL     OW17671   1.232   3.906   7.648 -0.6250  0.0738  0.0023
 2070SOL    HW117672   1.151   3.918   7.697 -0.5733  0.1368  0.0720
 2070SOL    HW217673   1.228   3.826   7.596  0.9690  0.0408 -0.0791
 2071SOL     OW17674   1.743   4.532  12.977 -0.5387 -0.1016  0.2745
 2071SOL    HW117675   1.652   4.529  12.946 -0.7520  3.2451  0.6130
 2071SOL    HW217676   1.746   4.618  13.019  2.5801 -0.5705  0.9513
 2072SOL     OW17677   3.934   4.649   2.913 -0.0730 -0.0355  0.2598
 2072SOL    HW117678   3.928   4.718   2.979  1.6665  0.8536 -0.5045
 2072SOL    HW217679   3.848   4.662   2.873 -0.0129  1.7554  0.7156
 2073SOL     OW17680   0.671   2.946   2.122  0.3018  0.0466 -0.5951
 2073SOL    HW117681   0.614   2.872   2.101  0.7158 -0.9795  1.8750
 2073SOL    HW217682   0.653   2.955   2.216 -0.4749  1.5849 -0.9025
 2074SOL     OW17683   2.507   2.383  11.680 -0.2511 -0.2363  1.1548
 2074SOL    HW117684   2.578   2.318  11.678  0.3506  0.5321 -2.5638
 2074SOL    HW217685   2.518   2.420  11.767  1.7903  0.9975  0.3835
 2075SOL     OW17686   4.076   2.123   3.117 -0.4331  0.4167 -0.3199
 2075SOL    HW117687   4.028   2.059   3.063 -0.5864 -0.7495  1.1955
 2075SOL    HW217688   4.052   2.205   3.074 -1.1458  0.5107  0.2553
 2076SOL     OW17689   0.153   3.729   5.115  0.2504 -0.1050  0.0618
 2076SOL    HW117690   0.232   3.690   5.080 -0.0821 -0.6983 -0.0238
 2076SOL    HW217691   0.103   3.749   5.036 -0.8132  1.5753  1.1517
 2077SOL     OW17692   3.908   1.618   7.926 -0.2767 -0.3703 -0.4144
 2077SOL    HW117693   3.962   1.697   7.915 -0.7649  0.0660  0.3280
 2077SOL    HW217694   3.973   1.567   7.974 -1.2545 -1.2105  0.0252
 2078SOL     OW17695   0.329   4.382  17.422  0.0922  0.4435 -0.3669
 2078SOL    HW117696   0.300   4.291  17.435  2.0891 -0.3376 -1.3865
 2078SOL    HW217697   0.304   4.395  17.331  1.4061  0.0991 -0.7762
 2079SOL     OW17698   2.730   2.654   7.812  0.2546 -0.6004  0.2908
 2079SOL    HW117699   2.717   2.736   7.765  2.0608  0.0118  0.8579
 2079SOL    HW217700   2.740   2.592   7.740 -0.0047 -0.9584  0.5624
 2080SOL     OW17701   0.333   0.294   3.809  0.6002  0.2877  0.0367
 2080SOL    HW117702   0.273   0.311   3.737  0.2193  0.0436  0.2986
 2080SOL    HW217703   0.414   0.304   3.758 -1.5384  0.2130 -3.3393
 2081SOL     OW17704   3.992   1.330   5.588 -0.4976 -0.5900 -0.1089
 2081SOL    HW117705   4.085   1.350   5.588 -0.5259 -0.4388 -1.3575
 2081SOL    HW217706   3.962   1.387   5.658  3.2024  1.6621 -0.3758
 2082SOL     OW17707   1.260   2.222   6.911 -0.6213  0.4682  0.3475
 2082SOL    HW117708   1.292   2.235   7.000  1.7841  0.8052 -0.5848
 2082SOL    HW217709   1.322   2.166   6.865 -0.4574  0.1286  0.9872
 2083SOL     OW17710   3.666   3.659   1.879 -0.5467  0.8293  0.7017
 2083SOL    HW117711   3.653   3.566   1.861 -0.1458  0.7929  0.5929
 2083SOL    HW217712   3.583   3.688   1.917  0.2044  1.1876  2.0650
 2084SOL     OW17713   3.174   0.598   3.983 -0.1731  0.8281 -0.4337
 2084SOL    HW117714   3.206   0.591   4.072  0.2259  1.1078 -0.5563
 2084SOL    HW217715   3.173   0.504   3.963 -1.9444  0.6580  0.4512
 2085SOL     OW17716   2.057   2.935  13.999  0.6654 -0.3001 -0.5907
 2085SOL    HW117717   1.962   2.943  13.991  0.4983 -0.7536  0.8842
 2085SOL    HW217718   2.067   2.842  13.980 -0.9439 -0.8554  1.2481
 2086SOL     OW17719   0.480   1.295   1.526  0.5154  0.2691  0.1055
 2086SOL    HW117720   0.550   1.357   1.549  0.0644  1.5640 -2.0685
 2086SOL    HW217721   0.513   1.267   1.441 -0.7616 -3.0185  0.7104
 2087SOL     OW17722   0.162   3.001   6.963 -0.3530  0.8219  0.0507
 2087SOL    HW117723   0.240   2.991   6.909  0.3532 -1.3346  1.4398
 2087SOL    HW217724   0.203   2.976   7.046 -2.1507 -0.4328  0.5653
 2088SOL     OW17725   3.955   0.158   8.121  0.7104  0.2335 -0.0173
 2088SOL    HW117726   3.912   0.228   8.072  0.4048  0.1818  0.1793
 2088SOL    HW217727   4.010   0.122   8.052 -0.3359  0.1551 -0.8087
 2089SOL     OW17728   1.172   0.679   1.216  0.7124 -0.4835 -0.0905
 2089SOL    HW117729   1.227   0.620   1.268  1.6003  0.1843 -0.2761
 2089SOL    HW217730   1.088   0.646   1.249  0.1882  1.4018  0.4652
 2090SOL     OW17731   1.130   3.937  10.573  0.3215  0.2945 -0.3334
 2090SOL    HW117732   1.129   3.926  10.668 -0.0624 -1.5820 -0.5508
 2090SOL    HW217733   1.120   4.032  10.564 -1.6505  0.3763  2.7795
 2091SOL     OW17734   1.332   1.765   3.370  0.3434  0.3533 -0.2129
 2091SOL    HW117735   1.249   1.755   3.416  0.4502  0.0343 -0.0912
 2091SOL    HW217736   1.375   1.799   3.449  0.6572 -1.8780  0.5607
 2092SOL     OW17737   4.508   1.932   9.621  0.3157 -0.3803  0.1767
 2092SOL    HW117738   4.440   1.996   9.643  0.5432 -0.6871  1.8250
 2092SOL    HW217739   4.576   1.964   9.682 -0.3133 -1.5281  1.4821
 2093SOL     OW17740   1.505   3.327   2.825  0.4882  0.1356  0.0319
 2093SOL    HW117741   1.492   3.404   2.770  0.5012 -0.1488 -0.3698
 2093SOL    HW217742   1.443   3.341   2.897 -1.9863 -1.1614 -1.8484
 2094SOL     OW17743   3.595   4.410   3.893 -0.3051 -0.0602  0.1233
 2094SOL    HW117744   3.586   4.344   3.961 -0.0847 -0.0795  0.1359
 2094SOL    HW217745   3.522   4.394   3.834  0.5744  0.1604 -1.0450
 2095SOL     OW17746   1.238   0.558  10.886 -0.2225 -0.2506  0.3964
 2095SOL    HW117747   1.186   0.480  10.904  0.4010 -0.4061  1.5134
 2095SOL    HW217748   1.258   0.585  10.975  1.1702  1.9200 -0.5837
 2096SOL     OW17749   2.124   2.402   3.239  0.7706 -0.1807  0.3711
 2096SOL    HW117750   2.127   2.472   3.304 -0.4515  0.0958  0.1209
 2096SOL    HW217751   2.032   2.380   3.224  0.3102  1.0729  1.3383
 2097SOL     OW17752   0.327   2.596   3.204 -0.1338  0.3744  0.2095
 2097SOL    HW117753   0.281   2.680   3.192 -1.2025 -0.3592 -0.8922
 2097SOL    HW217754   0.352   2.569   3.115 -1.1411 -0.2756  0.1195
 2098SOL     OW17755   3.181   2.372  17.170 -0.5325 -0.2782  0.0223
 2098SOL    HW117756   3.217   2.388  17.082  0.3479  1.7620  0.7332
 2098SOL    HW217757   3.234   2.436  17.218 -1.9423  0.3452  0.7471
 2099SOL     OW17758   1.601   3.274   6.427  0.2524 -0.4173  0.2004
 2099SOL    HW117759   1.531   3.261   6.363  0.5661 -0.2184 -0.1797
 2099SOL    HW217760   1.596   3.369   6.433  1.2785 -0.4125  1.2012
 2100SOL     OW17761   4.029   0.645   7.226 -0.2072 -0.0908  0.1556
 2100SOL    HW117762   3.976   0.671   7.302 -1.3808  0.2739 -0.7857
 2100SOL    HW217763   4.005   0.714   7.164 -0.7665 -0.4806 -0.0652
 2101SOL     OW17764   3.055   1.760   6.371 -0.3596  0.1696  0.1717
 2101SOL    HW117765   2.966   1.789   6.389 -1.1634 -1.5255 -1.0355
 2101SOL    HW217766   3.093   1.830   6.317  0.4354 -0.7324 -0.4460
 2102SOL     OW17767   1.517   0.627   6.858 -0.6285  0.0138  0.0390
 2102SOL    HW117768   1.475   0.688   6.919  0.1026  0.5351  0.0135
 2102SOL    HW217769   1.553   0.686   6.793 -2.0173  0.4885 -0.3118
 2103SOL     OW17770   2.985   2.517   8.792 -0.2307 -0.1460  0.1065
 2103SOL    HW117771   2.966   2.533   8.884  3.7644 -1.4797  1.1471
 2103SOL    HW217772   3.028   2.599   8.767 -1.3592  0.8283  1.3722
 2104SOL     OW17773   1.971   0.326   6.591  0.3011  0.0436  0.1202
 2104SOL    HW117774   2.041   0.292   6.648  1.2461  2.2641  0.3063
 2104SOL    HW217775   1.979   0.419   6.614  0.3177 -0.0538  0.5220
 2105SOL     OW17776   2.423   0.101   8.151 -0.5951  0.2791 -0.0390
 2105SOL    HW117777   2.481   0.082   8.225 -0.4344  0.4472 -0.1217
 2105SOL    HW217778   2.365   0.168   8.188  1.7546  2.2598  0.0686
 2106SOL     OW17779   3.831   2.141   7.312 -0.0238  0.1015 -0.4212
 2106SOL    HW117780   3.775   2.187   7.250 -1.4054  0.5524  1.1642
 2106SOL    HW217781   3.859   2.219   7.361 -0.5189 -0.8125  1.3000
 2107SOL     OW17782   1.751   2.759  11.033 -0.6536  0.0921  0.1940
 2107SOL    HW117783   1.800   2.739  10.954 -0.7168  0.4689  0.0561
 2107SOL    HW217784   1.776   2.687  11.090  1.0333 -2.4094 -3.7190
 2108SOL     OW17785   2.912   0.294  12.164 -0.0880  0.2377 -0.1920
 2108SOL    HW117786   2.971   0.236  12.115  1.0365 -0.4245  1.9453
 2108SOL    HW217787   2.844   0.230  12.185  0.1752  0.2991  0.8685
 2109SOL     OW17788   4.670   1.755   3.524 -0.1152 -0.7130  0.7068
 2109SOL    HW117789   4.671   1.783   3.433 -1.4636 -1.2008  0.5508
 2109SOL    HW217790   0.020   1.814   3.548 -2.8333  1.8019  2.6238
 2110SOL     OW17791   3.300   3.881   0.261 -0.4923  0.5804  0.5900
 2110SOL    HW117792   3.223   3.825   0.265  0.2644 -0.4862  0.0640
 2110SOL    HW217793   3.266   3.938   0.192  0.9534  1.3918  0.5432
 2111SOL     OW17794   2.570   3.006   2.631 -0.1678  0.2524  0.4762
 2111SOL    HW117795   2.565   3.012   2.536  2.7539 -2.0718  0.1782
 2111SOL    HW217796   2.534   2.920   2.649 -0.0166 -0.1648 -1.2043
 2112SOL     OW17797   2.396   1.459   3.239 -0.0201 -0.6879 -0.0947
 2112SOL    HW117798   2.451   1.473   3.163 -1.3342 -1.4605 -1.1874
 2112SOL    HW217799   2.358   1.376   3.211 -1.8698  0.7072 -1.6994
 2113SOL     OW17800   1.206   4.466   6.020 -0.3718  0.2826  0.0655
 2113SOL    HW117801   1.231   4.552   5.985 -0.4018 -0.7065 -2.4064
 2113SOL    HW217802   1.241   4.413   5.949  2.6984  0.0750  1.7438
 2114SOL     OW17803   4.493   1.435  16.402  0.4476 -0.2900 -0.1105
 2114SOL    HW117804   4.551   1.498  16.359 -0.9191  0.5530 -0.6950
 2114SOL    HW217805   4.433   1.424  16.328  0.5788  1.7223 -0.5130
 2115SOL     OW17806   4.065   4.254  12.566  0.2050 -0.1744  0.1650
 2115SOL    HW117807   4.043   4.255  12.660 -1.3072  0.7003 -0.1981
 2115SOL    HW217808   4.142   4.199  12.553  0.8917  0.7931  0.0452
 2116SOL     OW17809   3.079   0.986   4.625  0.0240 -0.2597  0.6597
 2116SOL    HW117810   3.019   0.938   4.569 -2.0526 -0.1203  2.7756
 2116SOL    HW217811   3.158   0.985   4.571 -0.7877  2.7263 -0.5237
 2117SOL     OW17812   1.642   4.264  14.732  0.2253  0.3646 -0.3408
 2117SOL    HW117813   1.588   4.213  14.793 -2.1105 -0.6735 -3.2465
 2117SOL    HW217814   1.646   4.354  14.763  0.1383 -0.0684  0.9248
 2118SOL     OW17815   0.217   0.267   4.056 -0.4385 -0.2285 -0.3115
 2118SOL    HW117816   0.246   0.262   3.965 -2.9015 -0.3959 -1.0801
 2118SOL    HW217817   0.250   0.181   4.084  2.3776  0.7720 -0.5779
 2119SOL     OW17818   4.206   3.541   6.511 -0.9656 -0.3103 -0.3636
 2119SOL    HW117819   4.249   3.531   6.596  0.5620  0.7123 -1.0302
 2119SOL    HW217820   4.260   3.489   6.453  0.5560  0.3801  0.4462
 2120SOL     OW17821   2.047   1.485   4.786  0.4971 -0.1312 -0.2084
 2120SOL    HW117822   2.097   1.519   4.712 -0.1665  2.4425  0.5329
 2120SOL    HW217823   2.105   1.518   4.854  0.5652  1.4718 -1.0418
 2121SOL     OW17824   0.583   4.068   2.826  0.5119  0.0994  0.0907
 2121SOL    HW117825   0.675   4.053   2.848  0.7343  2.0497  0.4358
 2121SOL    HW217826   0.532   3.996   2.864 -0.3863  0.3616 -0.6202
 2122SOL     OW17827   2.499   4.488   6.276  0.2466  0.0993  0.0342
 2122SOL    HW117828   2.474   4.479   6.184 -0.9459 -0.9164  0.4673
 2122SOL    HW217829   2.429   4.542   6.313 -0.9840 -1.0035 -0.6842
 2123SOL     OW17830   4.605   1.690  17.038 -0.4911  1.0337 -0.3434
 2123SOL    HW117831   4.584   1.686  16.945  1.7948 -0.4945 -0.7913
 2123SOL    HW217832   4.521   1.657  17.071 -0.4069 -1.4450 -2.5692
 2124SOL     OW17833   4.454   4.020   2.124  0.1937  0.8106 -0.0697
 2124SOL    HW117834   4.525   4.018   2.060 -1.2794  2.5980 -1.7311
 2124SOL    HW217835   4.499   4.027   2.209 -2.5806 -1.1096  1.5568
 2125SOL     OW17836   0.189   3.328   3.320 -0.2142 -0.4734 -0.0683
 2125SOL    HW117837   0.207   3.252   3.376 -0.2490 -0.7674 -0.4584
 2125SOL    HW217838   0.198   3.409   3.370  0.2268 -2.1178  2.5612
 2126SOL     OW17839   3.787   2.719   6.787 -0.8500  0.1174 -0.1267
 2126SOL    HW117840   3.832   2.713   6.872  0.0267  0.1697 -0.5916
 2126SOL    HW217841   3.791   2.810   6.757  0.8265  0.0653 -0.0725
 2127SOL     OW17842   4.260   2.098   4.379 -0.3186 -0.1848  0.1287
 2127SOL    HW117843   4.170   2.081   4.410 -0.1888 -2.5997 -0.7707
 2127SOL    HW217844   4.256   2.059   4.292  1.0804 -0.0724  0.0144
 2128SOL     OW17845   3.652   1.783   4.580 -0.0326 -0.0807  0.0386
 2128SOL    HW117846   3.747   1.798   4.573  0.1465 -1.5310 -0.7137
 2128SOL    HW217847   3.639   1.707   4.522  2.1850 -1.6148  1.5363
 2129SOL     OW17848   3.658   0.263  12.646  0.1569 -0.3896 -0.6191
 2129SOL    HW117849   3.659   0.326  12.574 -0.9583  0.4386  0.0873
 2129SOL    HW217850   3.589   0.305  12.698  0.4503 -1.3773  0.5780
 2130SOL     OW17851   2.784   3.630  11.545 -0.1638  0.2139 -0.6939
 2130SOL    HW117852   2.738   3.665  11.469 -0.2045 -1.8385 -1.6063
 2130SOL    HW217853   2.736   3.548  11.557  1.0426 -0.4923 -0.5939
 2131SOL     OW17854   2.724   1.231   9.679 -0.7791 -0.7682  0.1736
 2131SOL    HW117855   2.714   1.317   9.639 -1.2665  0.2268  2.4078
 2131SOL    HW217856   2.664   1.232   9.754 -0.2173 -2.3635  0.6526
 2132SOL     OW17857   1.564   2.647   6.613 -0.1203 -0.1656  0.0937
 2132SOL    HW117858   1.657   2.635   6.629 -0.2358 -2.8255 -1.2390
 2132SOL    HW217859   1.544   2.574   6.555 -1.1078 -0.2961  0.5838
 2133SOL     OW17860   0.540   1.476   6.889  0.3390 -0.2249  0.1996
 2133SOL    HW117861   0.493   1.402   6.926  1.7058 -0.2304  1.9307
 2133SOL    HW217862   0.574   1.435   6.809 -0.1181  0.6174 -0.4318
 2134SOL     OW17863   4.262   3.950   7.349 -0.1924 -0.1794  0.3995
 2134SOL    HW117864   4.277   3.946   7.254  0.3614  0.4454  0.4635
 2134SOL    HW217865   4.168   3.932   7.345  0.0666 -1.1061 -1.4662
 2135SOL     OW17866   3.051   1.638   5.849 -0.2237  0.3845 -0.3865
 2135SOL    HW117867   3.036   1.583   5.926 -0.9147  1.0949 -0.0225
 2135SOL    HW217868   3.046   1.583   5.771  0.3207  0.5327 -0.5295
 2136SOL     OW17869   2.955   3.504   3.482 -0.7738  0.7402  0.0441
 2136SOL    HW117870   2.952   3.597   3.503  0.0198  0.7258  0.2277
 2136SOL    HW217871   2.924   3.511   3.392  0.3370 -1.1924 -0.5008
 2137SOL     OW17872   4.367   1.404   9.440  0.0343  0.8386  0.5237
 2137SOL    HW117873   4.317   1.380   9.518  1.3245  1.7708  1.6356
 2137SOL    HW217874   4.360   1.319   9.398 -0.3737  0.9426  0.3796
 2138SOL     OW17875   1.074   4.704   8.324  0.8421  0.0472 -0.6352
 2138SOL    HW117876   1.135   4.693   8.252  0.4521  1.3432 -1.1684
 2138SOL    HW217877   1.046   4.617   8.352  0.2779 -0.0076 -1.3654
 2139SOL     OW17878   2.248   1.721   3.109  0.0407  0.1727  0.1648
 2139SOL    HW117879   2.286   1.634   3.116 -0.4520  0.0197  0.9253
 2139SOL    HW217880   2.170   1.703   3.056 -0.8673  0.4310  1.3988
 2140SOL     OW17881   1.857   2.786   6.894 -0.4530 -0.0835 -0.1410
 2140SOL    HW117882   1.830   2.847   6.825 -1.6915 -2.4110 -1.7132
 2140SOL    HW217883   1.900   2.840   6.960 -1.3193 -1.2732  1.4067
 2141SOL     OW17884   4.094   3.222  12.987  0.2083 -0.3432  0.2247
 2141SOL    HW117885   4.161   3.270  12.938 -0.0461 -0.2496 -0.0264
 2141SOL    HW217886   4.155   3.166  13.037 -0.5002 -0.6530  0.7406
 2142SOL     OW17887   1.608   3.502  12.698  0.1504 -0.3601 -0.1464
 2142SOL    HW117888   1.593   3.503  12.793 -0.3868 -0.2814 -0.2322
 2142SOL    HW217889   1.653   3.584  12.678  0.6175 -0.2627  1.2614
 2143SOL     OW17890   4.345   0.748  12.652 -0.2838  0.4299 -0.4749
 2143SOL    HW117891   4.362   0.693  12.729  1.1798  2.1556  0.4350
 2143SOL    HW217892   4.263   0.788  12.679  0.2042 -0.4016  2.2492
 2144SOL     OW17893   3.442   1.078  17.188 -0.2796  0.4439  0.2080
 2144SOL    HW117894   3.379   1.064  17.258 -3.1023  0.6174 -2.2854
 2144SOL    HW217895   3.521   1.036  17.223  0.6020  3.4305  1.8458
 2145SOL     OW17896   1.618   3.174   3.882 -0.0024  0.3096 -0.1497
 2145SOL    HW117897   1.640   3.234   3.953 -0.2537 -0.6411  0.7356
 2145SOL    HW217898   1.541   3.224   3.854 -2.0997 -2.9471 -0.2492
 2146SOL     OW17899   0.247   4.596   5.526  0.5351  0.5650 -0.0611
 2146SOL    HW117900   0.225   4.664   5.463 -2.1305  0.2274  0.4820
 2146SOL    HW217901   0.249   4.515   5.474  1.4992  0.1040  0.6907
 2147SOL     OW17902   4.288   0.726   6.088 -0.4602 -0.2209  0.2729
 2147SOL    HW117903   4.274   0.804   6.142 -1.4498 -0.9821  1.1079
 2147SOL    HW217904   4.289   0.653   6.149 -0.6341  0.4107  1.0318
 2148SOL     OW17905   2.747   3.350   0.060 -0.4144  0.0243  0.8443
 2148SOL    HW117906   2.716   3.414   0.125 -0.0251  0.3270  0.7318
 2148SOL    HW217907   2.825   3.386   0.018 -0.6512 -1.0551 -0.4992
 2149SOL     OW17908   1.741   1.088   7.151 -0.4508 -0.2194  0.0739
 2149SOL    HW117909   1.683   1.123   7.218  0.6003 -0.0996  0.9291
 2149SOL    HW217910   1.723   1.141   7.073 -1.1494 -2.1080 -1.0587
 2150SOL     OW17911   4.583   0.456   7.647 -0.4716  0.9502  0.0078
 2150SOL    HW117912   4.492   0.458   7.676 -0.7660 -1.3049 -0.7651
 2150SOL    HW217913   4.604   0.364   7.664 -1.0267  0.8333  0.0746
 2151SOL     OW17914   1.511   3.062   7.975  0.2702  0.3538  1.2070
 2151SOL    HW117915   1.593   3.023   8.005  1.7378  1.0170 -1.9617
 2151SOL    HW217916   1.438   3.001   7.988 -1.9395  2.7047 -0.0910
 2152SOL     OW17917   0.100   1.210   6.212  0.4889  0.0518  0.0959
 2152SOL    HW117918   0.136   1.228   6.125  1.1673 -1.0171  0.1596
 2152SOL    HW217919   0.168   1.147   6.236  0.5457 -0.0122 -0.2287
 2153SOL     OW17920   4.530   4.029   2.391  0.2396 -0.3672  0.0695
 2153SOL    HW117921   4.564   3.981   2.466 -0.7553 -0.8686  0.2054
 2153SOL    HW217922   4.455   3.971   2.380  0.9104 -1.3343  0.6740
 2154SOL     OW17923   0.379   1.585   7.673  0.0334  0.4987 -0.2010
 2154SOL    HW117924   0.420   1.671   7.662 -1.5716  1.1673 -0.9964
 2154SOL    HW217925   0.290   1.614   7.691 -0.4515 -1.3670  0.4684
 2155SOL     OW17926   1.674   4.337  17.511 -0.3493 -0.3554  0.0522
 2155SOL    HW117927   1.600   4.398  17.505  0.6198  0.9974  1.6780
 2155SOL    HW217928   1.725   4.352  17.432  0.0715  0.2734  0.4385
 2156SOL     OW17929   3.874   4.425   3.904 -0.0168 -0.4039  1.0437
 2156SOL    HW117930   3.780   4.436   3.887  0.2203 -0.4111 -0.3194
 2156SOL    HW217931   3.907   4.507   3.867  1.3575 -1.6520 -0.4958
 2157SOL     OW17932   4.461   2.324  11.726 -0.3382 -0.5903  0.0520
 2157SOL    HW117933   4.447   2.229  11.723  1.0333 -0.8792  2.8081
 2157SOL    HW217934   4.392   2.355  11.785  0.2725 -2.4884  1.7802
 2158SOL     OW17935   3.855   2.142   7.697 -0.1527  0.0777 -0.6846
 2158SOL    HW117936   3.817   2.230   7.700  1.0547  0.6519 -2.3561
 2158SOL    HW217937   3.916   2.168   7.628  0.7808 -0.5463 -0.0975
 2159SOL     OW17938   0.752   3.735   6.602  0.3569 -0.5242 -0.3949
 2159SOL    HW117939   0.815   3.675   6.642 -0.4823 -2.5526 -2.1095
 2159SOL    HW217940   0.785   3.753   6.514  1.1419 -1.6369 -0.3272
 2160SOL     OW17941   2.466   3.669  17.433  0.1294  0.8015  0.0024
 2160SOL    HW117942   2.496   3.666  17.342 -0.9038 -0.4019 -0.2857
 2160SOL    HW217943   2.543   3.719  17.459 -2.1990  3.4661  1.9036
 2161SOL     OW17944   3.362   3.586   4.941  0.4793 -0.1786 -0.1739
 2161SOL    HW117945   3.294   3.630   4.891  0.3908 -0.3303 -0.1884
 2161SOL    HW217946   3.389   3.660   4.996  1.3173 -1.4846  1.1918
 2162SOL     OW17947   0.155   2.395   4.273  1.1743 -0.0611 -0.1407
 2162SOL    HW117948   0.111   2.313   4.297  0.8513  0.3095  0.5359
 2162SOL    HW217949   0.094   2.421   4.204 -0.9768 -0.7083  1.5147
 2163SOL     OW17950   3.469   2.635   7.469 -0.5077  0.5364 -0.2389
 2163SOL    HW117951   3.543   2.618   7.526  0.4712 -2.7538 -2.4957
 2163SOL    HW217952   3.388   2.609   7.513  1.0479 -2.0280  1.0649
 2164SOL     OW17953   1.333   3.849  16.973 -0.2384 -0.7358  0.3595
 2164SOL    HW117954   1.366   3.759  16.980  1.2038 -0.2819 -0.4999
 2164SOL    HW217955   1.307   3.858  17.065  2.2966  0.4961  0.9697
 2165SOL     OW17956   3.064   1.572  16.436  0.3328  0.1187  0.5069
 2165SOL    HW117957   3.155   1.566  16.465  1.8780  1.0688 -4.2465
 2165SOL    HW217958   3.071   1.515  16.360 -1.0217 -1.1563  1.3272
 2166SOL     OW17959   1.442   0.839   3.548  0.1551 -0.1578 -0.5923
 2166SOL    HW117960   1.474   0.925   3.518 -0.9365  0.8077  1.0383
 2166SOL    HW217961   1.525   0.803   3.578 -0.1540 -0.5451 -0.2076
 2167SOL     OW17962   2.172   2.260   4.107 -0.2692  0.1099  0.0396
 2167SOL    HW117963   2.208   2.340   4.069 -0.9346  0.5201  0.2749
 2167SOL    HW217964   2.237   2.196   4.079 -0.2690  0.8925 -1.7578
 2168SOL     OW17965   3.724   1.815   2.994 -0.3304 -0.0891 -0.1141
 2168SOL    HW117966   3.784   1.742   2.983  0.8538  1.0273 -1.1077
 2168SOL    HW217967   3.652   1.791   2.935  0.7992  0.6867 -1.8130
 2169SOL     OW17968   2.075   0.532  13.664 -0.5303 -0.2150  0.1249
 2169SOL    HW117969   2.024   0.606  13.696 -0.2087 -0.7633  1.9096
 2169SOL    HW217970   2.154   0.553  13.713 -0.9228  2.9277 -0.5820
 2170SOL     OW17971   2.099   0.972  16.158 -0.5484 -0.4154 -0.3487
 2170SOL    HW117972   2.059   0.994  16.074  2.3822 -0.7081 -1.8206
 2170SOL    HW217973   2.184   0.933  16.138 -0.6587 -0.8760  0.0734
 2171SOL     OW17974   1.081   4.194   0.392 -0.7302  0.0405 -0.1363
 2171SOL    HW117975   1.064   4.280   0.431  2.0795  1.0303 -1.0896
 2171SOL    HW217976   1.170   4.171   0.419 -1.7058 -2.5580  0.7534
 2172SOL     OW17977   1.326   2.697   1.989 -0.5729 -0.0532 -0.6514
 2172SOL    HW117978   1.374   2.770   1.950  0.5375  0.4747  1.7147
 2172SOL    HW217979   1.237   2.725   1.969 -0.7036 -0.1612 -0.2359
 2173SOL     OW17980   3.583   1.924  13.323  0.0013 -0.4034  0.1574
 2173SOL    HW117981   3.622   1.938  13.237  1.9223 -1.2642  0.9051
 2173SOL    HW217982   3.507   1.983  13.319 -0.6411 -1.1066  1.7211
 2174SOL     OW17983   3.254   3.047   6.567 -0.4183  0.6593 -0.1378
 2174SOL    HW117984   3.251   3.098   6.486 -0.6434 -0.8186 -1.0536
 2174SOL    HW217985   3.160   3.029   6.573 -0.3652 -0.5940 -2.8506
 2175SOL     OW17986   3.445   1.022   5.500 -0.0437  0.4202 -0.0920
 2175SOL    HW117987   3.505   1.084   5.458 -1.2510  2.2433  0.8717
 2175SOL    HW217988   3.383   1.075   5.550 -2.3545 -3.6567  1.3203
 2176SOL     OW17989   2.323   2.253   6.525 -0.0654  0.3029  0.1864
 2176SOL    HW117990   2.377   2.243   6.446  0.4133 -3.7581  1.0322
 2176SOL    HW217991   2.394   2.284   6.582  0.1423 -0.9783  0.6493
 2177SOL     OW17992   3.531   4.451  15.487  0.2514  0.1240 -0.5938
 2177SOL    HW117993   3.577   4.394  15.426 -2.0982 -0.6933 -1.6162
 2177SOL    HW217994   3.586   4.525  15.510 -0.9506  1.2022 -1.1537
 2178SOL     OW17995   0.709   2.944   4.748 -0.1169  0.1067  0.2210
 2178SOL    HW117996   0.630   2.938   4.802  0.6983 -2.1349  1.1595
 2178SOL    HW217997   0.778   2.917   4.808 -1.2131 -2.6496  0.2079
 2179SOL     OW17998   0.954   0.819  14.328 -0.8344 -0.5032  0.0597
 2179SOL    HW117999   0.993   0.834  14.242  1.5328  0.9548  1.3917
 2179SOL    HW218000   0.952   0.723  14.327  0.3723 -0.5352  0.4893
 2180SOL     OW18001   2.294   1.508  17.037  0.1713  0.5122 -0.1611
 2180SOL    HW118002   2.254   1.594  17.023 -0.3380  0.2818 -0.1364
 2180SOL    HW218003   2.368   1.502  16.977 -0.1410  0.2711 -0.5262
 2181SOL     OW18004   2.572   2.271   9.119 -0.3957 -0.0523  0.0741
 2181SOL    HW118005   2.543   2.182   9.139 -1.3884  0.1125 -0.6373
 2181SOL    HW218006   2.585   2.301   9.209  0.8111  2.3168 -0.8842
 2182SOL     OW18007   2.830   2.754   0.593  0.1409  0.0739  0.4711
 2182SOL    HW118008   2.845   2.805   0.672 -1.2556  0.3573  0.5371
 2182SOL    HW218009   2.840   2.665   0.629 -3.1872 -1.0005 -1.3039
 2183SOL     OW18010   2.794   2.725   9.543 -0.5908  0.0824 -0.3565
 2183SOL    HW118011   2.838   2.808   9.525  1.4966 -1.0321 -0.3996
 2183SOL    HW218012   2.750   2.744   9.625 -1.2743 -0.7199 -0.5332
 2184SOL     OW18013   3.562   2.525  17.546 -0.3630 -0.2841 -0.2639
 2184SOL    HW118014   3.636   2.493  17.598 -1.0038 -1.6862 -0.2116
 2184SOL    HW218015   3.529   2.592  17.606 -0.3160 -0.9126  0.4605
 2185SOL     OW18016   3.926   1.689   4.518 -0.4321  0.1957 -0.3508
 2185SOL    HW118017   3.922   1.593   4.526 -3.2335  0.3275  0.0318
 2185SOL    HW218018   3.985   1.698   4.592 -0.1342  2.5415 -0.8794
 2186SOL     OW18019   2.754   0.780   6.350  0.1515 -0.1005 -0.8143
 2186SOL    HW118020   2.830   0.721   6.345  0.6904  0.4351  1.0700
 2186SOL    HW218021   2.796   0.865   6.342  0.8554 -0.2773  1.0011
 2187SOL     OW18022   4.055   4.657  12.265 -0.1207 -0.0189 -0.0382
 2187SOL    HW118023   4.079   4.607  12.343 -0.7423 -1.0102 -0.4780
 2187SOL    HW218024   3.970   4.615  12.250  0.2368 -0.9029  0.4492
 2188SOL     OW18025   1.849   2.814  16.526 -0.2315 -0.3354  0.3372
 2188SOL    HW118026   1.842   2.724  16.558 -0.9413 -0.5175 -0.3274
 2188SOL    HW218027   1.843   2.874  16.600  0.7955  0.0023  0.1350
 2189SOL     OW18028   2.695   3.774  11.143  0.2291 -0.3190  0.1757
 2189SOL    HW118029   2.710   3.867  11.124 -0.1802 -0.5851 -1.4932
 2189SOL    HW218030   2.657   3.755  11.057  0.1941  0.5033  0.0007
 2190SOL     OW18031   2.593   0.027  11.650 -0.4173 -0.2613  0.4533
 2190SOL    HW118032   2.515   0.082  11.640  1.2549  1.9442 -0.2618
 2190SOL    HW218033   2.641   0.074  11.717  2.1762 -1.3302 -0.6482
 2191SOL     OW18034   1.410   0.515   0.921  0.5193 -0.0813  0.1849
 2191SOL    HW118035   1.475   0.558   0.866 -1.6654  1.1323 -1.4327
 2191SOL    HW218036   1.470   0.480   0.988 -1.1180 -3.1705  0.0389
 2192SOL     OW18037   0.804   2.791   3.420  0.3612  0.3074  0.2944
 2192SOL    HW118038   0.750   2.769   3.496  1.7410  0.5822  1.3577
 2192SOL    HW218039   0.843   2.873   3.451 -0.4942  1.0388 -0.5934
 2193SOL     OW18040   2.663   0.885   7.318  0.8058  0.2141 -0.1620
 2193SOL    HW118041   2.719   0.829   7.264  1.3918  0.6999 -0.0597
 2193SOL    HW218042   2.727   0.945   7.355  0.7058 -0.5045  1.1648
 2194SOL     OW18043   0.859   2.726   4.389  0.0630 -0.3636 -0.4140
 2194SOL    HW118044   0.931   2.674   4.423  0.4162 -0.2224 -0.9474
 2194SOL    HW218045   0.860   2.709   4.295 -1.5576  0.4393 -0.5874
 2195SOL     OW18046   2.875   0.452   4.511 -0.6471  0.0751 -0.4507
 2195SOL    HW118047   2.858   0.365   4.547 -0.3912  0.3114  0.2207
 2195SOL    HW218048   2.834   0.509   4.576  0.4861 -0.1190  0.4237
 2196SOL     OW18049   3.622   1.766  16.455  0.1777 -0.3415 -0.5855
 2196SOL    HW118050   3.707   1.803  16.433 -0.2839  0.8177 -0.4226
 2196SOL    HW218051   3.652   1.703  16.520  0.9291  2.0595  1.4156
 2197SOL     OW18052   0.725   3.085   3.689  0.6175 -0.0207  0.4060
 2197SOL    HW118053   0.749   3.131   3.769  1.6817 -0.2808  0.2301
 2197SOL    HW218054   0.664   3.019   3.724 -0.1825  1.0519  1.0466
 2198SOL     OW18055   4.529   1.902   3.961  0.1543 -0.2022  0.3184
 2198SOL    HW118056   4.532   1.856   3.876 -3.3306  1.0684 -0.4655
 2198SOL    HW218057   4.551   1.833   4.024  1.3123  0.7579  0.9691
 2199SOL     OW18058   0.834   1.858   2.674  0.2837  0.3356  0.1712
 2199SOL    HW118059   0.824   1.881   2.766  0.6179 -1.0641  0.5498
 2199SOL    HW218060   0.751   1.811   2.666  0.1035  0.9482 -1.5093
 2200SOL     OW18061   1.078   4.423  17.538 -0.4294 -0.2154  0.0993
 2200SOL    HW118062   1.155   4.453  17.585  1.1908 -0.6768 -2.2530
 2200SOL    HW218063   1.012   4.481  17.575 -0.4143  0.0337 -0.2611
 2201SOL     OW18064   1.299   0.645  11.848 -0.2797 -0.6875  0.1504
 2201SOL    HW118065   1.328   0.553  11.846  1.6334 -0.0909  0.0417
 2201SOL    HW218066   1.277   0.652  11.755  0.0140 -0.1775  0.1202
 2202SOL     OW18067   4.603   3.250  16.654  0.4742 -0.4703 -0.4464
 2202SOL    HW118068   4.630   3.250  16.746 -2.5120  1.6798  0.4178
 2202SOL    HW218069   4.670   3.303  16.610  0.3761 -0.7577 -0.9450
 2203SOL     OW18070   0.081   2.680  17.299  0.2579 -0.4341 -0.4080
 2203SOL    HW118071   0.135   2.605  17.327 -2.4704 -1.1449  2.8847
 2203SOL    HW218072   4.715   2.643  17.292  0.0870 -0.2005  0.4385
 2204SOL     OW18073   3.384   0.179   7.392 -0.4356  0.3889  0.2175
 2204SOL    HW118074   3.461   0.165   7.337 -0.4773  2.1375 -0.2569
 2204SOL    HW218075   3.385   0.269   7.424 -1.5901  0.4709 -0.0006
 2205SOL     OW18076   1.034   0.269  16.931 -0.3470 -0.1057  0.5757
 2205SOL    HW118077   1.036   0.177  16.956 -0.4315 -0.5598 -1.1274
 2205SOL    HW218078   1.108   0.299  16.984  1.1300  0.7976 -2.0405
 2206SOL     OW18079   0.110   0.559   3.320 -0.5306  0.3752  0.0521
 2206SOL    HW118080   0.038   0.533   3.264 -0.5639 -0.6244  0.5599
 2206SOL    HW218081   0.066   0.639   3.350  0.4168  0.1676  2.0461
 2207SOL     OW18082   4.295   0.141   4.182  0.2592  0.0329 -0.1054
 2207SOL    HW118083   4.382   0.179   4.199 -0.7419  0.5786  3.6609
 2207SOL    HW218084   4.235   0.192   4.236 -1.1066 -1.0727 -0.5773
 2208SOL     OW18085   0.082   3.718   7.788 -0.4478 -0.4756 -0.0685
 2208SOL    HW118086   0.148   3.692   7.852  1.0019 -0.9483 -1.7263
 2208SOL    HW218087   0.137   3.761   7.723 -1.3211 -0.6582 -0.9368
 2209SOL     OW18088   1.867   0.965   3.989 -0.2062  0.0680  0.1764
 2209SOL    HW118089   1.911   1.027   4.047  0.6892  0.3847 -0.8359
 2209SOL    HW218090   1.813   0.920   4.053 -0.9790 -2.3300 -2.1844
 2210SOL     OW18091   2.846   1.039   6.357  0.8490  0.0649 -0.1802
 2210SOL    HW118092   2.923   1.057   6.303  3.0344  0.2941  2.9751
 2210SOL    HW218093   2.872   1.083   6.438  0.9320  2.1998 -1.3614
 2211SOL     OW18094   0.263   3.660   1.882  0.3634 -0.0390 -0.1125
 2211SOL    HW118095   0.199   3.722   1.918  1.1194  1.1445 -0.8192
 2211SOL    HW218096   0.330   3.726   1.864  0.6348 -1.0143 -2.6085
 2212SOL     OW18097   0.765   3.190   2.052  1.1147 -0.5792 -0.0551
 2212SOL    HW118098   0.710   3.113   2.065 -0.2742  0.2341 -1.1372
 2212SOL    HW218099   0.760   3.223   2.142  0.7408 -1.1641  0.1383
 2213SOL     OW18100   1.671   1.439   5.837  0.2306  0.1361  0.5413
 2213SOL    HW118101   1.623   1.403   5.762  0.3091 -1.0268  1.0440
 2213SOL    HW218102   1.758   1.433   5.799  0.6080  0.9068  1.2914
 2214SOL     OW18103   0.447   2.756   0.693 -0.0723  0.7211 -0.1671
 2214SOL    HW118104   0.480   2.845   0.682  1.1154 -0.0607 -2.9366
 2214SOL    HW218105   0.469   2.748   0.786 -0.8872 -0.4574 -0.0682
 2215SOL     OW18106   1.966   3.176   0.551 -0.0633  0.4434  0.0469
 2215SOL    HW118107   1.907   3.108   0.518  2.7926 -2.6023  1.2796
 2215SOL    HW218108   2.051   3.144   0.522 -1.2082 -1.9849 -0.6594
 2216SOL     OW18109   1.971   1.984   5.194  0.3600  0.3076  0.0662
 2216SOL    HW118110   1.995   2.071   5.225 -0.7504  0.5988  0.1111
 2216SOL    HW218111   2.049   1.961   5.144  1.1514  0.8660  1.0402
 2217SOL     OW18112   4.700   0.924   7.683  0.4664  0.1389 -0.0953
 2217SOL    HW118113   0.047   0.951   7.622  0.3874  1.6295  0.4616
 2217SOL    HW218114   0.014   0.942   7.770 -1.5214 -2.1642  1.1962
 2218SOL     OW18115   2.535   2.888  11.500 -0.1744  0.0321 -0.1921
 2218SOL    HW118116   2.531   2.795  11.482 -1.7844  0.5087 -2.3030
 2218SOL    HW218117   2.445   2.910  11.525  0.0641  1.5010 -0.6357
 2219SOL     OW18118   1.723   0.220  11.545  0.3524 -0.1235  0.1763
 2219SOL    HW118119   1.738   0.241  11.453  1.2498  0.7774  0.5237
 2219SOL    HW218120   1.809   0.211  11.586  0.1539  1.0236  0.8621
 2220SOL     OW18121   1.240   3.346  11.648  0.1239 -0.2555  0.3821
 2220SOL    HW118122   1.201   3.266  11.612  0.5329  0.0716 -0.8175
 2220SOL    HW218123   1.323   3.313  11.683  1.7189 -0.2356 -3.2478
 2221SOL     OW18124   4.153   2.545   1.052 -0.0783 -0.5257 -0.2963
 2221SOL    HW118125   4.222   2.537   1.118  0.2710 -0.3354 -0.6340
 2221SOL    HW218126   4.160   2.636   1.022  2.3778 -0.6268 -0.0587
 2222SOL     OW18127   1.046   0.692   2.515  0.1550  0.4989  0.0815
 2222SOL    HW118128   1.086   0.626   2.571  0.4739 -0.2605 -1.0476
 2222SOL    HW218129   0.953   0.685   2.536  0.8538 -2.0383  2.2827
 2223SOL     OW18130   0.979   0.776   7.595  0.2421 -0.4158  0.7781
 2223SOL    HW118131   0.971   0.681   7.589 -0.5558 -0.1515 -2.5108
 2223SOL    HW218132   1.055   0.789   7.652  0.5333 -0.0863  0.3174
 2224SOL     OW18133   1.963   4.088  14.413  0.5262  0.0080 -0.4842
 2224SOL    HW118134   2.024   4.103  14.341  2.0140 -0.5279  0.6546
 2224SOL    HW218135   1.964   3.993  14.423  4.4475 -0.2294 -2.9452
 2225SOL     OW18136   3.700   3.112   8.754  0.0381 -0.8074  0.1317
 2225SOL    HW118137   3.764   3.125   8.684 -0.1661 -1.6534 -0.2133
 2225SOL    HW218138   3.696   3.017   8.749 -0.1414 -0.6992 -2.1041
 2226SOL     OW18139   3.245   4.380   6.915  0.3514  0.0517  0.7204
 2226SOL    HW118140   3.300   4.368   6.993 -0.4185  2.9301  1.7282
 2226SOL    HW218141   3.159   4.351   6.946  0.9312 -0.4517  1.8642
 2227SOL     OW18142   4.648   3.929   8.119  0.0601  0.4144  0.6062
 2227SOL    HW118143   0.010   3.883   8.113  1.2088  2.7740 -1.3086
 2227SOL    HW218144   4.643   3.966   8.031  0.1239 -2.1959 -0.4929
 2228SOL     OW18145   3.827   0.464  16.952  0.5952 -0.9438 -0.0054
 2228SOL    HW118146   3.798   0.506  16.871  0.9179 -0.0847  0.3191
 2228SOL    HW218147   3.745   0.469  17.001 -0.0289  2.3913 -1.4174
 2229SOL     OW18148   2.431   2.223  16.305  0.1802  0.3886  1.0348
 2229SOL    HW118149   2.365   2.183  16.248  0.7438  1.0927 -0.1082
 2229SOL    HW218150   2.512   2.187  16.268 -0.2835 -0.8414  1.2152
 2230SOL     OW18151   2.841   1.917  10.870  0.2466 -0.3383 -0.1412
 2230SOL    HW118152   2.814   1.935  10.780 -0.1442  0.9318  0.2354
 2230SOL    HW218153   2.826   2.000  10.915 -2.5858 -0.6094 -0.5722
 2231SOL     OW18154   2.800   0.513   6.512 -0.1244 -0.6335  0.0826
 2231SOL    HW118155   2.846   0.544   6.434 -1.3038 -0.8936 -0.7141
 2231SOL    HW218156   2.803   0.589   6.571 -0.5008 -0.9319  0.4871
 2232SOL     OW18157   2.531   4.325  13.249 -0.1035  0.0787 -0.3011
 2232SOL    HW118158   2.454   4.272  13.227  0.1443 -0.9547  1.2839
 2232SOL    HW218159   2.495   4.375  13.322 -1.3229  0.5653 -1.2391
 2233SOL     OW18160   2.162   3.588   3.093 -0.4204 -0.0738 -0.0372
 2233SOL    HW118161   2.105   3.514   3.070 -2.5336  1.3366  0.6005
 2233SOL    HW218162   2.240   3.591   3.037  0.8834 -0.2537  1.7734
 2234SOL     OW18163   4.137   0.745   6.788 -0.2326  0.2748  0.0700
 2234SOL    HW118164   4.179   0.820   6.746 -0.7708  1.1814  1.1504
 2234SOL    HW218165   4.175   0.671   6.740 -1.7207 -1.0470  0.9149
 2235SOL     OW18166   1.460   2.993  14.988 -0.3219 -0.2569  0.1526
 2235SOL    HW118167   1.507   3.063  15.034  0.2598 -1.3403  1.2211
 2235SOL    HW218168   1.419   2.963  15.069 -0.4397 -0.8488 -0.1287
 2236SOL     OW18169   2.331   4.623  13.094 -0.1334  0.4264 -0.1154
 2236SOL    HW118170   2.256   4.564  13.085  1.2709 -1.2565 -0.6096
 2236SOL    HW218171   2.383   4.572  13.033 -1.8295 -2.1551  0.6145
 2237SOL     OW18172   1.504   1.410   5.620 -0.2065 -0.4752 -0.2447
 2237SOL    HW118173   1.459   1.355   5.683  0.0941  0.2725  0.6190
 2237SOL    HW218174   1.549   1.350   5.561  0.4971  1.2144 -1.4575
 2238SOL     OW18175   1.833   3.731   1.814  0.0230  0.3064  0.1330
 2238SOL    HW118176   1.905   3.713   1.753  0.5349 -1.3140  1.1828
 2238SOL    HW218177   1.813   3.819   1.784 -1.5664  0.1095  0.6169
 2239SOL     OW18178   1.552   2.861  13.534  0.1374 -0.2468  0.5189
 2239SOL    HW118179   1.548   2.949  13.574  0.5103  0.5459 -1.2040
 2239SOL    HW218180   1.628   2.829  13.583  0.8930  0.4845 -0.1646
 2240SOL     OW18181   2.821   4.008   2.636  0.4117 -0.0685 -0.5372
 2240SOL    HW118182   2.796   4.077   2.698 -0.6440 -0.3586 -0.6409
 2240SOL    HW218183   2.818   3.929   2.690 -0.7493  0.3532  0.0036
 2241SOL     OW18184   4.636   1.184   1.129  0.2280  0.5713 -0.0365
 2241SOL    HW118185   4.629   1.089   1.133  0.1615  0.5214 -1.6662
 2241SOL    HW218186   4.559   1.199   1.075 -0.0213 -2.7352 -0.5693
 2242SOL     OW18187   4.441   4.330   7.230 -0.5745 -0.0922  0.1737
 2242SOL    HW118188   4.370   4.390   7.252  1.2071  1.5215  1.4613
 2242SOL    HW218189   4.394   4.264   7.178  1.9750 -1.1039 -0.8820
 2243SOL     OW18190   0.237   2.471  10.869 -0.6824 -0.7324  1.1884
 2243SOL    HW118191   0.233   2.492  10.962 -1.4274  3.6594  0.1565
 2243SOL    HW218192   0.239   2.375  10.862  1.0842 -0.8044  2.7290
 2244SOL     OW18193   1.861   2.969  14.922 -0.1044  0.4940 -0.4810
 2244SOL    HW118194   1.824   2.882  14.909 -0.2421  0.4747  0.0609
 2244SOL    HW218195   1.904   2.960  15.007  1.3574 -0.5941 -1.3341
 2245SOL     OW18196   3.574   0.475  10.051  0.0109 -0.1989  0.0775
 2245SOL    HW118197   3.605   0.523   9.974  1.6248  0.3274  1.0663
 2245SOL    HW218198   3.627   0.518  10.119  2.3843 -2.5126 -0.3345
 2246SOL     OW18199   2.353   3.247   4.492 -0.4634  0.6857 -0.9208
 2246SOL    HW118200   2.337   3.219   4.402 -1.2984  1.7394 -1.1041
 2246SOL    HW218201   2.274   3.211   4.533  0.5929 -2.5507 -1.7268
 2247SOL     OW18202   2.923   0.762   5.001 -0.1869 -0.0931  0.4578
 2247SOL    HW118203   2.994   0.782   4.941 -0.0537 -2.8513 -0.3062
 2247SOL    HW218204   2.955   0.808   5.079  0.7972  0.7463 -0.4397
 2248SOL     OW18205   2.790   2.939   4.133 -0.0559 -0.0247  0.2698
 2248SOL    HW118206   2.792   2.960   4.040 -1.6713  2.8003  0.8637
 2248SOL    HW218207   2.877   2.902   4.146 -0.8033 -2.7859 -2.7531
 2249SOL     OW18208   2.764   1.483   6.547 -0.1833 -0.2404 -0.5101
 2249SOL    HW118209   2.766   1.501   6.453 -1.7086 -1.3141 -0.7442
 2249SOL    HW218210   2.824   1.550   6.581  0.9180  0.0662 -3.0266
 2250SOL     OW18211   2.896   1.525  14.633 -0.9080  0.2047  0.0259
 2250SOL    HW118212   2.892   1.585  14.559 -1.8009 -0.7706 -0.7189
 2250SOL    HW218213   2.828   1.462  14.609 -1.3712  1.3870 -1.7731
 2251SOL     OW18214   4.342   2.851   4.567 -0.2434 -0.1691 -0.2374
 2251SOL    HW118215   4.253   2.836   4.598 -0.3283 -0.0039 -0.4044
 2251SOL    HW218216   4.380   2.763   4.565 -0.0834 -0.1732  3.2846
 2252SOL     OW18217   3.011   1.160   6.878  0.8472 -0.2859 -0.2118
 2252SOL    HW118218   2.938   1.217   6.852 -0.7356 -2.3545 -0.3453
 2252SOL    HW218219   2.992   1.154   6.972  0.7004  1.7814 -0.1166
 2253SOL     OW18220   3.948   4.085   2.957  0.1915 -0.4682  0.2576
 2253SOL    HW118221   3.944   4.180   2.952  0.1258 -0.5165 -0.6266
 2253SOL    HW218222   4.004   4.061   2.883 -0.8664  1.0519 -1.0422
 2254SOL     OW18223   1.758   0.510   0.936 -0.2770  0.4810 -0.3202
 2254SOL    HW118224   1.693   0.462   0.986 -1.2770  2.7171  0.5412
 2254SOL    HW218225   1.705   0.572   0.886 -1.1613 -0.0391 -0.0117
 2255SOL     OW18226   1.837   3.596  14.558  0.0487 -0.3407  0.4787
 2255SOL    HW118227   1.812   3.569  14.647 -0.5222  2.4089  1.1282
 2255SOL    HW218228   1.811   3.510  14.524 -0.4459 -0.2640  0.6655
 2256SOL     OW18229   0.160   3.206   5.776  0.3141  0.2280  0.0591
 2256SOL    HW118230   0.067   3.184   5.786  0.8021 -1.7909  0.0658
 2256SOL    HW218231   0.161   3.248   5.691 -2.8424 -1.3266 -0.7691
 2257SOL     OW18232   2.670   2.654   4.043 -0.0692  0.5869  0.2065
 2257SOL    HW118233   2.752   2.696   4.070  1.1329 -0.5277 -1.6489
 2257SOL    HW218234   2.707   2.571   4.012  0.3142  0.4520  1.0412
 2258SOL     OW18235   1.403   1.580  16.795 -0.1153 -0.4534  0.0882
 2258SOL    HW118236   1.356   1.648  16.843  0.2742 -1.4544  1.8766
 2258SOL    HW218237   1.479   1.560  16.849  0.2606  1.2545  0.1703
 2259SOL     OW18238   3.429   1.682   9.003 -0.2449  0.3264 -0.5722
 2259SOL    HW118239   3.403   1.719   9.087 -0.8360  2.1375 -1.5450
 2259SOL    HW218240   3.418   1.592   9.035 -0.4266  0.2623 -0.8086
 2260SOL     OW18241   2.139   1.040  12.867  0.2440  0.1328 -0.1973
 2260SOL    HW118242   2.198   1.032  12.793 -1.1890 -2.4641 -1.0700
 2260SOL    HW218243   2.200   1.054  12.938  0.4908  0.3268 -0.4483
 2261SOL     OW18244   2.443   3.398   4.074 -0.0891  0.7067  0.2527
 2261SOL    HW118245   2.466   3.353   3.993  1.4779 -0.1747  1.1838
 2261SOL    HW218246   2.380   3.459   4.037  1.4707  1.9383 -0.4019
 2262SOL     OW18247   1.969   2.597  17.136 -0.0283 -0.2210  0.1214
 2262SOL    HW118248   2.044   2.544  17.161 -0.1755 -0.3361  0.3187
 2262SOL    HW218249   2.000   2.685  17.117  2.6270 -1.5897 -1.8440
 2263SOL     OW18250   0.764   0.728   9.665 -0.2122 -0.3328 -0.2249
 2263SOL    HW118251   0.694   0.764   9.719 -1.0288 -2.5213  0.1881
 2263SOL    HW218252   0.740   0.735   9.573 -2.5434  2.2326  0.5991
 2264SOL     OW18253   2.914   1.441   9.301 -0.2618 -0.4956 -0.9119
 2264SOL    HW118254   2.843   1.482   9.350  1.0746 -0.9338  1.4526
 2264SOL    HW218255   2.939   1.506   9.236 -0.8605 -0.3539 -1.0004
 2265SOL     OW18256   0.971   3.493  13.989  0.1914  0.3878 -0.4532
 2265SOL    HW118257   0.904   3.427  14.009  1.1617 -0.7193 -0.8556
 2265SOL    HW218258   1.008   3.464  13.906 -0.3118 -0.4144 -0.3995
 2266SOL     OW18259   4.528   4.505  13.061 -0.6423 -0.1690  0.4105
 2266SOL    HW118260   4.479   4.583  13.088 -1.6209 -0.7475  0.3150
 2266SOL    HW218261   4.611   4.539  13.094  0.2629 -1.4982 -0.4979
 2267SOL     OW18262   0.103   3.511  12.826 -0.1569  0.2116 -0.0130
 2267SOL    HW118263   0.143   3.594  12.853 -0.3611  0.6240 -1.0016
 2267SOL    HW218264   0.169   3.483  12.763  0.3146  0.5344  0.3417
 2268SOL     OW18265   0.787   2.638   2.691  0.4336 -0.0084  0.0901
 2268SOL    HW118266   0.866   2.634   2.745  0.6991  1.3131 -0.2091
 2268SOL    HW218267   0.722   2.611   2.756  0.2717 -0.2230 -0.1615
 2269SOL     OW18268   3.662   1.752   7.587  0.1781 -0.2303 -0.7807
 2269SOL    HW118269   3.654   1.799   7.670 -1.7359 -1.5383 -0.2270
 2269SOL    HW218270   3.687   1.822   7.527  2.1633 -1.8627 -1.8316
 2270SOL     OW18271   1.738   1.750   2.520  0.0179  0.0014  0.0114
 2270SOL    HW118272   1.682   1.675   2.537  1.2819 -0.7545  0.7701
 2270SOL    HW218273   1.729   1.808   2.596  1.0675  2.7722 -1.9528
 2271SOL     OW18274   3.759   0.189   5.404 -0.0997 -0.2036  0.3048
 2271SOL    HW118275   3.693   0.169   5.337  1.7384  1.0109 -1.8523
 2271SOL    HW218276   3.839   0.201   5.353 -0.7643 -1.8533 -1.1293
 2272SOL     OW18277   3.953   0.345   8.430 -0.3304 -0.4214 -0.1749
 2272SOL    HW118278   3.943   0.309   8.518  1.5302  0.1004  0.2597
 2272SOL    HW218279   3.895   0.295   8.373 -0.9842 -0.3352  0.4162
 2273SOL     OW18280   0.705   0.170  17.104 -0.0913 -0.0169  0.0582
 2273SOL    HW118281   0.751   0.196  17.183  0.2130  3.7475 -1.3912
 2273SOL    HW218282   0.634   0.233  17.103  1.2315  1.4706  1.1720
 2274SOL     OW18283   3.488   3.374  16.138  0.2995  0.3395  0.1481
 2274SOL    HW118284   3.516   3.464  16.119 -0.4512  0.5861  0.1957
 2274SOL    HW218285   3.512   3.370  16.231 -0.5283  1.9802  0.4360
 2275SOL     OW18286   3.181   2.002   8.159 -0.7621 -0.2496 -0.3054
 2275SOL    HW118287   3.108   1.999   8.221  0.3956  1.6826  1.1351
 2275SOL    HW218288   3.128   2.020   8.082 -3.1978 -0.6929  1.2648
 2276SOL     OW18289   4.700   1.673   0.476  0.1436  0.5409  0.4474
 2276SOL    HW118290   4.613   1.713   0.484 -0.1647  0.6854 -3.2661
 2276SOL    HW218291   0.016   1.685   0.563  0.6068 -0.4227  0.3796
 2277SOL     OW18292   3.095   1.158   3.999 -0.2534 -0.1674 -0.3499
 2277SOL    HW118293   3.112   1.229   3.938  1.6033 -0.3061  0.0079
 2277SOL    HW218294   3.159   1.088   3.985 -0.1955 -0.5637  1.8620
 2278SOL     OW18295   1.469   2.835   0.555  0.1958  0.6859  0.2581
 2278SOL    HW118296   1.398   2.892   0.528 -0.2911 -0.2386 -0.4087
 2278SOL    HW218297   1.480   2.864   0.646  2.0346  0.4384  0.1140
 2279SOL     OW18298   1.581   3.462  17.358 -0.1055 -0.0751 -0.1176
 2279SOL    HW118299   1.520   3.472  17.430  0.1700 -0.5869  0.1864
 2279SOL    HW218300   1.586   3.551  17.325 -0.0636 -0.1590 -0.3374
 2280SOL     OW18301   0.346   2.848   5.813 -0.0304 -0.1632 -0.2145
 2280SOL    HW118302   0.405   2.861   5.888 -0.2221  0.6274 -0.2002
 2280SOL    HW218303   0.334   2.940   5.791  1.5582 -0.0914 -0.7883
 2281SOL     OW18304   3.808   1.225  13.907 -0.3674 -0.9327 -0.5995
 2281SOL    HW118305   3.842   1.159  13.968 -1.2697 -0.3248  0.5558
 2281SOL    HW218306   3.826   1.301  13.961 -2.1108 -0.2814 -0.9281
 2282SOL     OW18307   1.420   1.465   9.718  0.0330  0.1619  0.1061
 2282SOL    HW118308   1.434   1.522   9.794  1.5836 -1.2029  0.8367
 2282SOL    HW218309   1.501   1.481   9.669  0.6014  0.0837  1.0128
 2283SOL     OW18310   1.978   1.122   6.170  0.1204  0.6941  0.4694
 2283SOL    HW118311   1.960   1.188   6.104 -2.8430 -0.6268 -0.0019
 2283SOL    HW218312   1.899   1.114   6.222  0.0826  1.5574  0.5433
 2284SOL     OW18313   3.346   3.624   5.559 -0.0725  0.5070  0.0201
 2284SOL    HW118314   3.390   3.551   5.516 -0.4032 -0.7496  1.8319
 2284SOL    HW218315   3.362   3.696   5.498  2.0488  1.3360  1.5512
 2285SOL     OW18316   0.729   2.268   2.848 -0.5148 -0.2108  0.1209
 2285SOL    HW118317   0.741   2.331   2.777  0.1573 -0.5621 -0.0769
 2285SOL    HW218318   0.646   2.293   2.889 -0.0839  0.0356  0.8633
 2286SOL     OW18319   1.466   1.399  16.593  0.2484 -0.7861  0.2014
 2286SOL    HW118320   1.543   1.343  16.594 -0.7984 -2.2184  1.3561
 2286SOL    HW218321   1.469   1.434  16.682  2.8557 -1.0714  0.2163
 2287SOL     OW18322   3.484   2.823   1.185  0.0794 -0.4362 -0.4199
 2287SOL    HW118323   3.494   2.859   1.273 -0.3464 -0.3856 -0.3934
 2287SOL    HW218324   3.532   2.740   1.190  1.9907  0.5294 -2.7723
 2288SOL     OW18325   3.900   2.789   6.101  0.0916 -0.0828  0.2240
 2288SOL    HW118326   3.920   2.752   6.186  1.5961 -2.9909 -1.3999
 2288SOL    HW218327   3.988   2.801   6.065 -0.4542  3.0415 -0.0935
 2289SOL     OW18328   2.420   3.578  14.404  0.3704  0.0996  0.0520
 2289SOL    HW118329   2.328   3.574  14.378  0.4789  3.6698 -0.8670
 2289SOL    HW218330   2.425   3.636  14.480  0.6591 -1.1605  0.9981
 2290SOL     OW18331   1.620   1.789   4.041 -0.0703 -0.9681 -0.2567
 2290SOL    HW118332   1.697   1.812   3.989 -1.4948 -0.6022 -2.2038
 2290SOL    HW218333   1.596   1.872   4.083  0.9819 -1.0413  0.4823
 2291SOL     OW18334   4.219   0.952   2.815 -0.3313  0.2143  0.0540
 2291SOL    HW118335   4.247   1.011   2.886 -1.4003  0.3283  0.3778
 2291SOL    HW218336   4.124   0.953   2.828 -0.4363  2.5533 -0.8152
 2292SOL     OW18337   3.382   1.708   6.482 -0.0871  0.2276  0.2508
 2292SOL    HW118338   3.365   1.786   6.535 -0.6038  0.0078  0.4085
 2292SOL    HW218339   3.382   1.757   6.400 -0.5327  0.6719  0.5105
 2293SOL     OW18340   3.706   1.126   9.541 -0.1264 -0.0832  0.7376
 2293SOL    HW118341   3.705   1.108   9.447  1.5343 -0.8676  0.8681
 2293SOL    HW218342   3.725   1.220   9.542  2.1010 -0.5043 -1.9018
 2294SOL     OW18343   3.637   2.522   2.195 -0.2706  1.0442  0.5826
 2294SOL    HW118344   3.555   2.489   2.159 -0.6305  1.1567  1.3139
 2294SOL    HW218345   3.701   2.483   2.135  0.1195 -0.3626  1.9313
 2295SOL     OW18346   2.844   2.141   4.145 -0.8874  0.5015 -0.0573
 2295SOL    HW118347   2.831   2.055   4.184  0.7378  0.2424 -0.0607
 2295SOL    HW218348   2.804   2.203   4.206 -1.8330  1.1797 -1.3830
 2296SOL     OW18349   3.689   0.441   6.207 -0.1286 -0.3929  0.0739
 2296SOL    HW118350   3.769   0.492   6.198 -1.6696  1.7646 -1.3242
 2296SOL    HW218351   3.723   0.380   6.273 -0.1772  1.6358  1.9798
 2297SOL     OW18352   1.449   1.733  10.588 -0.2913 -0.2128  0.1039
 2297SOL    HW118353   1.373   1.676  10.576 -0.4065 -0.0417  0.0284
 2297SOL    HW218354   1.504   1.708  10.514 -0.8298 -1.2595  0.0624
 2298SOL     OW18355   3.059   3.936   5.147 -0.1854 -0.0274 -0.2511
 2298SOL    HW118356   3.049   4.021   5.103 -1.2679 -1.2583 -2.4197
 2298SOL    HW218357   3.090   3.877   5.078 -0.1819 -0.7512  0.3661
 2299SOL     OW18358   1.564   1.454   3.612 -0.0754  0.2074  0.0687
 2299SOL    HW118359   1.491   1.402   3.579 -0.0249 -0.3808  0.8727
 2299SOL    HW218360   1.637   1.411   3.569  0.7345  2.6771 -0.9809
 2300SOL     OW18361   0.813   3.282  11.087 -0.4314 -0.2368  0.3603
 2300SOL    HW118362   0.873   3.257  11.157 -0.4487 -0.2139  0.3830
 2300SOL    HW218363   0.750   3.211  11.088  0.8436 -1.3673  0.7598
 2301SOL     OW18364   2.573   1.747   2.244  0.3263  0.1420  0.1373
 2301SOL    HW118365   2.526   1.771   2.164 -0.6613 -1.2645  0.2874
 2301SOL    HW218366   2.589   1.653   2.231 -0.0851  0.2780 -1.4434
 2302SOL     OW18367   2.516   0.077  14.801 -0.1687  0.1271 -0.1501
 2302SOL    HW118368   2.446   0.108  14.744 -0.6024  0.2463  0.4507
 2302SOL    HW218369   2.537   0.156  14.850  2.2911 -0.6703  0.1090
 2303SOL     OW18370   1.924   4.581  17.530 -0.0936  0.0319  0.3153
 2303SOL    HW118371   1.997   4.519  17.516 -1.9101 -1.7260 -1.2842
 2303SOL    HW218372   1.962   4.647  17.473 -1.0331  0.6563  0.4113
 2304SOL     OW18373   4.320   1.984   8.854  0.0080  0.2469  0.0639
 2304SOL    HW118374   4.343   1.950   8.941  0.3666  0.4789  0.0584
 2304SOL    HW218375   4.233   2.023   8.869 -1.2137 -2.4119 -0.0937
 2305SOL     OW18376   1.212   0.334  14.383 -0.1322 -0.2519  0.0696
 2305SOL    HW118377   1.306   0.318  14.376 -0.4068 -1.9065  0.0998
 2305SOL    HW218378   1.185   0.256  14.432 -1.8485 -0.3316 -0.9812
 2306SOL     OW18379   0.689   4.045  13.420 -0.4835 -0.4057  0.8555
 2306SOL    HW118380   0.636   3.970  13.391 -0.0347 -0.3757 -0.0631
 2306SOL    HW218381   0.625   4.108  13.453 -0.3961 -0.3101  0.8420
 2307SOL     OW18382   3.793   0.204   6.320 -0.2600 -0.1660  0.1988
 2307SOL    HW118383   3.832   0.172   6.401  2.7603  1.3432 -0.6667
 2307SOL    HW218384   3.766   0.119   6.284  1.1751 -0.3860 -0.3388
 2308SOL     OW18385   3.298   3.544   0.129 -0.1137  0.1430 -0.1851
 2308SOL    HW118386   3.278   3.464   0.176  1.8622 -0.6187 -0.6251
 2308SOL    HW218387   3.222   3.552   0.072  0.3762 -1.4146 -1.0635
 2309SOL     OW18388   3.502   2.887   1.479  0.3280  0.0931 -0.2072
 2309SOL    HW118389   3.570   2.941   1.519 -1.3712  0.1592  2.6179
 2309SOL    HW218390   3.418   2.930   1.495  1.6018  1.5193  2.5564
 2310SOL     OW18391   1.264   4.438   8.432 -0.1802 -0.0207  0.2738
 2310SOL    HW118392   1.246   4.377   8.503  1.1444  1.3745  1.8310
 2310SOL    HW218393   1.186   4.492   8.447 -1.3762 -1.1903 -1.8354
 2311SOL     OW18394   0.651   2.900  14.826 -0.3838  0.1627  0.3779
 2311SOL    HW118395   0.561   2.867  14.820  0.1937 -1.4027  0.2014
 2311SOL    HW218396   0.667   2.943  14.742  1.5824 -1.4634 -0.0708
 2312SOL     OW18397   0.845   2.382   2.085  0.2983 -0.2507 -0.5925
 2312SOL    HW118398   0.928   2.388   2.133 -0.2534 -1.0915  0.4759
 2312SOL    HW218399   0.804   2.469   2.090 -2.5579 -1.7273  1.7724
 2313SOL     OW18400   2.943   3.450   4.457 -0.1052 -0.0563  0.0776
 2313SOL    HW118401   2.926   3.393   4.382  1.8817 -0.3969 -0.1097
 2313SOL    HW218402   3.014   3.505   4.425 -1.0200  2.2570  1.9680
 2314SOL     OW18403   0.722   2.282  16.626  0.7705 -0.3017  0.7234
 2314SOL    HW118404   0.661   2.281  16.552 -1.3432 -0.8121  2.4525
 2314SOL    HW218405   0.672   2.336  16.687 -2.8377 -0.1960 -2.3262
 2315SOL     OW18406   2.114   3.060   7.095  0.2494 -0.0389  0.2091
 2315SOL    HW118407   2.192   3.113   7.109 -0.8955  2.3739 -2.5676
 2315SOL    HW218408   2.100   3.079   7.002 -1.1630  1.2578  0.7068
 2316SOL     OW18409   2.070   2.999  13.712 -0.3879 -0.5153 -0.0541
 2316SOL    HW118410   2.061   2.913  13.673  0.1457 -0.9139  0.7022
 2316SOL    HW218411   2.070   2.986  13.807 -0.8705  1.1028  0.1674
 2317SOL     OW18412   4.016   2.528  13.043  0.1835 -0.2316 -0.6178
 2317SOL    HW118413   3.981   2.616  13.028 -1.4972 -0.7775  0.1407
 2317SOL    HW218414   3.934   2.481  13.026 -0.9535  0.9886  1.5055
 2318SOL     OW18415   4.557   2.884  11.294  0.2360  0.4567 -0.1677
 2318SOL    HW118416   4.593   2.828  11.225  0.6846 -1.8990  1.9609
 2318SOL    HW218417   4.543   2.818  11.362  0.6404 -0.5362 -1.0414
 2319SOL     OW18418   0.540   3.235  10.696 -0.3008 -0.5438  0.5453
 2319SOL    HW118419   0.489   3.255  10.774 -2.5239  1.8260 -1.5169
 2319SOL    HW218420   0.540   3.139  10.697 -1.9860 -0.5955 -1.8322
 2320SOL     OW18421   0.232   0.143   8.104 -0.0135 -0.1028  1.0743
 2320SOL    HW118422   0.327   0.147   8.110  0.2104  0.3639 -2.9359
 2320SOL    HW218423   0.214   0.157   8.011 -1.5284  1.1997  1.5522
 2321SOL     OW18424   2.341   2.575  13.514  0.2253 -0.4210  0.0719
 2321SOL    HW118425   2.311   2.496  13.559  0.9224 -0.0501  1.1720
 2321SOL    HW218426   2.362   2.534  13.430 -1.2524 -1.0017 -0.0203
 2322SOL     OW18427   3.877   0.365   3.121 -0.5829 -0.4429  0.5327
 2322SOL    HW118428   3.791   0.407   3.127 -0.3692  0.4162 -2.4973
 2322SOL    HW218429   3.920   0.425   3.181 -1.5147  0.3983  0.3615
 2323SOL     OW18430   2.602   2.108   5.584 -0.1072  0.2176  0.0390
 2323SOL    HW118431   2.563   2.156   5.657 -2.4243  2.5894 -2.7730
 2323SOL    HW218432   2.680   2.163   5.573 -0.1983  0.1821 -0.7957
 2324SOL     OW18433   1.016   0.056  15.815  0.1387 -0.2914 -0.5312
 2324SOL    HW118434   0.932   0.014  15.795  0.2923  0.2933 -2.3781
 2324SOL    HW218435   1.035   0.086  15.726  0.6416  1.3341  0.1185
 2325SOL     OW18436   0.517   2.693  10.932 -0.1650 -0.1253 -0.5517
 2325SOL    HW118437   0.511   2.623  10.868  1.1477 -1.5128  0.8408
 2325SOL    HW218438   0.606   2.709  10.900  0.4376 -2.7536 -0.1820
 2326SOL     OW18439   3.243   0.281   8.065 -0.2706  0.2160 -0.2202
 2326SOL    HW118440   3.261   0.317   7.978  1.4824 -0.0144  0.0636
 2326SOL    HW218441   3.190   0.205   8.039 -1.2537  0.8542 -0.1220
 2327SOL     OW18442   0.300   2.591  17.085 -0.1065  0.4121  0.4626
 2327SOL    HW118443   0.232   2.523  17.089  0.4077 -0.1714 -0.8951
 2327SOL    HW218444   0.246   2.668  17.070  1.7408  1.7520  0.7825
 2328SOL     OW18445   1.951   2.898   4.712 -0.2953 -0.4731 -0.1644
 2328SOL    HW118446   1.856   2.903   4.721 -0.3806 -0.2772 -1.1891
 2328SOL    HW218447   1.962   2.978   4.661  0.4266 -0.1373  0.5098
 2329SOL     OW18448   3.432   4.474   5.036  0.1184  0.4952 -0.1602
 2329SOL    HW118449   3.401   4.384   5.027  1.0062  0.1392  0.3382
 2329SOL    HW218450   3.405   4.488   5.126  1.7031  1.4087  0.1729
 2330SOL     OW18451   0.124   4.454  15.854  0.1077  0.2126 -0.7300
 2330SOL    HW118452   0.050   4.505  15.820  1.0677  2.2563  0.2964
 2330SOL    HW218453   0.092   4.365  15.838  2.9436 -0.9957  0.3724
 2331SOL     OW18454   1.384   2.741   8.285 -0.0049 -0.0732 -0.0474
 2331SOL    HW118455   1.425   2.660   8.254 -2.7735 -1.8448  0.8052
 2331SOL    HW218456   1.456   2.798   8.309  1.6128 -2.4136  0.6577
 2332SOL     OW18457   4.278   2.232   7.332 -0.0262 -0.0681  0.1284
 2332SOL    HW118458   4.336   2.306   7.349 -0.1196  0.3980 -1.6779
 2332SOL    HW218459   4.337   2.156   7.328  0.9199  0.8182 -2.5603
 2333SOL     OW18460   2.932   1.382  11.938 -0.2638 -0.3747 -0.0832
 2333SOL    HW118461   2.985   1.369  11.860  1.2405 -3.9334  1.5408
 2333SOL    HW218462   2.945   1.298  11.981 -0.7808  0.7610  2.2711
 2334SOL     OW18463   4.059   2.338   5.395 -0.2021  0.6098 -0.2214
 2334SOL    HW118464   4.128   2.325   5.460 -3.7638 -2.3176  2.9260
 2334SOL    HW218465   4.025   2.252   5.370 -3.1420  0.6501  3.6400
 2335SOL     OW18466   0.983   3.926   5.145 -0.0256  0.4207  0.8757
 2335SOL    HW118467   1.076   3.912   5.124 -0.4619 -1.2924  0.0986
 2335SOL    HW218468   0.957   4.007   5.100  0.1327  1.0960  2.0161
 2336SOL     OW18469   3.460   3.967   8.781  0.4995 -0.3267 -0.5001
 2336SOL    HW118470   3.472   4.022   8.859 -1.0683 -1.6339  0.6833
 2336SOL    HW218471   3.367   3.944   8.770  0.5671 -0.2043 -1.3348
 2337SOL     OW18472   1.511   2.802  15.916 -0.1867 -0.6497  0.0811
 2337SOL    HW118473   1.522   2.710  15.939 -0.7955 -1.1227 -1.4754
 2337SOL    HW218474   1.423   2.816  15.950  0.0110  0.0932  0.2733
 2338SOL     OW18475   3.080   1.056   6.188 -0.4121  0.6418 -0.3038
 2338SOL    HW118476   3.162   1.014   6.162 -1.2276 -0.7034 -0.7445
 2338SOL    HW218477   3.073   1.133   6.132 -0.8733  2.5824  2.4583
 2339SOL     OW18478   3.319   2.792  16.623  0.0356  0.0377  0.3011
 2339SOL    HW118479   3.349   2.864  16.567 -1.2299  1.4706  1.4747
 2339SOL    HW218480   3.373   2.717  16.601 -1.8329 -1.0007 -0.7362
 2340SOL     OW18481   1.251   1.413  16.177 -0.3071 -0.4780 -0.4268
 2340SOL    HW118482   1.323   1.382  16.232  0.7031 -0.2455 -1.6028
 2340SOL    HW218483   1.238   1.346  16.110 -2.2329 -0.6002  0.0808
 2341SOL     OW18484   2.242   4.155   9.101 -0.1599 -0.1453  0.4222
 2341SOL    HW118485   2.199   4.174   9.017 -0.8988 -0.5154  0.7219
 2341SOL    HW218486   2.334   4.159   9.074  0.1018 -0.0473  1.3572
 2342SOL     OW18487   2.078   0.021   7.215  0.0297 -0.1061 -0.1681
 2342SOL    HW118488   2.047   4.720   7.302  1.4868  0.2102  0.4322
 2342SOL    HW218489   2.006   4.718   7.156  0.0398 -0.5276 -0.0075
 2343SOL     OW18490   3.112   4.427   8.913 -0.7367 -0.3371 -0.2892
 2343SOL    HW118491   3.068   4.507   8.885  1.0881  0.5140 -0.7022
 2343SOL    HW218492   3.132   4.386   8.829 -0.3874 -2.1228  0.6633
 2344SOL     OW18493   1.670   1.292  10.945 -0.2048 -0.1060 -0.4778
 2344SOL    HW118494   1.622   1.212  10.969  1.0410 -1.1830 -1.5688
 2344SOL    HW218495   1.606   1.344  10.897 -0.5998 -0.2057 -0.0589
 2345SOL     OW18496   3.287   2.631   2.362  0.1437  0.2560 -0.1369
 2345SOL    HW118497   3.267   2.537   2.364 -0.3023  0.3766  1.2604
 2345SOL    HW218498   3.206   2.671   2.332  0.1347 -1.5178 -2.4925
 2346SOL     OW18499   1.466   0.312   9.787 -0.0135 -0.4095 -0.1761
 2346SOL    HW118500   1.416   0.340   9.864  0.5283  0.9853 -0.3388
 2346SOL    HW218501   1.406   0.250   9.744 -0.4033  0.2997 -0.6673
 2347SOL     OW18502   3.216   0.797   6.348 -0.5399  0.7744  0.4499
 2347SOL    HW118503   3.274   0.721   6.346 -1.6136 -0.0635  1.1168
 2347SOL    HW218504   3.265   0.840   6.278 -4.6086 -2.3050 -4.3614
 2348SOL     OW18505   0.945   1.143  10.978 -0.5446 -0.1694 -0.6550
 2348SOL    HW118506   0.867   1.104  10.938  0.0453  0.7683 -2.7542
 2348SOL    HW218507   0.951   1.121  11.071 -0.8138  0.0507 -0.5860
 2349SOL     OW18508   3.617   2.379   3.879 -0.3151 -0.5437  0.3177
 2349SOL    HW118509   3.566   2.402   3.801 -1.0449  0.5758  1.1328
 2349SOL    HW218510   3.663   2.308   3.834 -0.4333 -1.1906  1.2166
 2350SOL     OW18511   4.269   0.759   9.551  0.5009  0.4409  0.2128
 2350SOL    HW118512   4.291   0.669   9.575 -1.9229  0.3827  2.2859
 2350SOL    HW218513   4.277   0.802   9.636 -0.6240 -3.6682  2.4203
 2351SOL     OW18514   1.638   3.532   8.500 -0.2096 -0.5682 -0.2098
 2351SOL    HW118515   1.611   3.562   8.587  0.1870  0.7475 -0.5309
 2351SOL    HW218516   1.662   3.440   8.508 -1.6239 -0.9296 -0.1150
 2352SOL     OW18517   4.203   4.257   7.940 -0.3749 -0.5188  0.1913
 2352SOL    HW118518   4.153   4.185   7.977  1.2320 -0.8605  1.6858
 2352SOL    HW218519   4.236   4.299   8.020 -0.5568 -0.6723  0.3439
 2353SOL     OW18520   1.824   0.002   8.125  0.3676 -0.4243 -0.5797
 2353SOL    HW118521   1.875   0.046   8.057 -2.0244  0.9497 -1.5163
 2353SOL    HW218522   1.884   4.651   8.142  0.1371  0.0424  2.2098
 2354SOL     OW18523   3.269   2.294   3.968 -0.2588  0.1422 -0.2473
 2354SOL    HW118524   3.186   2.251   3.987  0.2290 -0.5204  0.4031
 2354SOL    HW218525   3.320   2.286   4.049 -0.4766  4.2964  0.3240
 2355SOL     OW18526   1.777   2.749  16.260  0.3540  0.1394  0.2326
 2355SOL    HW118527   1.782   2.655  16.279  2.6785  0.0782 -0.6057
 2355SOL    HW218528   1.817   2.788  16.338  0.1648  1.3631 -0.2839
 2356SOL     OW18529   2.165   3.637   8.095 -0.3350  0.2665  0.5202
 2356SOL    HW118530   2.084   3.631   8.044  0.5692  0.1023 -0.9201
 2356SOL    HW218531   2.141   3.573   8.161  3.2251 -1.0211  0.5889
 2357SOL     OW18532   0.331   3.312   9.118  0.2109  0.0872 -0.7372
 2357SOL    HW118533   0.269   3.385   9.120  0.9432  0.6143  1.3451
 2357SOL    HW218534   0.320   3.253   9.193  1.1284  0.8210 -0.0317
 2358SOL     OW18535   3.959   1.040   2.827  0.7999  0.7597  0.3773
 2358SOL    HW118536   3.922   1.111   2.775 -1.5134  1.6150  3.1924
 2358SOL    HW218537   3.874   1.012   2.860  0.8695 -0.2673 -0.3236
 2359SOL     OW18538   0.586   2.416   2.511  0.5138  0.2021 -0.3276
 2359SOL    HW118539   0.539   2.339   2.479  1.4395 -1.1578  1.6429
 2359SOL    HW218540   0.664   2.373   2.545  0.8753  1.9101  1.0289
 2360SOL     OW18541   1.129   3.160   6.170 -0.3274  0.0503  0.8855
 2360SOL    HW118542   1.195   3.205   6.117 -0.8914 -0.7618 -0.4928
 2360SOL    HW218543   1.072   3.232   6.198 -0.1534  0.5196  0.0624
 2361SOL     OW18544   1.977   0.962  10.261 -0.0929  0.0063  0.5118
 2361SOL    HW118545   2.055   0.956  10.315  0.4329 -0.4257 -0.3054
 2361SOL    HW218546   1.993   0.895  10.195  1.4628  0.5312  0.3598
 2362SOL     OW18547   0.398   3.215   3.789 -0.2419  0.1582 -0.0949
 2362SOL    HW118548   0.337   3.285   3.810 -0.2515  0.4947 -1.2802
 2362SOL    HW218549   0.475   3.272   3.798 -1.2825  1.9897 -2.9551
 2363SOL     OW18550   0.900   0.561  10.706 -0.2369 -0.2638  0.4010
 2363SOL    HW118551   0.866   0.598  10.788 -1.1870 -1.4387  0.5382
 2363SOL    HW218552   0.834   0.591  10.644  0.7573  1.3498  0.1207
 2364SOL     OW18553   4.543   0.338   2.933 -0.4204 -0.2441  0.2423
 2364SOL    HW118554   4.454   0.370   2.916  0.7606  2.5795 -0.7367
 2364SOL    HW218555   4.559   0.299   2.847  0.7198 -2.7278  1.5879
 2365SOL     OW18556   1.126   2.228   4.086 -0.0980  0.1454  0.8779
 2365SOL    HW118557   1.172   2.255   4.007 -0.7086  1.0070  0.8170
 2365SOL    HW218558   1.055   2.293   4.086  1.2523  1.5974 -0.5603
 2366SOL     OW18559   3.293   3.553   6.687  0.6243  0.3350  0.2493
 2366SOL    HW118560   3.225   3.517   6.744 -0.0025 -0.6012 -1.0776
 2366SOL    HW218561   3.270   3.512   6.604  1.5686 -0.7039  0.5051
 2367SOL     OW18562   0.578   2.562  11.773  0.2945  0.0507  0.5090
 2367SOL    HW118563   0.649   2.517  11.821  1.3414 -0.1009 -1.1935
 2367SOL    HW218564   0.597   2.654  11.795  2.5382  0.0018 -1.2129
 2368SOL     OW18565   1.166   3.899   4.238  0.6781  0.1936  0.5456
 2368SOL    HW118566   1.103   3.955   4.192  2.4046  1.0472 -0.8146
 2368SOL    HW218567   1.200   3.844   4.168  2.1578  1.1025  0.5546
 2369SOL     OW18568   4.200   2.418   9.975 -0.2554  0.3053  0.1797
 2369SOL    HW118569   4.169   2.341  10.023 -2.3579  2.5580  2.4288
 2369SOL    HW218570   4.256   2.383   9.905  1.3621  3.1925  0.0203
 2370SOL     OW18571   1.706   2.275   1.965  0.0137  0.3870 -0.6854
 2370SOL    HW118572   1.696   2.315   1.879 -0.5317  2.5282  0.3550
 2370SOL    HW218573   1.782   2.219   1.954  0.1744  0.8029 -1.6540
 2371SOL     OW18574   2.482   0.361  14.196  0.9054 -0.1987 -0.2728
 2371SOL    HW118575   2.430   0.289  14.233  0.2839  0.1140 -0.5562
 2371SOL    HW218576   2.515   0.317  14.118  0.7424 -0.8041 -0.0040
 2372SOL     OW18577   4.310   3.590   6.035  0.1450 -0.2015  0.1251
 2372SOL    HW118578   4.229   3.553   6.000 -0.6073  0.7544  0.8693
 2372SOL    HW218579   4.285   3.682   6.035 -0.1008 -0.2650 -1.4270
 2373SOL     OW18580   2.424   3.866  16.149  0.8262 -0.2709 -0.2847
 2373SOL    HW118581   2.461   3.826  16.227  0.7033  0.9617  0.4098
 2373SOL    HW218582   2.359   3.799  16.131  1.2168 -0.2004 -1.9438
 2374SOL     OW18583   0.225   3.620   5.652  0.6849 -0.6525 -0.1695
 2374SOL    HW118584   0.239   3.527   5.635 -0.8349 -1.0681  0.9186
 2374SOL    HW218585   0.133   3.629   5.675  0.4137  1.4309 -2.0271
 2375SOL     OW18586   3.828   2.027   2.393  0.5480  0.0539  0.4535
 2375SOL    HW118587   3.831   2.013   2.488 -0.6570 -1.7273  0.2167
 2375SOL    HW218588   3.756   2.090   2.384 -0.9253 -2.0388 -2.2805
 2376SOL     OW18589   3.610   1.851   4.291 -0.5485  0.1063 -0.1059
 2376SOL    HW118590   3.643   1.938   4.270  0.1097 -0.0945  0.0769
 2376SOL    HW218591   3.580   1.875   4.379  1.5845 -0.8219  0.9031
 2377SOL     OW18592   1.895   3.054  15.437 -0.2494  0.5056  0.1361
 2377SOL    HW118593   1.970   2.996  15.431  0.6977  2.1687 -3.8004
 2377SOL    HW218594   1.894   3.095  15.524 -0.0419 -1.6923  1.1886
 2378SOL     OW18595   2.805   3.822   4.448 -0.3872 -0.3126 -0.3725
 2378SOL    HW118596   2.760   3.902   4.419  2.5258  2.2535  2.2895
 2378SOL    HW218597   2.840   3.789   4.365 -1.0963  0.9449 -1.1830
 2379SOL     OW18598   1.403   1.439   7.799  0.3505  0.2568  0.1896
 2379SOL    HW118599   1.384   1.346   7.785  3.1291  0.2757 -3.5467
 2379SOL    HW218600   1.485   1.427   7.847  0.3674 -1.0429 -0.1459
 2380SOL     OW18601   1.739   3.909  12.442  0.2401  0.1784 -0.4377
 2380SOL    HW118602   1.762   3.976  12.507  1.2231 -1.4586  0.9298
 2380SOL    HW218603   1.750   3.830  12.495 -0.2809 -0.4827 -1.3267
 2381SOL     OW18604   2.167   4.160   4.553 -0.1396  0.6371  0.1539
 2381SOL    HW118605   2.081   4.124   4.534  0.3088  0.1088 -0.8873
 2381SOL    HW218606   2.180   4.223   4.482 -0.3279  0.4630 -0.0332
 2382SOL     OW18607   0.188   4.399   2.344 -0.6164  0.9383  0.1534
 2382SOL    HW118608   0.132   4.475   2.327 -0.1316  1.4319  0.7709
 2382SOL    HW218609   0.115   4.339   2.362  0.5791 -0.1664  1.3901
 2383SOL     OW18610   2.603   4.504   3.159  0.5562 -0.6904  0.1899
 2383SOL    HW118611   2.507   4.499   3.157  0.4336  3.0771 -1.6391
 2383SOL    HW218612   2.616   4.587   3.204  0.6220 -0.2306 -0.6828
 2384SOL     OW18613   2.008   1.128   5.717 -0.8117 -0.3396  0.0437
 2384SOL    HW118614   2.035   1.050   5.670  1.2473  0.4246 -0.0277
 2384SOL    HW218615   1.931   1.098   5.766 -1.1191  1.4546  0.6894
 2385SOL     OW18616   4.676   1.221   6.599  0.3785  0.1360 -0.3653
 2385SOL    HW118617   4.592   1.178   6.617  0.1573 -0.0675 -1.8711
 2385SOL    HW218618   4.695   1.257   6.686 -1.6874 -1.0943  0.6107
 2386SOL     OW18619   0.052   1.330   3.120 -0.0113 -0.7815  0.6762
 2386SOL    HW118620   0.120   1.372   3.172  1.4579  0.7522 -2.4996
 2386SOL    HW218621   0.089   1.280   3.048 -0.7216 -1.4057  0.7412
 2387SOL     OW18622   4.388   2.900   7.075 -0.4350 -0.1722  0.0676
 2387SOL    HW118623   4.328   2.900   7.150  1.2848 -0.1838  1.4433
 2387SOL    HW218624   4.474   2.924   7.108 -0.4372  1.9609 -1.4753
 2388SOL     OW18625   2.274   2.010  14.557 -0.1653  1.1084 -0.0452
 2388SOL    HW118626   2.285   1.987  14.465 -2.7291  2.5999 -0.7436
 2388SOL    HW218627   2.360   2.046  14.578 -0.2466  1.4862 -0.3600
 2389SOL     OW18628   1.314   1.375   9.346  0.2033  0.4566 -0.0063
 2389SOL    HW118629   1.235   1.376   9.292  1.1797 -0.3396 -1.4310
 2389SOL    HW218630   1.323   1.471   9.345  1.5014  0.3377  0.8128
 2390SOL     OW18631   0.523   4.168   1.795  0.2517 -0.4871 -0.1094
 2390SOL    HW118632   0.551   4.218   1.718  0.7456 -2.2075 -1.0481
 2390SOL    HW218633   0.430   4.178   1.776  0.6514 -0.0799 -1.8352
 2391SOL     OW18634   2.701   2.120  14.265  0.0659 -0.3146  0.0172
 2391SOL    HW118635   2.753   2.190  14.303 -0.4948 -0.4602  1.0604
 2391SOL    HW218636   2.619   2.163  14.291  0.9704  0.5795  1.3925
 2392SOL     OW18637   4.423   3.045   8.794 -0.3865  0.1183  0.0467
 2392SOL    HW118638   4.340   3.044   8.841 -0.8751  0.2212 -0.8190
 2392SOL    HW218639   4.415   2.964   8.744 -0.4043 -0.0083  0.2566
 2393SOL     OW18640   1.559   1.428   4.094  0.2445  0.0559  0.5157
 2393SOL    HW118641   1.635   1.438   4.151  0.5188 -0.4979  0.2468
 2393SOL    HW218642   1.585   1.342   4.060  1.2382  1.5589 -2.5873
 2394SOL     OW18643   2.195   0.765   1.251  0.6962  0.0682 -0.3537
 2394SOL    HW118644   2.145   0.811   1.184 -0.3444  0.6381  0.8293
 2394SOL    HW218645   2.232   0.692   1.200 -0.7580 -1.5829  0.9453
 2395SOL     OW18646   3.978   4.154   0.801  0.3615 -0.4923  0.1241
 2395SOL    HW118647   3.989   4.240   0.841  0.9881 -0.0510 -0.9975
 2395SOL    HW218648   3.894   4.171   0.757  2.4849  2.8859 -2.5615
 2396SOL     OW18649   3.199   0.937   5.323 -0.5295 -0.2031 -0.0639
 2396SOL    HW118650   3.198   1.017   5.271 -1.0086 -0.2149 -0.0781
 2396SOL    HW218651   3.250   0.962   5.400  1.9801  1.4112 -2.2528
 2397SOL     OW18652   3.705   3.461   4.704  0.0302 -0.0471  0.4542
 2397SOL    HW118653   3.738   3.549   4.724  1.0013 -0.0503 -1.1307
 2397SOL    HW218654   3.767   3.427   4.640 -2.7402 -1.1225 -1.6737
 2398SOL     OW18655   0.581   3.768   4.851 -0.1167  0.3738  0.1957
 2398SOL    HW118656   0.665   3.730   4.826 -0.0826  0.8367 -0.3879
 2398SOL    HW218657   0.604   3.822   4.926  1.0514  0.5396 -0.2735
 2399SOL     OW18658   1.651   2.235   3.636  0.4203  0.0078  0.6207
 2399SOL    HW118659   1.726   2.295   3.643 -1.8078  2.6774  1.8961
 2399SOL    HW218660   1.655   2.195   3.723  2.4345  0.5104  0.7641
 2400SOL     OW18661   0.873   2.588  13.719 -0.0371 -0.2744 -0.4675
 2400SOL    HW118662   0.805   2.653  13.704  1.5344  1.2253 -1.1288
 2400SOL    HW218663   0.904   2.581  13.629  1.1292  1.3282 -0.1954
 2401SOL     OW18664   1.028   3.066  17.259 -0.1476 -0.0915 -0.2128
 2401SOL    HW118665   0.984   3.089  17.177 -0.8814  2.2961  0.8703
 2401SOL    HW218666   1.038   3.149  17.305  1.0131 -0.4437  0.1709
 2402SOL     OW18667   3.528   2.462   8.837 -0.6933  0.2838 -0.2045
 2402SOL    HW118668   3.463   2.528   8.812  0.8805  2.0030  0.3324
 2402SOL    HW218669   3.506   2.383   8.788 -1.3811  1.4113 -1.7114
 2403SOL     OW18670   1.903   1.257   0.876  0.0240 -0.7446 -0.1333
 2403SOL    HW118671   1.946   1.246   0.960 -1.2491  0.7093  0.7148
 2403SOL    HW218672   1.979   1.283   0.824  2.1025 -0.6444  2.9700
 2404SOL     OW18673   0.521   0.927   6.263  0.6577  0.0321 -0.3760
 2404SOL    HW118674   0.493   0.847   6.309 -0.2265  0.5781  0.0324
 2404SOL    HW218675   0.444   0.983   6.273  0.6069  0.0442 -0.8282
 2405SOL     OW18676   1.519   0.446  11.107  0.2333  0.7262  0.1547
 2405SOL    HW118677   1.433   0.489  11.110  0.1539  0.6459 -0.7884
 2405SOL    HW218678   1.550   0.468  11.194  1.6221  0.8315 -0.3637
 2406SOL     OW18679   2.148   0.833  13.779 -0.3746  0.2441  0.0576
 2406SOL    HW118680   2.218   0.897  13.787  0.3916 -0.6123  0.1151
 2406SOL    HW218681   2.197   0.757  13.809 -2.1902 -0.8645  0.2545
 2407SOL     OW18682   2.820   1.791   8.948 -0.2222  0.0505  0.3791
 2407SOL    HW118683   2.755   1.854   8.981  0.4516  0.5088  0.8490
 2407SOL    HW218684   2.782   1.704   8.956 -1.0662  0.4913  1.4010
 2408SOL     OW18685   3.916   3.005   0.543  0.2381 -0.3649 -0.6745
 2408SOL    HW118686   3.875   3.048   0.618  2.3515  1.3899 -0.5284
 2408SOL    HW218687   3.937   3.072   0.479  3.1883 -1.5227 -0.9217
 2409SOL     OW18688   3.555   3.457   6.133 -0.2215  0.0244  0.4690
 2409SOL    HW118689   3.462   3.480   6.127 -0.4046 -0.4487  1.5903
 2409SOL    HW218690   3.562   3.419   6.045 -2.3392 -1.3840  0.8968
 2410SOL     OW18691   1.829   2.271   6.358 -0.1048  0.2885 -0.9228
 2410SOL    HW118692   1.868   2.287   6.443 -0.3463 -1.0985 -0.5545
 2410SOL    HW218693   1.865   2.348   6.313  1.3400  0.6547  0.8648
 2411SOL     OW18694   3.129   2.182   5.884  0.4309 -0.0755  0.9082
 2411SOL    HW118695   3.167   2.239   5.952 -0.1238  1.1949  0.1533
 2411SOL    HW218696   3.201   2.180   5.820  0.0214 -2.2573  0.5368
 2412SOL     OW18697   4.075   0.851  14.576  0.5495  0.4276 -0.4848
 2412SOL    HW118698   4.043   0.857  14.666 -0.6464 -1.2680 -0.7871
 2412SOL    HW218699   4.030   0.772  14.543 -0.2346  0.5407  0.3017
 2413SOL     OW18700   1.973   4.185   6.666  0.3795 -0.3575  0.0419
 2413SOL    HW118701   1.921   4.115   6.627  1.0249 -0.5599 -0.4605
 2413SOL    HW218702   1.936   4.195   6.754  1.6983  0.9905  0.4432
 2414SOL     OW18703   4.471   1.233   8.217  0.4580  0.7655 -0.0495
 2414SOL    HW118704   4.430   1.247   8.303  1.1420 -0.7804  0.5320
 2414SOL    HW218705   4.524   1.154   8.230  0.6918  1.5245  3.8786
 2415SOL     OW18706   3.769   1.657   5.814 -0.1826 -0.1909  0.6669
 2415SOL    HW118707   3.715   1.643   5.737  0.9368  0.7927 -0.2908
 2415SOL    HW218708   3.800   1.569   5.836  0.9645  0.4520  1.6178
 2416SOL     OW18709   0.234   3.023   6.209  0.0117 -0.5591 -0.3152
 2416SOL    HW118710   0.200   2.952   6.153 -0.1778  0.1488 -1.0978
 2416SOL    HW218711   0.147   3.055   6.235 -0.1192 -0.6482 -0.6436
 2417SOL     OW18712   2.366   3.124   3.452 -0.4347 -0.1770  0.1976
 2417SOL    HW118713   2.390   3.216   3.450 -0.4949 -0.1798 -0.7146
 2417SOL    HW218714   2.422   3.089   3.383 -0.9205 -1.0639  0.2450
 2418SOL     OW18715   1.755   4.191  14.246 -0.4668 -0.2069 -0.2131
 2418SOL    HW118716   1.836   4.157  14.284  0.6074  4.0620  1.2975
 2418SOL    HW218717   1.727   4.241  14.323 -0.5815 -0.6222  0.0136
 2419SOL     OW18718   0.976   4.266   8.849 -0.2994 -0.6649 -0.2179
 2419SOL    HW118719   1.046   4.201   8.844  1.6233  1.4915 -1.6084
 2419SOL    HW218720   1.031   4.338   8.880 -0.3794 -1.8217  2.6582
 2420SOL     OW18721   2.270   1.305   8.356  0.3564  0.3010 -0.0717
 2420SOL    HW118722   2.261   1.378   8.418 -0.6877 -0.5448  0.7690
 2420SOL    HW218723   2.227   1.340   8.278 -0.9454 -1.7562 -0.2685
 2421SOL     OW18724   1.341   3.279   0.353  0.2722 -0.1189  0.4069
 2421SOL    HW118725   1.324   3.370   0.377 -0.5665  0.3371 -1.9146
 2421SOL    HW218726   1.354   3.284   0.258  1.4089 -1.0781  0.5102
 2422SOL     OW18727   0.192   0.886   6.719 -0.4085 -0.0722  0.3442
 2422SOL    HW118728   0.211   0.832   6.795  2.0188  3.2653  2.1124
 2422SOL    HW218729   0.259   0.955   6.718 -0.5699  0.0864  0.4042
 2423SOL     OW18730   1.871   0.707   6.901  0.4325 -0.7043  0.3155
 2423SOL    HW118731   1.812   0.730   6.972  1.5920 -0.3055  1.1477
 2423SOL    HW218732   1.851   0.779   6.840 -0.2199 -1.2820 -0.1544
 2424SOL     OW18733   3.842   0.072   4.213 -0.3084  0.4617 -0.3253
 2424SOL    HW118734   3.820   0.146   4.157 -0.9335  1.2708  1.0154
 2424SOL    HW218735   3.905   0.106   4.276 -0.8006  0.5731  0.1006
 2425SOL     OW18736   0.875   2.862   7.678  0.0912  0.0932 -0.6174
 2425SOL    HW118737   0.914   2.863   7.590  1.8987 -2.6969  0.1392
 2425SOL    HW218738   0.824   2.781   7.672  0.2481 -0.0689  0.2079
 2426SOL     OW18739   0.363   2.217   9.030  0.0290  0.2546 -0.2700
 2426SOL    HW118740   0.305   2.168   9.089 -1.7252  2.7620  0.0595
 2426SOL    HW218741   0.432   2.233   9.095  2.1464 -0.3762 -2.3856
 2427SOL     OW18742   0.474   1.638   3.995 -0.2858 -0.4161 -0.1729
 2427SOL    HW118743   0.528   1.676   4.064  0.6146  1.5227 -1.9392
 2427SOL    HW218744   0.456   1.715   3.942  0.6964  0.3064  0.5426
 2428SOL     OW18745   3.311   3.119   7.162 -0.1562 -0.5294 -0.0759
 2428SOL    HW118746   3.333   3.212   7.169 -1.1177 -0.3474  0.5906
 2428SOL    HW218747   3.267   3.115   7.248 -1.4605  3.1126 -0.5605
 2429SOL     OW18748   1.091   3.449   8.662  0.3418 -0.2234 -0.1514
 2429SOL    HW118749   1.013   3.403   8.695  0.1128 -0.2171 -0.6829
 2429SOL    HW218750   1.082   3.427   8.569 -2.0359  0.8026 -0.1664
 2430SOL     OW18751   1.369   0.272   8.783 -0.8876 -0.0857 -0.6037
 2430SOL    HW118752   1.343   0.200   8.725 -1.3852 -0.2037 -0.2306
 2430SOL    HW218753   1.370   0.232   8.870  0.6709  1.1057 -0.0952
 2431SOL     OW18754   2.647   0.661   2.832 -0.1750 -0.2957 -0.3670
 2431SOL    HW118755   2.604   0.583   2.797 -1.4404  1.5764 -3.0504
 2431SOL    HW218756   2.613   0.731   2.775  0.4625 -1.3372 -2.0498
 2432SOL     OW18757   0.883   4.544   1.769 -0.5227 -0.1139 -0.5566
 2432SOL    HW118758   0.910   4.558   1.679  0.2319 -0.5867 -0.3950
 2432SOL    HW218759   0.788   4.550   1.757 -0.4160  0.2140 -1.2004
 2433SOL     OW18760   2.226   2.811   0.705  0.0053 -0.0673 -0.4229
 2433SOL    HW118761   2.215   2.780   0.615  3.0705  0.5876 -1.0141
 2433SOL    HW218762   2.287   2.746   0.740  1.4551  1.5659  0.1055
 2434SOL     OW18763   2.609   0.122   5.404 -0.1225  0.1571  0.0712
 2434SOL    HW118764   2.653   0.205   5.385 -0.6384  0.1333 -1.2265
 2434SOL    HW218765   2.543   0.154   5.465  0.6393 -0.4679  1.2215
 2435SOL     OW18766   3.553   0.932   1.292 -0.3206 -0.3103 -0.0420
 2435SOL    HW118767   3.635   0.927   1.341  0.6685 -1.0649 -1.7917
 2435SOL    HW218768   3.574   0.873   1.220  2.4157  1.0914 -0.4027
 2436SOL     OW18769   3.529   2.743  12.725 -0.0613  0.5675 -0.4403
 2436SOL    HW118770   3.602   2.701  12.678  0.7423  2.0375 -0.4881
 2436SOL    HW218771   3.561   2.751  12.815 -1.3660 -0.3560  0.1058
 2437SOL     OW18772   4.277   4.633   1.280  0.2686  0.4659  0.3024
 2437SOL    HW118773   4.211   4.678   1.228  0.9077  0.9569 -0.0885
 2437SOL    HW218774   4.356   4.683   1.260  1.4365 -1.2848  0.5033
 2438SOL     OW18775   4.160   0.773   3.792  0.3532 -0.0900  0.3573
 2438SOL    HW118776   4.163   0.845   3.729 -0.7167 -0.6904 -0.3751
 2438SOL    HW218777   4.194   0.703   3.737 -0.7027  0.4912 -1.0285
 2439SOL     OW18778   1.411   0.218  17.624  0.2925 -0.2735 -0.3495
 2439SOL    HW118779   1.368   0.137  17.652 -0.7129  0.4756  0.3006
 2439SOL    HW218780   1.337   0.273  17.597 -0.7111 -0.6129  1.6861
 2440SOL     OW18781   3.508   3.248   4.069  0.7567  0.2079  0.0020
 2440SOL    HW118782   3.505   3.191   4.145  0.7246  1.6617  1.1054
 2440SOL    HW218783   3.591   3.211   4.041  0.4980 -0.1428 -0.2909
 2441SOL     OW18784   3.343   4.704  10.092 -0.0582 -0.3464  0.1288
 2441SOL    HW118785   3.390   0.019  10.167  0.5353 -1.6086  0.3708
 2441SOL    HW218786   3.288   4.632  10.123 -1.3302  0.2060 -0.8661
 2442SOL     OW18787   4.538   4.551   4.857  0.5476 -0.2524  0.1098
 2442SOL    HW118788   4.470   4.486   4.842 -1.3141  1.3490  1.7975
 2442SOL    HW218789   4.499   4.580   4.939  0.5516 -0.7619  0.2903
 2443SOL     OW18790   1.219   1.094  14.296 -0.0674 -0.2897  0.1021
 2443SOL    HW118791   1.308   1.067  14.320 -0.2084  0.2860  1.2654
 2443SOL    HW218792   1.180   1.054  14.374  0.5979  1.0004  1.0993
 2444SOL     OW18793   3.261   4.425   6.076  0.0274  0.1516 -0.3474
 2444SOL    HW118794   3.219   4.493   6.128  0.0773  0.1361 -0.2871
 2444SOL    HW218795   3.249   4.363   6.148  0.7116 -0.7507 -1.0059
 2445SOL     OW18796   1.760   1.329   9.023 -0.1208 -0.5713 -0.1282
 2445SOL    HW118797   1.725   1.303   9.108  0.6300  1.3253  0.7742
 2445SOL    HW218798   1.844   1.360   9.058  1.4471 -4.4262 -0.5395
 2446SOL     OW18799   0.346   2.548   4.368 -0.1698  0.1165  0.7269
 2446SOL    HW118800   0.274   2.496   4.332  0.2738  1.2271 -1.7477
 2446SOL    HW218801   0.295   2.591   4.437  0.2091  0.0234  1.0622
 2447SOL     OW18802   1.811   0.849   8.038 -0.0412  0.4987 -0.1307
 2447SOL    HW118803   1.896   0.807   8.026 -0.5272 -1.1867  2.1545
 2447SOL    HW218804   1.826   0.873   8.130  1.6760  2.6085 -0.9770
 2448SOL     OW18805   3.575   3.901   5.957  0.5445  0.4923 -0.6016
 2448SOL    HW118806   3.559   3.979   5.904  0.9625  0.4674 -0.7682
 2448SOL    HW218807   3.636   3.846   5.907 -1.1114 -1.0008 -1.0169
 2449SOL     OW18808   2.592   1.168   0.501  0.4621  0.1314 -0.3510
 2449SOL    HW118809   2.654   1.136   0.566 -1.2220 -1.3672  0.4915
 2449SOL    HW218810   2.533   1.094   0.489 -0.0900  0.5404 -0.1679
 2450SOL     OW18811   2.842   2.579   3.704  0.3219 -0.5561  0.2169
 2450SOL    HW118812   2.896   2.543   3.633 -3.4113 -2.8688 -1.4687
 2450SOL    HW218813   2.810   2.497   3.742 -2.1107  0.5281  0.4863
 2451SOL     OW18814   0.170   1.826   4.084  0.6108 -0.0549  0.6113
 2451SOL    HW118815   0.265   1.823   4.089  0.5739  0.7337  1.6314
 2451SOL    HW218816   0.149   1.884   4.010  0.1032 -1.5922 -0.4590
 2452SOL     OW18817   1.650   1.206   7.753  0.0678  0.2294  0.6166
 2452SOL    HW118818   1.569   1.189   7.801 -0.0512 -0.4432  0.1704
 2452SOL    HW218819   1.660   1.118   7.716  2.0158 -0.2420  2.2168
 2453SOL     OW18820   4.228   0.910   9.339  0.0307 -0.1300  0.0359
 2453SOL    HW118821   4.146   0.862   9.331  0.8648 -1.7565  1.2423
 2453SOL    HW218822   4.269   0.845   9.396  0.5561 -1.0381 -1.3858
 2454SOL     OW18823   3.135   0.591  14.868  0.4288  0.0608 -0.3569
 2454SOL    HW118824   3.185   0.667  14.838 -0.2544  0.3617 -0.7367
 2454SOL    HW218825   3.074   0.585  14.794 -0.6647 -2.5775  0.7608
 2455SOL     OW18826   0.970   3.810  11.054 -0.4700  0.0429  0.3717
 2455SOL    HW118827   0.965   3.889  11.108  2.8382  0.7390 -0.3126
 2455SOL    HW218828   1.033   3.756  11.103 -2.2954 -2.2720  0.1664
 2456SOL     OW18829   0.322   2.294   3.266 -0.3704 -0.1399  0.1127
 2456SOL    HW118830   0.334   2.389   3.274 -1.5298 -0.0927  1.4496
 2456SOL    HW218831   0.289   2.292   3.176 -1.4564  0.5005  0.4989
 2457SOL     OW18832   0.212   1.492   2.719 -0.7234 -0.4588 -0.3814
 2457SOL    HW118833   0.271   1.561   2.691 -1.3962  0.6034  0.8413
 2457SOL    HW218834   0.144   1.482   2.653  0.1492 -0.7560 -1.2367
 2458SOL     OW18835   1.178   4.670   6.856  0.5414 -0.4641  0.0472
 2458SOL    HW118836   1.125   4.689   6.934  0.9891 -0.0377  0.2458
 2458SOL    HW218837   1.246   4.615   6.893  0.0246 -0.4536  1.0141
 2459SOL     OW18838   0.648   1.958   5.877  0.4506 -0.1772  0.8355
 2459SOL    HW118839   0.584   1.893   5.846  0.0824  0.5454  0.0912
 2459SOL    HW218840   0.721   1.900   5.900 -0.7242 -2.3395 -0.8092
 2460SOL     OW18841   1.757   0.175   1.338 -0.0053  0.2174 -0.5295
 2460SOL    HW118842   1.830   0.233   1.313  0.6168  0.2484  1.3504
 2460SOL    HW218843   1.736   0.209   1.425 -1.8993 -3.7019  0.5013
 2461SOL     OW18844   2.092   0.368   5.980 -0.3669  0.1224 -0.0518
 2461SOL    HW118845   2.102   0.432   6.050 -1.6570  1.0789 -0.7448
 2461SOL    HW218846   1.997   0.379   5.970 -0.3187  0.8045  0.2455
 2462SOL     OW18847   4.062   3.114   5.914  0.1498  0.0050 -0.0378
 2462SOL    HW118848   4.069   3.169   5.992  1.3205 -0.4171  0.1427
 2462SOL    HW218849   4.085   3.025   5.942  0.0629  0.0141  0.0642
 2463SOL     OW18850   0.804   3.586   3.782  0.3300 -0.0161 -0.3060
 2463SOL    HW118851   0.886   3.631   3.805  2.5787 -3.3288 -1.7620
 2463SOL    HW218852   0.818   3.584   3.687 -1.6362  1.5164 -0.6376
 2464SOL     OW18853   3.681   3.375   3.231 -0.4521  0.3705  0.2567
 2464SOL    HW118854   3.587   3.393   3.240 -0.7788 -1.2558  0.0705
 2464SOL    HW218855   3.720   3.462   3.236 -1.6046  1.0083 -1.7495
 2465SOL     OW18856   0.377   0.285   4.452  0.5061  0.3622  0.3494
 2465SOL    HW118857   0.343   0.340   4.381  2.0438 -0.6252 -1.1658
 2465SOL    HW218858   0.470   0.306   4.443  0.1057  1.6598 -0.7798
 2466SOL     OW18859   0.553   2.886   2.640 -0.0843 -0.5218 -0.6177
 2466SOL    HW118860   0.578   2.977   2.621 -1.9746 -0.3029 -2.0053
 2466SOL    HW218861   0.571   2.888   2.734  1.6704  2.1699 -0.9899
 2467SOL     OW18862   1.978   2.918   2.875 -0.5269  0.0675  0.1714
 2467SOL    HW118863   1.955   2.950   2.788 -1.1509 -0.1678  0.2458
 2467SOL    HW218864   1.903   2.935   2.932 -2.0520 -1.1632 -1.4483
 2468SOL     OW18865   1.023   1.362  10.129 -0.6180  0.3612 -0.2111
 2468SOL    HW118866   0.987   1.279  10.159  0.1532 -0.2223 -0.9312
 2468SOL    HW218867   1.066   1.326  10.052  0.2018  2.3957 -0.7054
 2469SOL     OW18868   1.942   1.005   3.472  0.1865 -0.1841  0.3067
 2469SOL    HW118869   2.032   1.036   3.462 -0.2762  0.8584 -0.6431
 2469SOL    HW218870   1.955   0.915   3.502  1.3788 -0.6710 -1.7117
 2470SOL     OW18871   2.863   3.408   5.776  0.5141  0.0922  0.0721
 2470SOL    HW118872   2.887   3.385   5.866 -0.2640  2.5439  0.9036
 2470SOL    HW218873   2.848   3.322   5.739 -0.3489  0.3249 -0.1085
 2471SOL     OW18874   3.060   4.511   4.879  0.1141 -0.0395 -0.2627
 2471SOL    HW118875   3.027   4.463   4.804  1.3551 -0.9751 -0.1878
 2471SOL    HW218876   2.978   4.511   4.930 -0.1402 -0.4457 -0.6738
 2472SOL     OW18877   3.319   0.946   7.248  0.0768  0.6371  0.8319
 2472SOL    HW118878   3.237   0.938   7.199  0.5962 -1.3098  0.2666
 2472SOL    HW218879   3.366   0.881   7.195 -0.6695 -0.5439  1.6225
 2473SOL     OW18880   1.154   2.828  17.234  0.1708  0.0365 -0.2559
 2473SOL    HW118881   1.125   2.916  17.256 -0.7080 -0.2929 -0.0855
 2473SOL    HW218882   1.144   2.796  17.324 -0.2574  0.7743 -0.0420
 2474SOL     OW18883   0.564   3.062   9.342 -0.3358  0.3283 -0.3399
 2474SOL    HW118884   0.474   3.094   9.344 -1.4283 -2.8570  2.5005
 2474SOL    HW218885   0.595   3.106   9.263 -0.2721 -2.1293 -1.6746
 2475SOL     OW18886   3.801   0.203   7.004  0.4712 -0.1791 -0.1294
 2475SOL    HW118887   3.857   0.195   7.081 -0.2257 -0.1263  0.3764
 2475SOL    HW218888   3.740   0.273   7.030 -0.1326 -0.4169 -0.9127
 2476SOL     OW18889   0.363   2.957   6.794  0.1000 -0.2142  0.0835
 2476SOL    HW118890   0.426   2.888   6.812 -1.3962 -0.9663  2.4015
 2476SOL    HW218891   0.353   2.925   6.705  0.1885  1.8022 -0.6659
 2477SOL     OW18892   2.121   1.411   4.098  0.6501 -0.2313 -0.2677
 2477SOL    HW118893   2.179   1.447   4.030  0.2652 -1.5978 -1.3127
 2477SOL    HW218894   2.083   1.496   4.122  2.1954  0.3565  0.0571
 2478SOL     OW18895   4.021   0.881  12.129 -0.4660  0.1107 -0.1184
 2478SOL    HW118896   3.957   0.829  12.080 -3.7057 -0.0720  4.3005
 2478SOL    HW218897   4.010   0.969  12.092 -0.2193  0.4091  0.5097
 2479SOL     OW18898   2.577   1.508   3.028 -0.6997  0.4169 -0.1157
 2479SOL    HW118899   2.663   1.480   2.996 -0.0380  2.4112 -0.1201
 2479SOL    HW218900   2.522   1.492   2.951  1.5258 -1.9047 -1.2253
 2480SOL     OW18901   0.942   1.829   6.570 -0.4908  0.3036  0.7090
 2480SOL    HW118902   0.988   1.747   6.554 -1.1585  0.1755 -0.5575
 2480SOL    HW218903   0.933   1.872   6.485  0.2902 -1.1416 -0.1153
 2481SOL     OW18904   0.713   3.108   2.668 -0.4795  0.0986 -0.2217
 2481SOL    HW118905   0.656   3.182   2.646 -1.2088 -0.5506 -0.4987
 2481SOL    HW218906   0.698   3.113   2.762  0.1812  0.0286 -0.1165
 2482SOL     OW18907   3.689   0.521   8.695 -0.1509  0.1845 -0.3544
 2482SOL    HW118908   3.708   0.539   8.603 -0.6375  0.1954 -0.4533
 2482SOL    HW218909   3.667   0.428   8.686 -0.5390  0.3450 -1.0614
 2483SOL     OW18910   1.701   3.198  17.441  0.3905 -0.1757  0.1669
 2483SOL    HW118911   1.622   3.193  17.494 -0.6908 -0.0847 -1.4402
 2483SOL    HW218912   1.712   3.291  17.423  1.3935 -1.1711 -4.3850
 2484SOL     OW18913   1.973   2.113   7.898  0.5398  0.1482 -0.3272
 2484SOL    HW118914   2.039   2.046   7.883 -0.5318 -0.5022 -2.1536
 2484SOL    HW218915   1.976   2.147   7.808  0.1682  0.7849 -0.1001
 2485SOL     OW18916   3.836   3.641   9.824 -0.5479 -0.5089 -0.1472
 2485SOL    HW118917   3.930   3.630   9.840 -0.4269 -2.2550 -2.1333
 2485SOL    HW218918   3.812   3.565   9.877 -0.1298 -0.9815 -0.6454
 2486SOL     OW18919   4.216   0.672   8.282 -0.5733  0.0461  0.1222
 2486SOL    HW118920   4.286   0.692   8.219 -3.1559 -0.8266 -2.9981
 2486SOL    HW218921   4.187   0.588   8.249 -0.0631 -0.0510 -0.0747
 2487SOL     OW18922   0.532   2.140   9.479 -0.2281 -0.0655 -0.1140
 2487SOL    HW118923   0.526   2.150   9.574  2.5671 -2.0995  0.2770
 2487SOL    HW218924   0.437   2.143   9.461 -0.3430 -0.2473  0.4774
 2488SOL     OW18925   1.451   1.653  14.581  0.5340  0.0436  0.1879
 2488SOL    HW118926   1.358   1.675  14.571  0.2967 -1.6876 -1.3618
 2488SOL    HW218927   1.477   1.666  14.490  1.2968  3.2332  0.8551
 2489SOL     OW18928   2.195   0.609   7.835  0.1423 -0.1534  0.2327
 2489SOL    HW118929   2.242   0.557   7.770  1.2698  1.6505 -0.3909
 2489SOL    HW218930   2.141   0.544   7.880  0.5277 -0.0783  0.8077
 2490SOL     OW18931   1.932   4.440   6.552  0.7086 -0.2058 -0.2772
 2490SOL    HW118932   1.953   4.354   6.590  0.6152  0.8064  2.0348
 2490SOL    HW218933   1.848   4.418   6.512  0.2728  0.3446  0.3426
 2491SOL     OW18934   1.220   0.159   8.439 -0.3932  0.2877  0.0165
 2491SOL    HW118935   1.166   0.091   8.400  0.5010 -1.3240  1.5587
 2491SOL    HW218936   1.299   0.110   8.464 -0.8462 -1.2097 -1.4332
 2492SOL     OW18937   2.108   0.696   7.495  0.4336 -0.2597  0.1788
 2492SOL    HW118938   2.149   0.747   7.564 -0.5849  1.7017 -0.6492
 2492SOL    HW218939   2.189   0.679   7.447 -0.1307  0.3777 -1.0166
 2493SOL     OW18940   3.798   3.091  14.186  0.4623  0.1787  0.0960
 2493SOL    HW118941   3.717   3.040  14.181  1.0173 -0.7461  0.5088
 2493SOL    HW218942   3.835   3.066  14.270 -1.3657 -1.4463  0.4396
 2494SOL     OW18943   4.500   0.819  14.749 -0.1610 -0.2208 -0.5565
 2494SOL    HW118944   4.473   0.761  14.678  1.4161  0.1067 -1.4276
 2494SOL    HW218945   4.425   0.872  14.777 -1.6418 -2.8946  0.4934
 2495SOL     OW18946   2.317   0.504  11.186  0.1980 -0.0132 -0.4012
 2495SOL    HW118947   2.407   0.505  11.217 -0.7030 -0.1142  2.2069
 2495SOL    HW218948   2.314   0.590  11.144 -2.7664  0.1426  0.1442
 2496SOL     OW18949   1.074   1.519   2.552  0.8309  0.2054 -0.0309
 2496SOL    HW118950   1.009   1.556   2.492 -0.0190 -2.3070 -0.6612
 2496SOL    HW218951   1.136   1.497   2.482 -0.0866  0.7061 -1.0143
 2497SOL     OW18952   0.432   3.504   8.409  0.3443 -0.0742  0.0405
 2497SOL    HW118953   0.508   3.505   8.351  0.6965 -0.8658  0.4834
 2497SOL    HW218954   0.413   3.598   8.411 -1.0357 -0.3205 -1.4370
 2498SOL     OW18955   1.343   3.297  15.815  0.0541 -0.0803  0.1100
 2498SOL    HW118956   1.337   3.392  15.819  0.5275  0.0115 -1.4921
 2498SOL    HW218957   1.417   3.288  15.755 -0.4100 -0.1021 -0.4568
 2499SOL     OW18958   3.876   3.492   5.151  0.1400  0.3606 -0.3163
 2499SOL    HW118959   3.804   3.429   5.151  1.8570 -1.6214  3.1427
 2499SOL    HW218960   3.901   3.479   5.242  0.3607 -1.9778 -0.7083
 2500SOL     OW18961   1.359   1.365   1.563 -0.0894  0.2870  0.5057
 2500SOL    HW118962   1.404   1.433   1.514  1.1869 -1.2765 -0.4922
 2500SOL    HW218963   1.340   1.307   1.489  1.2223 -0.0614  0.4449
 2501SOL     OW18964   3.558   4.037   3.386 -0.3243 -0.2137 -0.1435
 2501SOL    HW118965   3.559   4.038   3.482 -0.4498 -0.7813 -0.1342
 2501SOL    HW218966   3.538   3.944   3.377 -1.3434  0.1091 -1.2011
 2502SOL     OW18967   2.338   3.322   9.378 -0.5146  0.2057 -0.2904
 2502SOL    HW118968   2.372   3.407   9.403 -4.3307  1.2594  1.4346
 2502SOL    HW218969   2.424   3.291   9.351 -0.9065  0.3013 -1.6803
 2503SOL     OW18970   2.764   3.574   9.758 -0.1707  0.1789  0.0902
 2503SOL    HW118971   2.735   3.661   9.729 -0.0525  0.8329  1.9650
 2503SOL    HW218972   2.857   3.585   9.778 -0.3904  2.0151  0.1188
 2504SOL     OW18973   2.103   2.063   4.905 -0.4843  0.1260  0.7034
 2504SOL    HW118974   2.053   2.064   4.823 -0.8956  3.1947  0.9584
 2504SOL    HW218975   2.101   2.157   4.927  0.8615 -0.1946  2.1677
 2505SOL     OW18976   3.472   4.012  13.865 -0.2706 -0.0070 -0.6854
 2505SOL    HW118977   3.408   3.951  13.903 -0.8318  0.6643 -0.5468
 2505SOL    HW218978   3.538   4.032  13.932 -0.8585 -0.6194  0.0812
 2506SOL     OW18979   3.429   1.595   1.254 -0.1136  0.3943 -0.4774
 2506SOL    HW118980   3.392   1.527   1.311 -1.2002 -1.2126 -3.1028
 2506SOL    HW218981   3.523   1.580   1.269 -0.2580 -1.0654 -1.0093
 2507SOL     OW18982   0.059   1.605   0.957  0.6147 -0.5148 -0.6961
 2507SOL    HW118983   0.131   1.565   1.005 -0.9178 -1.1045  1.0788
 2507SOL    HW218984   4.711   1.591   1.020  3.2111 -0.2021  2.2260
 2508SOL     OW18985   0.471   3.777   8.497 -0.1413  0.5685 -0.3359
 2508SOL    HW118986   0.441   3.795   8.586 -0.8406 -2.2698 -0.0267
 2508SOL    HW218987   0.566   3.782   8.507 -0.5501  1.0569  3.1607
 2509SOL     OW18988   3.596   4.243  15.348  0.0311  0.0059 -0.1494
 2509SOL    HW118989   3.668   4.179  15.348 -0.3600 -0.4243  1.4365
 2509SOL    HW218990   3.578   4.247  15.254  1.9118  0.7456 -0.5001
 2510SOL     OW18991   4.091   3.996   4.054  0.2587  0.0330 -0.1158
 2510SOL    HW118992   4.075   4.087   4.029 -1.8659 -0.3305 -0.0543
 2510SOL    HW218993   4.015   3.976   4.109 -0.1946  1.7825 -0.1294
 2511SOL     OW18994   3.867   3.626   1.259 -0.3351 -0.1452  0.1039
 2511SOL    HW118995   3.866   3.543   1.211  0.0432  0.6069 -1.2247
 2511SOL    HW218996   3.876   3.603   1.351 -0.6013 -2.8039 -0.5322
 2512SOL     OW18997   0.974   1.840  15.781 -0.0158 -0.3586 -0.2728
 2512SOL    HW118998   1.037   1.879  15.842  1.5859 -0.5237 -1.8096
 2512SOL    HW218999   1.027   1.830  15.702 -1.7813 -3.0073 -1.0960
 2513SOL     OW19000   1.457   0.459  15.962 -0.0208  0.1723 -0.0012
 2513SOL    HW119001   1.406   0.378  15.965  0.6126 -0.2222  0.0405
 2513SOL    HW219002   1.538   0.418  15.992 -0.0521 -1.4080 -2.0253
 2514SOL     OW19003   0.581   0.588  17.466 -0.4156  0.1617 -0.0748
 2514SOL    HW119004   0.626   0.671  17.452  1.1049 -0.5227  0.7803
 2514SOL    HW219005   0.533   0.602  17.547 -1.8696 -0.2532 -0.8596
 2515SOL     OW19006   1.672   3.848  12.201 -0.2974 -0.0776  0.1515
 2515SOL    HW119007   1.713   3.891  12.276  0.1701 -1.0854  0.4804
 2515SOL    HW219008   1.694   3.760  12.231 -1.1125  0.5452  2.5115
 2516SOL     OW19009   1.438   1.115   3.573 -0.1997  0.6786 -0.4112
 2516SOL    HW119010   1.391   1.192   3.540 -1.4636 -0.3554 -1.0381
 2516SOL    HW219011   1.408   1.111   3.664 -1.1091 -0.3579 -0.7621
 2517SOL     OW19012   3.252   3.327   3.437 -0.0080 -0.0636  0.0975
 2517SOL    HW119013   3.160   3.345   3.418  0.5264  2.4855 -0.0423
 2517SOL    HW219014   3.296   3.340   3.353  0.1065 -0.3946  0.1082
 2518SOL     OW19015   1.332   3.573  15.886  0.3377 -0.4547 -0.3695
 2518SOL    HW119016   1.288   3.622  15.955  1.2497  1.0337 -0.8588
 2518SOL    HW219017   1.423   3.593  15.908 -0.4374 -0.2529  2.6844
 2519SOL     OW19018   2.591   2.979  17.247 -0.1394  0.1075 -0.5758
 2519SOL    HW119019   2.541   3.059  17.263 -0.9221 -0.8893  1.9561
 2519SOL    HW219020   2.647   3.018  17.180  0.5815 -0.4073 -0.2725
 2520SOL     OW19021   3.146   0.445   4.459 -0.7111 -0.3167  0.4122
 2520SOL    HW119022   3.056   0.414   4.474 -0.8205 -1.0679 -1.7153
 2520SOL    HW219023   3.187   0.362   4.434 -2.0567 -0.9235  0.1962
 2521SOL     OW19024   2.241   1.443  15.795 -0.0667  0.3109 -0.3425
 2521SOL    HW119025   2.227   1.358  15.754  0.1508 -1.0249  2.3781
 2521SOL    HW219026   2.223   1.435  15.889  1.1957  0.3420 -0.0969
 2522SOL     OW19027   2.336   0.997   2.317  0.0109 -0.3706  0.8170
 2522SOL    HW119028   2.277   0.995   2.242  0.8655  0.7228  0.1065
 2522SOL    HW219029   2.284   1.052   2.374 -1.5053  0.5005 -1.3961
 2523SOL     OW19030   2.031   0.493   6.949  0.2547 -0.3697 -0.1849
 2523SOL    HW119031   1.985   0.567   6.910  0.7391  0.4106  0.7415
 2523SOL    HW219032   2.049   0.538   7.031 -1.2298  1.8883 -1.1203
 2524SOL     OW19033   4.511   3.285  17.370 -0.0107  0.6072 -1.6463
 2524SOL    HW119034   4.548   3.342  17.303  0.5624 -0.4356 -2.2303
 2524SOL    HW219035   4.425   3.326  17.372  0.6647  1.9182  0.0231
 2525SOL     OW19036   2.703   4.511  11.585  0.8170 -0.0480  1.0999
 2525SOL    HW119037   2.643   4.582  11.606  0.5336  0.6807 -2.0342
 2525SOL    HW219038   2.720   4.519  11.491 -1.7742  0.9502  0.7192
 2526SOL     OW19039   1.612   2.720   1.530 -0.4006 -0.0364  0.3760
 2526SOL    HW119040   1.628   2.633   1.494  1.5454  0.1088  0.8893
 2526SOL    HW219041   1.584   2.703   1.620  0.0265  0.5202  0.6126
 2527SOL     OW19042   4.505   0.315   4.246 -0.4652  0.4060 -0.3053
 2527SOL    HW119043   4.579   0.363   4.284 -0.5635  1.5177 -1.5105
 2527SOL    HW219044   4.491   0.371   4.170  2.9612  1.2278 -0.3403
 2528SOL     OW19045   2.069   1.391   9.335  0.4342  0.1439 -0.3862
 2528SOL    HW119046   2.009   1.384   9.409  0.1657 -2.3950 -0.8449
 2528SOL    HW219047   2.115   1.307   9.337  1.0105  0.5070  1.8372
 2529SOL     OW19048   2.179   1.563   7.815  0.1945 -0.2865  0.4677
 2529SOL    HW119049   2.107   1.584   7.875 -1.5393 -2.8539 -0.7153
 2529SOL    HW219050   2.226   1.495   7.863 -0.8500 -0.9462  0.5549
 2530SOL     OW19051   3.861   2.302   6.445  1.0484 -0.2329 -0.3988
 2530SOL    HW119052   3.859   2.392   6.478  1.9917 -0.6024  0.6779
 2530SOL    HW219053   3.928   2.266   6.504 -1.1024  0.4423  2.4496
 2531SOL     OW19054   2.925   4.645   6.680  0.4446  0.2598 -0.2014
 2531SOL    HW119055   2.894   4.661   6.591 -0.8837 -0.8687  0.0655
 2531SOL    HW219056   2.995   4.581   6.673 -0.6115 -0.5893 -3.0520
 2532SOL     OW19057   4.499   1.418  13.774 -0.0960 -0.3867  0.0856
 2532SOL    HW119058   4.537   1.406  13.687 -1.5923  2.8555 -1.0018
 2532SOL    HW219059   4.511   1.332  13.815  1.3301 -0.9479 -1.4843
 2533SOL     OW19060   0.598   1.949  11.673  0.3606  0.3252  0.0527
 2533SOL    HW119061   0.618   2.037  11.704 -0.8363 -0.5039  3.1163
 2533SOL    HW219062   0.513   1.936  11.714 -0.6598  1.6911 -1.5892
 2534SOL     OW19063   0.974   0.514   7.552 -0.4934  0.0824  0.2468
 2534SOL    HW119064   0.967   0.468   7.636  1.2022 -0.2515  0.1980
 2534SOL    HW219065   0.910   0.473   7.493 -0.5854  1.2889 -0.4894
 2535SOL     OW19066   0.374   0.282   4.948  0.0966 -0.5534 -0.1849
 2535SOL    HW119067   0.348   0.215   4.884  0.2346 -2.0119  1.2790
 2535SOL    HW219068   0.465   0.269   4.972  0.3627 -0.7440 -1.2957
 2536SOL     OW19069   1.040   3.132   1.163  0.2996  0.0123  0.3195
 2536SOL    HW119070   1.127   3.092   1.164  0.3138  0.0327 -0.3746
 2536SOL    HW219071   1.000   3.048   1.187  0.6329 -0.0126  0.7793
 2537SOL     OW19072   0.993   2.633   3.299  0.6967 -0.2689 -0.2803
 2537SOL    HW119073   0.997   2.645   3.204  1.1699 -1.9027 -0.4741
 2537SOL    HW219074   0.915   2.673   3.338  1.0431  1.7254 -1.6126
 2538SOL     OW19075   4.237   2.915   7.341  0.6834 -0.2654 -0.2851
 2538SOL    HW119076   4.194   2.834   7.313  0.7596 -1.0525  1.8548
 2538SOL    HW219077   4.172   2.979   7.315 -0.4515 -1.6803 -0.9335
 2539SOL     OW19078   3.574   1.598  14.577  0.2276  0.0142 -0.0237
 2539SOL    HW119079   3.511   1.649  14.526  1.6381  0.1955 -1.5897
 2539SOL    HW219080   3.661   1.620  14.543 -0.4180  1.8765 -0.5215
 2540SOL     OW19081   2.338   2.003   3.505 -0.5728 -0.4002  0.0729
 2540SOL    HW119082   2.323   2.089   3.544 -0.6419 -0.6937  0.7031
 2540SOL    HW219083   2.427   2.010   3.472 -0.2384  1.6590  1.4575
 2541SOL     OW19084   1.379   2.123  14.299  0.1092 -0.3680  0.0159
 2541SOL    HW119085   1.289   2.094  14.286 -0.6104  1.9746 -0.2227
 2541SOL    HW219086   1.382   2.208  14.257  3.3541  0.5067  1.9820
 2542SOL     OW19087   1.878   3.955   3.427 -0.1227  0.1925 -0.2768
 2542SOL    HW119088   1.940   3.928   3.360  0.7884 -1.4305  1.2083
 2542SOL    HW219089   1.849   3.872   3.464 -1.7979  0.3884 -1.1454
 2543SOL     OW19090   2.720   2.238   4.543  0.3314 -0.0487  0.7977
 2543SOL    HW119091   2.751   2.300   4.476 -0.9746 -0.1243  0.1377
 2543SOL    HW219092   2.636   2.218   4.503  1.2132 -1.2302 -0.5028
 2544SOL     OW19093   2.410   1.341   0.660  0.4238 -0.3072 -0.1254
 2544SOL    HW119094   2.374   1.358   0.573  0.8637 -1.3039 -0.5016
 2544SOL    HW219095   2.441   1.253   0.639 -0.2823 -1.0927  2.0590
 2545SOL     OW19096   1.775   4.241   7.699  0.3960  0.2121  0.2830
 2545SOL    HW119097   1.826   4.302   7.646  0.3054  0.6484  0.6984
 2545SOL    HW219098   1.794   4.279   7.785 -3.6750  0.9873  0.8536
 2546SOL     OW19099   4.071   3.301   8.960 -0.3625  0.2864 -0.3952
 2546SOL    HW119100   4.158   3.338   8.977 -0.2965 -0.5287  1.0938
 2546SOL    HW219101   4.100   3.213   8.985  0.7589  1.0009  0.8326
 2547SOL     OW19102   3.376   0.733   2.079  0.2320 -0.1933 -0.1348
 2547SOL    HW119103   3.370   0.713   1.986 -3.0647  1.9897 -0.4098
 2547SOL    HW219104   3.442   0.802   2.076  1.1843 -1.0050  2.0732
 2548SOL     OW19105   2.223   0.777   9.429  0.1812 -0.2774  0.0841
 2548SOL    HW119106   2.225   0.788   9.334 -6.0381 -0.8183 -0.0687
 2548SOL    HW219107   2.158   0.707   9.434 -0.2072 -0.0201 -1.2415
 2549SOL     OW19108   1.858   0.065   3.481 -0.3292  0.3617 -0.9015
 2549SOL    HW119109   1.849   0.142   3.537  1.2751  0.6620 -1.0711
 2549SOL    HW219110   1.948   0.041   3.499 -0.2107  1.4737 -0.0478
 2550SOL     OW19111   0.384   1.853  13.842 -0.0498 -0.3700 -0.2942
 2550SOL    HW119112   0.314   1.904  13.883 -0.0243 -0.6260  0.0655
 2550SOL    HW219113   0.371   1.871  13.749 -0.9213  0.1176 -0.0795
 2551SOL     OW19114   1.858   4.667  11.579 -0.0978  0.1527  0.5104
 2551SOL    HW119115   1.897   0.021  11.623  1.9826  1.3678 -3.4589
 2551SOL    HW219116   1.773   4.653  11.622  0.3884 -0.3733  1.3077
 2552SOL     OW19117   1.099   0.375   3.908 -0.6539  0.1248 -1.1501
 2552SOL    HW119118   1.130   0.333   3.989 -2.0763 -1.1270 -1.2508
 2552SOL    HW219119   1.008   0.349   3.920 -0.3721  1.3620  3.9544
 2553SOL     OW19120   2.021   3.356   5.829 -0.7564 -0.9414 -0.0840
 2553SOL    HW119121   2.063   3.345   5.743 -1.2857  0.3163 -0.5137
 2553SOL    HW219122   2.056   3.443   5.849 -1.5716 -0.9238  1.2360
 2554SOL     OW19123   3.242   0.418   5.604 -0.3217  0.2117  0.3093
 2554SOL    HW119124   3.243   0.338   5.656 -2.3324  0.1602  0.2328
 2554SOL    HW219125   3.210   0.380   5.523 -0.8894  0.7607  0.2770
 2555SOL     OW19126   4.587   4.676  12.051 -0.0796 -0.0036  0.0756
 2555SOL    HW119127   4.505   0.003  12.063 -0.7123 -0.6535 -1.6239
 2555SOL    HW219128   4.648   0.004  12.105 -1.6275 -0.2831  2.0696
 2556SOL     OW19129   4.348   3.835   5.526  0.3572 -0.6750 -0.3708
 2556SOL    HW119130   4.353   3.742   5.508 -0.8633 -1.0425  1.2241
 2556SOL    HW219131   4.309   3.834   5.613 -1.0424  1.9935 -0.9353
 2557SOL     OW19132   1.589   4.629   8.899 -0.5256  0.3542  0.2898
 2557SOL    HW119133   1.499   4.656   8.913 -0.7188  0.2393 -0.7477
 2557SOL    HW219134   1.631   4.701   8.852  2.7246 -1.7898 -0.1270
 2558SOL     OW19135   1.155   4.345   2.157  0.0823  0.2604 -0.4189
 2558SOL    HW119136   1.080   4.359   2.099  1.6030  0.5273 -2.2778
 2558SOL    HW219137   1.154   4.251   2.177 -1.1203  0.6111  1.1667
 2559SOL     OW19138   4.668   2.628   4.449  0.4776 -0.1642 -0.5381
 2559SOL    HW119139   4.684   2.671   4.365  3.1368  1.6120  0.8967
 2559SOL    HW219140   4.713   2.686   4.510 -0.5490 -0.7821  0.8148
 2560SOL     OW19141   0.892   0.399   9.450  0.2740 -0.3090  0.2493
 2560SOL    HW119142   0.809   0.352   9.448  0.2718 -0.3454  1.5593
 2560SOL    HW219143   0.890   0.454   9.372  2.2776  1.5637  1.5010
 2561SOL     OW19144   1.035   3.375  11.902 -0.3201  0.4535 -0.0862
 2561SOL    HW119145   1.072   3.348  11.987 -0.9711 -2.6866 -0.7870
 2561SOL    HW219146   1.109   3.362  11.842 -1.7874 -0.3557 -1.7166
 2562SOL     OW19147   0.143   0.030   2.454 -0.0842  0.5917 -0.0182
 2562SOL    HW119148   0.204   0.101   2.474 -0.7028  1.2461 -0.4201
 2562SOL    HW219149   0.136   4.709   2.539 -1.5629 -0.0269 -0.4474
 2563SOL     OW19150   2.616   1.078   0.821  0.4087 -0.0670 -0.5681
 2563SOL    HW119151   2.579   1.038   0.743 -2.0928  1.2396 -0.0538
 2563SOL    HW219152   2.653   1.002   0.865 -3.0526 -0.8825  0.9193
 2564SOL     OW19153   0.411   2.611   8.164  0.0017  0.2542 -0.0818
 2564SOL    HW119154   0.401   2.524   8.203 -1.2583 -0.4286 -1.9469
 2564SOL    HW219155   0.480   2.590   8.102 -0.7342 -2.0621 -0.1142
 2565SOL     OW19156   4.192   2.009   8.013 -0.3861 -0.0183  0.0148
 2565SOL    HW119157   4.180   1.958   8.093 -0.8072 -1.6885 -1.1179
 2565SOL    HW219158   4.278   2.049   8.019  0.2999 -1.9634  2.8831
 2566SOL     OW19159   2.199   2.855   7.573  0.5544 -0.0222 -0.0990
 2566SOL    HW119160   2.167   2.915   7.641  2.4291  0.6388  0.2019
 2566SOL    HW219161   2.225   2.922   7.509  0.7631 -2.0056 -2.1056
 2567SOL     OW19162   2.672   3.888  12.061 -0.2082  0.7115  0.0939
 2567SOL    HW119163   2.694   3.979  12.083  1.9425  0.0602  0.7152
 2567SOL    HW219164   2.583   3.886  12.096  0.0936  1.8554  0.9211
 2568SOL     OW19165   0.778   2.016   4.354 -0.2245 -0.5662 -0.2936
 2568SOL    HW119166   0.811   2.105   4.343 -1.5678  0.4434  3.5715
 2568SOL    HW219167   0.688   2.023   4.320 -0.3456  1.5114  0.4197
 2569SOL     OW19168   0.085   1.069   3.549  0.5119  0.2146 -0.3152
 2569SOL    HW119169   0.144   0.995   3.565 -0.4558 -0.5348 -0.2504
 2569SOL    HW219170   0.125   1.105   3.469  0.6004  0.9687  0.0687
 2570SOL     OW19171   1.324   1.212   2.207  0.8877  0.5457  0.0092
 2570SOL    HW119172   1.419   1.201   2.210  1.1581  2.7924  0.0868
 2570SOL    HW219173   1.325   1.302   2.175 -1.4260  1.3349  2.1345
 2571SOL     OW19174   0.941   3.038   7.165 -0.2787 -0.6174 -0.0574
 2571SOL    HW119175   0.966   3.030   7.073  1.8326 -2.0508  0.6319
 2571SOL    HW219176   1.006   3.102   7.196 -1.7169  0.6734  0.2758
 2572SOL     OW19177   3.926   3.006   4.148 -0.0835  0.3231 -0.0150
 2572SOL    HW119178   3.949   2.919   4.114  0.5240  0.6427 -0.4278
 2572SOL    HW219179   3.933   2.981   4.241  0.4624  1.0666  0.1405
 2573SOL     OW19180   2.248   0.593   3.500 -0.7290 -0.3857  0.0617
 2573SOL    HW119181   2.297   0.530   3.447  1.7808  0.8188  0.9336
 2573SOL    HW219182   2.216   0.659   3.439 -0.3708 -0.5560 -0.3147
 2574SOL     OW19183   4.137   3.849   0.785 -0.0839 -0.3297 -0.5559
 2574SOL    HW119184   4.164   3.811   0.869 -1.1412  1.1558  0.4536
 2574SOL    HW219185   4.151   3.772   0.729 -2.3729 -1.7119  0.7643
 2575SOL     OW19186   3.107   1.821   2.462 -0.0755 -0.2325  0.4135
 2575SOL    HW119187   3.059   1.783   2.388 -0.5983 -0.2665  0.7744
 2575SOL    HW219188   3.035   1.821   2.525 -1.5859 -0.3052 -1.2986
 2576SOL     OW19189   4.112   4.171   7.210  0.1800  0.5152  0.4595
 2576SOL    HW119190   4.169   4.127   7.148 -0.9740 -1.0279  0.5044
 2576SOL    HW219191   4.035   4.189   7.155 -0.1287  2.2524  1.4564
 2577SOL     OW19192   2.672   1.805   3.376  0.0604  0.1955 -0.5283
 2577SOL    HW119193   2.768   1.810   3.379  0.0450  0.7448 -1.0662
 2577SOL    HW219194   2.645   1.897   3.374 -1.1165 -0.1059  1.9855
 2578SOL     OW19195   1.885   2.702   3.595 -0.3204 -0.4673  0.6315
 2578SOL    HW119196   1.869   2.778   3.540 -0.6835  1.1382  2.9830
 2578SOL    HW219197   1.981   2.694   3.591 -0.0556  2.3541  1.4640
 2579SOL     OW19198   4.161   1.062   8.393  0.0254 -0.4744  0.1067
 2579SOL    HW119199   4.247   1.036   8.359  0.0542  0.6523 -0.6717
 2579SOL    HW219200   4.141   0.990   8.453  2.5467 -0.9045  0.4116
 2580SOL     OW19201   0.495   2.929   8.706 -0.4783  0.3878  0.5645
 2580SOL    HW119202   0.489   2.850   8.760  2.5279 -1.2636 -1.4781
 2580SOL    HW219203   0.403   2.954   8.710  0.1043  2.3995  1.2182
 2581SOL     OW19204   1.149   3.413  13.035 -0.5444 -0.2864 -0.4035
 2581SOL    HW119205   1.061   3.386  13.010 -0.5666  0.6103 -1.3064
 2581SOL    HW219206   1.205   3.371  12.970 -0.9263 -0.8795 -0.3461
 2582SOL     OW19207   1.560   3.552   2.668  0.0274  0.3649  0.3625
 2582SOL    HW119208   1.528   3.632   2.712 -1.9916 -0.0641 -0.3084
 2582SOL    HW219209   1.649   3.587   2.660 -0.4048  1.3926 -0.0539
 2583SOL     OW19210   1.881   2.777   8.129  0.2520  0.3714 -0.1566
 2583SOL    HW119211   1.906   2.707   8.189  1.8632  0.7735 -0.3492
 2583SOL    HW219212   1.882   2.722   8.051  2.3127  1.0922 -0.6548
 2584SOL     OW19213   2.586   3.088   2.320  0.6520 -0.5031 -0.0720
 2584SOL    HW119214   2.655   3.033   2.283  0.1473  0.4680 -2.4975
 2584SOL    HW219215   2.618   3.178   2.316 -0.3851 -0.0133  2.4438
 2585SOL     OW19216   1.044   0.265   9.799 -0.0656  0.4347 -0.2261
 2585SOL    HW119217   0.990   0.339   9.772 -1.1020 -0.2384  0.0342
 2585SOL    HW219218   1.112   0.302   9.856  1.5690 -2.7946 -0.0332
 2586SOL     OW19219   4.512   3.756   3.881 -0.1141  0.6462 -0.2119
 2586SOL    HW119220   4.513   3.729   3.789  1.7921 -0.6426  0.1724
 2586SOL    HW219221   4.555   3.841   3.883 -0.6874  0.9929 -2.4139
 2587SOL     OW19222   1.499   0.943  10.295  0.9575 -0.5053  0.1960
 2587SOL    HW119223   1.529   0.970  10.382  2.0573 -1.1695  0.0138
 2587SOL    HW219224   1.501   1.031  10.257  1.2009  0.4959  2.4983
 2588SOL     OW19225   2.224   3.949  11.085  0.8027  0.4097 -0.3109
 2588SOL    HW119226   2.248   3.955  11.178  0.4460  3.3549 -0.4079
 2588SOL    HW219227   2.291   4.002  11.042  0.7115  2.5523  2.1586
 2589SOL     OW19228   3.786   3.764  11.687 -0.5586 -0.3889 -0.3524
 2589SOL    HW119229   3.698   3.802  11.685  0.1813  1.3621 -0.3788
 2589SOL    HW219230   3.784   3.734  11.597 -1.0308  1.9317 -1.1319
 2590SOL     OW19231   2.969   3.020  10.100 -0.6166 -0.0368  0.8592
 2590SOL    HW119232   2.897   2.968  10.066 -1.4661  1.5831  0.1519
 2590SOL    HW219233   2.932   3.106  10.122 -1.0123  0.4336 -1.5915
 2591SOL     OW19234   1.282   1.898   4.737  0.3279 -0.1299  0.1604
 2591SOL    HW119235   1.317   1.840   4.670 -2.2495 -0.5963 -0.7833
 2591SOL    HW219236   1.342   1.973   4.739  2.3228 -1.7904  2.3694
 2592SOL     OW19237   4.147   2.401   4.911  0.3058  0.0201  0.5748
 2592SOL    HW119238   4.188   2.337   4.853  0.1183 -0.3436  0.8431
 2592SOL    HW219239   4.206   2.385   4.984  0.6763 -1.1986  0.0014
 2593SOL     OW19240   0.640   4.409   8.274 -0.6839  0.0731 -0.1566
 2593SOL    HW119241   0.638   4.435   8.366 -0.1770 -0.6698  0.0674
 2593SOL    HW219242   0.685   4.482   8.233 -0.8846  0.2755 -0.0126
 2594SOL     OW19243   0.338   1.418   9.268 -0.3737 -0.2333 -0.6542
 2594SOL    HW119244   0.416   1.405   9.213  2.2809  0.9898  2.8433
 2594SOL    HW219245   0.364   1.418   9.360 -0.6872  0.4851 -0.5693
 2595SOL     OW19246   2.687   1.710   5.470 -0.6049  0.1849 -0.1796
 2595SOL    HW119247   2.771   1.691   5.511 -0.3679 -0.1758 -0.8307
 2595SOL    HW219248   2.728   1.738   5.388 -0.4011  1.6843  0.4434
 2596SOL     OW19249   2.287   4.552   7.135  0.1843 -0.2193 -0.2811
 2596SOL    HW119250   2.250   4.612   7.200  1.7621 -1.2416  1.5587
 2596SOL    HW219251   2.205   4.537   7.088 -0.9301  3.4582  0.4967
 2597SOL     OW19252   2.898   3.360  17.477 -0.5502 -0.3534 -0.2238
 2597SOL    HW119253   2.846   3.402  17.408  0.3493 -1.1602 -1.3898
 2597SOL    HW219254   2.907   3.274  17.437 -0.6317  2.1998 -5.7031
 2598SOL     OW19255   4.339   1.448  13.208 -0.0755  0.6653  0.1577
 2598SOL    HW119256   4.416   1.442  13.152 -1.8146 -1.5269 -1.9797
 2598SOL    HW219257   4.266   1.463  13.148  1.6950  2.6583 -1.5015
 2599SOL     OW19258   3.695   4.049   5.619 -0.4097  0.0766 -0.2900
 2599SOL    HW119259   3.654   4.092   5.694  0.4925  0.2225  0.1240
 2599SOL    HW219260   3.788   4.040   5.640 -0.3119 -1.3823 -1.3599
 2600SOL     OW19261   4.255   0.030   2.588  0.3240 -0.0761 -0.2097
 2600SOL    HW119262   4.240   4.688   2.658 -2.3057  0.4519 -0.3034
 2600SOL    HW219263   4.347   0.030   2.561  0.9418 -0.1755  1.8624
 2601SOL     OW19264   1.516   0.393   2.830 -0.4366 -0.7147  0.2442
 2601SOL    HW119265   1.523   0.410   2.736 -2.1900  0.7312  0.3773
 2601SOL    HW219266   1.588   0.444   2.867  0.3896 -0.3275 -1.9054
 2602SOL     OW19267   0.020   1.713   4.383  0.2394  0.7984  0.2723
 2602SOL    HW119268   4.703   1.747   4.303  1.7300 -2.2846 -1.7300
 2602SOL    HW219269   0.112   1.733   4.371  0.2652  0.0482 -0.7625
 2603SOL     OW19270   0.146   0.207   6.763 -0.0737 -0.2176  0.3302
 2603SOL    HW119271   0.051   0.216   6.764 -0.1751 -1.2659  0.0786
 2603SOL    HW219272   0.170   0.194   6.855  2.1797  1.9889  0.0834
 2604SOL     OW19273   1.660   4.524  15.331 -0.2244 -1.2012  0.0703
 2604SOL    HW119274   1.629   4.476  15.255  2.6798 -1.2687 -1.0707
 2604SOL    HW219275   1.655   4.460  15.402  2.5291 -1.3249  0.1485
 2605SOL     OW19276   1.499   4.488   0.194 -0.1937  0.0846 -0.7867
 2605SOL    HW119277   1.498   4.404   0.149  1.1353  0.4024 -1.4270
 2605SOL    HW219278   1.584   4.511   0.156  1.2005 -0.8269  1.7547
 2606SOL     OW19279   0.246   0.814   2.306 -0.4022 -0.1713  0.3115
 2606SOL    HW119280   0.196   0.875   2.252  0.8810  1.5503  1.0868
 2606SOL    HW219281   0.313   0.780   2.246  0.4934  1.9632  0.1228
 2607SOL     OW19282   2.796   2.717   0.998 -0.5903  0.5750  0.2147
 2607SOL    HW119283   2.731   2.648   0.983 -0.8578  0.7851  0.4138
 2607SOL    HW219284   2.828   2.691   1.084  1.4981  0.7896 -0.5044
 2608SOL     OW19285   4.533   4.235  11.162 -0.0608 -0.4566  0.2151
 2608SOL    HW119286   4.568   4.313  11.205 -1.2351  0.9365 -1.3485
 2608SOL    HW219287   4.615   4.192  11.138  0.4141  0.3865  0.3297
 2609SOL     OW19288   3.626   2.997   7.550 -0.0943  0.3777 -0.0115
 2609SOL    HW119289   3.717   2.972   7.536 -0.2991 -0.4447  0.1607
 2609SOL    HW219290   3.599   2.986   7.459 -1.0857  0.2331  0.2967
 2610SOL     OW19291   0.571   4.134   1.237  0.5790  0.0204  0.3413
 2610SOL    HW119292   0.655   4.149   1.193  0.8930 -1.8975  0.2768
 2610SOL    HW219293   0.525   4.087   1.168  1.2082  0.9270 -0.6840
 2611SOL     OW19294   2.306   0.830   6.187  0.7308  0.1404 -0.0906
 2611SOL    HW119295   2.289   0.919   6.217  2.1113 -0.3361  2.0690
 2611SOL    HW219296   2.401   0.825   6.192  0.7163  0.5936  0.6079
 2612SOL     OW19297   0.481   2.934   4.920 -0.5837 -0.2711  0.2025
 2612SOL    HW119298   0.500   3.019   4.960  0.0332  0.1175 -0.9219
 2612SOL    HW219299   0.466   2.879   4.997 -0.3188  0.6227  0.8916
 2613SOL     OW19300   3.948   0.362   6.783  0.0413  0.0849  0.2855
 2613SOL    HW119301   4.020   0.419   6.812 -1.4109  1.3802  1.3298
 2613SOL    HW219302   3.901   0.340   6.863 -1.0541  0.9099 -0.1313
 2614SOL     OW19303   3.620   2.584  13.559 -0.2930 -0.5185 -0.4797
 2614SOL    HW119304   3.545   2.543  13.516  0.7517 -1.8280 -1.0694
 2614SOL    HW219305   3.584   2.672  13.564  1.3030  0.1680 -1.1776
 2615SOL     OW19306   2.208   3.107  17.131 -0.0931  0.0917 -0.3279
 2615SOL    HW119307   2.154   3.171  17.084 -0.3565  0.4921  0.5120
 2615SOL    HW219308   2.170   3.104  17.219  2.2455  2.4826  0.7624
 2616SOL     OW19309   2.984   0.774   5.280 -0.3306 -0.3674 -0.6884
 2616SOL    HW119310   3.056   0.835   5.293 -0.3483 -0.2174 -1.2718
 2616SOL    HW219311   2.983   0.736   5.368  1.0854  0.2448 -0.4230
 2617SOL     OW19312   3.147   1.435   8.965 -0.4346 -0.0450 -0.2073
 2617SOL    HW119313   3.060   1.396   8.966 -0.4876  0.0419 -1.2397
 2617SOL    HW219314   3.131   1.513   9.017  0.6590 -0.9913  1.5191
 2618SOL     OW19315   3.478   3.345   1.141 -0.6763 -0.1487 -0.2073
 2618SOL    HW119316   3.509   3.275   1.200  0.4923 -0.2594 -0.9459
 2618SOL    HW219317   3.383   3.346   1.149 -0.6811  2.2211 -0.7220
 2619SOL     OW19318   3.358   3.719  16.062  0.2291 -0.2097 -0.2233
 2619SOL    HW119319   3.446   3.681  16.061 -0.0236 -0.8498  1.8723
 2619SOL    HW219320   3.384   3.810  16.072  2.6132 -0.5759 -3.2372
 2620SOL     OW19321   2.678   3.774  17.558 -0.0285  0.8078 -0.0355
 2620SOL    HW119322   2.677   3.813  17.645 -2.2217  2.0481 -0.6155
 2620SOL    HW219323   2.713   3.691  17.589 -1.0883  1.2146  2.2525
 2621SOL     OW19324   2.568   1.359   2.477 -0.1861  0.1565 -0.2218
 2621SOL    HW119325   2.548   1.266   2.467 -2.6695  0.6743 -0.0662
 2621SOL    HW219326   2.496   1.390   2.532  1.3012 -1.1935  2.5054
 2622SOL     OW19327   4.379   0.665  16.718 -0.3935  0.0157 -0.0261
 2622SOL    HW119328   4.474   0.673  16.724 -0.2721 -1.2848 -0.2690
 2622SOL    HW219329   4.369   0.638  16.626  0.2557  1.2770 -0.4764
 2623SOL     OW19330   1.737   4.710   0.215  0.2658 -0.2036 -0.7126
 2623SOL    HW119331   1.792   0.038   0.155 -2.8589  0.8967 -2.6387
 2623SOL    HW219332   1.769   4.626   0.183  0.6347 -1.6054  3.3546
 2624SOL     OW19333   1.790   2.639   4.924 -0.2448 -0.4884  0.3030
 2624SOL    HW119334   1.741   2.687   4.991 -0.2418 -0.3266  0.1893
 2624SOL    HW219335   1.874   2.682   4.938 -0.6886  0.8801 -1.2716
 2625SOL     OW19336   2.296   0.167   7.164 -0.2127 -0.3435 -0.0210
 2625SOL    HW119337   2.243   0.240   7.132 -2.3405 -2.1152 -0.5251
 2625SOL    HW219338   2.228   0.104   7.184 -1.6265  1.2095  0.0116
 2626SOL     OW19339   3.318   1.074   9.359  0.2665  0.6356  0.4030
 2626SOL    HW119340   3.281   1.161   9.376 -0.6966  0.2432  0.3599
 2626SOL    HW219341   3.404   1.099   9.326 -0.6997 -0.0980 -2.7776
 2627SOL     OW19342   0.291   2.412   1.797 -0.3966  1.0020  0.1132
 2627SOL    HW119343   0.263   2.498   1.764  0.9285  0.8104 -1.5036
 2627SOL    HW219344   0.307   2.425   1.890  0.2768  0.5878  0.0552
 2628SOL     OW19345   0.231   0.453   4.670 -0.2020  0.1822 -0.0210
 2628SOL    HW119346   0.160   0.395   4.642 -0.3402 -0.1229  0.9526
 2628SOL    HW219347   0.293   0.382   4.657  0.1246  0.3977  0.3581
 2629SOL     OW19348   0.368   4.091   1.069 -0.5037  0.0303 -0.8257
 2629SOL    HW119349   0.285   4.118   1.109 -0.3790  0.7305 -1.0382
 2629SOL    HW219350   0.359   3.995   1.068  0.4458 -0.0567 -0.8600
 2630SOL     OW19351   1.614   1.244   3.287 -0.0008  0.5764  0.5185
 2630SOL    HW119352   1.662   1.230   3.368  0.2895  2.3698  0.6421
 2630SOL    HW219353   1.550   1.173   3.298  0.7895 -0.3223 -0.6888
 2631SOL     OW19354   3.945   4.457   6.214  0.1571 -0.1699 -0.6742
 2631SOL    HW119355   3.954   4.548   6.185 -0.2614 -0.0344 -0.3750
 2631SOL    HW219356   4.033   4.441   6.248 -0.2714 -1.2351 -0.0541
 2632SOL     OW19357   2.089   1.136   1.066 -0.2030  0.1696  0.1802
 2632SOL    HW119358   2.091   1.163   1.158  1.1434 -1.4953  0.6336
 2632SOL    HW219359   2.180   1.109   1.052 -0.9137 -1.3660 -1.4859
 2633SOL     OW19360   2.659   2.608  10.217  0.1541 -0.1703 -0.2091
 2633SOL    HW119361   2.639   2.701  10.209 -0.7094 -0.2692  0.9017
 2633SOL    HW219362   2.713   2.594  10.139 -2.4763  0.5963 -2.1559
 2634SOL     OW19363   2.969   4.262   6.572 -0.3071  0.0300  0.3674
 2634SOL    HW119364   2.999   4.210   6.646  1.2620 -1.5619 -1.4231
 2634SOL    HW219365   3.021   4.341   6.587  1.2927 -1.0936  0.6841
 2635SOL     OW19366   3.675   4.132  16.876 -0.2617  0.4338 -0.2906
 2635SOL    HW119367   3.630   4.056  16.914 -0.7700  1.0211  0.2783
 2635SOL    HW219368   3.677   4.187  16.954 -0.8753 -1.2539  0.9351
 2636SOL     OW19369   1.322   4.096   5.916  0.1753 -0.4675 -0.2232
 2636SOL    HW119370   1.277   4.022   5.958  1.3091 -1.5409 -0.9254
 2636SOL    HW219371   1.373   4.043   5.855  3.2581 -0.1581  2.0764
 2637SOL     OW19372   4.085   0.656   1.855  0.0211  0.5714 -0.3423
 2637SOL    HW119373   4.171   0.692   1.834  1.1360 -1.7701  0.1504
 2637SOL    HW219374   4.074   0.582   1.795  0.6978  0.8473 -0.8040
 2638SOL     OW19375   0.034   4.453  17.391  0.1806  0.6629 -0.3129
 2638SOL    HW119376   0.039   4.359  17.370  0.6220  0.5793  0.1659
 2638SOL    HW219377   0.112   4.491  17.349 -0.5065  1.1440 -1.1595
 2639SOL     OW19378   0.203   3.567   9.902 -0.3340 -0.0984 -0.6770
 2639SOL    HW119379   0.188   3.661   9.917 -0.5664 -0.1628 -0.5054
 2639SOL    HW219380   0.120   3.543   9.860 -0.5461  0.1181 -0.3832
 2640SOL     OW19381   2.753   3.359   2.355 -0.5810 -0.3092 -0.4668
 2640SOL    HW119382   2.719   3.380   2.442  1.5587  0.5057  0.1637
 2640SOL    HW219383   2.840   3.320   2.367  0.2156  0.6256 -3.1827
 2641SOL     OW19384   3.023   2.816   0.398 -0.0993  0.3408 -0.4568
 2641SOL    HW119385   3.090   2.795   0.464 -0.2395  1.1881 -0.0490
 2641SOL    HW219386   2.941   2.804   0.445  0.2782  0.4837  0.2352
 2642SOL     OW19387   0.909   3.242  13.493  0.1479  0.1033  0.5845
 2642SOL    HW119388   0.972   3.216  13.560 -0.6909  2.6402  2.3474
 2642SOL    HW219389   0.926   3.333  13.471 -1.8748  0.7723  1.7714
 2643SOL     OW19390   0.602   3.863  10.292  0.3937  0.4051 -0.1714
 2643SOL    HW119391   0.578   3.824  10.207  1.0753  3.4929 -1.7474
 2643SOL    HW219392   0.546   3.940  10.289 -1.0327 -0.6782 -1.9922
 2644SOL     OW19393   4.075   3.645   3.083  0.1657 -0.1235  0.5118
 2644SOL    HW119394   4.101   3.562   3.123  0.5767 -0.2532 -0.0267
 2644SOL    HW219395   4.106   3.707   3.150 -2.2596  1.7398 -0.1159
 2645SOL     OW19396   0.635   1.381   4.602  0.0704 -0.9060  0.7776
 2645SOL    HW119397   0.709   1.409   4.655 -1.9185 -0.0384  3.1029
 2645SOL    HW219398   0.603   1.311   4.659 -0.2276 -2.2447 -1.0104
 2646SOL     OW19399   0.304   1.632   5.603  0.0037 -0.1513  0.0776
 2646SOL    HW119400   0.216   1.663   5.622 -0.1448 -0.4220 -0.1632
 2646SOL    HW219401   0.274   1.552   5.560 -0.4989  0.7967 -1.3339
 2647SOL     OW19402   3.816   0.705   3.025  0.0193 -0.3584 -0.4192
 2647SOL    HW119403   3.838   0.700   2.932 -1.0792  1.2872 -0.7635
 2647SOL    HW219404   3.819   0.800   3.035 -0.7883 -0.3584 -0.1277
 2648SOL     OW19405   2.281   3.021   9.065 -0.1937 -0.1206 -0.0029
 2648SOL    HW119406   2.220   2.947   9.068 -1.1938  0.6497 -1.6741
 2648SOL    HW219407   2.236   3.093   9.108  2.1708  1.0313  0.5479
 2649SOL     OW19408   0.383   0.455   3.029  0.4052 -0.7719  0.2451
 2649SOL    HW119409   0.476   0.435   3.039  1.0730  1.0389 -2.1735
 2649SOL    HW219410   0.381   0.538   3.078 -1.5038 -1.2278  0.9216
 2650SOL     OW19411   2.438   4.323   4.166  0.1880  0.1622 -0.2663
 2650SOL    HW119412   2.478   4.241   4.139 -0.8118  0.2759 -2.1008
 2650SOL    HW219413   2.478   4.377   4.098  0.7029 -0.5280 -0.5006
 2651SOL     OW19414   2.686   3.021   9.609  0.1015  0.6492 -0.6389
 2651SOL    HW119415   2.720   3.063   9.530  0.6429  1.8823  0.2587
 2651SOL    HW219416   2.613   3.074   9.642  0.2159  0.7487 -0.5471
 2652SOL     OW19417   2.767   1.228  14.022  0.1321  0.2671  0.3127
 2652SOL    HW119418   2.755   1.318  13.992  4.0486 -0.3597 -3.1769
 2652SOL    HW219419   2.809   1.197  13.941 -0.7856 -0.5751  0.1639
 2653SOL     OW19420   2.094   2.863  10.765  0.6137 -0.9142 -0.0581
 2653SOL    HW119421   2.043   2.782  10.776  1.4693 -0.8761  4.4469
 2653SOL    HW219422   2.077   2.880  10.673  2.5398 -0.8765 -0.4061
 2654SOL     OW19423   1.508   1.271   4.407  0.0638  0.0242  0.4125
 2654SOL    HW119424   1.480   1.221   4.331  1.0670 -1.6252  1.1171
 2654SOL    HW219425   1.591   1.229   4.429  0.7802  1.4681  0.3949
 2655SOL     OW19426   1.350   1.708   8.239 -0.3825 -0.5945  0.1862
 2655SOL    HW119427   1.327   1.801   8.234  0.3542 -0.2866  2.8612
 2655SOL    HW219428   1.324   1.686   8.149 -0.0329  0.4568 -0.1757
 2656SOL     OW19429   0.766   3.305  17.201  0.1931 -0.1726  0.3889
 2656SOL    HW119430   0.814   3.238  17.153 -0.4283 -0.0666 -0.3860
 2656SOL    HW219431   0.769   3.277  17.292 -0.7598  1.5508  0.9500
 2657SOL     OW19432   0.636   1.359   7.733 -0.2400 -0.2576  0.0402
 2657SOL    HW119433   0.626   1.277   7.685  0.1236  0.9451 -2.0959
 2657SOL    HW219434   0.689   1.318   7.801 -1.8466 -1.7976  0.3692
 2658SOL     OW19435   1.597   4.642  11.687  0.1733 -0.3901  0.4373
 2658SOL    HW119436   1.537   4.685  11.748 -1.8976  0.4584 -2.2125
 2658SOL    HW219437   1.592   4.554  11.724 -0.8850 -0.2758  0.5763
 2659SOL     OW19438   0.347   1.411   3.563 -0.2844  0.1260 -0.2397
 2659SOL    HW119439   0.317   1.375   3.647 -0.0489  3.4684  1.2863
 2659SOL    HW219440   0.439   1.387   3.557 -0.1463  1.1292 -2.0346
 2660SOL     OW19441   3.775   1.414  12.949  0.2409 -0.2736 -0.3504
 2660SOL    HW119442   3.759   1.490  12.891 -1.5781  0.2967  0.8866
 2660SOL    HW219443   3.864   1.395  12.921  0.9214  0.1465  1.5563
 2661SOL     OW19444   0.160   4.374   4.155  0.6469  0.4023 -0.0855
 2661SOL    HW119445   0.068   4.373   4.183 -0.2382  2.5036 -2.9420
 2661SOL    HW219446   0.197   4.440   4.214 -0.9318  0.6974  0.5766
 2662SOL     OW19447   3.830   0.194   0.276  0.0722  0.4083  0.7480
 2662SOL    HW119448   3.924   0.210   0.281  0.2903  0.0167 -2.0199
 2662SOL    HW219449   3.828   0.161   0.366 -0.5793 -0.1208  0.5483
 2663SOL     OW19450   4.262   0.567   3.637 -0.3037 -0.2011 -0.7218
 2663SOL    HW119451   4.328   0.502   3.661 -0.2389 -0.3105 -1.1790
 2663SOL    HW219452   4.186   0.515   3.609 -1.4662  1.8901 -1.4883
 2664SOL     OW19453   4.624   3.624  11.224  0.1692  0.0913 -0.1907
 2664SOL    HW119454   4.539   3.652  11.257  0.3153 -0.3068  0.5108
 2664SOL    HW219455   4.589   3.559  11.162  0.2421  1.1149 -1.3122
 2665SOL     OW19456   4.118   0.008   2.343 -0.2233 -0.0447 -0.4528
 2665SOL    HW119457   4.157   0.014   2.430 -0.8797 -3.0067  0.0475
 2665SOL    HW219458   4.040   0.063   2.356  0.4965  0.9327 -0.2882
 2666SOL     OW19459   1.772   2.903   4.263 -0.2247 -0.3749  0.3292
 2666SOL    HW119460   1.865   2.919   4.244 -0.0987 -1.2978  0.1972
 2666SOL    HW219461   1.752   2.988   4.304  1.2109 -0.1046  0.4674
 2667SOL     OW19462   2.809   0.805   9.897 -0.3415 -0.1289 -0.6302
 2667SOL    HW119463   2.762   0.836   9.819 -1.2225  0.1764  0.0226
 2667SOL    HW219464   2.741   0.792   9.964 -0.1893 -0.8775 -0.6164
 2668SOL     OW19465   1.488   4.251  12.317  0.2879 -0.2290 -0.1904
 2668SOL    HW119466   1.502   4.259  12.411  0.9408  0.9783 -0.3897
 2668SOL    HW219467   1.478   4.343  12.291  0.1584  0.3149  1.7918
 2669SOL     OW19468   4.029   1.411  12.803  0.0443 -0.6365 -0.0262
 2669SOL    HW119469   4.035   1.464  12.723  1.0303 -0.4541  0.1717
 2669SOL    HW219470   4.060   1.328  12.768  2.2507 -0.2919  1.1099
 2670SOL     OW19471   2.282   3.471   6.081  0.1854 -0.1783 -0.3016
 2670SOL    HW119472   2.372   3.502   6.077  0.7152 -1.5309  0.8376
 2670SOL    HW219473   2.233   3.514   6.011  1.9300 -0.1494 -1.4915
 2671SOL     OW19474   0.210   3.694   2.860 -0.7565 -0.0134  0.2989
 2671SOL    HW119475   0.164   3.648   2.929  2.2188 -2.0354  0.9342
 2671SOL    HW219476   0.223   3.615   2.807  0.9097 -0.4113  1.3116
 2672SOL     OW19477   4.214   3.710   8.783 -0.2048  0.0507  0.6231
 2672SOL    HW119478   4.282   3.739   8.844  0.3166  1.1913 -0.5025
 2672SOL    HW219479   4.165   3.652   8.842  0.1010 -1.2149 -0.3671
 2673SOL     OW19480   0.188   0.511   1.765 -0.0347 -0.4750 -0.1768
 2673SOL    HW119481   0.276   0.520   1.727  2.3412 -2.9542  4.6869
 2673SOL    HW219482   0.133   0.501   1.688  0.1668 -1.2766 -0.2141
 2674SOL     OW19483   2.301   3.188   6.252  0.6556 -0.3222  0.0729
 2674SOL    HW119484   2.304   3.094   6.232  0.0869 -0.0983 -1.0869
 2674SOL    HW219485   2.283   3.229   6.167 -0.7793 -0.9039  0.0885
 2675SOL     OW19486   3.197   0.340   1.785 -0.0283  0.2770 -0.2698
 2675SOL    HW119487   3.177   0.248   1.804 -1.9735  0.6794 -0.3999
 2675SOL    HW219488   3.210   0.341   1.691 -1.3210  0.8636 -0.4415
 2676SOL     OW19489   0.420   3.156  13.079 -0.0619  0.3951 -0.2568
 2676SOL    HW119490   0.449   3.235  13.034  0.0807  0.6534  0.2892
 2676SOL    HW219491   0.451   3.170  13.169  0.1863 -1.2285 -0.0834
 2677SOL     OW19492   2.318   0.826  16.079  0.3141 -0.0736  0.2766
 2677SOL    HW119493   2.411   0.810  16.064  0.0209 -0.8217 -0.7013
 2677SOL    HW219494   2.283   0.738  16.064 -0.0447 -0.3146  2.4086
 2678SOL     OW19495   4.414   2.785   8.642  0.1481  0.4992  0.5899
 2678SOL    HW119496   4.369   2.712   8.686  0.4085  1.1757  1.9949
 2678SOL    HW219497   4.490   2.734   8.613 -0.3145  1.2113 -1.8409
 2679SOL     OW19498   4.626   2.412   6.229 -0.2038 -0.5465 -0.0223
 2679SOL    HW119499   4.596   2.468   6.301  1.6750  0.2089  0.1830
 2679SOL    HW219500   4.720   2.407   6.245 -0.0029 -0.9680 -1.3955
 2680SOL     OW19501   0.741   2.239   7.856  0.6321 -0.3570 -0.1488
 2680SOL    HW119502   0.790   2.174   7.908  1.9660  0.6822 -0.1251
 2680SOL    HW219503   0.814   2.292   7.824  1.2115  0.1949  2.1030
 2681SOL     OW19504   2.332   2.407   6.247  0.2365  0.4035  0.0298
 2681SOL    HW119505   2.318   2.352   6.170 -1.2846 -0.9859  1.3023
 2681SOL    HW219506   2.392   2.349   6.295  1.5748  1.7647 -0.0041
 2682SOL     OW19507   0.450   2.824  17.557 -0.3204  0.1940 -0.0178
 2682SOL    HW119508   0.453   2.856  17.647  1.4241  0.3798 -0.1456
 2682SOL    HW219509   0.386   2.754  17.565  0.0662 -0.1780 -0.2005
 2683SOL     OW19510   2.593   2.078   3.417  0.1977  0.9253  0.3665
 2683SOL    HW119511   2.650   2.092   3.492  1.2672 -1.0142 -0.1013
 2683SOL    HW219512   2.635   2.127   3.346 -0.4511 -1.3800 -1.6313
 2684SOL     OW19513   4.639   0.480   3.160 -0.2914 -0.0650  0.2182
 2684SOL    HW119514   4.570   0.546   3.169 -1.3381 -0.8433 -1.9838
 2684SOL    HW219515   4.603   0.422   3.093  0.2029  1.6416 -1.5175
 2685SOL     OW19516   0.966   2.021   8.764 -0.8955 -0.1528  0.0163
 2685SOL    HW119517   0.872   2.008   8.776 -1.0485 -0.4292 -1.4820
 2685SOL    HW219518   0.959   2.117   8.764 -0.3562 -0.1120  1.1987
 2686SOL     OW19519   4.303   2.346   7.048 -0.1425  0.0427  0.1311
 2686SOL    HW119520   4.334   2.397   7.123 -0.8612  2.3460 -1.1407
 2686SOL    HW219521   4.376   2.316   6.995  0.8100  0.7918  1.0302
 2687SOL     OW19522   1.725   3.837   2.864  0.1519 -0.5284  0.1603
 2687SOL    HW119523   1.662   3.857   2.795 -1.2480 -0.0287  1.5733
 2687SOL    HW219524   1.672   3.771   2.910  0.3877 -0.4937  0.4794
 2688SOL     OW19525   4.713   3.392   4.377 -0.1901 -0.2726 -0.1781
 2688SOL    HW119526   4.719   3.316   4.434 -2.4780 -0.1369  0.2753
 2688SOL    HW219527   4.637   3.362   4.327  0.5387  0.1448 -1.5217
 2689SOL     OW19528   3.047   0.453   5.050 -0.4464  0.2793  0.3009
 2689SOL    HW119529   2.991   0.422   5.121  0.9841  1.1209  1.7958
 2689SOL    HW219530   3.010   0.540   5.035 -0.3985  0.1123 -0.7862
 2690SOL     OW19531   0.661   1.207   5.112  0.2306 -0.5585 -0.2393
 2690SOL    HW119532   0.618   1.283   5.150 -0.6677 -0.7202 -0.9217
 2690SOL    HW219533   0.600   1.141   5.145  1.5272 -0.0686  3.0740
 2691SOL     OW19534   1.530   4.300   4.863 -0.4102  0.4158  0.0079
 2691SOL    HW119535   1.573   4.301   4.948 -1.9491  3.0936  0.7460
 2691SOL    HW219536   1.531   4.395   4.851  0.5242  0.3290 -0.6594
 2692SOL     OW19537   4.277   4.287  11.020  0.6652 -0.4655  0.4214
 2692SOL    HW119538   4.322   4.362  11.059 -1.1549 -0.2153  2.0773
 2692SOL    HW219539   4.240   4.327  10.941 -2.0693 -1.5397  1.1381
 2693SOL     OW19540   2.983   2.846   7.030  0.1969  0.3916 -0.2730
 2693SOL    HW119541   3.014   2.928   6.992 -0.8825  0.3226 -1.3052
 2693SOL    HW219542   3.001   2.863   7.122  1.3364 -0.0964 -0.3982
 2694SOL     OW19543   2.571   3.474   3.110  0.1950  0.1927 -0.3512
 2694SOL    HW119544   2.597   3.382   3.104  0.8049  0.3625 -0.2190
 2694SOL    HW219545   2.649   3.526   3.128 -0.5467  0.7242  1.3746
 2695SOL     OW19546   4.607   2.740   3.648  0.0198  0.2661 -0.0899
 2695SOL    HW119547   4.550   2.735   3.724  0.3023 -0.5671  0.0700
 2695SOL    HW219548   4.642   2.651   3.657  0.7368  0.3996 -1.4921
 2696SOL     OW19549   3.123   4.029   0.443  0.3537 -0.1863 -0.0660
 2696SOL    HW119550   3.141   3.936   0.460 -0.1683 -0.4738 -1.0471
 2696SOL    HW219551   3.170   4.066   0.518 -1.4642  1.8239  0.0684
 2697SOL     OW19552   3.138   0.907   6.842  0.2510 -0.3371 -0.5424
 2697SOL    HW119553   3.150   0.879   6.751  1.5097  2.6900 -1.2988
 2697SOL    HW219554   3.093   0.991   6.833 -1.0711 -0.8162  1.6657
 2698SOL     OW19555   2.897   1.287   5.635  0.2218  0.4139  0.2903
 2698SOL    HW119556   2.820   1.291   5.578 -0.0521  0.2022  0.6394
 2698SOL    HW219557   2.870   1.218   5.696 -0.7903  0.7467  0.2172
 2699SOL     OW19558   4.344   1.479  15.934 -0.1896 -0.0962 -0.1106
 2699SOL    HW119559   4.354   1.555  15.876 -1.7566  0.4025  0.2815
 2699SOL    HW219560   4.259   1.441  15.911 -0.4642  1.4405 -1.6776
 2700SOL     OW19561   1.525   0.739  11.989 -0.1622 -0.3826  0.0105
 2700SOL    HW119562   1.459   0.740  11.919  0.0898  0.9842 -0.2115
 2700SOL    HW219563   1.493   0.680  12.057 -0.3178 -1.2923 -0.8587
 2701SOL     OW19564   2.831   4.101  11.911  0.9552  0.6068 -0.1200
 2701SOL    HW119565   2.751   4.147  11.936  0.3397  0.5970 -2.0962
 2701SOL    HW219566   2.867   4.158  11.844 -0.9745  0.6156 -1.1443
 2702SOL     OW19567   3.058   3.221   0.094 -0.3373 -0.2078 -0.0703
 2702SOL    HW119568   3.092   3.133   0.107 -0.2294 -0.8531 -4.5957
 2702SOL    HW219569   3.041   3.259   0.180 -0.6499 -1.5074  0.4363
 2703SOL     OW19570   3.896   4.155   6.122 -0.5098 -0.1664  0.5121
 2703SOL    HW119571   3.855   4.126   6.203 -1.3531  0.1514  0.1999
 2703SOL    HW219572   3.883   4.250   6.118 -0.1619 -0.0738  1.6058
 2704SOL     OW19573   0.328   0.666   4.026 -0.3157 -0.5705 -0.1468
 2704SOL    HW119574   0.418   0.655   3.997 -0.4190  1.6378 -1.3142
 2704SOL    HW219575   0.337   0.731   4.096  1.3705 -0.2386 -0.6714
 2705SOL     OW19576   0.235   2.017   2.938 -0.4686 -0.1015 -0.7069
 2705SOL    HW119577   0.312   2.007   2.882  0.2807 -1.6896  0.6023
 2705SOL    HW219578   0.178   1.944   2.913  1.3895 -1.5455 -0.7475
 2706SOL     OW19579   1.751   2.146   0.711  0.3321 -0.5366  0.0138
 2706SOL    HW119580   1.806   2.085   0.762  0.0475 -1.4938 -0.8299
 2706SOL    HW219581   1.732   2.208   0.782 -2.0462  0.0994 -1.2057
 2707SOL     OW19582   2.670   0.998   4.978  0.0226  0.3943 -0.5142
 2707SOL    HW119583   2.752   1.039   4.951  0.3985 -0.9716 -1.4705
 2707SOL    HW219584   2.678   0.904   4.994 -0.9467  0.4252  0.2156
 2708SOL     OW19585   3.978   4.605   7.535 -0.2829 -0.0436  0.2596
 2708SOL    HW119586   3.953   4.532   7.478  1.5595 -1.2573  0.9888
 2708SOL    HW219587   3.951   4.555   7.612  1.0878 -2.2059 -0.6742
 2709SOL     OW19588   3.315   1.555   4.203 -0.3053  0.0201 -0.4286
 2709SOL    HW119589   3.257   1.520   4.271 -1.0930  0.6032 -0.8015
 2709SOL    HW219590   3.335   1.474   4.155  2.3557 -0.9383  2.2443
 2710SOL     OW19591   2.064   4.006  16.779 -0.2372 -1.2325  0.3040
 2710SOL    HW119592   2.076   4.030  16.871  1.9822 -2.1692  0.2585
 2710SOL    HW219593   2.149   4.026  16.740 -0.6177 -0.2967 -0.0427
 2711SOL     OW19594   1.446   3.837   8.858 -0.4810  0.3538 -0.2628
 2711SOL    HW119595   1.377   3.771   8.857 -1.2715  1.1758  0.5796
 2711SOL    HW219596   1.395   3.918   8.853  0.2854  0.9319  1.1620
 2712SOL     OW19597   2.335   2.096   8.041  0.0332 -0.3690  0.3170
 2712SOL    HW119598   2.412   2.052   8.079 -1.1771 -0.1311  3.0721
 2712SOL    HW219599   2.326   2.048   7.959 -1.1697  0.2854  0.0663
 2713SOL     OW19600   2.579   2.920   1.529  0.1265  0.0381  0.1430
 2713SOL    HW119601   2.588   2.897   1.621  2.9798 -0.4606 -0.2647
 2713SOL    HW219602   2.483   2.920   1.523  0.1512  0.2593 -0.2798
 2714SOL     OW19603   4.386   4.146  14.581  0.0369  0.0502 -0.2971
 2714SOL    HW119604   4.467   4.140  14.530 -0.6690  0.5866 -1.4884
 2714SOL    HW219605   4.326   4.194  14.524  1.2531  1.0956 -0.6909
 2715SOL     OW19606   1.346   1.700  17.533  0.2525 -0.1659 -0.7937
 2715SOL    HW119607   1.357   1.712  17.439  0.5549  1.8074 -0.4970
 2715SOL    HW219608   1.295   1.619  17.541  1.4781 -0.6675  2.0881
 2716SOL     OW19609   1.982   2.639   7.372  0.0836 -0.8092  0.6919
 2716SOL    HW119610   1.965   2.621   7.279 -2.4480 -0.3337  1.0646
 2716SOL    HW219611   1.939   2.724   7.367  2.5814  0.4234  0.4418
 2717SOL     OW19612   3.629   3.244   2.748  0.2212  0.2350 -0.1255
 2717SOL    HW119613   3.626   3.292   2.831  0.1307  0.1964 -0.1070
 2717SOL    HW219614   3.535   3.228   2.742  0.2900 -0.1993 -0.0576
 2718SOL     OW19615   2.050   0.134   8.485 -0.9004  0.5223 -0.1852
 2718SOL    HW119616   2.005   0.056   8.518 -1.1057  1.2904  1.3602
 2718SOL    HW219617   1.976   0.188   8.457 -1.2733 -0.7009 -1.5343
 2719SOL     OW19618   0.181   2.257   9.638  0.5305 -0.0620  0.2395
 2719SOL    HW119619   0.095   2.258   9.595  1.8816 -1.3767 -2.5009
 2719SOL    HW219620   0.233   2.192   9.590  0.1525  0.6519 -1.1500
 2720SOL     OW19621   3.448   3.987   7.854 -0.1926 -0.6143 -0.1589
 2720SOL    HW119622   3.430   3.988   7.948 -1.1774  0.1785 -0.3612
 2720SOL    HW219623   3.371   3.939   7.824 -0.6044  0.2619 -0.4717
 2721SOL     OW19624   3.849   2.505   6.639 -0.5700  0.0943 -0.2994
 2721SOL    HW119625   3.938   2.540   6.644 -1.4140  2.1149  0.8977
 2721SOL    HW219626   3.809   2.571   6.697 -1.7091 -0.8657  0.0044
 2722SOL     OW19627   3.694   0.132  14.862 -0.0859  0.4349 -0.4753
 2722SOL    HW119628   3.611   0.180  14.866  0.2517  0.8639  1.3501
 2722SOL    HW219629   3.740   0.176  14.933  2.9489 -1.2924 -1.3625
 2723SOL     OW19630   1.212   1.583   4.711  0.6902  0.4242  0.5646
 2723SOL    HW119631   1.169   1.517   4.766 -1.9051 -1.2413 -3.4524
 2723SOL    HW219632   1.172   1.661   4.750  0.1362  0.3203  0.2210
 2724SOL     OW19633   0.621   1.357  11.187  0.1553 -0.0416  0.1306
 2724SOL    HW119634   0.697   1.404  11.220 -0.0042  1.1571 -1.2326
 2724SOL    HW219635   0.583   1.327  11.270 -0.3131 -0.5705 -0.2763
 2725SOL     OW19636   3.852   3.517   0.972  0.2900  0.4122  0.3852
 2725SOL    HW119637   3.785   3.453   0.947  0.0365  0.9585 -0.3280
 2725SOL    HW219638   3.928   3.479   0.928  1.1441 -0.3604  2.5138
 2726SOL     OW19639   0.567   2.276  17.448  0.1348 -0.1251  0.1333
 2726SOL    HW119640   0.472   2.273  17.436  0.1285  0.2243  0.0850
 2726SOL    HW219641   0.603   2.297  17.362 -1.7273  1.0054 -0.3779
 2727SOL     OW19642   3.476   2.010   5.637  0.1393 -0.0775  0.1577
 2727SOL    HW119643   3.457   1.928   5.684  1.4567  0.4995  1.6992
 2727SOL    HW219644   3.432   2.007   5.552 -2.1333  0.0733  1.3339
 2728SOL     OW19645   0.298   0.480   2.017  0.2856  0.3694 -0.3433
 2728SOL    HW119646   0.230   0.544   2.040  0.6592  0.4775  0.4514
 2728SOL    HW219647   0.265   0.465   1.928  1.4308  0.0995 -0.7252
 2729SOL     OW19648   4.181   1.796   4.200  0.2084  0.5521 -0.2805
 2729SOL    HW119649   4.093   1.765   4.223  1.4788 -2.2343  0.7800
 2729SOL    HW219650   4.215   1.762   4.283 -1.5200 -1.2814 -0.3024
 2730SOL     OW19651   3.772   2.190   4.617 -0.3853 -0.7053  0.3551
 2730SOL    HW119652   3.778   2.286   4.624 -0.7579 -0.6388 -0.1851
 2730SOL    HW219653   3.802   2.165   4.704 -1.1294 -0.5340  0.6574
 2731SOL     OW19654   3.688   3.601   5.553  0.4904 -0.1901  0.1803
 2731SOL    HW119655   3.613   3.661   5.544  0.8075  0.1616 -0.0899
 2731SOL    HW219656   3.752   3.645   5.497  1.9494 -2.0121  0.4531
 2732SOL     OW19657   4.411   3.232  12.199 -0.3592  0.0158  0.2164
 2732SOL    HW119658   4.349   3.162  12.180 -0.5337  0.6307 -1.4931
 2732SOL    HW219659   4.442   3.195  12.282  0.6714  0.9426  0.2493
 2733SOL     OW19660   3.651   2.810  14.429  0.4858 -0.2103 -0.2671
 2733SOL    HW119661   3.561   2.787  14.453 -0.8445  2.8638 -2.2999
 2733SOL    HW219662   3.702   2.736  14.464  0.5151  0.4274  1.0691
 2734SOL     OW19663   0.459   2.367   6.050 -0.1680  0.4447  0.1970
 2734SOL    HW119664   0.490   2.288   6.095 -0.3039 -0.7923 -1.8415
 2734SOL    HW219665   0.490   2.439   6.105  1.2295 -1.0370  1.3508
 2735SOL     OW19666   1.576   2.561  10.228 -0.2765  0.1826 -0.1640
 2735SOL    HW119667   1.505   2.581  10.288  1.3899  4.7341  0.3221
 2735SOL    HW219668   1.592   2.644  10.182 -1.5021  0.3650 -0.2634
 2736SOL     OW19669   4.005   2.092   4.480  0.2142  0.0473 -0.9081
 2736SOL    HW119670   3.961   2.072   4.398  2.0344  0.6146 -2.0115
 2736SOL    HW219671   3.939   2.139   4.532  1.0930  0.2775  0.0036
 2737SOL     OW19672   0.561   1.254   8.639  0.0692 -0.3795 -0.1870
 2737SOL    HW119673   0.518   1.193   8.699  0.8914 -0.4057  0.3653
 2737SOL    HW219674   0.589   1.326   8.695  0.6621 -1.1366  0.4831
 2738SOL     OW19675   1.396   1.991   6.776 -0.6250  0.5306  0.5338
 2738SOL    HW119676   1.472   1.987   6.717 -1.0243  0.4621  0.0248
 2738SOL    HW219677   1.320   1.995   6.718 -1.0716 -2.1076  0.9592
 2739SOL     OW19678   1.402   0.953   7.302 -0.2638 -0.0822 -0.2639
 2739SOL    HW119679   1.308   0.972   7.297 -0.4413 -0.6388  1.0188
 2739SOL    HW219680   1.450   1.035   7.314 -0.6003  0.1391 -0.4064
 2740SOL     OW19681   3.017   0.562  15.108  0.2059  0.3854 -0.7774
 2740SOL    HW119682   3.066   0.573  15.026  0.9660  2.5225 -0.0308
 2740SOL    HW219683   3.044   0.471  15.124  0.5470 -0.0017 -3.4338
 2741SOL     OW19684   1.389   0.382  13.933 -0.0078 -0.5047  0.4267
 2741SOL    HW119685   1.396   0.312  13.998 -2.9281 -0.7022  0.5235
 2741SOL    HW219686   1.355   0.452  13.987  2.0775  1.0586 -0.2820
 2742SOL     OW19687   0.524   2.012   6.510  0.7876 -0.4794  0.5919
 2742SOL    HW119688   0.493   2.042   6.596  1.8948  1.4723  0.3117
 2742SOL    HW219689   0.509   1.919   6.526 -2.2089 -0.2803 -1.0535
 2743SOL     OW19690   0.038   2.533   2.344 -0.9853  0.5855  0.1402
 2743SOL    HW119691   0.055   2.505   2.254  0.6410  1.0148  0.3138
 2743SOL    HW219692   4.663   2.529   2.350 -0.8990 -0.0322  1.2471
 2744SOL     OW19693   1.674   1.215  16.672  0.1471  0.5155  0.4804
 2744SOL    HW119694   1.711   1.243  16.755 -2.0728  3.1127  0.5822
 2744SOL    HW219695   1.719   1.130  16.666  1.8704  1.5579 -1.2945
 2745SOL     OW19696   4.048   2.590   3.039  0.1354  0.3694  0.1164
 2745SOL    HW119697   4.096   2.624   2.963 -0.0114  0.9678  0.2962
 2745SOL    HW219698   4.030   2.500   3.011 -1.2224  1.0330 -1.1441
 2746SOL     OW19699   2.342   0.383  10.714 -0.1906  0.1616  0.2895
 2746SOL    HW119700   2.272   0.339  10.762 -0.8999  0.8364 -0.1328
 2746SOL    HW219701   2.427   0.360  10.751  0.3226 -0.9527 -1.6117
 2747SOL     OW19702   1.879   1.379   5.429 -0.0263  0.3582  0.1530
 2747SOL    HW119703   1.912   1.293   5.402 -1.0687 -0.1538  0.5243
 2747SOL    HW219704   1.784   1.364   5.426  0.1247 -0.6311  0.3479
 2748SOL     OW19705   0.824   0.562  12.948  0.1435 -0.6646 -0.1775
 2748SOL    HW119706   0.754   0.603  12.999 -0.2972  0.4518 -1.6888
 2748SOL    HW219707   0.901   0.592  12.997  0.7373 -0.7928 -1.0363
 2749SOL     OW19708   4.053   1.805   6.529  0.2669  0.0142  0.9234
 2749SOL    HW119709   4.004   1.862   6.589 -0.6170 -1.0688  1.2330
 2749SOL    HW219710   4.143   1.835   6.537 -0.5590  2.7997 -0.2673
 2750SOL     OW19711   0.381   1.686   2.356  0.1893 -0.3659  0.2788
 2750SOL    HW119712   0.305   1.631   2.337  0.3562 -0.4455 -0.1820
 2750SOL    HW219713   0.446   1.642   2.300  0.6607 -0.4284  0.8812
 2751SOL     OW19714   1.428   2.906   3.369 -0.1704  0.3300  0.2362
 2751SOL    HW119715   1.411   2.880   3.460 -1.0464 -1.1741 -0.3590
 2751SOL    HW219716   1.341   2.896   3.332 -0.3465  0.2917  0.6561
 2752SOL     OW19717   2.916   4.669   7.040  0.0653  0.3236  0.0801
 2752SOL    HW119718   2.830   4.692   7.005  1.0578  2.8951 -0.6613
 2752SOL    HW219719   2.979   4.709   6.981 -1.9704  4.6850  0.8816
 2753SOL     OW19720   3.885   0.904  13.156 -0.4489 -0.0897  0.2226
 2753SOL    HW119721   3.878   0.974  13.092  0.2206 -0.4108 -0.1986
 2753SOL    HW219722   3.830   0.932  13.230 -1.3629 -0.8909 -0.1433
 2754SOL     OW19723   2.577   4.445   3.950  0.1168  0.0207  0.0513
 2754SOL    HW119724   2.668   4.453   3.920  0.3225 -2.0814  0.1334
 2754SOL    HW219725   2.574   4.525   4.003  1.4728  1.2556 -1.7414
 2755SOL     OW19726   1.421   1.434  17.114 -0.5115 -0.7591 -0.1142
 2755SOL    HW119727   1.396   1.396  17.198 -2.7832 -1.1465 -0.9671
 2755SOL    HW219728   1.366   1.379  17.058 -2.0084  1.1220 -0.4759
 2756SOL     OW19729   3.901   3.771   3.997  0.2907  0.1027 -0.6616
 2756SOL    HW119730   3.959   3.742   4.067 -0.6439  0.3705  0.2327
 2756SOL    HW219731   3.824   3.719   4.021 -0.2345  0.0640 -2.4546
 2757SOL     OW19732   0.676   2.785  17.420  0.3409  0.5392 -0.0656
 2757SOL    HW119733   0.594   2.781  17.469 -0.1768 -0.7578 -1.0424
 2757SOL    HW219734   0.724   2.716  17.467  1.2758  1.7108  0.7069
 2758SOL     OW19735   1.222   1.714  14.855  0.1792 -0.3058  0.1609
 2758SOL    HW119736   1.224   1.759  14.771  1.9473  0.5951  0.6911
 2758SOL    HW219737   1.314   1.689  14.862  0.3222  0.0657 -0.4524
 2759SOL     OW19738   3.240   3.124   4.035 -0.0168 -0.2952 -0.0465
 2759SOL    HW119739   3.279   3.103   3.950 -0.4730 -0.1171 -0.2947
 2759SOL    HW219740   3.254   3.041   4.082  0.0758 -0.6113 -0.6429
 2760SOL     OW19741   1.382   4.539   6.265  0.2340 -0.0005  0.1159
 2760SOL    HW119742   1.349   4.490   6.189  0.4696  0.3722 -0.2261
 2760SOL    HW219743   1.417   4.474   6.326  2.5188  0.9641 -0.1747
 2761SOL     OW19744   3.418   1.744   6.895  0.4210 -0.7287  0.1396
 2761SOL    HW119745   3.410   1.839   6.892 -0.3696 -0.7232  3.0320
 2761SOL    HW219746   3.405   1.738   6.989  0.5281 -0.1002  0.1933
 2762SOL     OW19747   2.666   0.200   4.309 -0.2319 -0.3909 -0.4589
 2762SOL    HW119748   2.687   0.206   4.403  0.4721  2.3680 -0.7841
 2762SOL    HW219749   2.752   0.174   4.276 -0.0321  0.2881 -0.4840
 2763SOL     OW19750   0.238   0.789   8.414  0.0565  0.6093  0.4572
 2763SOL    HW119751   0.239   0.779   8.509 -0.1097  1.2333  0.5245
 2763SOL    HW219752   0.329   0.777   8.389  0.8541  2.7710  2.3384
 2764SOL     OW19753   1.997   4.133   1.012 -0.0922  0.4333 -0.1358
 2764SOL    HW119754   1.918   4.119   1.064  0.5030  1.9093  1.1854
 2764SOL    HW219755   1.959   4.200   0.956 -0.4630 -0.2896 -0.7515
 2765SOL     OW19756   1.413   3.175   4.600 -0.1634  0.2599  0.1607
 2765SOL    HW119757   1.327   3.132   4.606 -1.0008  1.9782  0.2875
 2765SOL    HW219758   1.457   3.123   4.533  0.5837  0.4147  0.5255
 2766SOL     OW19759   1.781   3.844   6.667  0.6701 -0.0451  0.2476
 2766SOL    HW119760   1.687   3.863   6.661  0.2503 -2.2895 -0.4676
 2766SOL    HW219761   1.779   3.793   6.748  2.4267 -0.5489 -0.0216
 2767SOL     OW19762   1.213   1.936   8.358  0.3462  0.1271 -0.7394
 2767SOL    HW119763   1.205   1.943   8.453 -0.7589 -2.5935 -0.6159
 2767SOL    HW219764   1.122   1.913   8.336 -0.0953  0.2106  0.9932
 2768SOL     OW19765   1.294   2.612   2.248 -0.0459 -0.2773  0.6924
 2768SOL    HW119766   1.374   2.573   2.283 -0.0582 -0.9274 -0.0245
 2768SOL    HW219767   1.315   2.626   2.156  0.1437  0.0416  0.7832
 2769SOL     OW19768   3.167   1.111   8.765  0.3215  0.2166  0.0413
 2769SOL    HW119769   3.187   1.203   8.747 -0.9716  0.6658  0.9404
 2769SOL    HW219770   3.215   1.075   8.690  0.3999 -0.0530  0.2197
 2770SOL     OW19771   4.554   3.595  15.413 -0.8084 -0.6414  0.0774
 2770SOL    HW119772   4.616   3.524  15.432 -1.4766 -0.4843  2.7354
 2770SOL    HW219773   4.480   3.536  15.402 -0.7665 -0.3134 -2.1212
 2771SOL     OW19774   4.051   3.329  16.070  0.2132 -0.5081  0.2635
 2771SOL    HW119775   4.093   3.342  16.155  1.7500 -1.2376 -0.3907
 2771SOL    HW219776   3.957   3.325  16.089 -0.1741  2.4132 -1.0682
 2772SOL     OW19777   2.285   2.378   5.289 -0.2389  0.2893 -0.2275
 2772SOL    HW119778   2.345   2.309   5.260 -0.1385 -0.1350  1.0031
 2772SOL    HW219779   2.213   2.315   5.286 -1.0053  1.1311  0.7307
 2773SOL     OW19780   2.842   3.034   0.248 -0.2382 -0.3606 -0.3390
 2773SOL    HW119781   2.798   3.072   0.172 -2.2703 -2.9396 -0.4286
 2773SOL    HW219782   2.890   2.959   0.211  1.3588  0.3537  0.2656
 2774SOL     OW19783   3.317   1.782   2.160 -0.1273  0.0507 -0.1224
 2774SOL    HW119784   3.238   1.741   2.125 -0.0300  0.7057 -1.1105
 2774SOL    HW219785   3.294   1.875   2.168 -1.6038 -0.3966  0.7216
 2775SOL     OW19786   3.344   4.570   9.338  0.9470  0.1734 -0.4296
 2775SOL    HW119787   3.398   4.602   9.266  1.2792  0.9295  0.1509
 2775SOL    HW219788   3.394   4.491   9.359 -1.7053 -0.9030  1.9055
 2776SOL     OW19789   4.523   2.286   5.334  0.2971 -0.0065  0.3028
 2776SOL    HW119790   4.536   2.284   5.239 -2.2298  1.2279 -0.0670
 2776SOL    HW219791   4.584   2.356   5.354 -0.1628  0.4555  0.0993
 2777SOL     OW19792   0.310   3.074   0.320  0.1579 -0.1761 -0.1771
 2777SOL    HW119793   0.399   3.077   0.287  0.4576 -0.0736  0.6439
 2777SOL    HW219794   0.272   2.989   0.296  0.3985  0.4837 -2.8196
 2778SOL     OW19795   0.776   4.344   2.795  0.3472 -0.1576 -0.2584
 2778SOL    HW119796   0.822   4.281   2.740  4.0520  0.6974  1.8118
 2778SOL    HW219797   0.717   4.389   2.735 -0.2979 -0.4106  0.1895
 2779SOL     OW19798   3.299   2.955   2.685 -0.7252 -0.4640  0.4922
 2779SOL    HW119799   3.255   2.989   2.607  0.5586 -0.7173 -0.3403
 2779SOL    HW219800   3.317   2.867   2.651  0.6655 -0.3151  0.8642
 2780SOL     OW19801   2.492   4.426   4.645 -0.2392  0.9068  0.5164
 2780SOL    HW119802   2.531   4.378   4.571  0.5385  1.7630  0.3780
 2780SOL    HW219803   2.557   4.426   4.715  0.2661  0.4746  0.0446
 2781SOL     OW19804   3.109   4.322   2.324  0.5141  0.2843 -0.2248
 2781SOL    HW119805   3.181   4.284   2.273 -1.0490 -0.6369 -1.7143
 2781SOL    HW219806   3.070   4.375   2.255 -1.6395  1.2501  1.7280
 2782SOL     OW19807   2.045   0.916   3.058  0.1489  0.5277  0.0746
 2782SOL    HW119808   2.032   1.009   3.079  0.0096  0.0934  1.9184
 2782SOL    HW219809   2.089   0.918   2.973 -1.6239  0.4074 -0.8380
 2783SOL     OW19810   1.949   2.540   8.913 -0.0926 -0.5108  0.7185
 2783SOL    HW119811   1.997   2.586   8.844  1.5166 -0.4705  1.8538
 2783SOL    HW219812   1.880   2.491   8.869  1.5442  0.0069 -2.4422
 2784SOL     OW19813   1.853   2.971   5.445 -0.1731 -0.4513  0.3259
 2784SOL    HW119814   1.919   2.904   5.464  2.1508  0.8331 -3.1322
 2784SOL    HW219815   1.787   2.917   5.402  1.8998 -2.1219 -0.8084
 2785SOL     OW19816   2.252   1.050   8.703  0.1563  0.4761 -0.5755
 2785SOL    HW119817   2.194   1.005   8.764  1.3246  1.3959  1.2125
 2785SOL    HW219818   2.181   1.078   8.645 -0.3342  1.3191  0.4339
 2786SOL     OW19819   3.707   1.556   6.343  0.0150 -0.0182 -0.0006
 2786SOL    HW119820   3.646   1.605   6.287  3.0230  1.0944 -2.3015
 2786SOL    HW219821   3.778   1.619   6.349  1.4748 -1.6603 -0.1595
 2787SOL     OW19822   0.035   0.205  13.771  0.5525  0.4463 -0.3015
 2787SOL    HW119823   0.072   0.171  13.852  2.0938  3.2363  0.1724
 2787SOL    HW219824   0.055   0.132  13.712 -1.7339  0.1746 -0.7445
 2788SOL     OW19825   1.075   3.100  14.010 -0.0608 -0.0940 -0.9080
 2788SOL    HW119826   1.113   3.064  14.090 -0.9364 -0.5075 -0.6711
 2788SOL    HW219827   1.137   3.158  13.966  1.6856 -1.6310 -0.4603
 2789SOL     OW19828   2.907   0.629   4.306 -0.0668  0.1016  0.3939
 2789SOL    HW119829   2.978   0.601   4.248 -0.9372 -0.9905 -0.1415
 2789SOL    HW219830   2.905   0.558   4.370 -0.8573  0.1757  0.4498
 2790SOL     OW19831   4.024   4.697   5.816  0.1098 -0.2602  0.4536
 2790SOL    HW119832   4.118   4.692   5.798 -0.1768 -1.0109 -0.8377
 2790SOL    HW219833   3.993   4.620   5.767  3.3672 -0.9914 -0.4853
 2791SOL     OW19834   2.571   0.004   4.067 -0.2354  0.0983  0.1255
 2791SOL    HW119835   2.486   0.012   4.022 -0.5037 -2.8006  0.1050
 2791SOL    HW219836   2.549   0.009   4.160  0.9451  0.1122  0.3953
 2792SOL     OW19837   1.638   0.211   4.357 -0.2434  0.0211  0.3419
 2792SOL    HW119838   1.592   0.295   4.359 -0.2302  0.0090  1.0148
 2792SOL    HW219839   1.676   0.214   4.269  0.7007 -2.3325  0.6873
 2793SOL     OW19840   0.467   3.012   3.445  0.2763 -0.0096 -0.0524
 2793SOL    HW119841   0.491   2.965   3.525 -2.7655  1.4632  1.7062
 2793SOL    HW219842   0.391   3.060   3.477 -0.8718 -0.8489 -1.5523
 2794SOL     OW19843   3.471   2.947   2.885 -0.4042  0.4748 -0.3264
 2794SOL    HW119844   3.544   2.917   2.831 -1.1624 -2.8066  0.4917
 2794SOL    HW219845   3.400   2.926   2.825  0.0007 -0.1192 -0.5892
 2795SOL     OW19846   4.626   2.637  11.460  0.0388  0.1115 -0.7217
 2795SOL    HW119847   4.664   2.631  11.372 -1.6227  0.0367 -1.4171
 2795SOL    HW219848   4.634   2.543  11.477 -3.0183 -0.2875 -1.6167
 2796SOL     OW19849   4.407   0.317   3.728 -0.4079  0.0326 -0.2351
 2796SOL    HW119850   4.363   0.254   3.671 -0.3290 -0.8258  0.6486
 2796SOL    HW219851   4.396   0.270   3.811 -0.7115 -1.1723 -0.9611
 2797SOL     OW19852   2.850   0.176   7.369 -0.1327 -1.1104  0.1247
 2797SOL    HW119853   2.912   0.112   7.334  1.1285  0.3584 -0.3081
 2797SOL    HW219854   2.913   0.234   7.411 -1.2848 -0.5557  1.0896
 2798SOL     OW19855   3.219   1.890   5.896  0.3769 -0.1753 -0.0580
 2798SOL    HW119856   3.295   1.889   5.838  1.1137  1.3684  0.8861
 2798SOL    HW219857   3.182   1.806   5.869 -2.3513  1.1940 -0.5870
 2799SOL     OW19858   3.679   3.350   7.141  0.4735 -0.5615 -0.1975
 2799SOL    HW119859   3.697   3.274   7.195  0.1780  1.4114  2.6532
 2799SOL    HW219860   3.705   3.410   7.210 -2.6392  0.6152 -0.0549
 2800SOL     OW19861   2.670   3.596   5.321  0.2489 -0.8052  0.3640
 2800SOL    HW119862   2.623   3.552   5.250  2.0872  1.6494 -2.3366
 2800SOL    HW219863   2.650   3.689   5.314  2.0646 -0.2990  1.9701
 2801SOL     OW19864   2.363   4.612   2.385  0.5740  0.2859 -0.9236
 2801SOL    HW119865   2.434   4.616   2.449 -1.9344  1.6281  1.7769
 2801SOL    HW219866   2.390   4.542   2.326 -1.3196  0.6081 -2.1958
 2802SOL     OW19867   1.266   3.013   3.864  0.0578  0.3511  0.3991
 2802SOL    HW119868   1.195   2.952   3.841 -0.0485  1.0387 -1.0825
 2802SOL    HW219869   1.337   2.949   3.866 -0.6744 -0.4621  0.3637
 2803SOL     OW19870   0.924   0.608   4.793  0.1639  0.1952  0.0097
 2803SOL    HW119871   0.982   0.536   4.817  1.2149  1.9522  2.7169
 2803SOL    HW219872   0.838   0.570   4.812  0.3713 -0.6519 -0.7579
 2804SOL     OW19873   1.447   2.826   4.857 -0.2767  0.1155 -0.1071
 2804SOL    HW119874   1.465   2.775   4.778  0.6985  0.5384 -0.1508
 2804SOL    HW219875   1.427   2.913   4.824 -2.5049 -1.0787 -1.8775
 2805SOL     OW19876   2.738   0.321   5.010 -0.3844 -0.5237 -0.2799
 2805SOL    HW119877   2.771   0.353   5.094  1.7333  1.3021 -1.8139
 2805SOL    HW219878   2.696   0.237   5.031  1.2735 -1.7173 -1.8253
 2806SOL     OW19879   3.651   0.329   0.117 -0.2315  0.0896 -0.4368
 2806SOL    HW119880   3.702   0.284   0.185  0.3787  0.6344 -0.5400
 2806SOL    HW219881   3.566   0.284   0.119 -1.6228  2.8012  2.6192
 2807SOL     OW19882   0.958   1.796  11.554 -0.0161  0.0164 -0.2933
 2807SOL    HW119883   1.021   1.723  11.551 -0.2123 -0.1661 -0.0494
 2807SOL    HW219884   0.917   1.787  11.468 -0.1073 -0.4625 -0.2025
 2808SOL     OW19885   4.509   0.094   8.349  0.5496 -0.4194 -0.3994
 2808SOL    HW119886   4.512   0.008   8.391 -0.9710  0.6109  1.8129
 2808SOL    HW219887   4.597   0.079   8.314 -0.5436  0.2884 -3.4006
 2809SOL     OW19888   2.155   2.888   6.707 -0.1812 -0.3214  0.0440
 2809SOL    HW119889   2.214   2.815   6.687 -2.1764 -1.9760  0.2056
 2809SOL    HW219890   2.121   2.896   6.618 -1.3896  2.2730  0.7483
 2810SOL     OW19891   1.837   4.404   3.689 -0.2982 -0.2143  0.0340
 2810SOL    HW119892   1.843   4.353   3.608 -0.6844  2.6502 -1.7877
 2810SOL    HW219893   1.919   4.451   3.700 -0.5942  0.3303 -0.0627
 2811SOL     OW19894   1.603   4.456   3.402  0.3408  0.8428  0.2847
 2811SOL    HW119895   1.658   4.382   3.427 -0.4506  0.4606  0.9029
 2811SOL    HW219896   1.517   4.414   3.394  0.6642  0.4342 -1.1100
 2812SOL     OW19897   2.652   3.970  11.652 -0.4154  0.0014 -1.1268
 2812SOL    HW119898   2.645   4.064  11.671  0.1779 -0.5179  1.7098
 2812SOL    HW219899   2.718   3.948  11.717 -1.4693 -2.1002 -0.7599
 2813SOL     OW19900   0.713   0.931  14.164 -0.1692  0.1274  0.1406
 2813SOL    HW119901   0.789   0.970  14.120 -1.4355  1.5422 -0.8104
 2813SOL    HW219902   0.677   0.871  14.099  0.4657 -0.0268 -0.0732
 2814SOL     OW19903   2.986   1.231   8.393 -0.1472  0.6895  0.3964
 2814SOL    HW119904   2.996   1.212   8.300 -0.1367 -4.0278  1.3542
 2814SOL    HW219905   2.964   1.147   8.433  0.3261  1.4106  2.2240
 2815SOL     OW19906   1.641   1.716   5.742  0.2341 -0.5722  0.0891
 2815SOL    HW119907   1.650   1.637   5.795 -0.4618 -0.1180  0.8986
 2815SOL    HW219908   1.553   1.697   5.710 -1.2227  1.6308  2.6703
 2816SOL     OW19909   2.570   4.634   2.550  0.0312 -1.0473  0.1246
 2816SOL    HW119910   2.638   4.570   2.529 -0.4361 -0.6466 -2.6453
 2816SOL    HW219911   2.625   4.712   2.550 -0.3334 -0.7926  0.2470
 2817SOL     OW19912   4.390   3.630   3.183  0.2548  0.3449 -0.4900
 2817SOL    HW119913   4.436   3.601   3.104 -1.7229 -1.5829 -0.9174
 2817SOL    HW219914   4.467   3.656   3.234  0.4136  2.5003 -1.8432
 2818SOL     OW19915   3.886   4.045   8.872  0.7329  0.4250 -0.0875
 2818SOL    HW119916   3.885   3.955   8.904 -0.0806  0.6064  0.3978
 2818SOL    HW219917   3.890   4.029   8.778  0.7373  1.1010 -0.2030
 2819SOL     OW19918   3.837   0.789   3.715 -0.0956 -0.4825 -0.3889
 2819SOL    HW119919   3.853   0.854   3.784  0.7030 -2.6955  1.4989
 2819SOL    HW219920   3.870   0.704   3.744 -1.1010 -1.1491 -1.1885
 2820SOL     OW19921   3.643   3.833   6.846 -0.1581 -0.6339 -0.0764
 2820SOL    HW119922   3.606   3.746   6.830  2.1676 -1.4928 -0.8338
 2820SOL    HW219923   3.559   3.878   6.840 -0.0702 -0.5120 -0.3856
 2821SOL     OW19924   4.630   4.507   4.598  0.0752  0.1847  0.5210
 2821SOL    HW119925   4.617   4.512   4.693 -0.5312  0.2502  0.4315
 2821SOL    HW219926   4.541   4.491   4.567 -0.3262  1.8681  0.8258
 2822SOL     OW19927   1.094   0.451   5.109  0.3070  0.1691 -0.3407
 2822SOL    HW119928   0.999   0.447   5.121  0.3855  0.3062  0.3448
 2822SOL    HW219929   1.106   0.545   5.095 -1.1296  0.6401  1.6838
 2823SOL     OW19930   1.552   1.324   9.233  0.4493 -1.0901  0.2317
 2823SOL    HW119931   1.506   1.255   9.186  0.3711 -1.0611  0.2657
 2823SOL    HW219932   1.484   1.349   9.296  2.3956  2.2547  1.0400
 2824SOL     OW19933   1.112   1.507   0.626  0.1145  0.2149  0.2363
 2824SOL    HW119934   1.153   1.529   0.542  1.4274 -0.2135  0.7554
 2824SOL    HW219935   1.095   1.588   0.675  1.4430 -0.6411  2.1113
 2825SOL     OW19936   4.310   0.776   6.522  0.5043 -0.2650 -0.5133
 2825SOL    HW119937   4.270   0.690   6.534 -1.8588  0.5245 -2.7140
 2825SOL    HW219938   4.401   0.759   6.500  0.5955  0.5511 -0.7543
 2826SOL     OW19939   0.937   1.524   4.485 -0.5959 -0.2384  0.6414
 2826SOL    HW119940   0.935   1.485   4.398  2.6027  2.0669 -0.4331
 2826SOL    HW219941   0.964   1.453   4.544 -1.1600  0.2732  1.5157
 2827SOL     OW19942   1.617   0.060   1.114  0.0547  0.4007  0.0364
 2827SOL    HW119943   1.656   0.082   1.198  0.0763 -2.6762  0.8407
 2827SOL    HW219944   1.692   0.083   1.060  0.0024  1.1671  0.2939
 2828SOL     OW19945   3.395   1.615   5.375 -0.1036  0.1167  0.2157
 2828SOL    HW119946   3.347   1.589   5.453  0.3481  0.3241  0.5596
 2828SOL    HW219947   3.393   1.533   5.325  1.4927 -0.6928  1.4669
 2829SOL     OW19948   1.603   2.586   0.686  0.2972 -0.5124  0.0292
 2829SOL    HW119949   1.660   2.651   0.646  0.7806 -0.7001  0.4029
 2829SOL    HW219950   1.528   2.583   0.627 -0.1315 -0.1886  0.5580
 2830SOL     OW19951   3.304   4.239   9.520 -0.3570 -0.0756 -0.1478
 2830SOL    HW119952   3.265   4.205   9.439  1.0752 -1.4436 -0.2730
 2830SOL    HW219953   3.374   4.295   9.486 -1.0508  1.8719  1.6533
 2831SOL     OW19954   3.806   2.082   2.966 -0.4127 -0.0753  0.2763
 2831SOL    HW119955   3.792   1.987   2.967  0.5305 -0.2060  1.3047
 2831SOL    HW219956   3.743   2.102   3.036 -1.1566  0.1293 -0.4496
 2832SOL     OW19957   2.161   1.554  14.752  0.4794  0.5829  0.1677
 2832SOL    HW119958   2.179   1.577  14.661 -3.6055  2.5675 -0.1473
 2832SOL    HW219959   2.094   1.616  14.782  0.5754 -0.5302  2.7164
 2833SOL     OW19960   0.938   3.072   8.987  0.1380  0.4677  0.2095
 2833SOL    HW119961   0.891   3.055   8.905  2.6405  1.9046 -1.5141
 2833SOL    HW219962   0.972   3.161   8.977  0.6033  0.4414  1.6786
 2834SOL     OW19963   1.248   4.621  17.654 -0.2677  0.2143  0.2601
 2834SOL    HW119964   1.198   4.683   0.021 -2.7513  1.0403 -2.8980
 2834SOL    HW219965   1.274   4.554   0.029  2.5362 -0.2421 -1.3930
 2835SOL     OW19966   1.373   4.129   5.575 -0.0199  0.5503 -0.1457
 2835SOL    HW119967   1.403   4.138   5.485 -0.6448 -0.9181 -0.5010
 2835SOL    HW219968   1.455   4.155   5.617 -0.8827 -0.6114  2.2618
 2836SOL     OW19969   0.035   2.545   4.957 -0.0949 -0.2716 -0.0680
 2836SOL    HW119970   4.694   2.617   4.972  1.2947  0.7598  0.7605
 2836SOL    HW219971   4.707   2.471   4.992 -0.6779  0.1938  0.1083
 2837SOL     OW19972   2.900   2.604   6.288 -0.2874  0.0401 -0.3437
 2837SOL    HW119973   2.931   2.522   6.328 -1.7113  0.6573  2.0222
 2837SOL    HW219974   2.898   2.571   6.198  1.2551  0.5213 -0.5589
 2838SOL     OW19975   2.844   0.353   3.598  0.4521  0.3235  0.0316
 2838SOL    HW119976   2.890   0.297   3.535  0.3040  0.6456 -0.3642
 2838SOL    HW219977   2.905   0.343   3.672 -2.3269  1.0954  2.4187
 2839SOL     OW19978   4.674   1.069   7.376 -0.0232  0.2493  0.0282
 2839SOL    HW119979   4.655   1.161   7.389  0.9302  0.2879  1.1031
 2839SOL    HW219980   0.048   1.064   7.375 -0.1280 -2.1418 -0.1158
 2840SOL     OW19981   1.878   3.396  14.791 -0.1803 -0.3156  0.2920
 2840SOL    HW119982   1.809   3.341  14.827  2.1562 -2.3884  1.6857
 2840SOL    HW219983   1.889   3.465  14.856 -2.3765 -0.1866  0.5000
 2841SOL     OW19984   4.351   0.165  17.311 -0.5138 -0.3586 -0.0472
 2841SOL    HW119985   4.406   0.237  17.342 -1.8121 -0.1941  1.8943
 2841SOL    HW219986   4.293   0.217  17.254 -1.5011  1.0240  2.2195
 2842SOL     OW19987   0.374   4.164   0.066  0.3129  0.6552  0.0658
 2842SOL    HW119988   0.331   4.110   0.132  0.8759  1.9290  1.4715
 2842SOL    HW219989   0.463   4.151   0.100  0.7579 -0.1778 -1.4233
 2843SOL     OW19990   1.030   4.495  10.468 -0.1767 -0.1468 -0.3104
 2843SOL    HW119991   0.994   4.484  10.381  0.2696  1.1039 -0.6559
 2843SOL    HW219992   0.952   4.537  10.504  1.4513  0.0392  3.0660
 2844SOL     OW19993   3.989   2.103   4.182  0.2190  0.7867 -0.5541
 2844SOL    HW119994   3.928   2.037   4.148  0.0855 -0.4792  2.1941
 2844SOL    HW219995   4.010   2.154   4.103  1.1282  1.0470 -0.1447
 2845SOL     OW19996   4.073   1.437  17.570 -0.1795 -0.6138 -0.0277
 2845SOL    HW119997   4.066   1.521  17.524  0.4529  0.1175  1.2117
 2845SOL    HW219998   4.038   1.457  17.656 -0.8515 -0.3443 -0.3628
 2846SOL     OW19999   1.378   1.638   9.334  0.1107  0.3777  0.0560
 2846SOL    HW120000   1.422   1.715   9.369  0.9877  1.2147 -2.8786
 2846SOL    HW220001   1.290   1.656   9.367 -0.3134 -1.1427 -0.2427
 2847SOL     OW20002   4.484   1.644   7.734  0.1177  0.2185  0.2499
 2847SOL    HW120003   4.434   1.625   7.654  0.2942 -0.1345  0.2237
 2847SOL    HW220004   4.413   1.648   7.798  1.4624  1.6250  1.6300
 2848SOL     OW20005   1.699   2.078  14.755  0.0233  0.0144  0.1948
 2848SOL    HW120006   1.776   2.081  14.698 -0.4122  0.8338 -0.3402
 2848SOL    HW220007   1.647   2.009  14.714 -2.0712  1.4109  0.5031
 2849SOL     OW20008   4.333   0.181  12.332  0.5129  0.5171 -0.3434
 2849SOL    HW120009   4.385   0.102  12.350  1.1924  0.5264 -2.3236
 2849SOL    HW220010   4.385   0.217  12.260 -1.6406  0.9958 -1.6563
 2850SOL     OW20011   3.462   0.507   3.437  0.2576  0.4025 -0.0784
 2850SOL    HW120012   3.479   0.439   3.372  2.3974 -0.2579  1.1953
 2850SOL    HW220013   3.380   0.483   3.480  0.7851 -0.2952  0.5189
 2851SOL     OW20014   4.461   1.577   5.977  0.0777  0.0562 -0.6100
 2851SOL    HW120015   4.462   1.616   6.064 -0.8653  2.7156 -1.7820
 2851SOL    HW220016   4.370   1.550   5.966  0.0592 -1.3227  3.1333
 2852SOL     OW20017   2.229   4.339  13.597 -0.7612  0.2369 -0.5555
 2852SOL    HW120018   2.218   4.247  13.621 -0.5949  0.8772  1.9986
 2852SOL    HW220019   2.229   4.392  13.677  0.0217 -1.3884  0.5125
 2853SOL     OW20020   4.542   4.499   5.771  0.1781  0.1209  0.3101
 2853SOL    HW120021   4.530   4.559   5.844  0.5282 -0.3454  0.7463
 2853SOL    HW220022   4.632   4.468   5.779 -0.1997 -1.6408 -2.2130
 2854SOL     OW20023   3.941   0.787  10.591 -0.5570  0.0054  0.0405
 2854SOL    HW120024   3.923   0.865  10.540 -0.7937 -2.0101 -2.9893
 2854SOL    HW220025   3.889   0.801  10.669  0.4134  0.1268  0.6668
 2855SOL     OW20026   3.525   0.266   1.917  0.3066  0.3186 -0.7617
 2855SOL    HW120027   3.438   0.279   1.881 -1.1585 -1.0062  2.2888
 2855SOL    HW220028   3.503   0.286   2.008  0.2076 -0.7519 -0.5472
 2856SOL     OW20029   2.421   0.284  16.207 -0.3281 -0.4067 -0.0875
 2856SOL    HW120030   2.423   0.334  16.289  0.2394  2.4695 -1.8968
 2856SOL    HW220031   2.509   0.293  16.170 -0.1560  0.8424  0.6339
 2857SOL     OW20032   4.652   1.101   1.954  0.0342 -0.7259  0.1852
 2857SOL    HW120033   4.673   1.172   2.016  1.1430 -1.0415  0.1774
 2857SOL    HW220034   4.712   1.126   1.884 -1.2701 -1.6715 -1.2480
 2858SOL     OW20035   1.103   3.289  17.441  0.2208  0.1565 -0.0251
 2858SOL    HW120036   1.064   3.374  17.418  1.3698  0.1148 -2.1155
 2858SOL    HW220037   1.191   3.309  17.470 -0.0767  1.4697 -0.0295
 2859SOL     OW20038   2.233   3.728  10.197 -0.1517 -0.7597 -0.3190
 2859SOL    HW120039   2.318   3.718  10.154 -0.6180 -1.0112 -1.2006
 2859SOL    HW220040   2.210   3.812  10.157  0.2019  0.0849  1.2780
 2860SOL     OW20041   1.192   4.159   3.148 -0.4837  0.4133 -0.0597
 2860SOL    HW120042   1.217   4.075   3.110 -0.7922  0.1349  0.3587
 2860SOL    HW220043   1.214   4.215   3.073 -1.7061  0.1970 -0.5991
 2861SOL     OW20044   2.384   0.008   5.822 -0.0766  0.0120 -0.0383
 2861SOL    HW120045   2.399   4.706   5.730  1.1340  0.1621  0.1183
 2861SOL    HW220046   2.297   0.046   5.823  0.9101  2.2113  0.7443
 2862SOL     OW20047   0.464   0.749   5.533 -0.4031  0.1192 -0.0697
 2862SOL    HW120048   0.369   0.739   5.522 -0.4690  0.0968  0.4851
 2862SOL    HW220049   0.495   0.717   5.448  0.6310 -1.2375  0.8200
 2863SOL     OW20050   2.518   4.707   4.569  0.0825  0.0805 -0.5335
 2863SOL    HW120051   2.451   0.006   4.635 -0.1864  0.0407 -0.7933
 2863SOL    HW220052   2.523   4.613   4.584  0.5313  0.4142  1.3774
 2864SOL     OW20053   1.949   1.179   4.147 -0.1648  0.5269 -0.0360
 2864SOL    HW120054   1.882   1.223   4.095  0.5414  0.8840 -0.6456
 2864SOL    HW220055   2.017   1.246   4.150 -0.4129  0.7092  1.6456
 2865SOL     OW20056   1.907   2.369   7.422  0.1073 -0.5857  0.0667
 2865SOL    HW120057   1.873   2.457   7.436  1.8876  0.2742 -0.9854
 2865SOL    HW220058   1.988   2.387   7.374 -0.3756 -0.4956 -0.7159
 2866SOL     OW20059   4.133   3.000   9.124 -0.2943  0.0016 -0.9202
 2866SOL    HW120060   4.141   2.918   9.173 -0.7358  0.1572 -0.5875
 2866SOL    HW220061   4.227   3.014   9.113 -0.5054  1.5914 -0.7486
 2867SOL     OW20062   3.860   0.579   1.190 -0.4195 -0.1731 -0.0191
 2867SOL    HW120063   3.806   0.529   1.250 -0.5023 -0.8581 -0.6650
 2867SOL    HW220064   3.923   0.517   1.153 -2.1862 -2.7004  1.2180
 2868SOL     OW20065   4.579   1.359  14.577 -0.0821 -0.0047  0.4035
 2868SOL    HW120066   4.652   1.298  14.563 -0.7910 -0.4975 -1.0971
 2868SOL    HW220067   4.511   1.301  14.613 -0.7468 -0.3827 -1.4941
 2869SOL     OW20068   0.660   3.951  14.590  0.2632  0.1335 -0.4868
 2869SOL    HW120069   0.598   3.923  14.522 -2.9836  1.5233  1.9170
 2869SOL    HW220070   0.627   3.904  14.666  0.5400 -1.1464 -1.1631
 2870SOL     OW20071   0.565   0.796   6.889 -0.6189  0.4337  0.6789
 2870SOL    HW120072   0.529   0.741   6.819  2.2351 -1.3336  0.5793
 2870SOL    HW220073   0.572   0.883   6.850 -3.4208  0.5149  0.3876
 2871SOL     OW20074   3.485   2.859   3.215 -0.0624 -0.5178 -0.4334
 2871SOL    HW120075   3.394   2.883   3.230  0.8449  2.1710  0.6709
 2871SOL    HW220076   3.487   2.855   3.119  0.3656 -0.8129 -0.4136
 2872SOL     OW20077   1.764   1.055   6.345  0.1099 -0.0489 -0.2829
 2872SOL    HW120078   1.790   1.010   6.425  0.7901 -0.4819 -0.7435
 2872SOL    HW220079   1.687   1.111   6.351  0.8488  0.9508 -0.0284
 2873SOL     OW20080   1.655   1.571   9.314  0.7029  0.6967  0.5764
 2873SOL    HW120081   1.563   1.598   9.312  1.2655  2.3880 -2.1934
 2873SOL    HW220082   1.651   1.484   9.275  2.1211  0.5331  0.8225
 2874SOL     OW20083   0.706   0.460   7.455 -0.4383  0.3869  0.4981
 2874SOL    HW120084   0.738   0.524   7.393  0.1606  1.0325  1.4705
 2874SOL    HW220085   0.658   0.519   7.514 -0.3095  0.5435  0.4458
 2875SOL     OW20086   2.563   1.509   3.705 -0.0322 -0.5021 -0.1445
 2875SOL    HW120087   2.495   1.448   3.736 -0.5494 -0.4857 -1.2091
 2875SOL    HW220088   2.564   1.498   3.610  0.2802 -2.3477  0.0688
 2876SOL     OW20089   2.785   2.415   6.910  0.1430  0.1178  0.1280
 2876SOL    HW120090   2.825   2.461   6.983  0.6366  0.5838 -0.4302
 2876SOL    HW220091   2.862   2.402   6.855  0.3454  0.1240  0.4113
 2877SOL     OW20092   1.820   3.249  15.243  0.2781  0.6223 -0.3334
 2877SOL    HW120093   1.825   3.212  15.332  0.6487 -0.5940 -0.8586
 2877SOL    HW220094   1.877   3.325  15.251 -1.1284  1.4759  1.6006
 2878SOL     OW20095   2.619   3.189   8.602  0.3022 -0.1639  0.4475
 2878SOL    HW120096   2.580   3.168   8.518  0.3046 -0.5559  0.5434
 2878SOL    HW220097   2.679   3.260   8.581  1.3399 -1.5301 -1.1893
 2879SOL     OW20098   3.962   0.934  11.738 -0.5903  0.3629 -0.4025
 2879SOL    HW120099   4.025   0.983  11.790 -1.6081  0.6869  0.5165
 2879SOL    HW220100   3.998   0.951  11.651  0.5612  1.9181  0.3762
 2880SOL     OW20101   0.321   0.961   4.596  0.1643 -0.0923  0.0041
 2880SOL    HW120102   0.335   1.002   4.510 -3.8845  2.2023  0.4176
 2880SOL    HW220103   0.290   0.875   4.569  0.8287  0.4825 -2.6404
 2881SOL     OW20104   3.650   4.559  16.949 -0.0400 -0.1887  0.1355
 2881SOL    HW120105   3.654   4.620  16.875 -0.3087  0.7409  0.9038
 2881SOL    HW220106   3.680   4.615  17.020 -3.1112  0.5858  0.7890
 2882SOL     OW20107   1.591   1.077   6.662 -0.7616 -0.1812 -0.0765
 2882SOL    HW120108   1.672   1.095   6.709 -1.2182  1.9971 -0.1441
 2882SOL    HW220109   1.592   1.142   6.592 -1.4835  0.5975  0.6449
 2883SOL     OW20110   1.619   3.938   3.699  0.0529 -0.1417 -0.4281
 2883SOL    HW120111   1.698   3.909   3.743 -1.0234 -1.5657  0.5848
 2883SOL    HW220112   1.605   3.866   3.637 -1.9621 -0.9704  0.9728
 2884SOL     OW20113   1.672   1.479  13.873 -0.5831  0.2651 -0.3362
 2884SOL    HW120114   1.738   1.427  13.919 -0.3116  0.8431 -0.0734
 2884SOL    HW220115   1.717   1.564  13.866 -1.8713  0.9292 -0.5411
 2885SOL     OW20116   2.835   2.202   7.529  0.1086  0.2641 -0.2203
 2885SOL    HW120117   2.894   2.131   7.505 -1.4468 -1.2353  0.4274
 2885SOL    HW220118   2.792   2.218   7.444 -0.9381 -0.2075  0.2232
 2886SOL     OW20119   3.281   2.547   7.250 -0.0910 -0.1187 -0.6305
 2886SOL    HW120120   3.242   2.634   7.255  0.5087  0.1100  0.0791
 2886SOL    HW220121   3.360   2.567   7.301 -1.2587  1.2299  0.6323
 2887SOL     OW20122   4.041   3.917   8.695 -0.3401  0.0667  0.0355
 2887SOL    HW120123   4.122   3.945   8.653 -0.1005  1.7786  1.6587
 2887SOL    HW220124   4.085   3.842   8.737  0.0335 -2.4347 -4.7995
 2888SOL     OW20125   0.186   2.000   4.473  0.4278  0.1272  0.1021
 2888SOL    HW120126   0.271   2.006   4.428  0.0463  1.1860 -0.4894
 2888SOL    HW220127   0.204   1.927   4.531  0.5910 -0.2986 -0.4814
 2889SOL     OW20128   1.961   4.212   5.730  0.6761 -0.2405  0.1781
 2889SOL    HW120129   1.916   4.251   5.805  2.8121  2.7045 -0.1323
 2889SOL    HW220130   1.921   4.125   5.720 -0.2333 -0.0073  1.7837
 2890SOL     OW20131   0.865   0.544   9.245  0.1685  0.3558 -0.1769
 2890SOL    HW120132   0.795   0.566   9.184  0.8366  0.0426 -1.0557
 2890SOL    HW220133   0.928   0.559   9.175 -0.1915  1.4014 -0.2698
 2891SOL     OW20134   2.129   1.671   8.862 -0.2457  0.2683  0.3179
 2891SOL    HW120135   2.116   1.591   8.811  0.9529  0.3283 -0.0709
 2891SOL    HW220136   2.066   1.662   8.934 -0.4268 -0.0537  0.1186
 2892SOL     OW20137   4.298   1.483  16.191 -0.7838 -0.2021 -0.0188
 2892SOL    HW120138   4.214   1.441  16.172 -0.5159 -0.8290  0.1933
 2892SOL    HW220139   4.324   1.498  16.100 -2.1255  2.6221  0.0351
 2893SOL     OW20140   1.824   3.584  11.102 -0.8159  0.0893 -0.3644
 2893SOL    HW120141   1.858   3.624  11.182 -0.8982 -2.5634  0.9948
 2893SOL    HW220142   1.842   3.657  11.043  0.4645  0.0877  0.0297
 2894SOL     OW20143   2.342   3.303   0.646 -0.7552 -0.0502 -0.5307
 2894SOL    HW120144   2.294   3.346   0.575 -1.4577 -0.0070 -0.0275
 2894SOL    HW220145   2.305   3.215   0.638  1.5297 -0.8936 -1.7659
 2895SOL     OW20146   4.129   2.273  11.046 -0.3386  0.3520  0.2611
 2895SOL    HW120147   4.130   2.198  11.106 -0.1302 -0.4871 -0.7813
 2895SOL    HW220148   4.118   2.349  11.102 -0.3785  1.0240 -0.6724
 2896SOL     OW20149   0.067   0.309  16.095 -0.1064 -0.5544  0.4928
 2896SOL    HW120150   0.019   0.264  16.165  0.5803 -0.0222  1.2992
 2896SOL    HW220151   0.027   0.393  16.117 -0.9867 -1.5501  2.7126
 2897SOL     OW20152   2.355   0.586   1.502  0.0521  0.1196  0.3263
 2897SOL    HW120153   2.415   0.658   1.488  0.3876  0.0430  1.4030
 2897SOL    HW220154   2.286   0.625   1.555  1.8589  1.9107  1.3459
 2898SOL     OW20155   4.703   0.050   4.879  0.2944  0.1598 -0.5878
 2898SOL    HW120156   4.654   0.107   4.820 -1.2909  0.9537  1.4892
 2898SOL    HW220157   4.659   4.690   4.855  0.5071 -0.6655  1.8623
 2899SOL     OW20158   2.921   0.233   3.136 -0.4134 -0.4377  0.3581
 2899SOL    HW120159   2.863   0.177   3.187 -0.7258 -1.2834 -0.9474
 2899SOL    HW220160   2.855   0.293   3.100  0.9534 -1.9802 -4.6692
 2900SOL     OW20161   2.595   4.034  11.063  0.2743  0.4341  0.1396
 2900SOL    HW120162   2.544   4.009  11.140 -1.3354  0.7520 -0.8112
 2900SOL    HW220163   2.555   4.116  11.033 -0.1735  0.5611  1.0966
 2901SOL     OW20164   1.992   4.284   9.061 -0.5956 -0.1912  0.0682
 2901SOL    HW120165   2.054   4.240   9.119  0.9032  1.1944 -0.4798
 2901SOL    HW220166   2.001   4.224   8.987 -0.7277 -0.7552  0.5041
 2902SOL     OW20167   0.937   4.131   6.926  0.5375 -0.0368 -0.2907
 2902SOL    HW120168   0.949   4.155   7.018 -0.6260  0.4669 -0.2639
 2902SOL    HW220169   0.841   4.137   6.919  0.6478  0.6379 -1.2464
 2903SOL     OW20170   0.264   0.911   7.240 -0.9663  0.3522 -0.5845
 2903SOL    HW120171   0.254   1.003   7.216 -2.2447 -0.2090 -2.2340
 2903SOL    HW220172   0.274   0.924   7.334 -0.1363  0.6796 -0.7239
 2904SOL     OW20173   0.981   1.462  16.235 -0.2723  0.2616  0.1409
 2904SOL    HW120174   0.967   1.556  16.222  0.5696  0.1403 -1.6054
 2904SOL    HW220175   1.073   1.451  16.212 -0.3965  3.2921 -1.8870
 2905SOL     OW20176   1.917   1.691  12.279 -0.2386 -0.2446  0.1203
 2905SOL    HW120177   1.949   1.639  12.206  0.3641 -0.3387  0.4528
 2905SOL    HW220178   1.997   1.736  12.308 -0.3367  0.0763 -0.1102
 2906SOL     OW20179   2.798   3.091   1.137 -0.1773  0.0484  0.1209
 2906SOL    HW120180   2.780   3.009   1.090  1.0642  0.0960 -0.4359
 2906SOL    HW220181   2.788   3.058   1.226  1.2204  0.3061  0.3649
 2907SOL     OW20182   1.367   1.239  13.609  0.1871 -0.4047  0.3843
 2907SOL    HW120183   1.454   1.200  13.611  1.2302  1.8420 -1.2630
 2907SOL    HW220184   1.390   1.328  13.637 -0.6742 -0.3965  1.0788
 2908SOL     OW20185   3.302   1.535   6.761  0.0498 -0.3247  0.2924
 2908SOL    HW120186   3.311   1.533   6.666 -1.3013  2.1764  0.1148
 2908SOL    HW220187   3.350   1.613   6.786  0.5723  0.3673 -2.8841
 2909SOL     OW20188   2.453   4.696   2.822  0.4400 -0.0926  0.1457
 2909SOL    HW120189   2.389   4.634   2.857  1.1762 -1.4332 -0.8713
 2909SOL    HW220190   2.487   4.648   2.746 -2.0940 -0.9605 -0.4348
 2910SOL     OW20191   4.427   2.861  11.006 -0.0752 -0.5779  0.4541
 2910SOL    HW120192   4.389   2.779  11.038  1.5047 -2.3256 -2.1482
 2910SOL    HW220193   4.516   2.831  10.990 -0.4464 -0.4620 -1.7586
 2911SOL     OW20194   1.755   3.554   3.800  0.6031  0.3952  0.3393
 2911SOL    HW120195   1.772   3.607   3.878  0.7483  1.4294 -0.3962
 2911SOL    HW220196   1.663   3.536   3.818  0.2692  0.4199 -1.3431
 2912SOL     OW20197   0.731   3.195   5.991 -0.3173 -0.0406 -0.1716
 2912SOL    HW120198   0.772   3.280   5.977  1.2321 -1.0192 -1.6163
 2912SOL    HW220199   0.650   3.225   6.031  0.5775 -1.8818  3.0247
 2913SOL     OW20200   4.594   4.679   6.605  0.0440 -0.2486  0.1065
 2913SOL    HW120201   4.619   4.623   6.531 -0.5642 -0.2971 -0.0609
 2913SOL    HW220202   4.642   0.037   6.582 -2.0582  1.5972  2.1010
 2914SOL     OW20203   3.262   3.625  12.387  0.2019 -0.6171  0.1474
 2914SOL    HW120204   3.211   3.603  12.309  0.0362  0.6706 -0.1179
 2914SOL    HW220205   3.308   3.542  12.401  0.7084 -0.5102 -0.8683
 2915SOL     OW20206   1.826   4.181   9.999 -0.3547 -0.1716 -0.1602
 2915SOL    HW120207   1.878   4.109   9.964  0.6278 -0.0014  0.9501
 2915SOL    HW220208   1.847   4.247   9.932 -0.8061  1.1484  0.9892
 2916SOL     OW20209   3.078   1.161   7.165  0.1072  0.0242  1.0884
 2916SOL    HW120210   3.041   1.144   7.252  1.6405  0.1193  1.7622
 2916SOL    HW220211   3.125   1.242   7.179 -0.3156  0.8083 -1.9955
 2917SOL     OW20212   1.681   3.961   1.769  0.4920  0.2355  0.1932
 2917SOL    HW120213   1.630   3.985   1.691 -0.0825 -0.9594  0.1939
 2917SOL    HW220214   1.736   4.039   1.777 -1.5073  1.6246  0.4488
 2918SOL     OW20215   4.601   0.445   6.601 -0.4217  0.6268  0.3040
 2918SOL    HW120216   4.580   0.497   6.678  0.1515 -0.9141  1.5192
 2918SOL    HW220217   4.513   0.414   6.582  0.5682 -0.1707 -2.9941
 2919SOL     OW20218   3.297   0.766  17.289 -0.7431  0.3148 -0.7528
 2919SOL    HW120219   3.266   0.828  17.355  1.2778  0.0163  0.4519
 2919SOL    HW220220   3.359   0.722  17.346 -0.4229  0.8661 -0.6808
 2920SOL     OW20221   2.054   2.253   1.778 -0.0238  0.4564  0.0344
 2920SOL    HW120222   2.037   2.342   1.748  2.4324  0.9519  0.0793
 2920SOL    HW220223   2.149   2.239   1.779 -0.3953 -1.9521  3.5470
 2921SOL     OW20224   0.742   2.609   7.634  0.0722 -0.9037 -0.2509
 2921SOL    HW120225   0.809   2.543   7.653 -1.5071 -2.3772  0.2665
 2921SOL    HW220226   0.666   2.560   7.603 -0.7344  1.1756 -1.5418
 2922SOL     OW20227   0.134   3.886   8.650  0.1289 -0.5332 -0.2136
 2922SOL    HW120228   0.146   3.869   8.556  1.9290  0.3140 -0.1413
 2922SOL    HW220229   0.153   3.980   8.643 -0.9731 -0.1869  1.4939
 2923SOL     OW20230   3.960   4.163   5.159 -0.0665  0.3957  0.0895
 2923SOL    HW120231   4.026   4.095   5.152 -1.1021 -0.6230  0.2155
 2923SOL    HW220232   4.019   4.237   5.176  0.1323  0.2897 -0.1397
 2924SOL     OW20233   4.238   4.197   5.501 -0.1445  0.1169 -0.0022
 2924SOL    HW120234   4.189   4.235   5.575 -0.1248  0.8139 -0.3414
 2924SOL    HW220235   4.322   4.198   5.547  0.0849 -2.0232 -0.3850
 2925SOL     OW20236   2.436   4.459  13.474  0.1259 -0.0162  0.5759
 2925SOL    HW120237   2.364   4.409  13.513 -0.7813 -0.0041 -1.0936
 2925SOL    HW220238   2.391   4.543  13.480 -2.3216 -1.3932  1.8489
 2926SOL     OW20239   2.331   4.024  15.950 -0.8896 -0.1275  0.2756
 2926SOL    HW120240   2.344   3.971  16.029 -0.8592 -2.2309 -1.1549
 2926SOL    HW220241   2.420   4.054  15.933 -1.0131  0.8550  1.3208
 2927SOL     OW20242   2.837   3.031   9.836 -0.5014  0.4610  0.6242
 2927SOL    HW120243   2.891   2.972   9.784 -0.4903  0.6250  0.4467
 2927SOL    HW220244   2.766   3.051   9.775  0.1898 -0.6014 -0.5303
 2928SOL     OW20245   0.762   0.350   9.939  0.2912 -0.4530  0.2850
 2928SOL    HW120246   0.852   0.343   9.905 -1.3746  0.1785 -4.2672
 2928SOL    HW220247   0.721   0.315   9.860 -1.1564  1.7337  0.0658
 2929SOL     OW20248   2.861   1.338   3.571  0.4983  0.0395  0.4555
 2929SOL    HW120249   2.950   1.314   3.595  1.1005  0.1551 -1.6598
 2929SOL    HW220250   2.866   1.429   3.542  2.0555  0.2328  1.3684
 2930SOL     OW20251   1.737   3.341   2.482 -0.0669  0.4779 -0.7551
 2930SOL    HW120252   1.707   3.258   2.445  0.4696  0.1111 -0.3641
 2930SOL    HW220253   1.821   3.347   2.436  1.2845 -0.3327  1.6211
 2931SOL     OW20254   3.106   0.871   6.566 -0.0144 -0.3705  0.3132
 2931SOL    HW120255   3.061   0.953   6.547  1.3619  0.1025 -0.9219
 2931SOL    HW220256   3.144   0.847   6.482 -1.4310  1.7317 -0.9222
 2932SOL     OW20257   0.854   3.590   7.920  0.5037  0.5624  0.2494
 2932SOL    HW120258   0.835   3.683   7.923  0.6097  0.5405  1.3835
 2932SOL    HW220259   0.949   3.591   7.932  0.5563 -1.0373  0.0537
 2933SOL     OW20260   1.412   1.991  11.348 -0.1587 -0.1646  0.0340
 2933SOL    HW120261   1.427   1.945  11.431 -2.6763 -3.3974 -1.2966
 2933SOL    HW220262   1.499   1.995  11.310 -0.3099  0.0441 -0.2899
 2934SOL     OW20263   4.521   1.276  16.605  0.1976 -0.5715  0.1085
 2934SOL    HW120264   4.616   1.267  16.617 -0.0495 -0.0834  2.3708
 2934SOL    HW220265   4.515   1.343  16.537 -1.9141 -0.6233  0.2317
 2935SOL     OW20266   3.197   3.083   6.273  0.1321 -0.2362 -0.4755
 2935SOL    HW120267   3.202   2.992   6.243  2.6665 -0.5304  0.8255
 2935SOL    HW220268   3.104   3.103   6.284 -0.2029 -1.0520 -1.8037
 2936SOL     OW20269   3.279   4.183   5.435 -0.1716 -0.1925  0.6118
 2936SOL    HW120270   3.284   4.246   5.507 -2.3197  1.7306 -0.9157
 2936SOL    HW220271   3.187   4.160   5.451 -0.5555 -0.5198 -2.1486
 2937SOL     OW20272   2.450   2.174   8.370 -0.1831 -0.4635 -0.0617
 2937SOL    HW120273   2.477   2.265   8.385  0.6056 -0.6797 -0.1644
 2937SOL    HW220274   2.460   2.144   8.460 -0.1588  0.5354  0.2718
 2938SOL     OW20275   4.577   3.199  15.910  0.4039  0.5565 -0.0253
 2938SOL    HW120276   4.624   3.225  15.831 -2.5107  1.9854 -1.2829
 2938SOL    HW220277   4.491   3.236  15.889  0.2233  0.4954  0.5944
 2939SOL     OW20278   3.414   4.613   6.843 -0.3531 -0.1323  0.2333
 2939SOL    HW120279   3.351   4.544   6.864 -1.8889  0.6766 -1.7519
 2939SOL    HW220280   3.357   4.683   6.811 -0.0318  0.3860  0.8011
 2940SOL     OW20281   2.533   4.166   9.597 -0.2561  0.3359  0.1590
 2940SOL    HW120282   2.589   4.142   9.523 -1.0076 -0.3822 -0.1659
 2940SOL    HW220283   2.473   4.228   9.556  1.1549  2.1066  0.7460
 2941SOL     OW20284   3.752   4.340  12.497  0.2428 -0.3401 -0.1671
 2941SOL    HW120285   3.832   4.298  12.528 -0.3229  1.2525  3.4458
 2941SOL    HW220286   3.725   4.377  12.581 -0.6566  1.9050 -1.4445
 2942SOL     OW20287   2.612   1.529   5.722 -0.3181 -1.3564  0.1802
 2942SOL    HW120288   2.523   1.504   5.743 -1.1817  0.0536 -1.7973
 2942SOL    HW220289   2.644   1.447   5.686  0.1661 -0.6195 -1.0894
 2943SOL     OW20290   3.457   2.472   7.765 -0.3800  0.4831 -0.0262
 2943SOL    HW120291   3.401   2.419   7.823 -0.4060  1.5756  0.9392
 2943SOL    HW220292   3.389   2.502   7.705 -0.6600  2.5786  1.3398
 2944SOL     OW20293   0.578   3.904   6.923  0.4814  0.5698 -0.5495
 2944SOL    HW120294   0.570   3.868   7.011  0.3375 -1.2757 -1.3212
 2944SOL    HW220295   0.672   3.892   6.908  0.1630 -0.8631 -1.3019
 2945SOL     OW20296   3.031   1.940  14.104 -0.2442  0.2771  0.5516
 2945SOL    HW120297   3.067   2.004  14.166  0.8034 -0.5597  0.8173
 2945SOL    HW220298   3.022   2.004  14.034 -0.3649  0.9993  1.2255
 2946SOL     OW20299   3.369   4.393   2.145 -0.0386  0.2123  0.0190
 2946SOL    HW120300   3.382   4.298   2.152  2.1856  0.5400  0.4028
 2946SOL    HW220301   3.427   4.428   2.212  1.3098  1.1274 -1.6408
 2947SOL     OW20302   1.914   4.396  10.412  0.2088  0.2909 -0.5347
 2947SOL    HW120303   1.916   4.412  10.317  1.7463 -1.2385 -0.7668
 2947SOL    HW220304   1.950   4.308  10.401 -0.9473 -0.3682  1.0320
 2948SOL     OW20305   3.733   1.111  11.799 -0.1703  0.3606  0.2080
 2948SOL    HW120306   3.783   1.060  11.735  1.5063  0.4106  1.4669
 2948SOL    HW220307   3.691   1.180  11.747 -1.7000 -1.2186 -0.6591
 2949SOL     OW20308   4.631   0.720   1.796  0.8643  0.2253  0.2251
 2949SOL    HW120309   4.633   0.814   1.778  0.6747  0.3912  1.0372
 2949SOL    HW220310   4.598   0.681   1.715  0.6005 -3.1723  1.9805
 2950SOL     OW20311   4.612   4.269   2.761 -0.1521  0.0427  0.0772
 2950SOL    HW120312   4.588   4.310   2.678  2.5706  2.9080  0.6991
 2950SOL    HW220313   4.708   4.276   2.758 -0.2875  2.3465  0.9355
 2951SOL     OW20314   1.146   4.420   2.665  0.0538  0.0164  0.5599
 2951SOL    HW120315   1.158   4.383   2.577 -1.6835  1.0581 -0.1220
 2951SOL    HW220316   1.064   4.371   2.677 -0.2219  0.1693 -0.6761
 2952SOL     OW20317   2.610   3.950   5.706 -0.4625 -0.4586  0.3590
 2952SOL    HW120318   2.621   3.940   5.801  0.1756  0.0733  0.3403
 2952SOL    HW220319   2.531   3.897   5.699  0.2847 -1.5279 -0.0826
 2953SOL     OW20320   3.638   0.059  10.829 -0.1926 -0.0794 -0.0071
 2953SOL    HW120321   3.697   0.134  10.837  0.5689 -0.7690  0.8529
 2953SOL    HW220322   3.610   0.050  10.921 -1.6314  2.6509 -0.1450
 2954SOL     OW20323   3.668   2.891   3.981 -0.1257  0.1105 -0.9220
 2954SOL    HW120324   3.730   2.922   3.915  1.5790  1.3130  1.2385
 2954SOL    HW220325   3.675   2.802   3.945  1.1648  1.0282 -2.9562
 2955SOL     OW20326   2.202   1.772  16.990  0.2258  0.7193 -0.5218
 2955SOL    HW120327   2.158   1.856  16.974  1.3351  1.3938  0.0276
 2955SOL    HW220328   2.240   1.777  17.077 -0.9751  0.8876 -0.0052
 2956SOL     OW20329   3.168   1.407   8.196 -0.0565 -0.4543 -0.9831
 2956SOL    HW120330   3.168   1.428   8.289 -0.9203 -2.0460 -0.6226
 2956SOL    HW220331   3.086   1.358   8.192 -0.1281 -0.3937 -0.2331
 2957SOL     OW20332   2.691   3.583   5.842  0.1151  0.3285  0.2170
 2957SOL    HW120333   2.644   3.587   5.758 -0.9903  0.4575  0.8323
 2957SOL    HW220334   2.751   3.514   5.817 -2.9685 -1.6141 -1.9018
 2958SOL     OW20335   1.628   3.995  17.574  0.3136 -0.4710 -0.5405
 2958SOL    HW120336   1.576   3.923  17.609  1.9576 -1.0480  0.6947
 2958SOL    HW220337   1.595   3.998  17.484  3.3322  1.4307 -1.6299
 2959SOL     OW20338   4.285   3.188  16.025  0.4163  0.3618 -1.2243
 2959SOL    HW120339   4.190   3.203  16.029  0.3594 -0.6177  1.0012
 2959SOL    HW220340   4.312   3.236  16.103 -0.2559 -0.1107 -0.7009
 2960SOL     OW20341   3.160   3.489   9.377 -0.0894 -0.5693 -0.4639
 2960SOL    HW120342   3.151   3.540   9.297 -1.1713 -0.0225  0.0122
 2960SOL    HW220343   3.094   3.537   9.426  1.3665 -0.2321  1.1723
 2961SOL     OW20344   3.787   1.876   7.131 -0.2293 -0.3370  0.2328
 2961SOL    HW120345   3.787   1.960   7.178  0.1525 -0.4423  0.4180
 2961SOL    HW220346   3.870   1.835   7.155 -0.8606 -2.2164 -0.8047
 2962SOL     OW20347   2.132   3.796  10.614  0.2597  0.5398 -0.2729
 2962SOL    HW120348   2.039   3.792  10.636  0.2765  1.4283 -0.0346
 2962SOL    HW220349   2.133   3.859  10.543  0.8882 -0.0549 -0.7945
 2963SOL     OW20350   1.709   2.844  17.031  0.2709 -0.0965  0.0029
 2963SOL    HW120351   1.659   2.851  17.113  0.0495 -1.1103 -0.0388
 2963SOL    HW220352   1.651   2.783  16.985  0.7901  0.0071 -0.7828
 2964SOL     OW20353   2.731   1.626   7.073 -0.0028 -0.1794 -0.4121
 2964SOL    HW120354   2.735   1.532   7.085 -1.1832 -0.2629 -0.7144
 2964SOL    HW220355   2.730   1.629   6.977 -0.8921  1.6428 -0.3504
 2965SOL     OW20356   1.339   2.017  16.915 -0.1916  0.0954  0.4870
 2965SOL    HW120357   1.285   2.042  16.840 -0.2913 -1.3326  0.0792
 2965SOL    HW220358   1.311   1.925  16.922 -0.9714  0.2312 -0.9126
 2966SOL     OW20359   3.991   3.453   3.782 -0.7515  0.0576  0.0377
 2966SOL    HW120360   4.042   3.525   3.746 -3.1130  0.7170 -2.0186
 2966SOL    HW220361   4.041   3.380   3.744 -0.5921  0.5292 -0.6627
 2967SOL     OW20362   2.859   1.626   0.244  0.6141  0.1868 -0.2524
 2967SOL    HW120363   2.777   1.659   0.280  0.4391 -0.6680  0.1314
 2967SOL    HW220364   2.848   1.532   0.258  0.6876  0.4944  1.9050
 2968SOL     OW20365   2.273   3.006  16.837  0.1080 -0.6486 -0.3890
 2968SOL    HW120366   2.201   3.068  16.846  0.0863 -1.0538  2.3736
 2968SOL    HW220367   2.305   3.007  16.928  0.3871 -1.5187 -0.4796
 2969SOL     OW20368   2.041   4.484   7.035 -0.1393  0.7535 -0.0047
 2969SOL    HW120369   2.017   4.538   6.960  2.6164  2.1321  0.0755
 2969SOL    HW220370   1.991   4.403   7.022 -1.1956  1.3660  0.2896
 2970SOL     OW20371   1.220   2.000   0.681  0.6488 -0.0086 -0.0404
 2970SOL    HW120372   1.168   1.926   0.710 -0.0813  0.0675 -1.1310
 2970SOL    HW220373   1.302   1.991   0.730  0.7881 -0.2310 -0.3125
 2971SOL     OW20374   2.686   0.076   8.831  0.1912 -0.2105  0.3898
 2971SOL    HW120375   2.647   0.044   8.912  1.4198 -1.9834  0.2923
 2971SOL    HW220376   2.750   0.005   8.821  2.8828  2.3682 -0.7419
 2972SOL     OW20377   2.509   1.545  14.615  0.2425  0.2860 -0.2926
 2972SOL    HW120378   2.582   1.556  14.554  0.0419 -1.2644 -0.8233
 2972SOL    HW220379   2.485   1.457  14.584  0.4468  0.0271  0.2909
 2973SOL     OW20380   2.862   4.422  16.708  0.4617 -0.3611 -0.1882
 2973SOL    HW120381   2.881   4.450  16.798  0.0627  1.7196 -0.7577
 2973SOL    HW220382   2.950   4.396  16.681 -0.5787 -1.6928 -2.2269
 2974SOL     OW20383   4.174   3.793  10.419  0.0008 -0.0722  0.5971
 2974SOL    HW120384   4.162   3.846  10.498 -3.4260 -2.0923  1.4606
 2974SOL    HW220385   4.213   3.712  10.452  1.3822  0.2923 -0.1441
 2975SOL     OW20386   4.502   0.731   9.327 -0.0018 -0.3297 -0.0763
 2975SOL    HW120387   4.480   0.678   9.404 -2.2020  0.9190  0.1358
 2975SOL    HW220388   4.508   0.817   9.368  3.1796 -0.5274 -0.0511
 2976SOL     OW20389   0.535   1.663  11.376  0.1420  0.2310  0.0877
 2976SOL    HW120390   0.479   1.619  11.312 -0.4453  1.1731 -0.0465
 2976SOL    HW220391   0.624   1.635  11.355 -0.1398 -1.0029  0.4921
 2977SOL     OW20392   1.275   0.846   5.881 -0.4681 -0.3066  0.6613
 2977SOL    HW120393   1.183   0.872   5.888 -0.3198  0.7025 -1.0156
 2977SOL    HW220394   1.267   0.762   5.926  0.6043 -0.6795  0.1723
 2978SOL     OW20395   2.049   4.076   9.824 -0.4272 -0.2155  0.3698
 2978SOL    HW120396   2.100   4.077   9.743 -0.8928 -2.0535  0.0443
 2978SOL    HW220397   1.961   4.075   9.787  0.5527  2.1141 -1.9880
 2979SOL     OW20398   0.136   4.522  13.893 -0.3758 -0.1751  0.0126
 2979SOL    HW120399   0.135   4.428  13.876 -3.1311 -0.2890  0.8848
 2979SOL    HW220400   0.188   4.529  13.973  0.0536 -2.2353 -0.0993
 2980SOL     OW20401   1.888   4.493   8.923 -0.0697  0.4882  0.1393
 2980SOL    HW120402   1.942   4.425   8.964  0.7501 -0.3855 -2.3466
 2980SOL    HW220403   1.801   4.461   8.945 -0.0166 -2.1195 -3.2727
 2981SOL     OW20404   1.212   3.741  14.334 -0.1423  0.4480 -0.0143
 2981SOL    HW120405   1.268   3.739  14.257 -0.6664 -1.0727 -0.3459
 2981SOL    HW220406   1.220   3.833  14.362  0.8844  0.7325 -1.2238
 2982SOL     OW20407   0.992   0.880  12.142 -0.2024 -0.2014  0.0908
 2982SOL    HW120408   0.957   0.842  12.223 -1.2999  1.0005  0.1761
 2982SOL    HW220409   0.993   0.972  12.168  1.0351 -0.7947  2.1246
 2983SOL     OW20410   4.378   3.745   2.105  0.2054 -0.2356 -0.2707
 2983SOL    HW120411   4.364   3.748   2.010  2.1382 -0.4290 -0.5694
 2983SOL    HW220412   4.400   3.837   2.116 -1.3166  0.1588 -0.5020
 2984SOL     OW20413   1.737   3.423   5.399  0.4246  0.0086 -0.1842
 2984SOL    HW120414   1.746   3.341   5.351 -0.9989 -0.2667  0.0191
 2984SOL    HW220415   1.688   3.395   5.476  0.1182  1.1120  0.0237
 2985SOL     OW20416   4.130   1.877  12.943  0.1744 -0.5795  0.0443
 2985SOL    HW120417   4.202   1.918  12.895  0.1539  1.5155  1.7876
 2985SOL    HW220418   4.088   1.960  12.967  0.6554  0.0058 -1.1365
 2986SOL     OW20419   2.202   2.240   7.687  0.2238 -0.3256  0.0443
 2986SOL    HW120420   2.253   2.227   7.608  1.9372  0.4154  1.0369
 2986SOL    HW220421   2.246   2.311   7.734  1.6267 -0.3866 -1.1900
 2987SOL     OW20422   1.637   3.050   2.403 -0.4238 -0.0916  0.5629
 2987SOL    HW120423   1.553   3.050   2.356  0.1557  0.6136 -0.4585
 2987SOL    HW220424   1.605   3.073   2.490  1.0465 -0.5246  1.2128
 2988SOL     OW20425   4.044   2.803   8.518 -0.2776 -0.4893 -0.1953
 2988SOL    HW120426   3.964   2.816   8.467 -0.4010 -0.1707  0.0788
 2988SOL    HW220427   4.099   2.821   8.442  0.6071  1.3453  0.8848
 2989SOL     OW20428   0.906   2.402   4.020  0.1262 -0.3337  0.5301
 2989SOL    HW120429   0.898   2.413   3.925 -0.9539  1.2101  0.7960
 2989SOL    HW220430   0.835   2.453   4.059 -1.0648 -0.8040 -1.0461
 2990SOL     OW20431   1.163   2.755   9.877 -0.6239  0.4960 -0.0495
 2990SOL    HW120432   1.192   2.696   9.947 -2.8257  0.8230  1.1296
 2990SOL    HW220433   1.092   2.707   9.835 -0.0481 -1.8072  1.6045
 2991SOL     OW20434   3.835   4.181   7.082  0.1513  0.8799 -0.9442
 2991SOL    HW120435   3.770   4.172   7.152  0.0278 -0.9293 -1.2769
 2991SOL    HW220436   3.824   4.094   7.043 -0.0588 -0.4218  2.0242
 2992SOL     OW20437   1.140   3.420   5.779  0.2714 -0.0650 -0.4723
 2992SOL    HW120438   1.194   3.454   5.707 -1.8485 -0.9668 -2.4772
 2992SOL    HW220439   1.060   3.471   5.767  1.7297  2.6674  1.4260
 2993SOL     OW20440   2.747   0.142   2.489  0.0790 -0.3568 -0.0394
 2993SOL    HW120441   2.808   0.133   2.562 -0.5533  0.3724  0.5801
 2993SOL    HW220442   2.794   0.167   2.410  1.1091  3.5797  1.8181
 2994SOL     OW20443   4.673   2.086   8.625 -0.0515  0.6145  0.2432
 2994SOL    HW120444   4.675   2.176   8.594 -1.3020  0.3870 -0.5037
 2994SOL    HW220445   4.581   2.059   8.626  0.8705 -2.5203  0.6751
 2995SOL     OW20446   4.492   3.750   3.600 -0.2076  0.0142  0.0576
 2995SOL    HW120447   4.535   3.767   3.517 -0.3339 -0.2021 -0.0507
 2995SOL    HW220448   4.437   3.829   3.605  0.1743  0.2491  0.4967
 2996SOL     OW20449   3.677   0.546   2.223  0.4604  0.5588  0.3217
 2996SOL    HW120450   3.695   0.624   2.170 -0.4955 -0.3193 -1.2892
 2996SOL    HW220451   3.763   0.541   2.265  0.4394 -0.7113  0.1928
 2997SOL     OW20452   0.993   4.456   8.438 -0.3002  0.1236 -0.9663
 2997SOL    HW120453   1.004   4.376   8.385  1.4665  0.4351 -1.0826
 2997SOL    HW220454   0.945   4.421   8.513  2.3947  0.7062  1.0101
 2998SOL     OW20455   3.053   3.763   7.960 -0.0466  0.1434 -0.7578
 2998SOL    HW120456   3.060   3.669   7.977 -0.7765  0.2877  0.3747
 2998SOL    HW220457   3.116   3.791   7.894  0.2503 -0.1060 -0.5751
 2999SOL     OW20458   2.305   3.185   8.208 -0.1129  1.1126  0.5423
 2999SOL    HW120459   2.333   3.259   8.153  0.2124  0.9763  0.5233
 2999SOL    HW220460   2.300   3.127   8.132 -0.7325 -0.9676  2.2007
 3000SOL     OW20461   3.893   0.611   3.954  0.0405 -0.6544 -0.8250
 3000SOL    HW120462   3.872   0.601   4.046  1.3025 -0.1689 -0.4921
 3000SOL    HW220463   3.981   0.574   3.957  0.4003 -0.0143 -3.1060
 3001SOL     OW20464   3.395   1.597   7.131  0.0766  0.1775 -0.1736
 3001SOL    HW120465   3.449   1.668   7.166  1.5325 -2.5891  3.1146
 3001SOL    HW220466   3.461   1.529   7.117  0.6267  0.4883  0.9816
 3002SOL     OW20467   4.640   3.568   8.805 -0.3234 -0.4387 -0.0639
 3002SOL    HW120468   4.670   3.489   8.850  0.9372  0.0106 -0.1091
 3002SOL    HW220469   4.588   3.605   8.876 -2.9877 -0.1225 -2.1804
 3003SOL     OW20470   1.021   3.327   4.512  0.3252 -0.1458 -0.2804
 3003SOL    HW120471   0.965   3.296   4.441 -0.8502  0.1720  0.5118
 3003SOL    HW220472   1.069   3.248   4.536 -1.3207 -0.3645  2.2672
 3004SOL     OW20473   1.576   4.351  14.093  0.0921 -0.4741 -0.0795
 3004SOL    HW120474   1.588   4.359  13.998  1.8915  0.3584  0.2117
 3004SOL    HW220475   1.658   4.308  14.118  1.0026  1.6419  0.6519
 3005SOL     OW20476   3.087   0.217   5.406  0.1796 -0.1729  0.0562
 3005SOL    HW120477   3.025   0.170   5.350 -1.3010  1.8118  0.0225
 3005SOL    HW220478   3.106   0.156   5.477  0.8785  0.6227  0.5588
 3006SOL     OW20479   1.983   2.632   2.076 -0.2857 -0.9120  0.0253
 3006SOL    HW120480   2.054   2.650   2.015  0.8088 -1.9309  0.9978
 3006SOL    HW220481   1.929   2.711   2.068 -0.2801 -0.7250  1.8763
 3007SOL     OW20482   2.695   4.154   6.719  0.3952  0.4119 -0.3085
 3007SOL    HW120483   2.629   4.106   6.670 -0.3033  0.6574  0.3982
 3007SOL    HW220484   2.694   4.235   6.667 -3.4485  0.0589 -0.7210
 3008SOL     OW20485   4.014   4.340   0.440 -0.1687  0.5746  0.1833
 3008SOL    HW120486   4.066   4.417   0.461  1.0215  0.5443 -2.5924
 3008SOL    HW220487   4.050   4.268   0.492  0.9125  0.6911 -0.4026
 3009SOL     OW20488   2.809   2.503   0.694 -0.1936  0.3419  0.3254
 3009SOL    HW120489   2.854   2.419   0.704  1.6197  1.0701 -1.7295
 3009SOL    HW220490   2.715   2.481   0.696 -0.3879  0.8782 -2.2292
 3010SOL     OW20491   0.104   3.781   4.245 -0.1064 -0.1185  0.0312
 3010SOL    HW120492   0.079   3.721   4.175  1.2988 -0.0043 -0.5809
 3010SOL    HW220493   0.090   3.731   4.325 -2.2755 -2.1494 -1.6297
 3011SOL     OW20494   4.006   1.830   3.095  0.3194 -0.2458  0.6242
 3011SOL    HW120495   4.011   1.767   3.022 -0.7767  0.1670  0.1933
 3011SOL    HW220496   3.936   1.787   3.145 -1.7919  0.7450 -1.4511
 3012SOL     OW20497   1.047   3.637   5.267  0.1098  0.1599  0.1666
 3012SOL    HW120498   0.963   3.591   5.264  0.0488  0.2881 -0.0519
 3012SOL    HW220499   1.102   3.588   5.206 -2.0360  0.3518 -1.9133
 3013SOL     OW20500   3.555   1.163   4.582 -0.3181  0.0851  0.5175
 3013SOL    HW120501   3.650   1.170   4.567 -0.3668  1.9001  1.0783
 3013SOL    HW220502   3.536   1.076   4.547  0.5087 -0.2313  0.8687
 3014SOL     OW20503   4.199   2.745   0.721 -0.0790 -0.8645  0.4962
 3014SOL    HW120504   4.239   2.763   0.807 -0.0912 -1.9095  0.7255
 3014SOL    HW220505   4.273   2.716   0.668  0.5232  0.4400  0.6302
 3015SOL     OW20506   2.163   1.783   6.080 -0.0538  0.2597  0.4435
 3015SOL    HW120507   2.195   1.779   6.171 -2.6079  1.5498  1.3882
 3015SOL    HW220508   2.172   1.877   6.061 -0.8220  0.6215  1.8303
 3016SOL     OW20509   3.469   3.809   0.442  0.4359  0.5805  0.1663
 3016SOL    HW120510   3.394   3.835   0.388  1.0738 -1.4797 -1.6822
 3016SOL    HW220511   3.449   3.716   0.431 -1.5557  1.0449 -0.2752
 3017SOL     OW20512   3.391   3.796   6.558 -0.2533 -0.4840 -0.7501
 3017SOL    HW120513   3.320   3.833   6.610 -0.1669 -1.9651  0.4094
 3017SOL    HW220514   3.349   3.737   6.496  0.5384  1.0485 -2.7673
 3018SOL     OW20515   3.120   0.313   7.360  0.5114 -0.8217 -0.4803
 3018SOL    HW120516   3.187   0.260   7.404 -1.1054 -1.3300  1.3262
 3018SOL    HW220517   3.137   0.308   7.266  0.9477 -0.8604 -0.4017
 3019SOL     OW20518   0.299   3.219   0.573 -0.8624 -0.0157  0.3839
 3019SOL    HW120519   0.284   3.146   0.633 -0.0240 -0.6077 -0.1057
 3019SOL    HW220520   0.324   3.294   0.626 -0.1147 -0.7677  1.1013
 3020SOL     OW20521   0.733   0.869   2.464  0.2581  0.6523  0.2825
 3020SOL    HW120522   0.648   0.839   2.434  0.6990  1.7448 -2.0039
 3020SOL    HW220523   0.770   0.922   2.394 -0.9968 -1.6283 -2.0956
 3021SOL     OW20524   4.706   4.510   6.422 -0.6501  0.2740 -0.3243
 3021SOL    HW120525   0.056   4.446   6.426 -1.1394 -0.0393  4.4313
 3021SOL    HW220526   4.715   4.557   6.339 -0.2517  0.2941 -0.2671
 3022SOL     OW20527   1.129   0.899   4.599 -0.0870 -0.2531  0.6991
 3022SOL    HW120528   1.129   0.932   4.689  0.2079 -0.2032  0.6812
 3022SOL    HW220529   1.039   0.914   4.572  0.9508 -2.2670 -3.9295
 3023SOL     OW20530   3.388   4.311   3.727 -0.3126  0.2661  0.3085
 3023SOL    HW120531   3.299   4.279   3.739 -0.9074  1.9857  0.3730
 3023SOL    HW220532   3.390   4.292   3.633 -0.7822  1.7691  0.0009
 3024SOL     OW20533   3.367   4.185   4.711 -0.2801  0.4175 -0.2226
 3024SOL    HW120534   3.300   4.225   4.767 -1.0793 -4.4709  2.2393
 3024SOL    HW220535   3.372   4.099   4.751  0.1606  0.3379 -0.4470
 3025SOL     OW20536   1.355   1.971   6.057 -0.5189  0.6974 -0.0293
 3025SOL    HW120537   1.339   2.028   6.132 -0.9176 -1.0254  1.1979
 3025SOL    HW220538   1.450   1.984   6.062  0.1379 -3.7301 -1.3430
 3026SOL     OW20539   2.521   1.403   0.900 -0.0736  0.5541 -0.0191
 3026SOL    HW120540   2.467   1.382   0.823 -4.8019 -0.4045  3.5735
 3026SOL    HW220541   2.606   1.392   0.857 -0.0082  1.7489 -0.1756
 3027SOL     OW20542   0.549   0.563   2.674 -0.5793 -0.0735  0.1149
 3027SOL    HW120543   0.469   0.516   2.700 -1.6220  1.2445 -0.7385
 3027SOL    HW220544   0.504   0.632   2.627 -1.5135 -1.2299 -0.6962
 3028SOL     OW20545   1.769   3.573   3.163 -0.4104  0.0350  0.4311
 3028SOL    HW120546   1.796   3.504   3.223  0.5408 -0.9700 -1.1366
 3028SOL    HW220547   1.793   3.530   3.081  1.3022  1.5687  0.1411
 3029SOL     OW20548   0.516   4.314   3.426 -0.0979  0.8522 -0.3257
 3029SOL    HW120549   0.574   4.375   3.382  1.3159 -0.2209  0.0560
 3029SOL    HW220550   0.586   4.272   3.476 -0.7065 -1.1488 -1.1473
 3030SOL     OW20551   4.542   3.119  11.110  0.3655  0.8482 -0.0878
 3030SOL    HW120552   4.494   3.037  11.096  1.0409  0.6981 -1.4787
 3030SOL    HW220553   4.573   3.113  11.201 -0.2806  2.3208  0.2383
 3031SOL     OW20554   2.685   2.352   3.477 -0.2995 -0.0326 -0.0336
 3031SOL    HW120555   2.728   2.326   3.559  1.6729 -0.8160 -1.3252
 3031SOL    HW220556   2.759   2.357   3.416  0.5413 -1.2846  0.8806
 3032SOL     OW20557   4.543   4.579   8.445 -0.0819 -0.3179 -0.0873
 3032SOL    HW120558   4.585   4.558   8.362  0.1543 -3.1939  0.7316
 3032SOL    HW220559   4.469   4.517   8.439 -1.3383  0.5198  5.9171
 3033SOL     OW20560   0.839   1.889  14.135 -0.1332  0.4992 -0.2538
 3033SOL    HW120561   0.765   1.869  14.077 -0.4067  0.3428  0.1445
 3033SOL    HW220562   0.793   1.867  14.217 -0.5806  1.4546 -0.2505
 3034SOL     OW20563   3.114   0.643  11.765  0.7984 -0.0751 -0.1124
 3034SOL    HW120564   3.183   0.577  11.766 -0.9909 -1.9413  2.1205
 3034SOL    HW220565   3.165   0.720  11.789  0.2946 -0.5077  2.3917
 3035SOL     OW20566   3.897   2.789   7.830 -0.3475 -0.0505 -0.8626
 3035SOL    HW120567   3.814   2.742   7.837  1.6677 -3.4806 -0.4366
 3035SOL    HW220568   3.898   2.804   7.735 -1.9966  1.0776 -0.7034
 3036SOL     OW20569   1.807   0.706   8.524  0.2833  0.6676 -0.2668
 3036SOL    HW120570   1.737   0.677   8.466 -2.0545  6.1241 -0.1167
 3036SOL    HW220571   1.771   0.732   8.609  0.1299 -0.5285  0.0314
 3037SOL     OW20572   1.346   4.362   3.372 -0.1372 -0.6806 -0.5053
 3037SOL    HW120573   1.341   4.430   3.305 -0.9447 -0.3916 -0.1594
 3037SOL    HW220574   1.289   4.292   3.340  0.1824 -1.3138  0.3203
 3038SOL     OW20575   3.618   3.299  13.518 -0.0371  0.0195  0.1468
 3038SOL    HW120576   3.635   3.329  13.607  0.0611  0.6063 -0.0702
 3038SOL    HW220577   3.709   3.302  13.490  0.2068  0.2446  0.9673
 3039SOL     OW20578   3.854   0.818   2.309  0.2495  0.1691 -0.4264
 3039SOL    HW120579   3.907   0.897   2.309 -2.5111  1.9974  1.7736
 3039SOL    HW220580   3.768   0.851   2.282  1.1961 -0.0554 -3.8056
 3040SOL     OW20581   3.709   0.057   8.272 -0.1871 -0.6366  0.8283
 3040SOL    HW120582   3.639   0.071   8.209  1.8426  0.7114 -1.1426
 3040SOL    HW220583   3.783   0.092   8.222 -1.3339  0.3229 -0.2032
 3041SOL     OW20584   1.720   2.628  15.310  0.5663 -0.0300  0.0847
 3041SOL    HW120585   1.673   2.551  15.341  0.9460  0.3888  1.7316
 3041SOL    HW220586   1.699   2.633  15.217  0.2229  2.0751  0.2694
 3042SOL     OW20587   4.458   2.455   4.826 -0.8711 -0.1629  0.0081
 3042SOL    HW120588   4.507   2.376   4.803 -0.6649 -0.1449  0.3959
 3042SOL    HW220589   4.431   2.495   4.743 -1.5488  1.0763  0.8154
 3043SOL     OW20590   1.029   2.783  14.055 -0.4723 -0.1194  0.1550
 3043SOL    HW120591   0.996   2.705  14.011  2.1491 -1.2817  0.2721
 3043SOL    HW220592   1.055   2.751  14.142 -0.1452 -0.7598 -0.1816
 3044SOL     OW20593   1.464   1.724   8.494 -0.2918 -0.2126  0.6937
 3044SOL    HW120594   1.490   1.814   8.476  2.4959 -1.5806 -2.2364
 3044SOL    HW220595   1.430   1.708   8.406  3.6155  1.3672 -1.0929
 3045SOL     OW20596   2.235   2.347   4.523 -0.2806  0.0927  0.3117
 3045SOL    HW120597   2.312   2.405   4.529 -0.1885  0.2329 -2.6021
 3045SOL    HW220598   2.168   2.399   4.567  0.2936 -1.1463  2.7029
 3046SOL     OW20599   2.407   1.663   4.406  0.0006 -0.0483  0.5590
 3046SOL    HW120600   2.499   1.680   4.425 -0.1279  0.7972  0.4604
 3046SOL    HW220601   2.407   1.605   4.331 -0.2487 -0.7850  1.1323
 3047SOL     OW20602   1.572   2.916   3.061 -0.3898 -0.1016 -0.4102
 3047SOL    HW120603   1.603   2.912   3.151  0.6211  0.2639 -0.7459
 3047SOL    HW220604   1.622   2.987   3.019 -0.8986  0.6807  0.2970
 3048SOL     OW20605   4.490   4.128   9.829  0.3181  0.2788 -0.4873
 3048SOL    HW120606   4.484   4.223   9.818 -2.9749  0.0093 -0.9790
 3048SOL    HW220607   4.506   4.121   9.923 -1.1663  1.1305 -0.1639
 3049SOL     OW20608   2.061   2.949  11.315  0.1130  0.2522 -0.6622
 3049SOL    HW120609   2.120   2.990  11.252  2.4522 -1.2806  0.5688
 3049SOL    HW220610   2.083   2.856  11.310 -3.4339 -0.5962 -0.6613
 3050SOL     OW20611   4.194   3.775   3.283  0.4354  0.4129  0.1292
 3050SOL    HW120612   4.266   3.717   3.262  0.4194  0.5526 -0.2973
 3050SOL    HW220613   4.182   3.745   3.373  1.2307 -0.9606 -0.2289
 3051SOL     OW20614   1.685   0.199   8.821  0.3564  0.2564  0.6288
 3051SOL    HW120615   1.701   0.196   8.916 -1.9924 -1.4794  0.9598
 3051SOL    HW220616   1.692   0.293   8.803  1.4458  0.1219  0.3397
 3052SOL     OW20617   2.246   0.800   6.480  0.2888  0.2473  0.4725
 3052SOL    HW120618   2.340   0.796   6.462  0.3634 -3.3261  1.7524
 3052SOL    HW220619   2.246   0.824   6.573  0.0967  2.1336 -0.0023
 3053SOL     OW20620   1.936   1.471   3.211 -0.2254  0.0093 -0.2651
 3053SOL    HW120621   1.844   1.488   3.231  0.4195  0.5429  2.2510
 3053SOL    HW220622   1.960   1.521   3.133 -1.0698  1.4253  0.3912
 3054SOL     OW20623   4.313   1.952   2.198 -0.6178  0.2724 -0.1060
 3054SOL    HW120624   4.228   1.988   2.225 -1.0409 -0.6609 -0.2195
 3054SOL    HW220625   4.288   1.861   2.187 -0.4478  0.2599 -0.3898
 3055SOL     OW20626   0.754   4.177   4.076  0.4333  0.0604  0.1784
 3055SOL    HW120627   0.742   4.264   4.116 -1.6387  0.4117 -1.1746
 3055SOL    HW220628   0.680   4.130   4.114  0.6803  0.0862  0.6876
 3056SOL     OW20629   1.686   1.274   6.982 -0.2897 -0.4902 -0.0734
 3056SOL    HW120630   1.697   1.317   6.897  0.5500 -1.7162 -0.5892
 3056SOL    HW220631   1.691   1.352   7.037  1.2632  2.3469 -4.1862
 3057SOL     OW20632   0.986   0.964   3.695 -0.5119  0.4256 -0.6150
 3057SOL    HW120633   0.943   0.933   3.775  0.3939  1.7482  0.3774
 3057SOL    HW220634   1.075   0.934   3.717  0.2975  0.9053 -3.2335
 3058SOL     OW20635   1.383   0.749   3.096 -0.0435 -0.0859 -0.3530
 3058SOL    HW120636   1.322   0.774   3.166  0.3310 -2.6083  0.8872
 3058SOL    HW220637   1.439   0.681   3.135  1.6676  1.3774 -0.2798
 3059SOL     OW20638   3.641   0.771  10.951 -0.0054  0.2692 -0.4438
 3059SOL    HW120639   3.570   0.720  10.913 -1.5295  0.8494  1.5857
 3059SOL    HW220640   3.698   0.763  10.875  2.5903 -1.1878  1.6844
 3060SOL     OW20641   2.039   4.321   0.167  0.0954  0.3743 -0.3587
 3060SOL    HW120642   1.966   4.374   0.134  0.2108  0.0146 -1.1926
 3060SOL    HW220643   2.113   4.375   0.138 -0.0061 -0.0689 -1.4724
 3061SOL     OW20644   2.511   4.199   9.092 -0.1580  0.2446  0.5010
 3061SOL    HW120645   2.599   4.200   9.128  0.1071  2.2023 -0.2231
 3061SOL    HW220646   2.510   4.290   9.063 -0.7204 -0.6238 -2.2510
 3062SOL     OW20647   4.234   4.558   4.473  0.4020 -0.2113  0.1898
 3062SOL    HW120648   4.224   4.520   4.386 -2.1680 -0.1758  0.4814
 3062SOL    HW220649   4.264   4.488   4.531 -0.5219 -0.9614 -0.2504
 3063SOL     OW20650   1.864   3.155   6.894 -0.7052  0.5963  0.8002
 3063SOL    HW120651   1.871   3.176   6.801  2.4423 -1.9973  0.4483
 3063SOL    HW220652   1.789   3.095   6.902 -0.6217 -0.0216 -3.0579
 3064SOL     OW20653   0.938   1.858   5.293  0.0241  0.2437 -0.0689
 3064SOL    HW120654   0.968   1.832   5.380 -2.5578  2.3345  1.4541
 3064SOL    HW220655   1.018   1.896   5.257 -1.6499  4.6019  0.7691
 3065SOL     OW20656   4.634   2.259   5.086 -0.2243  0.5406  0.2747
 3065SOL    HW120657   4.710   2.219   5.044  0.0018  0.4703  0.7551
 3065SOL    HW220658   4.560   2.213   5.048 -1.4046  1.7633  1.0892
 3066SOL     OW20659   2.477   1.470   8.478  0.5106 -0.2186  0.1410
 3066SOL    HW120660   2.565   1.445   8.449  1.0982  0.7624  1.0748
 3066SOL    HW220661   2.467   1.444   8.569  2.5682  0.3799  0.5387
 3067SOL     OW20662   0.748   0.854   6.126  0.0744  0.1561 -0.4937
 3067SOL    HW120663   0.833   0.848   6.169  0.3651  1.6659 -0.8440
 3067SOL    HW220664   0.684   0.855   6.196  0.0132 -0.0166 -0.5483
 3068SOL     OW20665   2.696   1.415  13.847 -0.0828  0.3446  0.1473
 3068SOL    HW120666   2.627   1.452  13.792  0.5567 -0.9968 -1.5574
 3068SOL    HW220667   2.771   1.443  13.794  0.8183 -1.9423  0.2209
 3069SOL     OW20668   1.264   0.687   1.967  0.5303 -0.0042  0.4794
 3069SOL    HW120669   1.181   0.676   2.013  0.3753 -1.6963 -0.1889
 3069SOL    HW220670   1.253   0.777   1.937 -1.5475  0.0595  1.4357
 3070SOL     OW20671   1.907   2.588   5.633  0.3128 -0.0706  0.2704
 3070SOL    HW120672   1.852   2.587   5.711 -1.3021 -1.6781 -0.8820
 3070SOL    HW220673   1.847   2.567   5.561 -0.7790  0.7459  0.9496
 3071SOL     OW20674   3.825   1.702  14.493  0.1341  0.2902 -0.0024
 3071SOL    HW120675   3.841   1.699  14.399 -3.2319 -0.8523 -0.5520
 3071SOL    HW220676   3.815   1.796  14.503 -0.5120  0.1945  0.2406
 3072SOL     OW20677   4.021   1.652   3.482 -0.5102  0.2742 -0.3014
 3072SOL    HW120678   3.982   1.646   3.569 -1.6570  0.5311 -0.8028
 3072SOL    HW220679   4.100   1.701   3.503  1.1820 -2.2811 -0.5949
 3073SOL     OW20680   1.831   3.467   5.060 -0.4889  0.8522  0.1479
 3073SOL    HW120681   1.875   3.481   4.976 -0.0972 -0.2607  0.1639
 3073SOL    HW220682   1.842   3.372   5.070 -2.4939  0.1436 -3.9609
 3074SOL     OW20683   1.797   4.273   8.628 -0.5033 -0.3501 -0.2677
 3074SOL    HW120684   1.875   4.327   8.642  0.0500 -1.0057 -0.8363
 3074SOL    HW220685   1.831   4.191   8.592 -1.0531 -0.6033 -0.2100
 3075SOL     OW20686   0.924   2.178   6.590 -0.5346  0.2514  0.9351
 3075SOL    HW120687   0.988   2.234   6.635 -1.1451 -0.7604  3.0691
 3075SOL    HW220688   0.854   2.243   6.585  0.0643  0.8575  0.2102
 3076SOL     OW20689   3.686   1.348   1.726 -0.5465 -0.0318  0.1136
 3076SOL    HW120690   3.716   1.286   1.660  5.3456  1.7683  1.0272
 3076SOL    HW220691   3.763   1.405   1.717  0.7960 -1.5610  1.6812
 3077SOL     OW20692   4.645   2.441   4.124 -0.4517  0.3695 -0.3600
 3077SOL    HW120693   4.569   2.487   4.161  1.0813  1.4764  1.4555
 3077SOL    HW220694   4.592   2.383   4.070 -0.6956 -0.6785  1.0004
 3078SOL     OW20695   0.517   2.611   3.441  0.6046  0.0700  0.2668
 3078SOL    HW120696   0.483   2.580   3.357 -0.0948  1.5962 -0.0072
 3078SOL    HW220697   0.567   2.535   3.471  0.3844 -0.8765 -1.7950
 3079SOL     OW20698   4.221   1.280   9.677  0.0057 -0.0067 -0.0598
 3079SOL    HW120699   4.191   1.196   9.712  0.7277 -0.2414 -0.0079
 3079SOL    HW220700   4.314   1.276   9.700  0.1034  0.9546 -0.2895
 3080SOL     OW20701   3.644   0.720   0.550 -0.0550 -0.1852 -0.5727
 3080SOL    HW120702   3.612   0.804   0.520 -1.3509 -1.0299 -1.5390
 3080SOL    HW220703   3.656   0.663   0.474 -1.9527  0.9409 -1.7169
 3081SOL     OW20704   2.892   0.419  11.894  0.0282 -0.2268 -0.1690
 3081SOL    HW120705   2.966   0.471  11.862 -0.0201 -0.9759 -1.5177
 3081SOL    HW220706   2.916   0.401  11.984 -1.5150  1.9849  0.6876
 3082SOL     OW20707   1.583   1.489   6.069 -0.2109 -0.8065  0.1463
 3082SOL    HW120708   1.638   1.495   5.992 -0.1268  1.4236  0.3722
 3082SOL    HW220709   1.506   1.444   6.032 -1.1187  0.5123  0.4181
 3083SOL     OW20710   4.704   2.280  14.122 -0.0831 -0.0260 -0.0919
 3083SOL    HW120711   0.072   2.252  14.143 -0.2363 -1.4764 -1.4108
 3083SOL    HW220712   4.649   2.246  14.193  0.8683  0.1586  0.7286
 3084SOL     OW20713   1.710   0.341  13.360  0.0898  0.5103 -0.3122
 3084SOL    HW120714   1.787   0.391  13.388  0.2365 -1.2676  2.5085
 3084SOL    HW220715   1.743   0.296  13.283 -0.6903 -0.1806 -0.2400
 3085SOL     OW20716   0.905   3.250   0.203 -0.1246  0.0928 -0.3263
 3085SOL    HW120717   0.836   3.215   0.260 -1.1777  0.3529 -1.4464
 3085SOL    HW220718   0.965   3.291   0.265  2.0218 -1.0068 -1.6895
 3086SOL     OW20719   3.707   1.282   5.678  0.1369  0.3549 -0.5210
 3086SOL    HW120720   3.723   1.204   5.731  0.9364  0.0647 -1.1892
 3086SOL    HW220721   3.743   1.252   5.594  0.3790  0.4764 -0.4581
 3087SOL     OW20722   0.458   4.518   6.926  0.2636 -0.7926  1.3421
 3087SOL    HW120723   0.369   4.546   6.909  1.0680 -0.5034 -2.4391
 3087SOL    HW220724   0.509   4.598   6.914 -0.9189 -0.0522  1.3666
 3088SOL     OW20725   3.559   1.845  11.758 -0.0354  0.1577  0.0010
 3088SOL    HW120726   3.565   1.936  11.729  1.2275  0.5783  1.5253
 3088SOL    HW220727   3.469   1.835  11.788  0.4221 -0.6491  1.1111
 3089SOL     OW20728   2.190   4.107  15.677 -0.1074 -0.4095  0.6135
 3089SOL    HW120729   2.211   4.086  15.768 -0.3394 -1.9167  0.3213
 3089SOL    HW220730   2.120   4.170  15.691  1.0860  0.8494  0.9816
 3090SOL     OW20731   2.786   3.008   1.400  0.1125 -0.3407  0.2608
 3090SOL    HW120732   2.849   2.954   1.447  0.2403  0.6313  1.2030
 3090SOL    HW220733   2.714   2.982   1.457 -1.0373  0.5724 -0.7613
 3091SOL     OW20734   3.239   2.262  12.548 -0.6491  0.3815 -0.3231
 3091SOL    HW120735   3.299   2.274  12.474 -0.0261  0.2908  0.1700
 3091SOL    HW220736   3.277   2.316  12.617 -1.5216 -0.7348  1.0211
 3092SOL     OW20737   4.607   1.301   6.347  0.2654 -0.3171 -0.0577
 3092SOL    HW120738   4.690   1.304   6.301  1.0033 -0.4048  1.2752
 3092SOL    HW220739   4.641   1.303   6.436  0.6247  0.9533 -0.2173
 3093SOL     OW20740   2.087   0.578  12.972 -0.1535 -0.5482 -0.0062
 3093SOL    HW120741   2.063   0.492  12.937  1.7116 -0.7786 -0.6974
 3093SOL    HW220742   2.091   0.560  13.066  0.2922  0.9573  0.2688
 3094SOL     OW20743   0.003   1.179   1.693  0.2090 -0.5283 -0.1466
 3094SOL    HW120744   4.681   1.221   1.619  0.0177 -0.1763  0.1672
 3094SOL    HW220745   0.096   1.200   1.681 -0.1341  0.5502 -0.8936
 3095SOL     OW20746   3.124   3.710  12.099  0.1457 -0.1080 -0.1561
 3095SOL    HW120747   3.088   3.760  12.025 -1.2453 -1.7463 -0.5933
 3095SOL    HW220748   3.211   3.693  12.062  0.3152  0.5914 -0.0792
 3096SOL     OW20749   1.126   3.385   1.440  0.1905 -0.2034  0.3172
 3096SOL    HW120750   1.091   3.304   1.403  0.5522  0.4025 -1.3394
 3096SOL    HW220751   1.091   3.384   1.530 -0.5381 -1.9905  0.0062
 3097SOL     OW20752   4.026   3.704   8.051 -0.0206 -0.3527  0.2206
 3097SOL    HW120753   4.100   3.644   8.043  0.4352 -0.0595  2.2396
 3097SOL    HW220754   3.959   3.641   8.025  0.0702 -1.4105  2.5252
 3098SOL     OW20755   1.211   3.186   8.220  0.1139 -0.3786 -0.3065
 3098SOL    HW120756   1.185   3.094   8.217 -2.6173  0.4364 -1.6646
 3098SOL    HW220757   1.199   3.198   8.126 -0.7451 -1.9336 -0.3959
 3099SOL     OW20758   1.590   0.361  17.356 -0.1955  0.1788 -0.0021
 3099SOL    HW120759   1.520   0.418  17.391  1.3332  1.3124  1.2250
 3099SOL    HW220760   1.622   0.348  17.445 -3.2080 -3.9654  0.4655
 3100SOL     OW20761   3.601   3.991   0.556 -0.1513 -0.6634 -0.0526
 3100SOL    HW120762   3.561   3.914   0.516 -0.7574 -0.7886  0.7896
 3100SOL    HW220763   3.689   3.989   0.520 -0.2359  2.2883 -0.4215
 3101SOL     OW20764   4.572   3.313   2.738  0.0687  0.3535  0.6391
 3101SOL    HW120765   4.488   3.276   2.764 -0.7530  0.1384 -2.3294
 3101SOL    HW220766   4.591   3.287   2.647  0.5093 -0.5537  0.9848
 3102SOL     OW20767   1.891   4.151  12.781  0.4986  0.4996 -0.0004
 3102SOL    HW120768   1.898   4.070  12.732 -1.8601 -1.1642  2.4430
 3102SOL    HW220769   1.865   4.208  12.709 -1.3556 -0.3367  0.0262
 3103SOL     OW20770   1.291   0.530  14.138  0.1202  0.3468  0.3457
 3103SOL    HW120771   1.267   0.502  14.226 -1.7325 -0.0013 -0.2562
 3103SOL    HW220772   1.264   0.622  14.137 -1.0820  0.0023  0.3264
 3104SOL     OW20773   2.681   3.451  14.451 -0.4660 -0.0644  0.0163
 3104SOL    HW120774   2.599   3.500  14.455 -1.4132 -1.6431 -0.2476
 3104SOL    HW220775   2.653   3.360  14.462  0.8886 -0.5051 -0.2109
 3105SOL     OW20776   1.028   0.193  15.095  0.1007 -0.1842 -0.4280
 3105SOL    HW120777   1.123   0.189  15.090  0.2125  0.1732  1.3255
 3105SOL    HW220778   1.017   0.163  15.185  0.1637 -2.3753 -1.1487
 3106SOL     OW20779   2.374   0.421  14.479 -0.2015  0.5555 -0.0521
 3106SOL    HW120780   2.318   0.351  14.444 -1.7281  0.6528  2.2039
 3106SOL    HW220781   2.442   0.415  14.412  0.3033  0.5752  0.4676
 3107SOL     OW20782   4.141   2.779   7.577  0.6609 -0.1847 -0.7876
 3107SOL    HW120783   4.184   2.796   7.494  1.4668 -0.6449 -0.4626
 3107SOL    HW220784   4.211   2.810   7.634 -1.0491  2.1244  0.0668
 3108SOL     OW20785   3.489   2.257  12.927 -0.6051  0.4316 -0.8041
 3108SOL    HW120786   3.574   2.296  12.950  0.8628 -2.2204 -1.6442
 3108SOL    HW220787   3.495   2.173  12.973 -2.7329  0.6540 -0.1629
 3109SOL     OW20788   2.825   4.234  12.694 -0.1926 -0.2879 -0.1456
 3109SOL    HW120789   2.822   4.223  12.599 -0.5996 -1.6083  0.0264
 3109SOL    HW220790   2.873   4.157  12.726 -0.3694 -0.4531 -0.2817
 3110SOL     OW20791   0.665   3.667   1.871  0.3680  0.4530 -0.4879
 3110SOL    HW120792   0.683   3.611   1.947  0.8302 -0.9466 -1.6230
 3110SOL    HW220793   0.756   3.663   1.841 -0.4928 -0.1871 -3.0278
 3111SOL     OW20794   1.847   3.525   6.656 -0.6636  0.0870 -0.3393
 3111SOL    HW120795   1.778   3.511   6.721 -0.8044  1.1410 -0.2502
 3111SOL    HW220796   1.901   3.596   6.690  1.1944 -0.8881 -1.2840
 3112SOL     OW20797   2.764   2.088   7.786 -0.1115  0.0782 -0.5693
 3112SOL    HW120798   2.767   2.102   7.691  0.3742  1.1826 -0.3887
 3112SOL    HW220799   2.683   2.135   7.803  1.0328  1.1217  1.9773
 3113SOL     OW20800   3.552   0.047   2.160  0.3735  0.2290  0.2639
 3113SOL    HW120801   3.565   0.142   2.158  1.0414  0.0929 -1.4379
 3113SOL    HW220802   3.569   0.025   2.069 -0.1121  2.4048 -0.3358
 3114SOL     OW20803   1.570   0.511  13.511  0.6547  0.4659  0.2507
 3114SOL    HW120804   1.601   0.447  13.447  1.3865  1.5259 -0.4531
 3114SOL    HW220805   1.508   0.464  13.566  0.9692  0.2847  0.4450
 3115SOL     OW20806   3.918   3.374   4.580 -0.1778  0.1437 -1.0156
 3115SOL    HW120807   3.996   3.424   4.553 -0.3222 -0.6197 -2.8278
 3115SOL    HW220808   3.953   3.320   4.651  0.1507  2.9816  0.9951
 3116SOL     OW20809   2.301   0.107  17.086 -0.0786 -0.3059 -0.2175
 3116SOL    HW120810   2.252   0.180  17.123  0.4312  1.0675 -2.2609
 3116SOL    HW220811   2.368   0.156  17.038 -0.5466 -0.6291 -1.2094
 3117SOL     OW20812   0.020   0.384  10.604 -0.2337  0.0372 -0.0749
 3117SOL    HW120813   4.692   0.450  10.653 -2.2261 -1.1108 -0.5397
 3117SOL    HW220814   0.112   0.407  10.615 -0.5487  0.3558  1.9798
 3118SOL     OW20815   1.378   1.235   9.591  0.4292 -0.5387 -0.4349
 3118SOL    HW120816   1.355   1.278   9.509 -1.1721  0.6863  0.6446
 3118SOL    HW220817   1.382   1.313   9.646  1.0397 -1.6613  1.1329
 3119SOL     OW20818   0.145   4.510   7.439 -0.5880 -0.6447 -1.0178
 3119SOL    HW120819   0.116   4.419   7.443 -1.8216 -0.2706 -1.4147
 3119SOL    HW220820   0.128   4.524   7.346  2.6199 -2.1272 -1.8266
 3120SOL     OW20821   0.214   0.821   3.597 -0.2203  0.0608  0.2852
 3120SOL    HW120822   0.245   0.739   3.635 -0.1964 -0.3833 -0.6949
 3120SOL    HW220823   0.272   0.828   3.520 -2.3009  0.9936 -1.2066
 3121SOL     OW20824   1.388   4.687   9.434  0.3830  0.2410  0.7891
 3121SOL    HW120825   1.314   4.627   9.447  0.5831 -0.4032 -0.9799
 3121SOL    HW220826   1.357   0.006   9.353 -0.0524 -0.0138  0.8261
 3122SOL     OW20827   1.543   3.832   3.931 -0.0227  0.6390 -0.3612
 3122SOL    HW120828   1.608   3.880   3.982 -0.8283  2.1992 -0.8002
 3122SOL    HW220829   1.558   3.870   3.845  1.1731  1.5574  0.2592
 3123SOL     OW20830   1.152   1.497   6.739  0.0047 -0.2426  0.5944
 3123SOL    HW120831   1.091   1.527   6.806 -3.9800 -1.3518 -2.5681
 3123SOL    HW220832   1.238   1.522   6.774  0.0122  0.1716  0.2857
 3124SOL     OW20833   3.155   0.044   5.056  0.2037 -0.3292 -0.1197
 3124SOL    HW120834   3.128   4.695   4.996 -0.4809  1.3664 -1.7784
 3124SOL    HW220835   3.244   0.063   5.026  0.4446 -0.5622  0.4517
 3125SOL     OW20836   3.479   2.486  16.376  0.0412 -0.1429  0.0498
 3125SOL    HW120837   3.502   2.402  16.337 -0.0014 -0.7926  1.4194
 3125SOL    HW220838   3.467   2.530  16.292  1.0323 -0.1498 -0.0951
 3126SOL     OW20839   3.076   3.809   5.391  0.2386  0.2583  0.4780
 3126SOL    HW120840   3.002   3.753   5.366  1.3227 -1.9228  2.1596
 3126SOL    HW220841   3.085   3.868   5.316 -1.8796 -0.5606 -0.4337
 3127SOL     OW20842   3.629   4.358   7.743 -0.0963 -0.0920  0.0691
 3127SOL    HW120843   3.557   4.354   7.681 -0.4731 -1.2770  0.5875
 3127SOL    HW220844   3.671   4.273   7.751 -0.5635 -0.2597  0.6929
 3128SOL     OW20845   2.460   0.376   5.250  0.2469  0.4548  0.6822
 3128SOL    HW120846   2.463   0.352   5.157 -0.3339  1.8892  0.2953
 3128SOL    HW220847   2.503   0.462   5.244  0.0984  0.4750 -0.1835
 3129SOL     OW20848   0.083   1.407  11.492 -0.2984 -0.6625  0.0727
 3129SOL    HW120849   0.009   1.453  11.453  0.2220 -0.0743 -0.2146
 3129SOL    HW220850   0.094   1.326  11.442 -0.4691 -0.0861 -0.8967
 3130SOL     OW20851   2.575   0.206   6.972 -0.0302 -0.2510 -0.5112
 3130SOL    HW120852   2.664   0.233   6.948  0.2165 -0.8928 -0.3215
 3130SOL    HW220853   2.569   0.232   7.064  0.5781  4.1410 -1.6869
 3131SOL     OW20854   4.356   0.287  11.425 -0.0404 -0.1990  0.1252
 3131SOL    HW120855   4.281   0.250  11.378  0.2904  0.2573 -0.7770
 3131SOL    HW220856   4.318   0.277  11.512 -0.0789 -0.3844  0.0873
 3132SOL     OW20857   0.255   0.556   5.913 -0.1078  0.4919 -0.2027
 3132SOL    HW120858   0.262   0.579   6.006  0.7780 -1.3379  0.1954
 3132SOL    HW220859   0.181   0.613   5.893 -0.1738  0.1589 -0.8893
 3133SOL     OW20860   2.783   3.411   7.738  0.6619  0.3896  0.2872
 3133SOL    HW120861   2.812   3.427   7.828  2.4292 -0.6409 -0.0956
 3133SOL    HW220862   2.797   3.318   7.721  1.7107  0.4365  0.8862
 3134SOL     OW20863   4.385   3.128   1.395 -0.6145 -0.4239  0.1835
 3134SOL    HW120864   4.378   3.077   1.475 -1.5538 -0.9996 -0.2725
 3134SOL    HW220865   4.339   3.205   1.429  1.0280  0.1162  1.2239
 3135SOL     OW20866   0.882   4.530   0.015 -0.2074  0.0383 -0.0346
 3135SOL    HW120867   0.788   4.530   0.001 -0.3404  0.4929  0.8631
 3135SOL    HW220868   0.886   4.549   0.109 -0.0013 -3.8930  0.7322
 3136SOL     OW20869   2.414   0.364   4.263  0.3242  0.6181 -0.3450
 3136SOL    HW120870   2.450   0.449   4.287 -1.5033  1.4443 -0.5446
 3136SOL    HW220871   2.497   0.316   4.265 -0.3334 -0.5292 -0.8062
 3137SOL     OW20872   1.638   3.952  13.320 -0.6378 -0.2342  0.1977
 3137SOL    HW120873   1.667   4.041  13.304  3.4018 -1.2798  1.7296
 3137SOL    HW220874   1.702   3.898  13.272 -0.7302  0.3552 -0.5949
 3138SOL     OW20875   1.234   0.880   3.755 -0.2642 -0.0506 -0.3058
 3138SOL    HW120876   1.303   0.942   3.779 -0.5089  0.4286 -0.8397
 3138SOL    HW220877   1.281   0.823   3.694 -0.3751 -0.2137 -0.2379
 3139SOL     OW20878   0.206   0.051   5.295  0.0328 -0.2339  0.2487
 3139SOL    HW120879   0.260   0.118   5.336  0.3834 -0.0777 -0.4658
 3139SOL    HW220880   0.190   0.104   5.217 -1.6021 -0.4594  0.4421
 3140SOL     OW20881   0.127   3.030   8.253 -0.0522  0.1947 -0.4739
 3140SOL    HW120882   0.180   3.038   8.333  0.8717  0.4101 -1.1111
 3140SOL    HW220883   0.150   2.939   8.233 -1.1042  0.4003 -2.5415
 3141SOL     OW20884   0.419   1.668   3.567  0.4009 -0.4665 -0.0266
 3141SOL    HW120885   0.509   1.643   3.544 -0.0571 -1.3216 -0.8812
 3141SOL    HW220886   0.383   1.580   3.570 -2.6668  0.8253  1.1823
 3142SOL     OW20887   1.393   0.813  14.697  0.2005 -0.5760 -0.0089
 3142SOL    HW120888   1.405   0.771  14.612 -0.6133 -2.2057  0.6732
 3142SOL    HW220889   1.372   0.899  14.662  0.3895 -0.2228  0.7449
 3143SOL     OW20890   1.936   4.431  14.162  0.1792 -0.2359 -0.2800
 3143SOL    HW120891   1.894   4.346  14.171 -2.7972  1.2734  0.2039
 3143SOL    HW220892   2.026   4.407  14.183 -0.0469  0.6293  1.6400
 3144SOL     OW20893   4.267   1.005  12.189  0.1599  0.0523  0.1419
 3144SOL    HW120894   4.296   0.940  12.254 -1.8410  0.1405  1.1341
 3144SOL    HW220895   4.184   0.964  12.164 -1.1089  4.9846 -3.7281
 3145SOL     OW20896   4.513   2.472   9.983 -0.3162  0.2856  0.6333
 3145SOL    HW120897   4.461   2.552   9.979 -0.4315  0.1485 -0.6436
 3145SOL    HW220898   4.511   2.448  10.076  1.2304 -1.5264  0.1905
 3146SOL     OW20899   3.316   1.609  13.516  0.2139 -0.4003 -0.0173
 3146SOL    HW120900   3.274   1.683  13.560 -0.9299 -1.8688  1.3279
 3146SOL    HW220901   3.402   1.638  13.485  0.2822  0.5702  1.0617
 3147SOL     OW20902   1.576   0.957   3.018  0.0293  0.3937  0.2015
 3147SOL    HW120903   1.551   1.031   3.075  0.8915  1.3854 -0.7064
 3147SOL    HW220904   1.510   0.897   3.052  0.7061 -0.8355 -0.6924
 3148SOL     OW20905   1.460   2.773   4.145 -0.0619  0.8299 -0.2621
 3148SOL    HW120906   1.399   2.708   4.109 -1.2639  1.8939 -0.1128
 3148SOL    HW220907   1.479   2.838   4.078  0.3318 -1.0863 -2.0094
 3149SOL     OW20908   3.134   4.198   3.697  0.3885 -0.0191  0.3063
 3149SOL    HW120909   3.077   4.275   3.708  0.1655 -0.1940  0.3770
 3149SOL    HW220910   3.063   4.140   3.669 -0.0983  0.0846  1.3207
 3150SOL     OW20911   4.614   4.189   6.063 -0.1138 -0.8434 -0.1722
 3150SOL    HW120912   4.699   4.153   6.090 -0.7423  0.1893  3.2064
 3150SOL    HW220913   4.628   4.211   5.971  0.1435 -0.9135 -0.1502
 3151SOL     OW20914   0.849   1.192   7.941  0.2409  0.1548  0.1227
 3151SOL    HW120915   0.910   1.178   7.869 -1.8878 -1.4146 -1.3428
 3151SOL    HW220916   0.901   1.245   8.002  0.3296  3.5364 -2.8579
 3152SOL     OW20917   1.101   4.684   3.931 -0.4324  0.0778 -0.2574
 3152SOL    HW120918   1.122   0.052   3.959  1.7866 -0.3655 -0.4774
 3152SOL    HW220919   1.180   4.634   3.951 -1.8041 -1.5123  1.1586
 3153SOL     OW20920   3.407   2.453  16.634 -0.0775 -0.1128  0.1277
 3153SOL    HW120921   3.375   2.371  16.596  1.5133 -0.7943  0.2534
 3153SOL    HW220922   3.450   2.474  16.551 -0.1638  0.5655  0.2559
 3154SOL     OW20923   1.397   0.202   4.203 -0.3002 -0.0776  0.8145
 3154SOL    HW120924   1.463   0.231   4.140 -0.2830  1.5124  1.5600
 3154SOL    HW220925   1.446   0.172   4.279 -0.2089 -2.7857 -0.3204
 3155SOL     OW20926   2.567   4.063   3.142 -0.2634 -0.6244  0.2787
 3155SOL    HW120927   2.554   4.130   3.209 -0.1040  0.3453 -0.6456
 3155SOL    HW220928   2.593   4.110   3.062 -1.4696  0.0893  0.3121
 3156SOL     OW20929   1.175   2.980   0.167  0.3820 -0.4907  0.3756
 3156SOL    HW120930   1.198   2.933   0.087 -1.3163  0.0579 -0.4549
 3156SOL    HW220931   1.122   3.047   0.124  1.3113  0.1593  0.2425
 3157SOL     OW20932   4.335   4.606   5.082  0.4686  0.6268  0.0034
 3157SOL    HW120933   4.293   4.621   5.167  2.1281 -1.8444  1.2668
 3157SOL    HW220934   4.311   4.517   5.056  1.4843  0.1061  0.8112
 3158SOL     OW20935   4.669   0.978   8.462  0.2589  0.1103  0.8242
 3158SOL    HW120936   0.028   0.972   8.513  0.2921  0.2157  0.7851
 3158SOL    HW220937   4.628   1.056   8.499  0.6448  0.2940  0.8635
 3159SOL     OW20938   3.901   0.092  12.509  0.7347  0.1657  0.0035
 3159SOL    HW120939   3.918   0.161  12.445 -2.3902  1.0536  0.1134
 3159SOL    HW220940   3.934   0.010  12.474  1.1330  0.4568 -0.3116
 3160SOL     OW20941   4.527   1.537   8.193 -0.4808  0.1582  0.2252
 3160SOL    HW120942   4.534   1.444   8.210  0.6965  0.2055  0.0432
 3160SOL    HW220943   4.525   1.562   8.285 -0.7173 -1.4127  0.6442
 3161SOL     OW20944   0.571   2.109   6.113 -0.1613 -0.1215 -0.2096
 3161SOL    HW120945   0.657   2.110   6.155  0.2917  0.9121 -1.1678
 3161SOL    HW220946   0.568   2.019   6.080 -1.7168 -0.6839  1.4783
 3162SOL     OW20947   3.719   4.165  10.945 -0.1200 -0.1303 -0.0914
 3162SOL    HW120948   3.637   4.191  10.904  0.8307  0.2793 -1.7791
 3162SOL    HW220949   3.736   4.242  10.999 -0.9566 -0.7799  1.0761
 3163SOL     OW20950   4.299   0.774   9.108 -0.3129 -0.7332  0.6837
 3163SOL    HW120951   4.299   0.682   9.132  2.1238 -0.9156 -0.0528
 3163SOL    HW220952   4.249   0.816   9.178  2.6760  3.0176  0.5711
 3164SOL     OW20953   3.015   2.941  17.588 -0.1855 -0.4231  0.1203
 3164SOL    HW120954   2.953   3.000  17.631 -1.1310 -1.0577 -0.3487
 3164SOL    HW220955   3.018   2.868  17.650 -0.2681  0.6604  1.3924
 3165SOL     OW20956   0.181   0.105   5.973 -0.4301  0.0588  0.4379
 3165SOL    HW120957   0.199   0.026   5.922  1.8130  1.5709 -1.1074
 3165SOL    HW220958   0.270   0.133   5.996  0.1718 -0.4484 -1.2734
 3166SOL     OW20959   4.691   2.120   1.498  0.0826 -0.8456  0.1398
 3166SOL    HW120960   0.031   2.047   1.498 -0.4215 -1.2743 -0.5089
 3166SOL    HW220961   4.613   2.066   1.483 -1.4530  1.0899  1.1211
 3167SOL     OW20962   1.523   2.626   5.636  0.3591 -0.0675 -0.0525
 3167SOL    HW120963   1.453   2.633   5.571 -0.7096  2.0239  1.3478
 3167SOL    HW220964   1.568   2.551   5.598 -0.0047 -0.9481  1.2260
 3168SOL     OW20965   0.173   2.429   6.178  0.6133  0.2116  0.4437
 3168SOL    HW120966   0.230   2.419   6.102  1.3940 -0.5615  1.1386
 3168SOL    HW220967   0.180   2.341   6.215  1.1963 -0.9080 -2.2851
 3169SOL     OW20968   1.528   0.394   2.116  0.1151  0.3065  0.0772
 3169SOL    HW120969   1.570   0.340   2.183 -0.8330 -1.7486 -0.9824
 3169SOL    HW220970   1.487   0.470   2.157 -0.8421  1.1331 -2.3834
 3170SOL     OW20971   1.910   1.635   9.048 -0.7625 -0.3146  0.7794
 3170SOL    HW120972   1.884   1.647   9.139 -1.8728 -1.1526  0.5752
 3170SOL    HW220973   1.852   1.704   9.017 -0.0136 -0.0975 -0.1156
 3171SOL     OW20974   0.696   2.834  11.585 -0.1641 -0.3115 -0.2744
 3171SOL    HW120975   0.748   2.765  11.545 -0.6758 -0.4829 -0.6359
 3171SOL    HW220976   0.643   2.862  11.510  0.0282 -0.4189 -0.4489
 3172SOL     OW20977   2.353   4.274   4.981  0.6053  0.3177  0.7039
 3172SOL    HW120978   2.319   4.361   5.003 -1.2571 -0.3027  0.2718
 3172SOL    HW220979   2.316   4.254   4.895  1.1495 -0.8738  0.7507
 3173SOL     OW20980   1.530   3.516   7.141 -0.1684  0.5855  0.1430
 3173SOL    HW120981   1.515   3.602   7.102 -0.9353 -0.3890 -1.6807
 3173SOL    HW220982   1.608   3.525   7.195  0.1090  0.0170 -0.1603
 3174SOL     OW20983   0.960   0.329  10.806 -0.4883  0.2808  0.0239
 3174SOL    HW120984   0.882   0.354  10.854 -0.0527 -0.4483  1.1158
 3174SOL    HW220985   0.964   0.407  10.751  2.1202  0.3469  0.2742
 3175SOL     OW20986   3.395   0.952  12.992  0.3646 -0.1921  0.2700
 3175SOL    HW120987   3.462   0.901  12.947 -0.0041 -0.9361  0.5734
 3175SOL    HW220988   3.443   0.980  13.070 -0.7229  2.1016  0.1151
 3176SOL     OW20989   4.092   4.370  12.129 -0.6258  0.4076 -0.0176
 3176SOL    HW120990   4.019   4.387  12.188  0.2628  0.0106  1.1916
 3176SOL    HW220991   4.122   4.282  12.151 -0.8302 -0.3988 -3.0049
 3177SOL     OW20992   3.143   3.129   0.719  0.2630  0.1803  0.2556
 3177SOL    HW120993   3.131   3.063   0.787 -1.5869 -0.4812 -0.7027
 3177SOL    HW220994   3.110   3.204   0.769  0.8094  0.5289  0.0876
 3178SOL     OW20995   0.022   1.927   7.129 -0.0169 -1.2374  0.0231
 3178SOL    HW120996   0.026   1.978   7.048  0.5669 -0.6447  0.4266
 3178SOL    HW220997   4.652   1.898   7.136  0.3192 -2.5572 -0.9802
 3179SOL     OW20998   1.995   0.022   9.152 -0.0398 -0.3676  0.5381
 3179SOL    HW120999   1.970   4.658   9.188  0.2026 -0.3697  0.7070
 3179SOL    HW221000   2.045   0.056   9.226 -0.0619 -2.0701  1.3431
 3180SOL     OW21001   1.911   1.403   9.549  0.2243 -0.2302 -0.1690
 3180SOL    HW121002   1.923   1.381   9.641 -1.0796 -0.2369 -0.0138
 3180SOL    HW221003   1.817   1.397   9.536  0.3010  1.3912 -1.4074
 3181SOL     OW21004   2.326   0.993   7.547  0.1807 -0.5724 -0.2800
 3181SOL    HW121005   2.369   1.077   7.529 -0.6025  0.0538  0.6996
 3181SOL    HW221006   2.238   1.033   7.547 -0.1443 -1.2967 -1.6155
 3182SOL     OW21007   4.130   0.985  11.536 -0.1468  0.3351  0.7816
 3182SOL    HW121008   4.096   0.950  11.454 -1.8380  0.6556  1.3470
 3182SOL    HW221009   4.213   1.022  11.506 -0.6586 -0.1337 -1.2153
 3183SOL     OW21010   1.773   1.590  14.980 -0.2234  0.4500 -0.2087
 3183SOL    HW121011   1.725   1.596  14.897  0.7559  2.0559 -0.6620
 3183SOL    HW221012   1.860   1.554  14.961 -0.1480  0.1270  0.7420
 3184SOL     OW21013   3.086   2.275   2.610 -0.2997  0.5290 -0.1038
 3184SOL    HW121014   3.132   2.359   2.614 -0.1454  0.3847  1.2389
 3184SOL    HW221015   3.127   2.230   2.684 -2.6494  0.0169  0.8760
 3185SOL     OW21016   3.101   2.924   7.967 -0.0803  0.4958  0.1314
 3185SOL    HW121017   3.155   2.884   8.035  1.6079  2.7893  0.1023
 3185SOL    HW221018   3.077   2.842   7.923 -3.3141  1.2117  0.5354
 3186SOL     OW21019   4.640   1.429   7.726 -0.5168 -0.4049 -0.2871
 3186SOL    HW121020   4.593   1.512   7.732 -0.7950 -0.5289 -0.7609
 3186SOL    HW221021   4.603   1.382   7.801 -1.9046  1.5258  0.2266
 3187SOL     OW21022   3.027   4.474   1.026  0.2610 -0.4323 -0.5520
 3187SOL    HW121023   3.095   4.532   0.992  0.3924 -0.2734 -0.0122
 3187SOL    HW221024   2.968   4.466   0.950 -1.6868  0.0808  0.9019
 3188SOL     OW21025   3.939   0.268  12.817  0.3597 -0.3703  0.9862
 3188SOL    HW121026   3.893   0.337  12.864 -0.2094  0.2689 -0.5328
 3188SOL    HW221027   4.028   0.302  12.814  0.3501 -0.5424 -1.3605
 3189SOL     OW21028   0.074   2.017   7.390 -0.5728 -0.2559  0.0080
 3189SOL    HW121029   0.100   1.927   7.409 -0.5574 -0.3541 -0.4662
 3189SOL    HW221030   0.067   2.003   7.296  0.7519  1.8706 -0.4094
 3190SOL     OW21031   0.173   1.977   3.873  0.1090  0.2866 -0.4968
 3190SOL    HW121032   0.121   2.050   3.837 -4.3124 -3.2269 -1.2696
 3190SOL    HW221033   0.176   1.919   3.796  3.8605 -0.8373  0.5527
 3191SOL     OW21034   1.381   2.062   7.948 -0.1903  0.4007  0.4232
 3191SOL    HW121035   1.421   2.142   7.915  1.3608 -0.3687  0.4128
 3191SOL    HW221036   1.301   2.074   7.897 -0.7174 -4.1272  0.1504
 3192SOL     OW21037   4.522   4.401   5.272 -0.0724 -0.3200 -0.3559
 3192SOL    HW121038   4.586   4.384   5.341  0.8800  0.3270 -1.0735
 3192SOL    HW221039   4.572   4.472   5.230 -0.9366  1.1026  1.0201
 3193SOL     OW21040   0.793   0.265   5.622  0.2079  0.4045  0.1836
 3193SOL    HW121041   0.825   0.325   5.690  0.0062  1.0598 -0.3011
 3193SOL    HW221042   0.840   0.303   5.548 -0.0371 -1.2031 -0.7849
 3194SOL     OW21043   4.688   4.220   7.675 -0.2419  0.2792  0.0022
 3194SOL    HW121044   4.699   4.227   7.580  0.0581  1.8643  0.1551
 3194SOL    HW221045   4.698   4.311   7.704 -2.2652  0.9741 -1.5406
 3195SOL     OW21046   2.791   3.680   1.987 -0.2388  0.3018 -0.7659
 3195SOL    HW121047   2.794   3.761   2.038  1.6546  0.0815 -0.5344
 3195SOL    HW221048   2.757   3.612   2.045  0.3731  1.4421  0.9143
 3196SOL     OW21049   0.408   2.022  15.807  0.2244  0.6707  0.3621
 3196SOL    HW121050   0.325   2.065  15.787  0.8434  1.4398 -0.5438
 3196SOL    HW221051   0.470   2.090  15.782 -1.9588  2.1659 -0.9890
 3197SOL     OW21052   2.804   4.601   4.413 -0.3688  0.0240  0.2390
 3197SOL    HW121053   2.879   4.586   4.355 -0.3249 -1.4811  0.6867
 3197SOL    HW221054   2.818   4.694   4.429 -0.5508  0.0276  0.3780
 3198SOL     OW21055   1.578   4.571   4.906 -0.3763  0.6396 -0.2803
 3198SOL    HW121056   1.633   4.626   4.852  0.2138  1.2145  0.9146
 3198SOL    HW221057   1.486   4.595   4.890 -0.1565  1.4634 -0.2604
 3199SOL     OW21058   0.308   0.006   4.097 -0.2257 -0.0148 -0.5717
 3199SOL    HW121059   0.375   0.025   4.163  1.0660  1.5645 -2.3186
 3199SOL    HW221060   0.238   4.679   4.140  0.5929  0.4101  1.2512
 3200SOL     OW21061   2.145   1.461  16.083 -0.2404  0.0829  0.8216
 3200SOL    HW121062   2.094   1.404  16.141 -1.3886  1.3599  1.0631
 3200SOL    HW221063   2.080   1.511  16.034 -0.1293 -0.6171 -0.0309
 3201SOL     OW21064   2.325   0.214  14.665 -0.1265 -0.0520 -0.4033
 3201SOL    HW121065   2.234   0.233  14.645  0.4112  0.6024 -2.2810
 3201SOL    HW221066   2.370   0.293  14.636 -2.1389  1.2097 -0.0719
 3202SOL     OW21067   3.747   2.265   6.707 -0.6305 -0.1300 -0.0020
 3202SOL    HW121068   3.733   2.297   6.796 -1.3324  1.9670 -0.8690
 3202SOL    HW221069   3.797   2.341   6.677 -1.4367  0.2549 -0.3539
 3203SOL     OW21070   4.041   1.168   5.107 -0.1208  0.1361 -0.1652
 3203SOL    HW121071   4.129   1.170   5.145 -0.1235  0.1508 -0.1599
 3203SOL    HW221072   4.035   1.260   5.083 -0.0617  0.0537 -0.4911
 3204SOL     OW21073   1.649   1.333   2.994 -0.6311 -0.4183  0.1462
 3204SOL    HW121074   1.629   1.426   3.008 -2.8428 -0.9749  0.6402
 3204SOL    HW221075   1.654   1.302   3.085  1.5819 -1.1843 -0.2252
 3205SOL     OW21076   3.016   4.206   5.487  0.0814 -0.0429 -0.3420
 3205SOL    HW121077   2.964   4.235   5.412  1.0591  1.1656 -0.5623
 3205SOL    HW221078   2.948   4.208   5.554  1.5822 -3.2791  1.2976
 3206SOL     OW21079   4.011   1.232   0.529  0.1199 -0.3976 -0.1024
 3206SOL    HW121080   4.014   1.184   0.612  0.4805  2.0774  1.2962
 3206SOL    HW221081   3.981   1.318   0.558  1.0061  0.4688 -1.7557
 3207SOL     OW21082   4.022   2.418   4.155  0.5213 -0.1729 -0.0605
 3207SOL    HW121083   4.054   2.457   4.074 -2.7003  1.0618 -0.7223
 3207SOL    HW221084   3.940   2.372   4.140 -0.5512  2.0270 -0.8892
 3208SOL     OW21085   1.236   0.436   8.455 -0.4433 -0.1362  0.1242
 3208SOL    HW121086   1.210   0.344   8.457  1.2751 -0.6062  1.2604
 3208SOL    HW221087   1.166   0.480   8.503 -0.4575 -0.8143  0.7320
 3209SOL     OW21088   3.231   2.857  17.429  0.5603  0.2571  0.2965
 3209SOL    HW121089   3.166   2.790  17.405  0.3852  0.5948 -0.1765
 3209SOL    HW221090   3.172   2.918  17.473  0.1650  0.2965 -0.2833
 3210SOL     OW21091   2.807   4.579  14.989  0.0489  0.2146  0.2529
 3210SOL    HW121092   2.754   4.641  15.038 -1.7087 -2.0222  1.2031
 3210SOL    HW221093   2.762   4.573  14.904 -2.1340  0.2613  1.4127
 3211SOL     OW21094   0.385   3.676   2.561  0.8023 -0.4209 -0.1633
 3211SOL    HW121095   0.465   3.669   2.510  0.1847 -1.1384 -1.0357
 3211SOL    HW221096   0.327   3.625   2.504 -1.1808  2.7052 -0.9491
 3212SOL     OW21097   3.920   2.228   4.877 -0.0528  0.5752 -0.1695
 3212SOL    HW121098   3.998   2.283   4.874  0.5158 -0.3335 -1.8857
 3212SOL    HW221099   3.878   2.262   4.956 -0.1923  0.7968 -0.3407
 3213SOL     OW21100   3.641   3.778   8.734  0.2615  0.9920  0.0756
 3213SOL    HW121101   3.619   3.751   8.824  2.1187  0.0081  0.2401
 3213SOL    HW221102   3.618   3.871   8.742  0.2342  0.7792  2.6487
 3214SOL     OW21103   2.136   3.059   4.877 -0.3163 -0.4609 -0.3047
 3214SOL    HW121104   2.229   3.057   4.852 -0.4936 -0.3191 -0.9584
 3214SOL    HW221105   2.096   3.054   4.791  0.3911  0.6689 -0.7055
 3215SOL     OW21106   1.772   2.397   1.734  0.1727 -0.3971  0.0829
 3215SOL    HW121107   1.726   2.398   1.650  1.1175  2.9908 -0.4167
 3215SOL    HW221108   1.852   2.445   1.714 -2.0177  2.6607 -1.4524
 3216SOL     OW21109   2.637   3.194   3.208 -0.1432 -0.1583 -0.2224
 3216SOL    HW121110   2.559   3.141   3.193 -2.0963  2.6136  0.2842
 3216SOL    HW221111   2.623   3.218   3.299 -0.8762  2.0055 -0.9203
 3217SOL     OW21112   1.911   2.976   7.657 -0.2357  0.1774  0.0048
 3217SOL    HW121113   1.845   3.034   7.694 -0.7336  0.1923 -0.8964
 3217SOL    HW221114   1.992   3.021   7.682  0.4175 -2.1792  2.0428
 3218SOL     OW21115   1.380   2.581  15.471  0.1793 -0.0986 -0.4546
 3218SOL    HW121116   1.426   2.503  15.500  2.9295  1.7241  0.0340
 3218SOL    HW221117   1.376   2.633  15.551  0.0292  1.3929 -1.4265
 3219SOL     OW21118   0.090   0.917   5.057  0.3413 -0.2769  0.3054
 3219SOL    HW121119   0.143   0.947   4.983  1.8437  0.0062  1.4923
 3219SOL    HW221120   0.128   0.831   5.075  0.6941  0.4522  3.1101
 3220SOL     OW21121   3.655   2.792  16.688 -0.5898 -0.4590 -0.7659
 3220SOL    HW121122   3.717   2.723  16.712 -2.8462 -1.9278  0.8595
 3220SOL    HW221123   3.627   2.761  16.601  0.8213 -0.5291 -1.1949
 3221SOL     OW21124   0.587   4.639   4.969 -0.2992 -0.0625 -0.1834
 3221SOL    HW121125   0.542   4.657   5.052 -0.1570 -1.2992  0.1600
 3221SOL    HW221126   0.648   4.568   4.987 -3.5134 -2.3283  1.7940
 3222SOL     OW21127   0.536   3.422  15.812  0.6421 -0.0746 -0.0300
 3222SOL    HW121128   0.490   3.450  15.733  0.6564  0.6825  0.2278
 3222SOL    HW221129   0.480   3.353  15.847 -1.2358  0.8482 -1.2309
 3223SOL     OW21130   3.893   4.681  14.416  0.7795  0.6587  0.0401
 3223SOL    HW121131   3.837   0.025  14.375 -1.9515 -0.7958  1.4479
 3223SOL    HW221132   3.944   4.659  14.338  1.2898  0.1427  0.5144
 3224SOL     OW21133   1.164   1.021   6.977 -0.1305 -0.0235  0.1079
 3224SOL    HW121134   1.085   0.990   6.935 -0.1570  0.6405 -0.3353
 3224SOL    HW221135   1.201   1.085   6.916 -2.0555  1.1227  0.1407
 3225SOL     OW21136   0.644   4.021   0.947 -0.0499 -0.0057 -0.3672
 3225SOL    HW121137   0.603   3.942   0.981 -0.8150 -0.2548 -1.8688
 3225SOL    HW221138   0.734   4.024   0.981 -1.3181  0.5390  2.8738
 3226SOL     OW21139   2.160   1.232   2.777  0.1855  0.2539  0.1888
 3226SOL    HW121140   2.070   1.203   2.795  0.6887 -0.1786  2.0661
 3226SOL    HW221141   2.205   1.155   2.743 -0.6407 -1.1752  2.2469
 3227SOL     OW21142   2.318   0.170  14.376  0.5101 -0.5336 -0.4908
 3227SOL    HW121143   2.380   0.098  14.387 -0.1523 -1.1097 -0.5655
 3227SOL    HW221144   2.240   0.116  14.364 -1.5333  2.1413  0.6171
 3228SOL     OW21145   4.273   1.221   4.827  0.5075 -0.3175  1.0456
 3228SOL    HW121146   4.293   1.153   4.891  2.8414 -2.1951 -1.6775
 3228SOL    HW221147   4.304   1.166   4.755 -1.1086 -1.0777  0.9414
 3229SOL     OW21148   3.731   3.043   3.086 -0.1375  0.3811  0.1568
 3229SOL    HW121149   3.650   3.025   3.039  0.0784  0.7273 -0.3484
 3229SOL    HW221150   3.701   3.049   3.177  1.0729 -0.1408  0.5897
 3230SOL     OW21151   4.496   1.303   4.511 -0.0541  0.5559 -0.2819
 3230SOL    HW121152   4.508   1.378   4.452 -1.0206 -0.1374 -1.3659
 3230SOL    HW221153   4.565   1.317   4.576 -1.2625  0.9233  0.9420
 3231SOL     OW21154   0.268   2.703   3.518  0.3975 -0.1565  0.0189
 3231SOL    HW121155   0.236   2.613   3.519 -0.3952  0.1140 -1.3568
 3231SOL    HW221156   0.361   2.685   3.506  0.4158  1.4456 -2.2897
 3232SOL     OW21157   3.357   3.395   7.208 -0.0941  0.0601 -0.0304
 3232SOL    HW121158   3.396   3.375   7.293  1.1967  3.1776  0.1292
 3232SOL    HW221159   3.407   3.474   7.188 -2.3868  0.8605 -2.6468
 3233SOL     OW21160   2.985   2.306  12.621  0.0730  0.1030  0.0952
 3233SOL    HW121161   2.982   2.378  12.683 -0.2440  2.0561 -2.2153
 3233SOL    HW221162   3.075   2.287  12.593 -0.8626 -2.6364 -1.0628
 3234SOL     OW21163   0.075   3.591   6.037 -0.2952 -0.2518  0.1483
 3234SOL    HW121164   0.024   3.664   6.003 -0.7795 -1.2219 -1.2201
 3234SOL    HW221165   0.021   3.519   6.002 -0.0276 -0.6293  0.5026
 3235SOL     OW21166   3.198   3.725   3.806  0.0488 -0.4799  0.0408
 3235SOL    HW121167   3.222   3.710   3.714 -0.9212 -1.0560 -0.1147
 3235SOL    HW221168   3.231   3.813   3.822  1.4744 -0.7405 -1.4159
 3236SOL     OW21169   4.550   0.407   7.400 -0.3402 -0.0444  0.2413
 3236SOL    HW121170   4.504   0.478   7.356  0.1922 -0.0208 -0.2836
 3236SOL    HW221171   4.572   0.446   7.484  0.9574  1.7998 -0.9543
 3237SOL     OW21172   3.828   1.831   5.328  0.0595  0.3405 -0.2015
 3237SOL    HW121173   3.738   1.847   5.354 -0.4421 -0.1841 -1.5955
 3237SOL    HW221174   3.858   1.921   5.344 -0.0069  0.8560 -2.8860
 3238SOL     OW21175   1.963   4.641   0.771 -0.2355  0.4526 -0.3938
 3238SOL    HW121176   1.935   0.009   0.754  2.1511  1.6136  1.7239
 3238SOL    HW221177   1.947   4.576   0.702  1.9990  0.4771 -0.9224
 3239SOL     OW21178   4.104   3.687   1.812  0.3273  0.2690 -0.3089
 3239SOL    HW121179   4.015   3.720   1.799  0.6086  1.6512  1.2538
 3239SOL    HW221180   4.094   3.646   1.898  0.9545  1.0528  0.1450
 3240SOL     OW21181   2.732   2.198  15.378 -0.2174  0.2260 -0.0328
 3240SOL    HW121182   2.692   2.230  15.459  0.1832  0.1723  0.1833
 3240SOL    HW221183   2.762   2.285  15.351 -2.4591  1.4137  1.2749
 3241SOL     OW21184   4.208   2.726  11.649 -0.0205 -0.0564 -0.1736
 3241SOL    HW121185   4.299   2.699  11.650  0.0924  0.3380 -0.0400
 3241SOL    HW221186   4.169   2.684  11.726 -1.5237 -0.5154 -1.1710
 3242SOL     OW21187   4.436   2.894  10.099 -0.2460 -0.0457 -0.5393
 3242SOL    HW121188   4.395   2.809  10.109  0.0677  0.1280  2.3404
 3242SOL    HW221189   4.365   2.954  10.077 -0.1410  0.5951  0.7981
 3243SOL     OW21190   2.293   2.853   1.520 -0.3179 -0.5176 -0.1690
 3243SOL    HW121191   2.210   2.895   1.547 -0.6292 -1.0531 -0.2996
 3243SOL    HW221192   2.303   2.780   1.581  1.8449  0.0763  0.1879
 3244SOL     OW21193   3.520   3.226  17.634  0.3557 -0.2482 -0.2650
 3244SOL    HW121194   3.564   3.307  17.660  0.8176 -0.7337  0.4433
 3244SOL    HW221195   3.515   3.170   0.024 -0.8368  0.5516  0.2379
 3245SOL     OW21196   0.738   1.623   5.806  0.2957 -0.0986 -0.1860
 3245SOL    HW121197   0.831   1.601   5.798 -0.5004 -1.9514 -4.3472
 3245SOL    HW221198   0.728   1.692   5.740  1.6370  0.9561  0.7006
 3246SOL     OW21199   0.827   3.795   8.199 -0.5869 -0.1352  0.0504
 3246SOL    HW121200   0.869   3.846   8.130  1.8312  0.1419  1.7240
 3246SOL    HW221201   0.905   3.777   8.252  0.5359 -0.1311 -1.5991
 3247SOL     OW21202   3.626   1.856   3.895 -0.0245 -0.8150  0.2420
 3247SOL    HW121203   3.574   1.808   3.830  2.7308 -0.2829 -2.3992
 3247SOL    HW221204   3.570   1.822   3.964 -1.5466 -0.4849 -0.8313
 3248SOL     OW21205   0.929   0.688   7.094 -0.0260  0.5819 -0.2418
 3248SOL    HW121206   0.944   0.724   7.182  0.9917 -0.1997 -0.0968
 3248SOL    HW221207   0.950   0.765   7.041  2.5388  0.1997  0.2057
 3249SOL     OW21208   2.198   1.927  11.460  0.1627  0.0478  0.4887
 3249SOL    HW121209   2.201   2.015  11.421 -0.5666  0.5064  1.4843
 3249SOL    HW221210   2.282   1.931  11.506  0.2574 -1.4985  0.4640
 3250SOL     OW21211   1.748   2.375   4.985 -0.3103  0.0451 -0.3112
 3250SOL    HW121212   1.663   2.359   4.945 -0.3664 -2.1266  0.6804
 3250SOL    HW221213   1.756   2.465   4.953 -2.4066 -0.4519 -2.2419
 3251SOL     OW21214   1.774   2.876  13.858 -0.0092 -0.1322  0.0578
 3251SOL    HW121215   1.687   2.916  13.852 -0.3563 -0.9406 -0.3346
 3251SOL    HW221216   1.807   2.904  13.773  1.1834 -0.6436  0.3536
 3252SOL     OW21217   2.413   3.127   7.683 -0.6870 -0.0013 -0.3519
 3252SOL    HW121218   2.452   3.109   7.597 -1.9276 -0.6181 -0.7852
 3252SOL    HW221219   2.422   3.222   7.687 -0.3967 -0.0547  0.3335
 3253SOL     OW21220   2.102   1.784   9.468  0.2429 -0.5095 -0.1086
 3253SOL    HW121221   2.074   1.874   9.486 -1.3293 -1.2054  0.9534
 3253SOL    HW221222   2.024   1.734   9.444 -0.2160 -0.0778  0.4641
 3254SOL     OW21223   1.325   2.845   7.993  0.2463 -0.2812 -0.3663
 3254SOL    HW121224   1.253   2.859   8.054 -0.0473  0.8949 -0.9667
 3254SOL    HW221225   1.325   2.750   7.998  3.0258 -0.2141  1.0373
 3255SOL     OW21226   1.095   3.257   8.459 -0.4245  0.0335  0.5211
 3255SOL    HW121227   1.126   3.226   8.374 -2.9877 -1.2956  0.0787
 3255SOL    HW221228   1.064   3.173   8.492 -2.7385  0.3261 -0.9140
 3256SOL     OW21229   3.168   0.315   3.935  0.2168  0.2504  0.7582
 3256SOL    HW121230   3.259   0.313   3.966  0.0052 -1.1856  1.2981
 3256SOL    HW221231   3.188   0.269   3.853 -2.6434  2.7464 -1.3372
 3257SOL     OW21232   2.233   1.025   8.123  0.1961  0.0441 -0.4169
 3257SOL    HW121233   2.200   0.960   8.062  1.1268 -0.2089 -0.6371
 3257SOL    HW221234   2.187   1.103   8.092 -1.9669 -2.0846 -2.5383
 3258SOL     OW21235   0.667   2.923   5.203 -0.5267 -0.0839  0.4152
 3258SOL    HW121236   0.634   2.842   5.165  0.5002 -1.1171  1.7827
 3258SOL    HW221237   0.636   2.991   5.142  1.4617  0.7400  0.3125
 3259SOL     OW21238   1.991   3.541   1.463 -0.3574  0.4900  0.5001
 3259SOL    HW121239   2.011   3.447   1.469 -1.3607  0.2711  0.4571
 3259SOL    HW221240   1.945   3.549   1.379 -0.7516 -0.7706  0.5906
 3260SOL     OW21241   2.385   2.823   1.901  0.1229  0.8684  0.2547
 3260SOL    HW121242   2.423   2.884   1.838 -0.0922 -0.4007 -1.0912
 3260SOL    HW221243   2.457   2.759   1.899 -1.3749 -0.8004 -0.1250
 3261SOL     OW21244   1.369   1.293   0.802 -0.4773 -0.4197 -0.2065
 3261SOL    HW121245   1.389   1.308   0.710  0.6677  0.6085  0.2088
 3261SOL    HW221246   1.433   1.352   0.841 -1.3263  0.4088 -0.0517
 3262SOL     OW21247   2.327   3.380   5.099  0.2674  0.1437  0.5695
 3262SOL    HW121248   2.419   3.353   5.088 -0.2584 -2.2849  2.2721
 3262SOL    HW221249   2.298   3.312   5.159  0.5267 -0.5788 -0.1236
 3263SOL     OW21250   4.541   3.469  10.824 -0.4135  0.8209 -0.4307
 3263SOL    HW121251   4.503   3.382  10.812  0.8646  0.2752 -0.5288
 3263SOL    HW221252   4.559   3.458  10.918 -0.7779 -2.5655 -0.7803
 3264SOL     OW21253   3.098   0.684   5.518 -0.1120  0.3328  0.0709
 3264SOL    HW121254   3.145   0.602   5.531 -0.9402 -0.0121  0.9268
 3264SOL    HW221255   3.136   0.746   5.581 -0.5701 -0.1504  0.8220
 3265SOL     OW21256   0.271   0.516   0.451  0.0680  0.3239  0.0458
 3265SOL    HW121257   0.262   0.426   0.421 -0.8704  0.5114 -0.2374
 3265SOL    HW221258   0.332   0.506   0.523 -0.6627  0.6076  0.7103
 3266SOL     OW21259   0.964   0.299   2.911 -0.7807 -0.4021  0.2788
 3266SOL    HW121260   0.925   0.386   2.911 -2.1772 -1.0434 -2.0714
 3266SOL    HW221261   1.058   0.316   2.909 -0.6190 -1.3115  0.2374
 3267SOL     OW21262   4.514   2.527   2.512  0.1772  0.0282 -0.2089
 3267SOL    HW121263   4.444   2.485   2.560  0.0232  1.0042  0.4191
 3267SOL    HW221264   4.588   2.500   2.567  0.3016 -1.4521 -1.0841
 3268SOL     OW21265   1.295   4.174  15.077 -0.5357 -0.6910 -0.2717
 3268SOL    HW121266   1.235   4.100  15.069  0.4948 -1.9814  3.8718
 3268SOL    HW221267   1.271   4.214  15.161 -0.6292 -1.8330  0.2520
 3269SOL     OW21268   2.619   2.274   9.427 -0.0285 -0.0874 -0.0358
 3269SOL    HW121269   2.629   2.312   9.514 -1.5015 -2.3579  1.1250
 3269SOL    HW221270   2.581   2.192   9.459  0.0863  0.0049  0.3365
 3270SOL     OW21271   0.580   3.414   3.808 -0.0069 -0.2295  0.0832
 3270SOL    HW121272   0.529   3.482   3.853 -0.1820 -1.6527  2.0285
 3270SOL    HW221273   0.663   3.461   3.799  0.4090 -1.1155 -0.6586
 3271SOL     OW21274   0.452   1.789   5.781 -0.0723 -0.0359  0.3112
 3271SOL    HW121275   0.398   1.860   5.817 -0.0206 -0.6006  1.4808
 3271SOL    HW221276   0.406   1.762   5.702 -0.9097  2.5359 -0.0914
 3272SOL     OW21277   3.890   1.448   8.660  0.1678 -0.3770 -0.3699
 3272SOL    HW121278   3.965   1.421   8.607  0.3897  1.6779 -1.0887
 3272SOL    HW221279   3.822   1.386   8.632 -0.8388  0.6887 -0.2941
 3273SOL     OW21280   0.185   2.623   3.944  0.0461 -0.2963 -0.4059
 3273SOL    HW121281   0.185   2.708   3.987  0.8151  0.1581 -1.3161
 3273SOL    HW221282   0.092   2.610   3.923  0.0938 -0.6859 -0.3781
 3274SOL     OW21283   0.738   1.241   7.121  0.6410 -0.2835 -0.5772
 3274SOL    HW121284   0.722   1.301   7.193 -0.8118  1.0400 -1.9788
 3274SOL    HW221285   0.833   1.252   7.121  0.5757  0.2514 -1.1029
 3275SOL     OW21286   1.392   0.303   9.367 -0.1420 -0.1923 -0.2007
 3275SOL    HW121287   1.469   0.337   9.413 -1.9109  2.4069  0.8555
 3275SOL    HW221288   1.400   0.369   9.297  0.4733  0.8677  0.8615
 3276SOL     OW21289   4.663   4.554   3.092  0.1970 -0.5535  0.1997
 3276SOL    HW121290   4.573   4.556   3.058  0.1409 -2.1872  0.2276
 3276SOL    HW221291   4.687   4.646   3.095 -2.0854  0.1403 -2.2158
 3277SOL     OW21292   1.394   2.187   1.822 -0.0699  0.5303 -0.2446
 3277SOL    HW121293   1.409   2.281   1.833  0.0926  0.1419  2.8948
 3277SOL    HW221294   1.402   2.193   1.727  2.7554  1.4754  0.0468
 3278SOL     OW21295   0.743   2.937   0.596 -0.0754 -0.5093  0.2127
 3278SOL    HW121296   0.749   2.854   0.548  1.1914 -0.1438 -0.2599
 3278SOL    HW221297   0.650   2.953   0.581  0.3074  3.3850  2.3381
 3279SOL     OW21298   1.199   3.866  17.228 -0.5397  0.3261  0.1400
 3279SOL    HW121299   1.127   3.902  17.281 -0.8864 -0.8428  0.4575
 3279SOL    HW221300   1.173   3.775  17.212 -1.4546  0.9967 -2.2214
 3280SOL     OW21301   1.092   0.299   6.146 -0.5071  0.5486 -0.3474
 3280SOL    HW121302   1.142   0.230   6.190  0.0987 -0.1973 -2.1924
 3280SOL    HW221303   1.112   0.280   6.054  2.3225  0.2390  0.3451
 3281SOL     OW21304   2.728   4.251  11.681  0.1789 -0.1338  0.5177
 3281SOL    HW121305   2.727   4.345  11.665 -3.2173  0.1561  2.5449
 3281SOL    HW221306   2.658   4.235  11.744 -0.4505 -2.1549 -0.6916
 3282SOL     OW21307   0.945   1.937   8.331 -0.2582 -0.7898 -0.5360
 3282SOL    HW121308   0.883   1.872   8.297 -1.2782 -0.0471 -0.1000
 3282SOL    HW221309   0.892   2.002   8.377  0.5022 -2.2459  2.4001
 3283SOL     OW21310   2.490   2.507   4.542 -0.1042  0.3116  0.0274
 3283SOL    HW121311   2.566   2.530   4.489  1.0564 -1.0200  1.1299
 3283SOL    HW221312   2.533   2.512   4.627 -1.4415 -2.5823  0.8629
 3284SOL     OW21313   4.097   1.335  15.927  0.2367  0.2659  0.3092
 3284SOL    HW121314   4.006   1.361  15.945  0.6181  2.9650 -1.7185
 3284SOL    HW221315   4.078   1.244  15.903  0.2412  0.4634 -0.4410
 3285SOL     OW21316   0.076   0.255   7.356 -0.0312  0.3368 -0.4192
 3285SOL    HW121317   0.049   0.165   7.372  0.0343  0.5690  1.0691
 3285SOL    HW221318   0.011   0.312   7.397  0.3237  0.9258 -0.6788
 3286SOL     OW21319   0.055   4.246   3.919 -1.1737  0.0107 -0.5291
 3286SOL    HW121320   0.078   4.338   3.906 -0.5998 -0.0027  0.3441
 3286SOL    HW221321   0.104   4.230   4.000  0.0615 -1.3066 -1.5419
 3287SOL     OW21322   3.491   0.724   5.841 -0.6705  0.0831  0.0121
 3287SOL    HW121323   3.493   0.671   5.921  2.0180 -0.3412 -0.3358
 3287SOL    HW221324   3.531   0.807   5.867 -0.6947  0.0604  0.1235
 3288SOL     OW21325   2.795   2.457  15.327  0.8098  0.2093  0.3311
 3288SOL    HW121326   2.833   2.502  15.251 -1.1404 -0.0543 -0.8023
 3288SOL    HW221327   2.714   2.505  15.341  1.6055  1.2240  1.5294
 3289SOL     OW21328   4.128   2.853   5.973 -0.0943 -0.2920 -0.1394
 3289SOL    HW121329   4.101   2.777   5.921  1.2737 -1.4996  0.9334
 3289SOL    HW221330   4.223   2.848   5.973 -0.1158 -0.8560  1.5318
 3290SOL     OW21331   4.616   0.092   5.376  0.1594  0.9748  0.6252
 3290SOL    HW121332   4.681   0.022   5.375 -0.4812  0.3750  1.0032
 3290SOL    HW221333   4.565   0.068   5.299  0.0065  1.8515  0.4540
 3291SOL     OW21334   3.558   1.014   3.613  0.2976  0.4591  0.1999
 3291SOL    HW121335   3.581   1.064   3.534  0.3814 -1.3560 -0.9092
 3291SOL    HW221336   3.539   0.928   3.577  2.0364 -0.1562  0.7357
 3292SOL     OW21337   4.130   3.315  10.975 -0.3096 -0.7973  0.3405
 3292SOL    HW121338   4.199   3.315  11.042  2.1964  0.6464 -2.2143
 3292SOL    HW221339   4.172   3.251  10.917 -0.9430 -1.0854  0.1989
 3293SOL     OW21340   3.604   1.520   7.456 -0.3753 -0.2742  0.3211
 3293SOL    HW121341   3.608   1.604   7.501  0.3059 -0.5051  0.6947
 3293SOL    HW221342   3.540   1.542   7.389 -1.0138  1.8871  1.6487
 3294SOL     OW21343   3.784   2.323   6.067  0.3521 -0.0399 -0.2889
 3294SOL    HW121344   3.796   2.229   6.076 -0.7521  0.1331  3.1377
 3294SOL    HW221345   3.780   2.349   6.159  1.3072  0.9651 -0.5292
 3295SOL     OW21346   2.027   3.286   7.338 -0.2493 -0.1852  0.0973
 3295SOL    HW121347   2.097   3.269   7.275 -2.3010 -1.8387 -1.7401
 3295SOL    HW221348   2.061   3.361   7.388 -0.0049  0.5812 -1.2193
 3296SOL     OW21349   2.026   0.775  14.901 -0.2271  0.1609 -0.4187
 3296SOL    HW121350   2.108   0.812  14.933 -0.2724 -1.2683  1.3267
 3296SOL    HW221351   2.016   0.829  14.823  0.7457  0.2590 -0.4674
 3297SOL     OW21352   4.320   4.006   5.326  0.0380 -0.0887  0.1248
 3297SOL    HW121353   4.276   4.055   5.397  0.4847  1.0516 -0.3825
 3297SOL    HW221354   4.347   3.943   5.393  0.0803 -0.1542  0.0446
 3298SOL     OW21355   4.036   2.294  14.750  0.0394 -0.4337 -0.6031
 3298SOL    HW121356   3.962   2.354  14.758 -0.2609 -1.1601  1.9249
 3298SOL    HW221357   4.082   2.314  14.831  2.0626  2.0063 -2.3564
 3299SOL     OW21358   1.942   3.264   2.339 -0.3478 -1.0890 -0.2856
 3299SOL    HW121359   2.037   3.266   2.348 -0.4608  1.1346  0.2186
 3299SOL    HW221360   1.927   3.170   2.326 -0.3733 -1.0742 -0.3702
 3300SOL     OW21361   0.987   3.131  17.670 -0.5410  0.0881 -0.0797
 3300SOL    HW121362   1.013   3.205  17.615  0.6127 -0.3862 -0.1622
 3300SOL    HW221363   0.947   3.174   0.059 -2.3077 -2.1937  0.2908
 3301SOL     OW21364   3.855   3.778   7.676 -0.8349 -0.2985 -0.4798
 3301SOL    HW121365   3.838   3.800   7.768 -0.8854 -1.2596 -0.2625
 3301SOL    HW221366   3.886   3.687   7.679  2.3439  0.8196  0.7364
 3302SOL     OW21367   2.582   2.101  11.750 -0.0371 -1.2902  0.1529
 3302SOL    HW121368   2.526   2.056  11.813  0.3185 -0.8270  0.8085
 3302SOL    HW221369   2.655   2.042  11.730  1.4295  0.5160  0.1380
 3303SOL     OW21370   0.752   3.219   3.185 -0.0055  1.0288 -0.3617
 3303SOL    HW121371   0.731   3.211   3.278 -0.4434 -1.8474 -0.7196
 3303SOL    HW221372   0.662   3.222   3.153 -0.6130  1.4625  1.3511
 3304SOL     OW21373   0.888   0.954   4.471  0.6831 -0.3200 -0.3275
 3304SOL    HW121374   0.891   0.996   4.385  1.2181  1.1836  0.4271
 3304SOL    HW221375   0.804   0.909   4.480  1.1746 -0.6110  2.9159
 3305SOL     OW21376   4.330   3.028   1.891  0.1129 -0.2553 -0.5503
 3305SOL    HW121377   4.246   3.074   1.896  0.2858  0.4680 -3.9558
 3305SOL    HW221378   4.325   2.977   1.971 -0.1158  1.3961  0.4833
 3306SOL     OW21379   2.574   0.347  10.867 -0.1538 -0.7358  0.0706
 3306SOL    HW121380   2.580   0.298  10.949 -1.0198  0.0441  0.5984
 3306SOL    HW221381   2.555   0.432  10.906  2.2048 -0.8821  1.4904
 3307SOL     OW21382   2.090   3.544   6.307 -0.3456 -0.1713 -0.0494
 3307SOL    HW121383   2.154   3.488   6.263  0.5848  1.2646 -0.5311
 3307SOL    HW221384   2.073   3.612   6.241 -2.3333 -0.9761 -0.3650
 3308SOL     OW21385   1.359   3.062   5.758 -0.1454  0.1359  0.3816
 3308SOL    HW121386   1.288   3.005   5.729  0.3236 -0.2553 -0.0109
 3308SOL    HW221387   1.388   3.096   5.673 -1.2624  0.3895  0.1009
 3309SOL     OW21388   1.379   0.588   2.213  0.1137 -0.0517 -0.0296
 3309SOL    HW121389   1.337   0.635   2.141  0.0696 -0.7287 -0.4451
 3309SOL    HW221390   1.296   0.550   2.242 -0.1391 -0.3336 -1.1216
 3310SOL     OW21391   0.917   0.888   8.178 -0.0742  0.5162 -0.5872
 3310SOL    HW121392   0.881   0.898   8.266 -2.1362 -0.1273 -1.3492
 3310SOL    HW221393   0.843   0.930   8.134 -0.5595 -0.1998 -0.4497
 3311SOL     OW21394   4.474   4.154   3.152  0.4705  0.0244  0.3160
 3311SOL    HW121395   4.385   4.170   3.181  0.6750  1.4920  0.1284
 3311SOL    HW221396   4.459   4.138   3.059  1.1796 -2.1113  0.5655
 3312SOL     OW21397   0.577   2.233   5.813 -0.0886  0.1892  0.0606
 3312SOL    HW121398   0.530   2.274   5.885  2.3216  0.9852  1.1701
 3312SOL    HW221399   0.627   2.162   5.852 -2.0988 -1.9291 -1.2413
 3313SOL     OW21400   1.299   3.388  14.882  0.1336  0.3633 -0.0719
 3313SOL    HW121401   1.242   3.359  14.811 -1.0052 -1.3738  1.5671
 3313SOL    HW221402   1.330   3.473  14.849  0.7421 -0.1984 -0.9272
 3314SOL     OW21403   0.013   4.589   5.194  0.2765  0.4141 -0.0978
 3314SOL    HW121404   0.069   4.551   5.126 -1.6666 -0.9267 -0.9814
 3314SOL    HW221405   0.076   4.608   5.263  1.3044 -1.8165 -0.4084
 3315SOL     OW21406   4.071   2.214   7.548 -0.3784  0.3300 -0.0406
 3315SOL    HW121407   4.136   2.222   7.618  0.0652  1.4411 -0.5870
 3315SOL    HW221408   4.067   2.307   7.524  3.1792  0.7083  0.7632
 3316SOL     OW21409   2.153   2.996   6.070 -0.2043 -0.5344  0.4261
 3316SOL    HW121410   2.240   2.977   6.035 -0.0156  2.7495 -0.8957
 3316SOL    HW221411   2.098   3.016   5.994  1.2748  0.8430 -0.2622
 3317SOL     OW21412   1.410   0.242   2.373 -0.3249 -0.2221 -0.2681
 3317SOL    HW121413   1.369   0.155   2.373  0.5475 -0.6270 -0.7058
 3317SOL    HW221414   1.331   0.288   2.402 -0.8505  0.0673 -2.1978
 3318SOL     OW21415   2.149   4.447   5.752 -0.1956  0.1810  0.0000
 3318SOL    HW121416   2.239   4.434   5.722  0.1504  1.5612  0.4213
 3318SOL    HW221417   2.114   4.361   5.730  0.3125 -0.3932  1.4618
 3319SOL     OW21418   2.283   1.344  10.930 -0.2737 -0.2600 -0.4687
 3319SOL    HW121419   2.319   1.332  10.842 -3.5275  2.8571 -2.2268
 3319SOL    HW221420   2.231   1.265  10.946 -2.4142  2.0732  4.0301
 3320SOL     OW21421   3.489   2.630   8.039  0.5718  0.1941  0.3082
 3320SOL    HW121422   3.423   2.694   8.066 -0.7491 -0.3667 -1.5749
 3320SOL    HW221423   3.467   2.634   7.946  2.0363 -3.0256 -0.1938
 3321SOL     OW21424   1.386   2.720  12.210  0.0884 -0.6636  0.1878
 3321SOL    HW121425   1.315   2.772  12.171  0.6013  0.8026  1.2208
 3321SOL    HW221426   1.337   2.654  12.259 -1.4644 -0.2760 -0.8232
 3322SOL     OW21427   3.306   3.622   6.319 -0.0179  0.0293  0.2037
 3322SOL    HW121428   3.332   3.649   6.231 -0.3543 -1.3172 -0.3079
 3322SOL    HW221429   3.284   3.533   6.292  0.9089  0.0531 -0.6035
 3323SOL     OW21430   1.185   2.794  13.831  0.0812  0.2044 -0.3493
 3323SOL    HW121431   1.260   2.783  13.889 -0.6441 -0.2864  0.5107
 3323SOL    HW221432   1.123   2.841  13.887 -0.8854  1.1413 -2.1726
 3324SOL     OW21433   3.784   1.605  16.603  1.0715 -0.3221 -0.2455
 3324SOL    HW121434   3.857   1.545  16.618  0.9627  0.0841  1.9702
 3324SOL    HW221435   3.756   1.619  16.694  1.0550  0.7887 -0.4221
 3325SOL     OW21436   3.735   2.893   2.409  0.1062  0.0884  0.0292
 3325SOL    HW121437   3.748   2.903   2.503  1.7986 -0.0489 -0.1959
 3325SOL    HW221438   3.646   2.857   2.413 -0.5717  1.6663 -0.7894
 3326SOL     OW21439   3.288   2.009   3.873 -0.6529 -0.6656  0.0458
 3326SOL    HW121440   3.216   2.056   3.916 -1.3566 -1.5793 -0.1456
 3326SOL    HW221441   3.253   1.955   3.802  0.1820 -0.0773 -0.8204
 3327SOL     OW21442   0.103   0.086  17.116 -0.0735  0.6327  0.1187
 3327SOL    HW121443   0.129   0.173  17.088  0.1724  1.0047  1.5024
 3327SOL    HW221444   0.030   0.069  17.056  0.3730  2.0726 -0.8324
 3328SOL     OW21445   0.356   2.313   3.621 -0.4463 -0.3499  0.4586
 3328SOL    HW121446   0.265   2.340   3.609 -0.2494  0.8915  1.7564
 3328SOL    HW221447   0.368   2.234   3.569  1.4253 -1.2670  2.2647
 3329SOL     OW21448   0.489   1.717   8.090  0.5257  0.3168 -0.3542
 3329SOL    HW121449   0.498   1.660   8.014  0.2513 -1.2208  0.7797
 3329SOL    HW221450   0.403   1.759   8.079 -1.1519 -3.3878 -1.2759
 3330SOL     OW21451   2.867   1.680  16.081  0.1209  0.0414  0.0805
 3330SOL    HW121452   2.847   1.695  15.989  2.2524  2.2950 -0.0392
 3330SOL    HW221453   2.801   1.623  16.119 -1.5856  1.1849 -1.1819
 3331SOL     OW21454   1.355   1.752   6.916  0.5734  0.3813 -0.3203
 3331SOL    HW121455   1.272   1.787   6.947  0.4206 -0.5296  0.2972
 3331SOL    HW221456   1.384   1.838   6.884  2.3636 -0.3588 -0.7026
 3332SOL     OW21457   3.460   0.554   0.713  0.0380 -0.1988  0.0866
 3332SOL    HW121458   3.511   0.628   0.683 -0.0964  0.1603  0.7316
 3332SOL    HW221459   3.392   0.536   0.648  1.3714 -1.8562 -0.8327
 3333SOL     OW21460   0.165   3.716   3.876 -0.1614 -0.1215  0.1678
 3333SOL    HW121461   0.118   3.735   3.795 -2.5482 -1.3458  1.2475
 3333SOL    HW221462   0.100   3.687   3.941  0.2299  0.0783  0.6424
 3334SOL     OW21463   2.308   0.683   3.876  0.1780  0.5479  0.5998
 3334SOL    HW121464   2.366   0.612   3.902 -0.8931 -0.5910 -0.1287
 3334SOL    HW221465   2.357   0.712   3.799 -0.2283  2.2960  0.9921
 3335SOL     OW21466   4.133   2.188  10.161 -0.0974 -0.0448  0.3051
 3335SOL    HW121467   4.125   2.198  10.256 -0.2615 -2.1793  0.5188
 3335SOL    HW221468   4.169   2.100  10.151  1.1631  0.4881  0.1210
 3336SOL     OW21469   0.334   4.112   3.264  0.1318  0.4849  0.5687
 3336SOL    HW121470   0.365   4.023   3.244  1.1856  0.5639  1.7898
 3336SOL    HW221471   0.390   4.123   3.341  1.3498  1.7312 -0.5077
 3337SOL     OW21472   4.073   1.792   8.629 -0.1756  0.0560  0.3389
 3337SOL    HW121473   4.117   1.740   8.560  1.0977 -0.0403  1.2160
 3337SOL    HW221474   4.110   1.759   8.711 -1.2946 -0.5377  0.6044
 3338SOL     OW21475   2.767   1.239   2.821  0.3902  0.2402  0.2038
 3338SOL    HW121476   2.824   1.214   2.748  0.1948 -1.4010  0.6039
 3338SOL    HW221477   2.829   1.246   2.894  0.9122  1.0413 -0.3209
 3339SOL     OW21478   4.445   1.549   2.693 -0.1287 -0.1366 -0.0546
 3339SOL    HW121479   4.359   1.591   2.688  0.2946  1.0686  2.5358
 3339SOL    HW221480   4.451   1.517   2.783 -0.8086  0.0715  0.0603
 3340SOL     OW21481   1.799   0.539   3.354 -0.1372 -0.8894  0.0764
 3340SOL    HW121482   1.829   0.510   3.268  2.8814  2.1047  0.1371
 3340SOL    HW221483   1.705   0.535   3.335  0.3831 -3.1895 -1.9034
 3341SOL     OW21484   3.518   3.464   0.706  0.0785  0.0882 -0.6716
 3341SOL    HW121485   3.569   3.428   0.778 -2.2834 -1.3691  0.2751
 3341SOL    HW221486   3.573   3.427   0.636  2.1551  1.2812  0.3434
 3342SOL     OW21487   4.652   3.430   5.580  0.4046 -0.2237 -0.5205
 3342SOL    HW121488   4.622   3.493   5.645 -0.9992  0.7352 -2.0863
 3342SOL    HW221489   4.567   3.393   5.557 -0.4774  0.2813  1.9091
 3343SOL     OW21490   0.043   2.973   0.696 -0.2804 -0.5724  0.1027
 3343SOL    HW121491   0.012   2.915   0.626  0.7823 -0.2436 -0.6346
 3343SOL    HW221492   4.721   2.937   0.773 -0.6016  0.1211  0.2442
 3344SOL     OW21493   1.134   0.635   9.444  0.2597  0.0502  0.3069
 3344SOL    HW121494   1.074   0.710   9.447  0.1476 -0.0300  0.0620
 3344SOL    HW221495   1.093   0.577   9.380 -0.0355 -0.0441  0.5828
 3345SOL     OW21496   2.402   4.181   6.478 -0.2634 -0.0872 -0.3347
 3345SOL    HW121497   2.343   4.209   6.407 -1.7863 -0.0081  0.9673
 3345SOL    HW221498   2.335   4.173   6.546 -1.0133  1.7340 -0.8327
 3346SOL     OW21499   2.807   2.145  15.092 -0.2690  0.2553  0.0064
 3346SOL    HW121500   2.753   2.098  15.156 -1.8111  0.1363 -1.3682
 3346SOL    HW221501   2.740   2.158  15.024  0.5153  0.1633 -0.7893
 3347SOL     OW21502   1.368   3.623   3.470  0.1855  0.8161 -0.6129
 3347SOL    HW121503   1.456   3.585   3.465 -0.3785 -0.2954 -2.2197
 3347SOL    HW221504   1.376   3.691   3.403  1.0926  2.5981  1.3092
 3348SOL     OW21505   0.968   3.633   5.858 -0.2295 -0.3077 -0.6361
 3348SOL    HW121506   0.984   3.707   5.799  1.0905 -0.6083 -0.6431
 3348SOL    HW221507   1.042   3.625   5.918 -0.8840 -0.7221  0.1315
 3349SOL     OW21508   2.966   2.036   3.729 -0.4320  0.6673  0.2257
 3349SOL    HW121509   3.011   2.036   3.813  1.1259 -0.2628 -0.6005
 3349SOL    HW221510   2.969   1.943   3.710  0.4009  0.5580  0.9118
 3350SOL     OW21511   1.632   2.676  15.030 -0.4476 -0.1350 -0.2736
 3350SOL    HW121512   1.552   2.668  14.978 -1.5535  0.4968  1.3133
 3350SOL    HW221513   1.691   2.697  14.957  0.8636  1.8909  1.3745
 3351SOL     OW21514   3.837   2.331  10.286 -0.2419 -1.0071  0.0445
 3351SOL    HW121515   3.920   2.302  10.323 -0.2086 -2.3869 -1.1089
 3351SOL    HW221516   3.864   2.389  10.215  0.5451 -1.4678 -0.0382
 3352SOL     OW21517   3.890   2.909   3.463 -0.1117 -0.3341 -0.1395
 3352SOL    HW121518   3.960   2.903   3.398  0.4052  0.2796  0.3673
 3352SOL    HW221519   3.826   2.856   3.413 -0.6462 -0.0808  0.2744
 3353SOL     OW21520   3.458   0.753   5.399 -0.1458  0.0529  0.0469
 3353SOL    HW121521   3.376   0.735   5.353  0.9776  0.5710 -2.1596
 3353SOL    HW221522   3.442   0.845   5.420 -0.9167 -0.1558  0.4150
 3354SOL     OW21523   0.844   1.012   2.265 -0.2370  0.0693 -0.4161
 3354SOL    HW121524   0.927   1.031   2.220  0.5689 -0.6331  0.7724
 3354SOL    HW221525   0.802   0.977   2.187  0.9017 -1.6386 -0.2664
 3355SOL     OW21526   4.678   4.349   5.484  0.0380  0.8529  0.5368
 3355SOL    HW121527   0.009   4.274   5.454  0.4752  0.8976  1.1916
 3355SOL    HW221528   4.721   4.361   5.568 -0.6131  0.2060  0.9629
 3356SOL     OW21529   3.316   1.471  12.971  0.7737  0.0065  0.0852
 3356SOL    HW121530   3.359   1.401  12.923 -2.4559 -1.7009 -0.3252
 3356SOL    HW221531   3.389   1.512  13.017 -0.2316  1.5243  0.3332
 3357SOL     OW21532   3.497   0.605   1.608 -0.2838  0.2171 -0.5839
 3357SOL    HW121533   3.480   0.575   1.519  1.1457 -0.4450 -0.6376
 3357SOL    HW221534   3.487   0.700   1.609 -1.2941  0.1069 -0.3890
 3358SOL     OW21535   2.953   3.519   5.355 -0.6235  0.2920  0.0504
 3358SOL    HW121536   2.949   3.463   5.277 -2.0944  0.4968 -0.0188
 3358SOL    HW221537   2.859   3.532   5.363 -0.8127 -0.7409 -0.5164
 3359SOL     OW21538   4.557   2.962   9.661 -0.0025  0.3991 -0.1582
 3359SOL    HW121539   4.525   2.872   9.657  0.1239  0.3187  0.6616
 3359SOL    HW221540   4.604   2.958   9.744  1.5906 -0.2354 -1.0874
 3360SOL     OW21541   0.732   1.767   5.567  0.0583 -0.4815  0.3490
 3360SOL    HW121542   0.822   1.784   5.541 -0.6444  1.7209 -0.6421
 3360SOL    HW221543   0.694   1.854   5.554 -0.3718 -0.8123 -0.5934
 3361SOL     OW21544   2.825   4.357  15.154  0.8539  0.2318 -0.0902
 3361SOL    HW121545   2.739   4.391  15.180  0.4697 -0.3381 -0.6217
 3361SOL    HW221546   2.862   4.439  15.122  1.0707 -0.1798 -0.8852
 3362SOL     OW21547   3.844   2.641   7.097 -0.0732  0.3044 -0.1153
 3362SOL    HW121548   3.867   2.566   7.042 -2.7056 -0.5787 -0.0061
 3362SOL    HW221549   3.771   2.611   7.152 -1.7814 -1.4535 -3.3603
 3363SOL     OW21550   1.476   2.037  17.659  0.1026  0.0675 -0.0734
 3363SOL    HW121551   1.526   2.115  17.638 -0.0986  0.0931 -0.4541
 3363SOL    HW221552   1.448   2.062   0.060  0.1812 -0.0294 -0.0207
 3364SOL     OW21553   4.712   3.468   3.608  0.4558 -0.2309 -0.0523
 3364SOL    HW121554   4.688   3.561   3.609  0.2641 -0.2835  1.4264
 3364SOL    HW221555   0.081   3.470   3.576  0.9266 -0.1513  1.2423
 3365SOL     OW21556   2.725   3.518   6.708  0.1480 -0.2760 -0.0775
 3365SOL    HW121557   2.793   3.556   6.764 -1.3864  2.8238 -0.3183
 3365SOL    HW221558   2.670   3.594   6.691 -0.2827 -0.2839  1.2547
 3366SOL     OW21559   2.580   2.226   6.829 -0.3346 -0.2641 -0.4684
 3366SOL    HW121560   2.523   2.285   6.781 -1.9961 -2.7554 -1.5957
 3366SOL    HW221561   2.660   2.278   6.832 -1.4557  1.3709  0.7237
 3367SOL     OW21562   1.207   3.283   3.099  0.2419  0.1356  0.3429
 3367SOL    HW121563   1.227   3.298   3.192 -0.5514 -0.0711  0.5457
 3367SOL    HW221564   1.240   3.196   3.079 -0.2762 -0.8749  3.7760
 3368SOL     OW21565   3.438   2.792   6.004  0.5069  0.3720  0.1323
 3368SOL    HW121566   3.515   2.766   5.954  0.2311 -0.1755 -0.0162
 3368SOL    HW221567   3.480   2.792   6.090 -0.3946  4.6676  0.5504
 3369SOL     OW21568   0.264   4.426  14.815 -0.2809 -0.3193 -0.3875
 3369SOL    HW121569   0.291   4.340  14.847 -0.2426  1.1818  3.6416
 3369SOL    HW221570   0.174   4.409  14.788  0.1863  1.9015 -3.2575
 3370SOL     OW21571   4.617   0.907   6.298 -0.2374  0.2622  0.3173
 3370SOL    HW121572   4.613   0.820   6.339  2.0203  0.1089  0.2254
 3370SOL    HW221573   4.669   0.943   6.370  1.1871 -1.6088  0.2221
 3371SOL     OW21574   0.818   0.442   6.784 -0.2539  0.0566 -0.6969
 3371SOL    HW121575   0.809   0.361   6.834  2.2758  1.2868  1.7574
 3371SOL    HW221576   0.750   0.426   6.718 -1.1342 -1.0160  0.4452
 3372SOL     OW21577   1.186   2.462   5.732 -0.4667  0.0855 -0.5879
 3372SOL    HW121578   1.112   2.407   5.704 -0.6261  0.1513 -0.2868
 3372SOL    HW221579   1.234   2.473   5.650 -0.9897  2.3584 -0.5783
 3373SOL     OW21580   1.743   4.346   7.248 -0.8883 -0.0014  0.2251
 3373SOL    HW121581   1.721   4.409   7.179  1.0191 -1.1092 -1.4318
 3373SOL    HW221582   1.786   4.398   7.315 -3.2826  1.8967  0.2511
 3374SOL     OW21583   2.641   2.764   3.672 -0.3942  0.2751 -0.3129
 3374SOL    HW121584   2.639   2.725   3.584 -0.4214 -1.0011  0.2567
 3374SOL    HW221585   2.705   2.715   3.724 -0.8951  1.4778  1.4145
 3375SOL     OW21586   0.793   2.771   1.755 -0.3695 -0.5751  0.0456
 3375SOL    HW121587   0.837   2.687   1.767  0.8433  0.0611  0.0400
 3375SOL    HW221588   0.832   2.813   1.679  2.0555  0.5626  1.9112
 3376SOL     OW21589   2.943   0.603   8.607 -0.1487  0.4072 -0.1754
 3376SOL    HW121590   2.991   0.673   8.651 -1.0480  0.4112  0.7924
 3376SOL    HW221591   2.898   0.644   8.533  1.3781  0.4640 -1.0766
 3377SOL     OW21592   2.544   2.138   4.886 -0.0327 -0.1388  0.0696
 3377SOL    HW121593   2.521   2.231   4.881 -0.3500 -0.2351 -0.2492
 3377SOL    HW221594   2.483   2.105   4.821 -1.7671  1.8958  0.6677
 3378SOL     OW21595   3.874   1.883  12.792  0.7990  0.2034  0.1414
 3378SOL    HW121596   3.858   1.964  12.841  1.1888  0.5792 -0.3550
 3378SOL    HW221597   3.962   1.867  12.827  1.0453 -0.5410 -0.8263
 3379SOL     OW21598   1.359   1.770   4.320  0.2353 -0.8154  0.2707
 3379SOL    HW121599   1.362   1.679   4.291 -1.0144 -0.6583 -0.3960
 3379SOL    HW221600   1.418   1.776   4.395  0.2739 -3.2253  0.4263
 3380SOL     OW21601   0.378   1.253   2.615  0.1128  0.1299 -0.1911
 3380SOL    HW121602   0.455   1.305   2.637 -0.1604  0.5183 -0.1480
 3380SOL    HW221603   0.315   1.281   2.682 -0.1053  0.9478 -0.7413
 3381SOL     OW21604   0.548   1.962   2.020 -0.6305  0.0651  0.1675
 3381SOL    HW121605   0.512   2.041   1.980 -2.6364 -0.3727  1.1079
 3381SOL    HW221606   0.525   1.892   1.959  0.1811 -0.3546  0.3307
 3382SOL     OW21607   3.854   1.124  13.661 -0.2650 -0.0441  0.2491
 3382SOL    HW121608   3.949   1.128  13.644 -0.0192  2.5056  2.2326
 3382SOL    HW221609   3.839   1.169  13.744  1.4218 -0.3337  0.7139
 3383SOL     OW21610   0.232   0.027   3.824 -0.1387  0.6740  0.1794
 3383SOL    HW121611   0.278   0.111   3.816 -1.9164  1.5424 -1.1104
 3383SOL    HW221612   0.215   0.024   3.918  3.9479  0.2908  0.8798
 3384SOL     OW21613   0.453   2.368   4.622 -0.4882 -0.5747 -0.0929
 3384SOL    HW121614   0.422   2.452   4.657  0.5991 -0.7051  1.1555
 3384SOL    HW221615   0.490   2.396   4.538  0.2372  0.5346  0.5955
 3385SOL     OW21616   0.795   1.524   2.460  0.4237  0.1232 -0.4962
 3385SOL    HW121617   0.824   1.442   2.420  0.7639  0.3075 -0.6271
 3385SOL    HW221618   0.791   1.583   2.385 -0.3397 -0.7123 -1.1085
 3386SOL     OW21619   3.115   1.915   1.248 -0.4888  0.1636  0.3406
 3386SOL    HW121620   3.128   1.875   1.163 -2.4754 -1.5060  0.8442
 3386SOL    HW221621   3.206   1.918   1.277 -0.5655 -0.9472  0.6888
 3387SOL     OW21622   2.990   2.773   1.246  0.3068  0.3809  0.0453
 3387SOL    HW121623   3.059   2.744   1.305 -0.9398 -0.2656  1.1893
 3387SOL    HW221624   2.919   2.712   1.265  0.1242  1.0752  1.5888
 3388SOL     OW21625   3.644   1.420   6.620 -0.2899 -0.2079  0.4746
 3388SOL    HW121626   3.728   1.441   6.579  0.2945 -0.3199  1.6189
 3388SOL    HW221627   3.650   1.479   6.695 -1.9479  0.0418  0.4113
 3389SOL     OW21628   3.847   0.496  10.490  0.0384  0.4801 -0.0716
 3389SOL    HW121629   3.806   0.456  10.413 -1.5471  0.4225  0.7943
 3389SOL    HW221630   3.823   0.588  10.479  1.4881  0.8663  0.0103
 3390SOL     OW21631   4.411   1.659   6.242 -0.1297  0.2503  0.2610
 3390SOL    HW121632   4.498   1.666   6.279 -0.0191 -3.8996  0.8248
 3390SOL    HW221633   4.376   1.606   6.314  0.0568 -0.7119 -0.3485
 3391SOL     OW21634   3.576   0.961   3.930 -0.0083  0.0852 -0.1183
 3391SOL    HW121635   3.486   0.980   3.956  0.7590  1.5865  1.4563
 3391SOL    HW221636   3.560   0.898   3.860 -0.0018  0.9204 -0.8767
 3392SOL     OW21637   0.131   2.909   7.769  0.4123  0.3062  0.0263
 3392SOL    HW121638   0.154   2.826   7.811 -1.1780  0.0811  0.4261
 3392SOL    HW221639   0.177   2.970   7.827  0.1560  0.2547  0.2818
 3393SOL     OW21640   2.552   2.108   3.157  0.0451  0.3144  0.2149
 3393SOL    HW121641   2.486   2.043   3.182  0.0433  0.5556  0.8248
 3393SOL    HW221642   2.497   2.186   3.161 -1.3065 -0.5465 -1.4258
 3394SOL     OW21643   2.732   1.824  11.865 -0.0213 -0.0898  0.3077
 3394SOL    HW121644   2.786   1.763  11.815 -1.4671 -1.7449  0.7407
 3394SOL    HW221645   2.666   1.774  11.913 -1.5218  1.4197 -0.1689
 3395SOL     OW21646   0.978   4.405   5.782 -0.3579 -0.6227 -0.5192
 3395SOL    HW121647   0.959   4.312   5.775  2.8767 -1.3631  0.1671
 3395SOL    HW221648   1.072   4.386   5.774  0.4787  3.0636  0.4459
 3396SOL     OW21649   2.802   0.943   3.444  0.0445  0.9336  0.0997
 3396SOL    HW121650   2.772   0.853   3.454 -0.5986  1.1108 -0.2684
 3396SOL    HW221651   2.868   0.941   3.514 -0.9202 -1.8297  0.9404
 3397SOL     OW21652   1.463   3.176  14.265 -0.2050  0.6262 -0.4842
 3397SOL    HW121653   1.501   3.135  14.342  1.5638  0.0614 -1.6335
 3397SOL    HW221654   1.452   3.259  14.311  1.5479  1.6549 -1.8919
 3398SOL     OW21655   4.097   0.388   3.902  0.1680  0.3619 -0.1443
 3398SOL    HW121656   4.100   0.405   3.807 -1.5635  3.0435  0.2831
 3398SOL    HW221657   4.145   0.306   3.910 -0.3622  0.0584 -0.0921
 3399SOL     OW21658   3.265   2.133   9.144  0.1144 -0.5782 -0.0433
 3399SOL    HW121659   3.247   2.179   9.226  0.7585 -0.1083 -0.1618
 3399SOL    HW221660   3.211   2.184   9.082 -0.7128  0.4869  1.5535
 3400SOL     OW21661   1.369   1.697   2.170 -0.3694  0.5712  0.7219
 3400SOL    HW121662   1.453   1.740   2.155  1.5762 -2.3554  3.5273
 3400SOL    HW221663   1.305   1.727   2.104  0.0034 -0.5678 -0.1562
 3401SOL     OW21664   1.043   4.690   2.764  0.2818  0.0011 -0.0997
 3401SOL    HW121665   1.024   4.612   2.712 -2.5228  0.4451  0.2688
 3401SOL    HW221666   1.072   4.659   2.850  1.0824  2.3312  0.4568
 3402SOL     OW21667   0.458   1.791  16.149 -0.1947 -0.3306 -0.1374
 3402SOL    HW121668   0.371   1.788  16.188 -0.0252  1.7550  0.4134
 3402SOL    HW221669   0.453   1.752  16.062  1.6159 -1.3176  0.1993
 3403SOL     OW21670   0.206   0.749   9.945  0.1087 -0.4702  0.3449
 3403SOL    HW121671   0.227   0.803  10.021 -1.1511 -0.2688  0.5555
 3403SOL    HW221672   0.274   0.771   9.882  0.3748 -1.5627  0.2478
 3404SOL     OW21673   3.846   4.265   4.910  0.1734  0.3250  0.2851
 3404SOL    HW121674   3.765   4.309   4.937 -0.3288  0.1368 -0.9340
 3404SOL    HW221675   3.882   4.240   4.995 -0.8657 -0.1239  0.5865
 3405SOL     OW21676   2.655   1.514   1.171  0.0249 -0.7803  0.3361
 3405SOL    HW121677   2.591   1.445   1.187 -1.9202  0.9429 -0.0661
 3405SOL    HW221678   2.603   1.572   1.115 -0.9435 -0.3450  1.6680
 3406SOL     OW21679   3.599   0.234   6.560  0.2815  0.1181 -0.1833
 3406SOL    HW121680   3.585   0.180   6.638 -0.2432  3.4663  2.0267
 3406SOL    HW221681   3.677   0.190   6.527  0.3894 -1.9514  2.8083
 3407SOL     OW21682   2.626   4.405   4.375 -0.1125  0.1098 -0.1768
 3407SOL    HW121683   2.695   4.464   4.404  0.3107 -0.8612  0.8236
 3407SOL    HW221684   2.627   4.401   4.280  1.9100 -1.3989 -0.1024
 3408SOL     OW21685   0.159   4.275   8.294 -0.2129  0.2150 -0.0411
 3408SOL    HW121686   0.238   4.298   8.246  1.3901  0.2670  2.6063
 3408SOL    HW221687   0.106   4.232   8.227 -1.2235  0.3339  0.6626
 3409SOL     OW21688   4.042   4.290   2.458 -0.5401 -0.2657 -0.3832
 3409SOL    HW121689   4.032   4.202   2.494  1.4425 -0.7930 -1.1313
 3409SOL    HW221690   3.984   4.330   2.523  0.8637  0.6137  0.3152
 3410SOL     OW21691   3.822   0.362   7.977 -0.2218 -0.7721 -0.2173
 3410SOL    HW121692   3.807   0.426   8.046 -1.2996  1.0599 -2.1676
 3410SOL    HW221693   3.760   0.398   7.914  0.4657 -0.3105 -0.6356
 3411SOL     OW21694   2.103   3.355   3.460 -0.0744  0.5932  0.3979
 3411SOL    HW121695   2.166   3.359   3.387 -0.2677 -0.3440  0.1858
 3411SOL    HW221696   2.164   3.355   3.534 -1.7689  1.0074  1.7829
 3412SOL     OW21697   1.951   1.552   7.972 -0.0541 -0.0472  0.4432
 3412SOL    HW121698   1.924   1.467   7.938  0.3014 -0.8455  2.1441
 3412SOL    HW221699   1.925   1.545   8.064 -1.3856 -1.7057 -0.0578
 3413SOL     OW21700   0.109   1.135   7.005  0.2022  0.0153  0.0630
 3413SOL    HW121701   0.126   1.149   7.098 -0.6737 -0.8843  0.3643
 3413SOL    HW221702   0.110   1.041   6.988  2.7891 -0.1277  1.1307
 3414SOL     OW21703   2.103   3.848   8.715  0.2079 -0.0698 -0.1856
 3414SOL    HW121704   2.089   3.756   8.691  0.5534 -0.1016 -0.2680
 3414SOL    HW221705   2.153   3.882   8.640 -2.7651  0.5703 -1.8941
 3415SOL     OW21706   1.117   2.228  14.039 -0.8989 -0.1466  0.2950
 3415SOL    HW121707   1.111   2.194  14.128 -1.2154  0.1581  0.3865
 3415SOL    HW221708   1.031   2.205  14.005  0.1034 -2.0582 -0.9883
 3416SOL     OW21709   3.212   4.313   4.422  0.0644  0.6596  0.0180
 3416SOL    HW121710   3.186   4.312   4.514  1.8873 -0.8607  0.5221
 3416SOL    HW221711   3.306   4.313   4.441 -0.4105  0.7849  2.3463
 3417SOL     OW21712   3.768   2.511  16.173  0.5002  0.2270  0.6560
 3417SOL    HW121713   3.716   2.520  16.253  1.0574  0.9744  0.9264
 3417SOL    HW221714   3.832   2.446  16.200  0.7764 -0.6228 -2.0022
 3418SOL     OW21715   0.032   3.775   6.332  0.3374  0.3147  0.1927
 3418SOL    HW121716   4.662   3.746   6.341 -0.1302  1.6627 -0.1018
 3418SOL    HW221717   0.082   3.708   6.287 -1.6674 -0.4109 -0.9833
 3419SOL     OW21718   1.039   1.432   7.760 -0.4068  0.8772 -0.2328
 3419SOL    HW121719   0.990   1.420   7.678 -0.6544  0.3198 -0.0044
 3419SOL    HW221720   1.126   1.440   7.722 -1.9538  0.2597 -3.9147
 3420SOL     OW21721   1.825   1.413   6.618 -0.1714  0.1542 -0.2214
 3420SOL    HW121722   1.876   1.393   6.696  0.2977  1.6818 -0.1367
 3420SOL    HW221723   1.890   1.428   6.549  2.6068 -0.6168  2.2573
 3421SOL     OW21724   1.291   2.569  17.332 -0.2919  0.2961 -0.4164
 3421SOL    HW121725   1.235   2.502  17.294  1.7610 -1.3351 -0.5871
 3421SOL    HW221726   1.231   2.622  17.384 -2.5486 -2.3929 -0.2494
 3422SOL     OW21727   0.344   4.587   7.603  0.3228 -0.1778 -0.4940
 3422SOL    HW121728   0.268   4.581   7.545  1.7992 -1.1328 -2.3218
 3422SOL    HW221729   0.315   4.524   7.669 -2.4903  1.6312  0.0006
 3423SOL     OW21730   3.146   3.132   3.132 -0.2227  0.6796 -0.1427
 3423SOL    HW121731   3.127   3.046   3.093  1.1576 -0.1126  0.9451
 3423SOL    HW221732   3.094   3.126   3.211  0.4399  0.1648  0.2604
 3424SOL     OW21733   0.011   4.208  15.848  0.1693 -0.0963 -0.1019
 3424SOL    HW121734   4.653   4.157  15.864 -0.1940 -0.2484 -2.4049
 3424SOL    HW221735   0.060   4.180  15.925  0.1023  3.3286  1.2166
 3425SOL     OW21736   1.968   2.031   9.528 -0.1389  0.0734  0.1545
 3425SOL    HW121737   1.908   2.084   9.477  0.2900  0.7806  0.3879
 3425SOL    HW221738   2.007   2.094   9.589 -2.3776  2.0637 -0.5109
 3426SOL     OW21739   4.193   4.098   6.667  0.0171  0.4767 -0.4025
 3426SOL    HW121740   4.147   4.089   6.750 -2.8166 -2.0155 -2.2650
 3426SOL    HW221741   4.274   4.052   6.690 -0.8865  0.3035  2.4415
 3427SOL     OW21742   1.562   3.293   8.106 -0.0403  0.6439  0.0321
 3427SOL    HW121743   1.645   3.279   8.152 -2.2416 -0.3903  3.7088
 3427SOL    HW221744   1.535   3.210   8.067  1.2142 -0.1699  0.8858
 3428SOL     OW21745   0.084   4.418   6.926 -0.0388  0.7264 -0.6128
 3428SOL    HW121746   4.721   4.436   6.968  0.7005 -0.3881  1.3368
 3428SOL    HW221747   0.100   4.495   6.870  0.5680  0.4957 -0.7554
 3429SOL     OW21748   4.603   0.027  16.961  0.5218  0.3008 -0.2301
 3429SOL    HW121749   4.510   0.006  16.972  0.0274  1.3898 -2.2610
 3429SOL    HW221750   4.597   0.101  16.901  1.4782  0.8281  0.3337
 3430SOL     OW21751   4.262   4.275  15.265 -0.1302 -0.3422 -0.1417
 3430SOL    HW121752   4.285   4.183  15.278  2.6787  0.5115  0.9765
 3430SOL    HW221753   4.176   4.271  15.224 -0.1394 -0.0783 -0.1483
 3431SOL     OW21754   4.377   1.464  11.570 -0.3741 -0.4926 -0.3111
 3431SOL    HW121755   4.325   1.385  11.585 -1.0673  0.3558  1.7582
 3431SOL    HW221756   4.398   1.507  11.653  0.2172  1.9458 -1.7313
 3432SOL     OW21757   2.111   4.222  11.211  0.4539 -0.0893 -0.3911
 3432SOL    HW121758   2.114   4.133  11.176  2.7621  0.6549 -2.1287
 3432SOL    HW221759   2.131   4.203  11.302 -0.3181  0.1185 -0.1814
 3433SOL     OW21760   2.674   0.241  14.954 -0.8457 -0.2630  0.2957
 3433SOL    HW121761   2.703   0.308  14.892  1.0548 -1.3022  0.0633
 3433SOL    HW221762   2.679   0.298  15.030 -2.3526  1.3204 -0.8041
 3434SOL     OW21763   3.102   0.032   3.233  0.5361  0.2165 -0.5073
 3434SOL    HW121764   3.079   0.105   3.175  1.5610 -0.9126 -2.3259
 3434SOL    HW221765   3.065   4.676   3.192 -0.5473  0.5650 -0.1771
 3435SOL     OW21766   1.749   4.511   6.265  0.1645 -0.4394  0.8545
 3435SOL    HW121767   1.702   4.448   6.211  0.8517 -1.3944  1.3581
 3435SOL    HW221768   1.736   4.471   6.351 -1.8760 -1.2380  0.1757
 3436SOL     OW21769   3.844   1.018  16.576  0.3581  0.1695  0.3209
 3436SOL    HW121770   3.939   1.023  16.576  0.3876 -0.3575  1.4028
 3436SOL    HW221771   3.832   1.007  16.671  1.6591 -0.5517  0.3986
 3437SOL     OW21772   4.237   1.682   2.216  0.3029  0.6743 -0.3696
 3437SOL    HW121773   4.329   1.676   2.190  0.4317  1.0201  0.0125
 3437SOL    HW221774   4.218   1.594   2.246 -0.2085  1.2030  0.8508
 3438SOL     OW21775   3.965   3.106   7.974 -0.0688 -0.3203  0.0164
 3438SOL    HW121776   3.910   3.127   8.050  0.8006  0.5436  0.4033
 3438SOL    HW221777   3.915   3.032   7.938  0.2381 -0.0110 -1.0228
 3439SOL     OW21778   2.980   2.963   4.581  0.2015  0.2418  0.0599
 3439SOL    HW121779   2.962   3.028   4.513  1.3705  0.5468  0.0389
 3439SOL    HW221780   2.897   2.963   4.629 -1.0116 -0.3376 -2.0049
 3440SOL     OW21781   3.467   2.266  16.172 -0.5211  0.4503 -0.0893
 3440SOL    HW121782   3.525   2.213  16.116 -0.6728 -1.0105  1.1365
 3440SOL    HW221783   3.419   2.202  16.224 -0.6097 -0.1198 -0.8758
 3441SOL     OW21784   4.010   3.753  16.125  0.3741  0.4975  0.0539
 3441SOL    HW121785   4.037   3.685  16.064  2.7582  1.1480  0.3920
 3441SOL    HW221786   4.089   3.763  16.178  1.3944 -2.4517 -0.9501
 3442SOL     OW21787   3.616   1.548   2.376  0.2898  0.0600 -0.2028
 3442SOL    HW121788   3.694   1.536   2.321 -1.0189 -1.2614 -1.7620
 3442SOL    HW221789   3.590   1.630   2.335  0.7806 -1.1365 -2.8676
 3443SOL     OW21790   3.220   3.834   7.754  0.3926 -0.0826  0.0775
 3443SOL    HW121791   3.163   3.780   7.698  2.6167  2.2427 -4.4215
 3443SOL    HW221792   3.174   3.916   7.736 -3.1420 -1.9814  0.4357
 3444SOL     OW21793   0.464   2.338   2.971  0.1229  0.3916 -0.0061
 3444SOL    HW121794   0.458   2.434   2.976 -0.6221  0.1997  3.1438
 3444SOL    HW221795   0.371   2.319   2.981  0.3208  0.5467  2.1697
 3445SOL     OW21796   3.564   0.823   8.198  0.0091 -0.4353 -0.2038
 3445SOL    HW121797   3.502   0.892   8.221  0.3099  0.0264 -0.7763
 3445SOL    HW221798   3.594   0.791   8.283  0.4609  1.6573  0.4146
 3446SOL     OW21799   1.983   2.851  17.049  0.3052  0.3459  0.3011
 3446SOL    HW121800   1.968   2.926  17.107 -0.3352  0.4864 -0.0386
 3446SOL    HW221801   1.893   2.820  17.038 -0.3216  1.3939  2.6294
 3447SOL     OW21802   0.949   2.964   7.932 -0.2818  0.0984 -0.5660
 3447SOL    HW121803   1.008   2.889   7.932 -2.0153 -1.2522 -0.5656
 3447SOL    HW221804   0.954   2.986   7.839 -0.0788  2.4971  0.0052
 3448SOL     OW21805   4.602   2.692   5.645 -0.2018 -0.3086 -0.0200
 3448SOL    HW121806   4.530   2.639   5.679  1.7679 -3.3053 -0.5344
 3448SOL    HW221807   4.607   2.767   5.705  0.9147  0.5859 -1.2363
 3449SOL     OW21808   2.635   1.755  14.867  0.0242 -0.1169  0.4014
 3449SOL    HW121809   2.579   1.714  14.934 -0.5631 -0.4079 -0.2712
 3449SOL    HW221810   2.603   1.702  14.794  1.2330  0.4641 -0.5476
 3450SOL     OW21811   4.476   1.045  12.891 -0.1107  0.6493 -0.4183
 3450SOL    HW121812   4.569   1.066  12.902  0.1516  0.0548 -1.5116
 3450SOL    HW221813   4.469   1.029  12.797 -1.2317 -1.5353  0.0243
 3451SOL     OW21814   3.366   1.994   9.815 -0.1652  0.3302  0.0642
 3451SOL    HW121815   3.313   2.072   9.832  0.8043  1.0800 -0.3430
 3451SOL    HW221816   3.371   1.954   9.902 -0.8229 -0.4449 -0.2524
 3452SOL     OW21817   1.642   4.289   5.145 -0.1038  0.2303 -0.1121
 3452SOL    HW121818   1.649   4.251   5.233 -2.4455  0.5748  0.1986
 3452SOL    HW221819   1.728   4.331   5.135 -0.2989  0.8595  0.8852
 3453SOL     OW21820   2.645   1.802  11.262 -0.4947 -0.3164  0.0706
 3453SOL    HW121821   2.735   1.813  11.294 -0.0275  0.2295 -1.4260
 3453SOL    HW221822   2.631   1.869  11.194  0.2560 -1.6359 -1.3916
 3454SOL     OW21823   1.143   4.190  12.793 -0.4035 -0.6984 -0.1117
 3454SOL    HW121824   1.114   4.152  12.876 -0.0017  1.2210  0.9178
 3454SOL    HW221825   1.109   4.278  12.808 -0.0804 -0.3500 -1.4425
 3455SOL     OW21826   0.040   3.343   7.870 -0.6468 -0.4673  0.8394
 3455SOL    HW121827   4.707   3.299   7.804  0.4830  1.1248 -1.1517
 3455SOL    HW221828   0.080   3.266   7.910 -0.1001 -0.9758 -0.6782
 3456SOL     OW21829   2.985   4.581   7.570 -0.1743  0.2797  0.1816
 3456SOL    HW121830   2.963   4.608   7.481  0.6151  0.1915 -0.0417
 3456SOL    HW221831   2.960   4.488   7.570  1.6199 -0.1964 -2.1750
 3457SOL     OW21832   3.645   3.746   1.430 -0.3696 -0.5414 -0.6838
 3457SOL    HW121833   3.579   3.705   1.374  0.3720 -2.1852 -0.3419
 3457SOL    HW221834   3.597   3.767   1.510  2.1597  1.8039  0.2152
 3458SOL     OW21835   2.081   2.675  13.854  0.4794 -0.2024 -0.0941
 3458SOL    HW121836   2.069   2.699  13.762 -1.4166  0.3599  0.3002
 3458SOL    HW221837   2.176   2.670  13.861  0.2585 -3.0273  0.8361
 3459SOL     OW21838   4.151   1.426   2.246 -0.6520 -0.9626 -0.5742
 3459SOL    HW121839   4.192   1.353   2.292 -0.9382 -1.4099 -1.0180
 3459SOL    HW221840   4.155   1.385   2.159 -0.2547  0.9086 -1.4330
 3460SOL     OW21841   3.024   0.469   6.142  0.2922 -0.3052 -0.0350
 3460SOL    HW121842   3.111   0.451   6.107 -0.5394 -0.3665 -2.0986
 3460SOL    HW221843   2.976   0.404   6.092 -1.9121  0.8287  0.6276
 3461SOL     OW21844   2.138   4.296   7.241 -0.2289  0.1295  0.1593
 3461SOL    HW121845   2.113   4.376   7.195 -0.0280  0.0197 -0.1387
 3461SOL    HW221846   2.118   4.323   7.331 -0.8282 -2.4167  0.7842
 3462SOL     OW21847   2.594   1.326  14.838 -0.5039  0.1170 -0.1891
 3462SOL    HW121848   2.636   1.390  14.781 -0.6651 -0.6623 -1.1659
 3462SOL    HW221849   2.528   1.297  14.775 -1.3730  0.8086  0.3999
 3463SOL     OW21850   2.107   2.997   2.070  0.2011  0.4246  0.1872
 3463SOL    HW121851   2.181   3.025   2.123  0.6248 -0.7824  0.2316
 3463SOL    HW221852   2.052   2.971   2.145 -0.7194  0.3280 -0.5263
 3464SOL     OW21853   0.112   1.905   8.513 -0.1191 -0.2826  0.8407
 3464SOL    HW121854   0.066   1.973   8.561 -1.6710 -1.6264  1.2636
 3464SOL    HW221855   0.057   1.836   8.551  0.0852 -0.3534  1.0111
 3465SOL     OW21856   0.242   0.673   6.883 -0.0331  0.3302  0.4946
 3465SOL    HW121857   0.306   0.640   6.820 -0.1738  4.1265 -1.5951
 3465SOL    HW221858   0.230   0.596   6.940 -0.4052  1.3459  1.8033
 3466SOL     OW21859   4.308   4.478   7.785  0.0509 -0.2108  0.2306
 3466SOL    HW121860   4.292   4.425   7.707 -0.5075  1.0862 -0.5518
 3466SOL    HW221861   4.283   4.415   7.852  2.3405 -1.6013 -0.2170
 3467SOL     OW21862   1.974   0.295   1.202 -0.4114 -0.0019 -0.0059
 3467SOL    HW121863   1.991   0.390   1.200 -2.4756  0.4446  2.2545
 3467SOL    HW221864   2.059   0.264   1.233 -0.0149  1.1719  0.1021
 3468SOL     OW21865   4.019   3.309   4.971 -0.1297 -0.5054  0.4693
 3468SOL    HW121866   3.978   3.222   4.966 -0.7885 -0.1500 -0.2459
 3468SOL    HW221867   3.946   3.362   5.003  1.1222  1.4112  0.1491
 3469SOL     OW21868   2.310   4.686  17.394 -0.3176  0.0773  0.1559
 3469SOL    HW121869   2.268   4.637  17.324  2.0111 -1.3027 -0.2694
 3469SOL    HW221870   2.273   0.051  17.373  0.5969  0.6066  0.6757
 3470SOL     OW21871   4.121   3.944   5.144 -0.4174  0.2606 -0.3100
 3470SOL    HW121872   4.180   3.987   5.206  0.1791 -2.3042  0.9334
 3470SOL    HW221873   4.108   3.857   5.182 -1.6159  0.5900  0.0147
 3471SOL     OW21874   2.923   2.044   5.716  0.0271  0.6349  0.0581
 3471SOL    HW121875   2.986   2.065   5.785  2.9101 -0.0388 -2.3721
 3471SOL    HW221876   2.837   2.080   5.737 -0.2970 -0.9106  1.3876
 3472SOL     OW21877   3.717   4.257   8.952 -1.0742 -0.0803 -0.5541
 3472SOL    HW121878   3.779   4.189   8.928  0.9673  1.2621  0.8966
 3472SOL    HW221879   3.742   4.332   8.897 -2.9788  0.5871 -0.5162
 3473SOL     OW21880   1.773   3.335   7.114 -0.0841 -0.2623  0.0289
 3473SOL    HW121881   1.803   3.275   7.045 -1.5221  1.3185 -1.9879
 3473SOL    HW221882   1.705   3.280   7.153 -0.0629  0.6812  1.3997
 3474SOL     OW21883   0.290   2.360   7.507 -0.8695  0.0831 -0.2277
 3474SOL    HW121884   0.259   2.428   7.447  1.9660 -0.3783 -2.2409
 3474SOL    HW221885   0.219   2.385   7.565 -0.7947  3.5861 -1.6522
 3475SOL     OW21886   3.287   3.174   5.513  0.7072 -0.0046  0.6715
 3475SOL    HW121887   3.209   3.229   5.518  1.4546  1.0890  0.5405
 3475SOL    HW221888   3.330   3.229   5.447 -2.4072  0.6871 -0.7385
 3476SOL     OW21889   3.829   4.720   0.698 -0.3466  0.3689  0.3993
 3476SOL    HW121890   3.881   4.646   0.730  0.0634 -0.1579 -1.4897
 3476SOL    HW221891   3.897   0.037   0.642  1.9002 -0.9194  2.2026
 3477SOL     OW21892   1.806   0.178  17.217  0.0758  0.0032 -0.0331
 3477SOL    HW121893   1.727   0.228  17.239  0.3862 -0.0933  1.3380
 3477SOL    HW221894   1.844   0.249  17.165 -1.1894 -0.7454 -1.9726
 3478SOL     OW21895   0.538   3.674   7.586 -0.4756 -0.2781  0.5073
 3478SOL    HW121896   0.585   3.662   7.668  2.8887  0.7552 -1.2531
 3478SOL    HW221897   0.481   3.750   7.594 -0.1202 -0.1551  1.9268
 3479SOL     OW21898   3.996   4.424   5.733 -0.4582  0.1443 -0.2632
 3479SOL    HW121899   3.979   4.337   5.696  1.1137 -0.1969 -0.1778
 3479SOL    HW221900   4.077   4.411   5.783 -0.0130 -0.5254 -1.1602
 3480SOL     OW21901   3.636   0.962  10.272  0.0566  0.5705 -0.4561
 3480SOL    HW121902   3.721   0.924  10.248 -0.2296  0.6208 -1.5350
 3480SOL    HW221903   3.589   0.889  10.232  0.3111  0.9562 -1.4470
 3481SOL     OW21904   2.551   2.726   6.452 -0.4338  0.3703 -0.2933
 3481SOL    HW121905   2.611   2.782   6.501 -2.6946  2.6006 -0.0560
 3481SOL    HW221906   2.609   2.662   6.411  0.4684  2.0528 -1.6550
 3482SOL     OW21907   1.519   3.083  15.590 -0.0628 -0.3758 -0.0730
 3482SOL    HW121908   1.474   3.133  15.522 -1.2947 -2.0807 -0.5205
 3482SOL    HW221909   1.573   3.020  15.543  1.6108 -0.7776  2.4024
 3483SOL     OW21910   0.296   0.976  10.490 -0.4269 -0.1910 -0.5572
 3483SOL    HW121911   0.386   1.003  10.510 -0.2886  0.6412 -2.3433
 3483SOL    HW221912   0.259   1.063  10.473 -3.0849 -1.1082  0.5037
 3484SOL     OW21913   4.538   2.692   6.865  0.6474  0.7765 -0.2106
 3484SOL    HW121914   4.562   2.618   6.921  0.2723  0.0424 -1.0312
 3484SOL    HW221915   4.489   2.745   6.929  0.2139 -0.5922  0.5860
 3485SOL     OW21916   2.316   3.886  17.392 -0.3633  0.7417 -0.4870
 3485SOL    HW121917   2.363   3.905  17.311  1.3516 -0.3258  0.2690
 3485SOL    HW221918   2.354   3.807  17.431 -0.8191  0.5895 -0.3515
 3486SOL     OW21919   0.904   0.846   6.580  0.1033  0.1112  0.2639
 3486SOL    HW121920   0.976   0.909   6.581 -0.0781  0.3129  1.2732
 3486SOL    HW221921   0.920   0.783   6.650  1.3896  0.9053  0.6894
 3487SOL     OW21922   2.670   4.596  14.759 -0.0756  0.8062  0.7352
 3487SOL    HW121923   2.710   4.631  14.679 -0.4945  0.4214  0.3535
 3487SOL    HW221924   2.615   4.669  14.786 -0.8217  0.2680  0.6551
 3488SOL     OW21925   1.657   0.697   4.312 -0.2570 -0.1785  0.1159
 3488SOL    HW121926   1.730   0.662   4.262 -0.9230  1.8305 -2.2514
 3488SOL    HW221927   1.587   0.650   4.266 -2.0517  1.5533  1.0400
 3489SOL     OW21928   1.491   2.647   2.972 -0.7360 -0.1189 -0.4571
 3489SOL    HW121929   1.507   2.734   3.007 -1.2302 -0.8113  1.4983
 3489SOL    HW221930   1.507   2.585   3.044  1.5632  0.2366 -0.6822
 3490SOL     OW21931   1.921   2.989  15.743  0.1538  0.1736 -0.8140
 3490SOL    HW121932   1.851   2.968  15.806  0.5752 -1.3828 -0.8638
 3490SOL    HW221933   1.896   3.080  15.726 -0.4076 -0.0328 -1.0828
 3491SOL     OW21934   0.233   1.732   3.293  0.1297 -0.0827 -0.0829
 3491SOL    HW121935   0.145   1.769   3.297  1.1865  2.5033 -1.0120
 3491SOL    HW221936   0.214   1.638   3.296  1.3418 -0.3295 -0.1079
 3492SOL     OW21937   0.600   3.776   3.719  0.2827 -0.4318 -0.8612
 3492SOL    HW121938   0.661   3.849   3.729 -0.4279  0.0049  0.2521
 3492SOL    HW221939   0.654   3.698   3.735  2.3598  1.6222  2.2708
 3493SOL     OW21940   3.692   2.127   8.999 -0.3934 -0.3490  0.6220
 3493SOL    HW121941   3.735   2.113   8.915  0.4779 -0.9939  1.1767
 3493SOL    HW221942   3.753   2.181   9.048  1.1130 -0.2501 -1.4255
 3494SOL     OW21943   2.940   2.524   7.124 -0.9971 -0.4288  0.3479
 3494SOL    HW121944   2.987   2.440   7.123  0.7184  0.5168  0.9998
 3494SOL    HW221945   3.002   2.570   7.181  0.0349  1.2765 -2.1684
 3495SOL     OW21946   1.320   4.495   2.866  0.1070 -0.4791  0.4985
 3495SOL    HW121947   1.341   4.403   2.885 -1.4904 -0.7103  1.1239
 3495SOL    HW221948   1.249   4.483   2.803  0.7431  1.4359 -0.6022
 3496SOL     OW21949   4.262   1.445   5.135  0.3225 -0.0421  0.5691
 3496SOL    HW121950   4.314   1.390   5.193  2.5976  2.6691  1.1535
 3496SOL    HW221951   4.215   1.496   5.201  0.4155  1.4224 -0.4816
 3497SOL     OW21952   1.802   0.419   2.268  0.7446  0.1788  0.2514
 3497SOL    HW121953   1.749   0.342   2.285 -0.4807  0.7419 -1.0332
 3497SOL    HW221954   1.894   0.396   2.277  1.2363  1.1522 -2.3393
 3498SOL     OW21955   0.518   0.903  16.416 -0.2195 -0.2172  0.2780
 3498SOL    HW121956   0.518   0.877  16.508  0.6076 -0.4777  0.1995
 3498SOL    HW221957   0.610   0.897  16.389 -0.4033 -1.6111 -0.0215
 3499SOL     OW21958   2.667   2.556   2.649  0.8769  0.5967 -0.4998
 3499SOL    HW121959   2.634   2.504   2.721 -1.2375  1.3666 -0.9263
 3499SOL    HW221960   2.608   2.631   2.656  0.6872  0.4424 -0.4617
 3500SOL     OW21961   2.263   2.773   4.161 -0.2717 -0.4467 -0.1025
 3500SOL    HW121962   2.249   2.752   4.068  2.7698  1.3415 -0.9823
 3500SOL    HW221963   2.345   2.821   4.148 -0.8830  0.2606 -1.4018
 3501SOL     OW21964   3.369   3.015   4.782 -0.1415 -0.0089 -0.3765
 3501SOL    HW121965   3.324   3.053   4.707 -1.0706 -0.4778 -0.0680
 3501SOL    HW221966   3.306   3.009   4.854 -2.2456  2.0609 -2.0224
 3502SOL     OW21967   1.018   1.409  13.408  0.5668 -0.1249 -0.3218
 3502SOL    HW121968   1.030   1.440  13.318  1.1537 -0.5995 -0.4072
 3502SOL    HW221969   0.962   1.479  13.442  2.6537  1.4095 -0.0589
 3503SOL     OW21970   0.567   4.598   0.075 -0.1400 -0.1174 -0.3357
 3503SOL    HW121971   0.616   4.645   0.008  0.9126 -1.7578 -0.7289
 3503SOL    HW221972   0.481   4.586   0.033  1.1317 -2.5453 -2.2505
 3504SOL     OW21973   3.305   0.837  11.817  0.0084 -0.0737  0.3293
 3504SOL    HW121974   3.392   0.802  11.794  0.5222  0.3773  1.6149
 3504SOL    HW221975   3.333   0.923  11.785 -0.4369  1.0328  2.9402
 3505SOL     OW21976   3.832   2.026   2.680 -0.0026 -0.2054 -0.0317
 3505SOL    HW121977   3.808   2.052   2.769 -0.0626 -2.1354  0.5140
 3505SOL    HW221978   3.909   2.083   2.672  1.4715 -1.4514  4.9605
 3506SOL     OW21979   2.468   3.158   9.710 -0.2360 -0.1252  0.4362
 3506SOL    HW121980   2.381   3.183   9.679 -0.7078 -0.1753  1.7323
 3506SOL    HW221981   2.512   3.239   9.683  0.4936 -0.8125 -0.4461
 3507SOL     OW21982   0.718   4.123   2.272  0.4902  0.3319  0.2272
 3507SOL    HW121983   0.685   4.097   2.358  0.0950 -0.4514 -0.1545
 3507SOL    HW221984   0.647   4.081   2.224  0.2817  2.6437 -1.4569
 3508SOL     OW21985   1.612   0.944   7.649 -0.2285 -0.4697 -0.3841
 3508SOL    HW121986   1.519   0.929   7.630 -0.6479 -0.1742  1.4679
 3508SOL    HW221987   1.652   0.858   7.638 -0.6359 -0.5020 -1.6432
 3509SOL     OW21988   3.856   0.624  15.746 -0.3491  0.4974  0.1909
 3509SOL    HW121989   3.889   0.542  15.710  2.2006  1.4899  0.2613
 3509SOL    HW221990   3.767   0.604  15.775 -0.6756  0.5566 -0.7706
 3510SOL     OW21991   3.261   3.013   5.047  0.1166 -0.0158 -0.3639
 3510SOL    HW121992   3.226   2.924   5.043 -2.5104  0.9407  1.1977
 3510SOL    HW221993   3.194   3.048   5.106  0.5813 -0.1430  0.2362
 3511SOL     OW21994   1.494   1.577   5.139  0.2418  0.2678  0.4109
 3511SOL    HW121995   1.525   1.579   5.229 -0.3334 -0.2612  0.6173
 3511SOL    HW221996   1.536   1.504   5.094 -0.1318 -0.6541  1.5670
 3512SOL     OW21997   2.655   1.957  15.275 -0.1227  0.3046 -0.5647
 3512SOL    HW121998   2.591   1.920  15.336 -0.2432  0.5088 -0.5657
 3512SOL    HW221999   2.685   2.041  15.309 -0.5219 -0.1815  0.9649
 3513SOL     OW22000   3.778   3.452   8.569 -0.0282 -0.3915  0.0728
 3513SOL    HW122001   3.701   3.449   8.625  1.4685 -1.3601  2.0771
 3513SOL    HW222002   3.780   3.545   8.550 -2.8843 -0.2013  0.7763
 3514SOL     OW22003   0.264   4.514  13.480 -0.6219 -0.4468  1.0069
 3514SOL    HW122004   0.285   4.426  13.512 -1.7331 -1.1782 -0.3247
 3514SOL    HW222005   0.190   4.494  13.423 -0.7764  0.4346  0.9016
 3515SOL     OW22006   2.349   1.707   1.691  0.5131 -0.2068  0.2466
 3515SOL    HW122007   2.263   1.694   1.651  1.4676 -1.9503 -1.2536
 3515SOL    HW222008   2.404   1.731   1.616 -0.5687  0.6982 -0.2485
 3516SOL     OW22009   3.936   4.131   3.674  0.1069  0.2482  0.1010
 3516SOL    HW122010   3.973   4.220   3.680 -3.5908  1.8786 -1.7641
 3516SOL    HW222011   3.862   4.165   3.625 -0.6467 -0.0307  1.0521
 3517SOL     OW22012   4.646   2.476   3.746 -0.0368 -0.5087  0.5864
 3517SOL    HW122013   4.571   2.419   3.732  0.0929 -0.0587 -2.0800
 3517SOL    HW222014   4.607   2.535   3.810 -1.1333 -0.0173 -0.5326
 3518SOL     OW22015   1.232   1.185   3.082 -0.0209  0.0981  0.2974
 3518SOL    HW122016   1.228   1.097   3.044  1.2532  0.0664  0.2553
 3518SOL    HW222017   1.191   1.239   3.014  1.6887  0.5598 -0.3528
 3519SOL     OW22018   2.083   0.782   8.013  0.8640  0.9437  0.0298
 3519SOL    HW122019   2.109   0.822   7.930  1.6310 -0.0676 -0.2141
 3519SOL    HW222020   2.118   0.695   7.994 -1.7779  0.5244 -2.8694
 3520SOL     OW22021   0.679   3.173   3.445 -0.4756 -0.4939 -0.6664
 3520SOL    HW122022   0.709   3.146   3.532 -2.0782  1.0743  0.3761
 3520SOL    HW222023   0.596   3.125   3.439  0.8747 -2.5170 -3.4293
 3521SOL     OW22024   4.237   4.079  11.313 -0.7700  0.1071 -0.3587
 3521SOL    HW122025   4.163   4.029  11.349  1.7557 -2.3356  1.4146
 3521SOL    HW222026   4.216   4.172  11.324  0.1079  0.3080 -0.4034
 3522SOL     OW22027   2.597   2.234   8.842  0.2913 -0.1612  0.0960
 3522SOL    HW122028   2.670   2.292   8.820  0.6286 -0.5820  0.0989
 3522SOL    HW222029   2.593   2.259   8.934  2.8544  0.2124  0.0988
 3523SOL     OW22030   3.038   2.667  16.500 -0.2914 -0.3370  0.4367
 3523SOL    HW122031   3.071   2.598  16.557  0.8663  0.8993  1.2651
 3523SOL    HW222032   3.031   2.735  16.567 -1.0039 -1.9380  1.9825
 3524SOL     OW22033   0.382   2.638   0.473  0.0164 -0.0506  0.3373
 3524SOL    HW122034   0.383   2.589   0.556 -1.9025  1.4672  1.2506
 3524SOL    HW222035   0.432   2.715   0.500 -1.1473 -0.1224  2.7427
 3525SOL     OW22036   0.893   3.700  10.388 -0.0512 -0.6421  0.0999
 3525SOL    HW122037   0.983   3.731  10.381 -0.1609 -0.4728 -0.4877
 3525SOL    HW222038   0.911   3.613  10.425  0.4902  0.7231  3.0578
 3526SOL     OW22039   4.532   0.923   7.187 -0.5043  0.2619  0.0997
 3526SOL    HW122040   4.597   0.930   7.117 -2.3302  2.6464 -1.3500
 3526SOL    HW222041   4.570   0.983   7.252  1.4168 -1.2754  0.4174
 3527SOL     OW22042   2.286   4.024   5.122 -0.0651 -0.3080  0.7012
 3527SOL    HW122043   2.220   4.071   5.172 -0.2956  0.3389 -0.1911
 3527SOL    HW222044   2.350   4.092   5.100 -0.2585 -0.0495  0.9443
 3528SOL     OW22045   0.033   2.133   8.026 -0.1911 -0.1128  0.2618
 3528SOL    HW122046   4.688   2.157   7.962  0.1910  0.1837 -0.0220
 3528SOL    HW222047   0.094   2.096   7.963 -0.9156  0.1863 -0.6070
 3529SOL     OW22048   3.307   0.407   9.965  0.1068  0.2860 -0.1894
 3529SOL    HW122049   3.401   0.406   9.985 -0.2526  3.2152  1.6370
 3529SOL    HW222050   3.298   0.498   9.993  0.7074 -0.5354  2.6135
 3530SOL     OW22051   0.811   4.347   1.351 -0.0549  0.1257 -0.0450
 3530SOL    HW122052   0.878   4.280   1.366  0.6173  0.5346 -1.1783
 3530SOL    HW222053   0.799   4.329   1.258 -0.9055 -0.5852  0.2034
 3531SOL     OW22054   3.404   2.482  16.915  0.2478 -0.3833 -0.2475
 3531SOL    HW122055   3.314   2.512  16.928 -0.1750 -1.9044  0.3609
 3531SOL    HW222056   3.407   2.481  16.819  1.7595 -0.8739 -0.1937
 3532SOL     OW22057   2.052   3.856   3.227  0.6348 -0.2911  0.0123
 3532SOL    HW122058   2.009   3.859   3.141 -0.2602  1.2746  0.5118
 3532SOL    HW222059   2.109   3.783   3.205  0.5562 -0.7228  1.2521
 3533SOL     OW22060   2.094   2.916  16.046  0.1955 -0.0467  0.0893
 3533SOL    HW122061   2.002   2.890  16.036 -0.4418  2.0459  0.6042
 3533SOL    HW222062   2.127   2.856  16.113  0.4652  0.1031  0.0891
 3534SOL     OW22063   3.088   0.875   4.193 -0.0050 -0.1137 -0.2320
 3534SOL    HW122064   3.108   0.879   4.099  1.7066  1.7225  0.2088
 3534SOL    HW222065   3.039   0.956   4.207 -2.1488 -1.3921 -0.3543
 3535SOL     OW22066   4.663   2.229  13.867 -0.3368 -0.4516 -0.0072
 3535SOL    HW122067   4.578   2.187  13.880 -1.1798  1.9247  2.1426
 3535SOL    HW222068   4.685   2.265  13.953  0.7746 -0.3046 -0.3518
 3536SOL     OW22069   0.992   2.099   5.943  0.1825  0.7335 -0.5556
 3536SOL    HW122070   0.928   2.170   5.948 -3.0064 -2.2198  0.8182
 3536SOL    HW222071   1.006   2.099   5.848  0.4497  1.7134 -0.5149
 3537SOL     OW22072   0.657   4.665   4.087  0.2801 -0.6872 -0.2216
 3537SOL    HW122073   0.649   4.703   3.999  0.7083  0.8064  0.3868
 3537SOL    HW222074   0.573   4.621   4.101  0.0627 -0.0006  0.6116
 3538SOL     OW22075   2.280   1.448   2.954  0.3451 -0.3495  0.1740
 3538SOL    HW122076   2.274   1.383   3.024 -0.0555  2.2742  2.5780
 3538SOL    HW222077   2.281   1.390   2.878 -1.3809 -0.2312  0.0460
 3539SOL     OW22078   0.255   2.389   5.849  0.2381 -0.1813  0.2527
 3539SOL    HW122079   0.280   2.470   5.806  0.1527  0.6792  1.7947
 3539SOL    HW222080   0.332   2.370   5.904  0.4458  0.3355  0.1335
 3540SOL     OW22081   0.432   3.747   3.527  0.4764 -0.0780 -0.1779
 3540SOL    HW122082   0.389   3.831   3.515  2.3381  1.0879  1.3297
 3540SOL    HW222083   0.488   3.760   3.604  2.1988 -1.6099 -1.1575
 3541SOL     OW22084   2.612   0.869   9.376 -0.2450 -0.3640 -0.2976
 3541SOL    HW122085   2.684   0.932   9.373 -0.8334  0.3466  0.4090
 3541SOL    HW222086   2.584   0.875   9.468  1.1702 -1.0618  0.1809
 3542SOL     OW22087   2.118   2.788   1.898 -0.7059 -0.2642  0.0064
 3542SOL    HW122088   2.113   2.874   1.938  0.1858  0.3497 -1.2190
 3542SOL    HW222089   2.213   2.790   1.893 -0.7727  0.4803 -0.9223
 3543SOL     OW22090   1.749   2.753  10.038  0.5830  0.4294  0.2566
 3543SOL    HW122091   1.777   2.841  10.011 -1.3383  0.9498 -0.0515
 3543SOL    HW222092   1.657   2.750  10.014  0.4114  2.6596  0.6669
 3544SOL     OW22093   1.476   0.161  16.977  0.7364  0.0215 -0.5030
 3544SOL    HW122094   1.416   0.125  16.911 -1.1504  0.5232  0.9294
 3544SOL    HW222095   1.559   0.168  16.930 -0.1029 -1.0877 -2.1678
 3545SOL     OW22096   1.970   2.036   0.881 -0.2697  0.0035 -0.5802
 3545SOL    HW122097   1.939   1.950   0.852 -1.8084  0.2586  0.3323
 3545SOL    HW222098   2.055   2.022   0.923 -1.1173 -0.4879  0.9643
 3546SOL     OW22099   1.428   1.059   5.442  0.3348  0.4884  0.2598
 3546SOL    HW122100   1.350   1.113   5.429  0.0036  0.0125  0.2844
 3546SOL    HW222101   1.469   1.067   5.356 -1.0379  1.8596 -0.2678
 3547SOL     OW22102   0.772   3.873   5.306  0.0348  0.3442  0.2010
 3547SOL    HW122103   0.706   3.849   5.241 -0.5487  0.8663  0.6037
 3547SOL    HW222104   0.853   3.888   5.258 -0.0919 -1.7371 -0.6790
 3548SOL     OW22105   2.550   1.237   0.252 -0.1780 -0.2339  0.2046
 3548SOL    HW122106   2.564   1.195   0.337 -0.8427  0.6366  0.7339
 3548SOL    HW222107   2.594   1.320   0.266  2.7902 -1.2746 -2.8862
 3549SOL     OW22108   0.938   1.292   5.447  0.3019  0.2056  0.7514
 3549SOL    HW122109   0.853   1.255   5.468 -0.2298  0.1056 -1.6082
 3549SOL    HW222110   0.921   1.377   5.488  2.0583  0.1418  1.6351
 3550SOL     OW22111   0.246   2.107   7.631 -0.1763 -0.2899  0.8187
 3550SOL    HW122112   0.227   2.198   7.610 -1.0255 -0.1909  1.9725
 3550SOL    HW222113   0.181   2.059   7.581  2.5369 -0.7562 -2.2672
 3551SOL     OW22114   3.875   0.581   4.398  0.4173 -0.0700  0.9022
 3551SOL    HW122115   3.884   0.594   4.303 -1.9612  1.2115  0.8557
 3551SOL    HW222116   3.963   0.595   4.433  0.3047  4.2564 -0.5076
 3552SOL     OW22117   2.555   4.521   8.560 -0.3284 -0.0183 -0.2154
 3552SOL    HW122118   2.651   4.524   8.565 -0.5476  3.1132  2.0343
 3552SOL    HW222119   2.527   4.472   8.637  1.7290 -0.7498  0.0572
 3553SOL     OW22120   0.452   1.330   8.342 -0.6365  0.1390 -0.1883
 3553SOL    HW122121   0.434   1.333   8.436 -2.3834 -1.3153 -0.4897
 3553SOL    HW222122   0.544   1.357   8.343  0.2766 -2.9629 -1.5430
 3554SOL     OW22123   3.245   0.214   1.138 -0.2922 -0.6579 -0.0986
 3554SOL    HW122124   3.327   0.168   1.154  0.1345  0.5652  1.1557
 3554SOL    HW222125   3.185   0.152   1.096  0.6634 -1.4292 -0.3266
 3555SOL     OW22126   1.197   0.176   4.782  0.0125 -1.0206  0.2037
 3555SOL    HW122127   1.119   0.224   4.754  0.2278  0.1021  1.5497
 3555SOL    HW222128   1.265   0.243   4.776  0.2792 -1.3920 -1.0578
 3556SOL     OW22129   4.228   2.598   7.869  0.8330  0.7460  0.0292
 3556SOL    HW122130   4.292   2.663   7.840  0.6043  0.9544 -0.0067
 3556SOL    HW222131   4.191   2.656   7.935 -0.4670 -0.4892  0.3818
 3557SOL     OW22132   0.866   4.634  12.534  0.0016  0.2839  0.2440
 3557SOL    HW122133   0.799   4.568  12.555 -1.3251  1.2344 -1.0479
 3557SOL    HW222134   0.869   4.682  12.617 -1.2445  1.3114 -0.3015
 3558SOL     OW22135   1.856   3.860   5.532  0.0319 -0.5346  0.1816
 3558SOL    HW122136   1.855   3.889   5.441  3.9036 -0.2362  0.2537
 3558SOL    HW222137   1.767   3.867   5.566  1.4117  1.0285  3.4840
 3559SOL     OW22138   3.249   1.541   4.675  0.3156  1.0016 -0.8218
 3559SOL    HW122139   3.297   1.504   4.601 -0.2536  0.1295 -0.7608
 3559SOL    HW222140   3.284   1.630   4.679  1.3822  0.5010  0.9204
 3560SOL     OW22141   3.878   3.399  15.163  0.0267  0.0515  0.1789
 3560SOL    HW122142   3.862   3.452  15.085 -2.0371 -2.4668 -1.1117
 3560SOL    HW222143   3.969   3.370  15.151 -0.2757  0.2841 -2.7400
 3561SOL     OW22144   2.050   4.092   5.246  0.3523  0.9331  0.0569
 3561SOL    HW122145   2.025   4.149   5.318 -0.9681 -2.1645  2.0245
 3561SOL    HW222146   1.991   4.019   5.263  0.0281  0.6560 -2.1858
 3562SOL     OW22147   3.314   4.701   7.577 -0.0118 -0.6070 -0.2238
 3562SOL    HW122148   3.328   0.033   7.499  1.1944 -1.5980 -0.6940
 3562SOL    HW222149   3.405   4.680   7.599 -0.5175 -2.6947 -0.0636
 3563SOL     OW22150   3.787   0.825   7.721  0.0506  0.5962  0.0101
 3563SOL    HW122151   3.879   0.853   7.724 -0.1692  1.4124 -0.5821
 3563SOL    HW222152   3.772   0.777   7.802 -1.2508  2.0225  0.6354
 3564SOL     OW22153   3.352   0.694  10.859  1.3294 -0.2064  0.3321
 3564SOL    HW122154   3.277   0.698  10.800 -0.1864  2.1748  2.4045
 3564SOL    HW222155   3.352   0.782  10.898 -0.9138  0.2223 -0.6361
 3565SOL     OW22156   3.996   3.674   6.357 -0.0177 -0.1251 -0.1491
 3565SOL    HW122157   3.983   3.725   6.436 -0.1249 -1.2844  0.5832
 3565SOL    HW222158   4.039   3.594   6.388  1.1439  0.1062 -1.1657
 3566SOL     OW22159   0.321   4.352   5.386  0.8786 -0.4355 -0.7780
 3566SOL    HW122160   0.362   4.361   5.300 -1.0251  0.6672 -1.5664
 3566SOL    HW222161   0.398   4.359   5.443 -0.1958  2.2829  0.3468
 3567SOL     OW22162   4.193   1.001  10.230  0.4765 -0.5278  0.1086
 3567SOL    HW122163   4.122   0.986  10.168  0.3758  2.6764 -0.5212
 3567SOL    HW222164   4.269   1.012  10.174 -0.9954 -0.0589 -1.7936
 3568SOL     OW22165   1.369   2.835  15.649 -0.3374  0.3228  0.0554
 3568SOL    HW122166   1.420   2.799  15.721 -0.0041 -3.0331 -1.8724
 3568SOL    HW222167   1.421   2.910  15.620 -0.2637  0.1581 -0.2348
 3569SOL     OW22168   2.100   4.671  10.059 -0.0779  0.1528 -0.2408
 3569SOL    HW122169   2.079   0.043  10.065  0.6773  0.1486  2.6415
 3569SOL    HW222170   2.195   4.678  10.059 -0.1361  0.9386 -0.7523
 3570SOL     OW22171   2.151   2.384   7.230 -0.0002 -0.8288 -0.1039
 3570SOL    HW122172   2.213   2.311   7.237 -0.6833 -1.4427 -0.5262
 3570SOL    HW222173   2.130   2.392   7.137 -4.2199  0.0860  0.9362
 3571SOL     OW22174   1.129   0.415   6.726 -0.0782  0.1587  0.6313
 3571SOL    HW122175   1.183   0.456   6.793  0.9086 -0.1820  0.0453
 3571SOL    HW222176   1.060   0.375   6.779  0.0284 -0.2327  0.4811
 3572SOL     OW22177   3.310   3.339   0.318  0.5950  0.9880 -0.2825
 3572SOL    HW122178   3.315   3.289   0.400 -2.3492  1.0764 -0.0472
 3572SOL    HW222179   3.392   3.324   0.272  0.2132  1.6780 -1.1780
 3573SOL     OW22180   0.050   3.251   6.920  0.3697  0.0579 -0.9547
 3573SOL    HW122181   0.100   3.170   6.936  0.8980  0.5503 -0.1256
 3573SOL    HW222182   0.112   3.291   6.859  1.1499 -0.4616 -0.5101
 3574SOL     OW22183   1.899   0.396   5.208  0.0729  0.3270  0.6142
 3574SOL    HW122184   1.874   0.423   5.296  1.5966  0.1579  1.0941
 3574SOL    HW222185   1.990   0.373   5.224  0.1739  0.1628 -0.1972
 3575SOL     OW22186   0.920   4.212  10.840 -0.0787  0.3978  0.0720
 3575SOL    HW122187   0.838   4.203  10.889  0.4251 -0.4519  0.7634
 3575SOL    HW222188   0.882   4.226  10.753  2.5667 -0.4660 -1.2505
 3576SOL     OW22189   2.609   0.136   8.382 -0.5394  0.7917 -0.2517
 3576SOL    HW122190   2.684   0.105   8.432 -1.0178  0.5844  0.3422
 3576SOL    HW222191   2.543   0.154   8.450 -0.5595  2.8224 -0.8301
 3577SOL     OW22192   1.844   0.140   2.042 -0.6176 -0.3550 -0.6009
 3577SOL    HW122193   1.764   0.127   2.093 -0.7090 -1.4530 -1.0213
 3577SOL    HW222194   1.899   0.185   2.107 -0.4915  1.3265 -1.8712
 3578SOL     OW22195   1.614   0.541  14.511 -1.0037 -0.1310 -0.2665
 3578SOL    HW122196   1.546   0.476  14.529  0.9740 -2.3092 -0.6949
 3578SOL    HW222197   1.560   0.616  14.486 -0.4028  0.6903  0.9140
 3579SOL     OW22198   0.819   0.624   6.373 -0.1367  0.1369  0.2170
 3579SOL    HW122199   0.893   0.579   6.414  0.9855  2.3559  0.6372
 3579SOL    HW222200   0.830   0.715   6.401 -5.0854  0.6741  0.3761
 3580SOL     OW22201   0.959   3.792   3.375  0.0996  0.2798  0.3896
 3580SOL    HW122202   0.917   3.863   3.423 -0.6553 -0.1379  0.3573
 3580SOL    HW222203   0.972   3.844   3.295 -2.2626  0.7035  0.2762
 3581SOL     OW22204   0.187   1.225   7.251 -0.6848  0.1521  0.2394
 3581SOL    HW122205   0.152   1.312   7.266  1.9796  1.0549  1.2866
 3581SOL    HW222206   0.279   1.251   7.258 -0.6562 -0.2305  1.4144
 3582SOL     OW22207   1.944   1.504   3.851  0.0368  0.4684 -0.7593
 3582SOL    HW122208   1.946   1.508   3.755 -2.3859 -0.1118 -0.8295
 3582SOL    HW222209   1.926   1.411   3.866 -1.3410  0.8457 -0.0834
 3583SOL     OW22210   2.945   2.868  16.968 -1.1247 -0.3332 -0.2697
 3583SOL    HW122211   2.888   2.791  16.977 -0.8806 -0.3493  1.0418
 3583SOL    HW222212   2.997   2.853  16.889  1.8824 -0.2994  1.7316
 3584SOL     OW22213   3.488   2.869  17.574 -0.2285 -0.4825 -0.1429
 3584SOL    HW122214   3.395   2.867  17.551 -0.0212 -1.7630 -0.8369
 3584SOL    HW222215   3.517   2.845  17.486  1.5391  1.8496 -0.2147
 3585SOL     OW22216   2.950   2.821   0.820  0.7249  0.2593  0.0150
 3585SOL    HW122217   2.896   2.795   0.896  1.1578 -2.3234 -0.5611
 3585SOL    HW222218   2.993   2.904   0.838 -1.2556  1.4578 -0.8556
 3586SOL     OW22219   1.349   0.648   0.349 -0.0389 -0.4736  0.1801
 3586SOL    HW122220   1.259   0.633   0.376 -0.7435  0.6467 -1.5431
 3586SOL    HW222221   1.395   0.618   0.428 -0.8109 -2.2953 -0.0612
 3587SOL     OW22222   1.645   1.080   8.362  0.2467  0.1017 -0.3849
 3587SOL    HW122223   1.593   1.160   8.369 -0.2229 -0.2837  0.6466
 3587SOL    HW222224   1.586   1.034   8.302  1.3788  0.4403 -1.7249
 3588SOL     OW22225   2.195   3.112  10.824 -0.1465  0.4734 -0.5922
 3588SOL    HW122226   2.119   3.161  10.793 -0.5945  1.1903  1.7186
 3588SOL    HW222227   2.159   3.023  10.821  0.4874  0.2552 -1.9019
 3589SOL     OW22228   2.566   2.874   0.234 -0.5028 -0.5698 -0.2633
 3589SOL    HW122229   2.641   2.816   0.224  0.8222  1.4097 -1.7473
 3589SOL    HW222230   2.595   2.956   0.196 -0.3795 -1.0621 -1.2209
 3590SOL     OW22231   1.033   2.209   7.092 -0.4020  0.3703 -0.0404
 3590SOL    HW122232   0.950   2.236   7.052 -0.8417  0.3310  0.8244
 3590SOL    HW222233   1.082   2.194   7.011  1.1910  1.7109  0.6907
 3591SOL     OW22234   1.312   4.405   6.886  0.4751 -0.3995 -0.1757
 3591SOL    HW122235   1.229   4.395   6.840  0.2535  3.7813 -0.7085
 3591SOL    HW222236   1.288   4.379   6.975 -0.9197 -0.1532 -0.4722
 3592SOL     OW22237   1.258   0.379   5.304  0.0898  0.7202  0.1294
 3592SOL    HW122238   1.201   0.414   5.236 -0.4950 -0.6611 -0.0956
 3592SOL    HW222239   1.308   0.457   5.329 -1.2798  1.0339  1.8805
 3593SOL     OW22240   4.476   2.296   5.712  0.5323  0.0124 -0.0948
 3593SOL    HW122241   4.501   2.206   5.692  1.0138  0.3426 -0.9643
 3593SOL    HW222242   4.554   2.345   5.686  0.8042 -1.0954 -1.3724
 3594SOL     OW22243   3.894   3.403   6.866 -0.5871  0.3202  0.3151
 3594SOL    HW122244   3.866   3.401   6.774  0.4973  1.0441 -0.0374
 3594SOL    HW222245   3.813   3.383   6.911 -0.7690  0.6222  0.1229
 3595SOL     OW22246   0.674   1.350  14.427 -0.2392 -0.1375  0.3757
 3595SOL    HW122247   0.687   1.304  14.344 -0.6773 -0.9262  0.7468
 3595SOL    HW222248   0.668   1.279  14.491 -1.0972 -0.2060  0.2144
 3596SOL     OW22249   2.668   0.073   2.954 -0.4969  0.0797  0.0760
 3596SOL    HW122250   2.724   0.015   2.903  0.5184  1.2859 -0.1817
 3596SOL    HW222251   2.577   0.049   2.934 -0.7246 -0.3795  1.7016
 3597SOL     OW22252   3.993   0.636  15.478  0.8750 -0.0381 -0.5692
 3597SOL    HW122253   3.898   0.629  15.470  1.1004 -0.1091 -3.1792
 3597SOL    HW222254   4.018   0.545  15.498 -0.3158 -0.3224 -0.4045
 3598SOL     OW22255   3.887   0.193   0.960  0.2881  0.0392  0.3017
 3598SOL    HW122256   3.828   0.136   0.910  0.8838  0.4655 -0.8715
 3598SOL    HW222257   3.891   0.265   0.898 -0.0373 -0.9178 -0.8419
 3599SOL     OW22258   2.436   2.669   0.804 -0.0452  0.1115  0.0417
 3599SOL    HW122259   2.516   2.633   0.765 -0.6469  1.3056 -2.2406
 3599SOL    HW222260   2.439   2.611   0.881 -0.4450 -0.6161 -0.4847
 3600SOL     OW22261   3.709   0.662   4.671 -0.0988  0.0442 -0.3434
 3600SOL    HW122262   3.716   0.634   4.580 -1.0019 -0.3686 -0.2848
 3600SOL    HW222263   3.780   0.725   4.680  0.3759 -0.5144 -0.1830
 3601SOL     OW22264   3.159   2.546  13.657 -0.2415  0.5233  0.2223
 3601SOL    HW122265   3.067   2.564  13.639  0.2244  0.9574 -1.6978
 3601SOL    HW222266   3.181   2.622  13.711  0.2879  0.6220 -0.1302
 3602SOL     OW22267   0.420   4.351   9.096  0.6570 -0.1865  0.1688
 3602SOL    HW122268   0.507   4.346   9.136  0.2319 -0.8859  1.0053
 3602SOL    HW222269   0.414   4.446   9.088 -3.2224 -0.4647 -0.4791
 3603SOL     OW22270   3.867   0.869   6.598 -0.2685  0.3193 -0.1679
 3603SOL    HW122271   3.842   0.955   6.632  1.3465  0.9259 -0.5247
 3603SOL    HW222272   3.936   0.896   6.537 -0.5634  0.1185 -0.5930
 3604SOL     OW22273   2.752   0.203   8.157  0.2968  0.1971 -0.0510
 3604SOL    HW122274   2.802   0.122   8.150  0.4936  0.5472 -2.9015
 3604SOL    HW222275   2.679   0.173   8.212  1.5781 -0.9371  1.0206
 3605SOL     OW22276   1.931   0.678  13.897 -0.6211  0.1969  0.2245
 3605SOL    HW122277   1.896   0.689  13.985  2.3286  1.9841  1.1768
 3605SOL    HW222278   2.008   0.734  13.893 -0.8202  0.3493 -1.6703
 3606SOL     OW22279   4.134   4.532   2.742 -0.2638  0.1398  0.6491
 3606SOL    HW122280   4.195   4.472   2.785  0.3504  0.4408  0.1916
 3606SOL    HW222281   4.083   4.558   2.819  0.2878 -0.6730  1.3024
 3607SOL     OW22282   3.909   1.419   7.680 -0.6046  0.1769  0.3606
 3607SOL    HW122283   3.846   1.482   7.715 -1.6753 -0.9320  0.4215
 3607SOL    HW222284   3.875   1.341   7.724 -0.9623 -0.4268 -1.0049
 3608SOL     OW22285   4.365   4.321  11.856  0.4940  0.3775  0.3747
 3608SOL    HW122286   4.294   4.257  11.849  1.7497 -0.8039 -1.7052
 3608SOL    HW222287   4.307   4.396  11.863  1.0071  0.7870  0.2057
 3609SOL     OW22288   2.929   2.706   2.806 -0.1118 -0.2142  0.4605
 3609SOL    HW122289   2.951   2.692   2.714  1.8188  2.7495  0.4813
 3609SOL    HW222290   3.006   2.737   2.853 -1.0750 -1.0122  2.5203
 3610SOL     OW22291   3.613   3.939   4.155  0.2503 -0.9272 -0.7557
 3610SOL    HW122292   3.551   4.003   4.191  1.9393  0.5625 -0.5285
 3610SOL    HW222293   3.572   3.856   4.182 -2.7503  0.6177 -0.5679
 3611SOL     OW22294   3.762   1.141  12.053 -0.3449  0.4201 -0.3623
 3611SOL    HW122295   3.673   1.165  12.079 -0.5727 -2.6195  1.6468
 3611SOL    HW222296   3.752   1.120  11.960  1.8463  0.1627 -0.5394
 3612SOL     OW22297   0.576   1.099  13.570 -0.2742  0.0241  0.0570
 3612SOL    HW122298   0.537   1.033  13.512 -2.7592  0.2158  1.5224
 3612SOL    HW222299   0.554   1.059  13.654  0.9111  0.9602  0.8159
 3613SOL     OW22300   1.072   1.180   1.142 -0.3351  0.2278  0.3528
 3613SOL    HW122301   0.985   1.142   1.128 -0.3044 -0.2056  1.3329
 3613SOL    HW222302   1.087   1.109   1.204 -3.2931  0.4521  1.3533
 3614SOL     OW22303   0.957   3.863   3.107  0.0134 -0.4943  0.1904
 3614SOL    HW122304   0.944   3.927   3.037  1.9913 -1.7405 -1.3332
 3614SOL    HW222305   0.972   3.779   3.064 -0.0169  0.5131 -1.8077
 3615SOL     OW22306   1.304   0.102   9.211 -0.0064  0.0065 -0.3942
 3615SOL    HW122307   1.247   0.156   9.156  1.5349  1.0018 -1.0027
 3615SOL    HW222308   1.333   0.180   9.259 -0.6685 -0.1192  0.2168
 3616SOL     OW22309   2.341   3.353   2.645  0.4770  0.8002  0.0866
 3616SOL    HW122310   2.427   3.316   2.663 -0.0484 -0.2024  0.5578
 3616SOL    HW222311   2.362   3.446   2.653 -0.8551  1.1676 -0.5948
 3617SOL     OW22312   0.402   1.479   7.430  0.1574  0.0163  0.1472
 3617SOL    HW122313   0.324   1.423   7.433 -0.3304  0.5755 -1.8691
 3617SOL    HW222314   0.420   1.499   7.522  0.5990  1.6779 -0.2914
 3618SOL     OW22315   4.308   1.160   9.334 -0.2133 -0.8790 -0.3117
 3618SOL    HW122316   4.271   1.072   9.338 -3.0581  0.5233  4.6074
 3618SOL    HW222317   4.278   1.193   9.250  2.0407 -1.2685 -1.2832
 3619SOL     OW22318   4.573   1.907   7.675  0.3916  0.2615 -0.0593
 3619SOL    HW122319   4.535   1.821   7.691 -1.3633  1.1031  0.1843
 3619SOL    HW222320   4.667   1.887   7.668  0.9020  2.2267  1.1104
 3620SOL     OW22321   3.223   3.048   4.516 -0.6667 -0.6066 -0.7639
 3620SOL    HW122322   3.144   3.001   4.543  0.8689 -1.1495  2.7688
 3620SOL    HW222323   3.221   3.048   4.420  0.9210  1.8790 -0.8053
 3621SOL     OW22324   1.698   3.689  13.856  0.0873  0.4330  0.7329
 3621SOL    HW122325   1.647   3.654  13.784  1.4756  0.1120 -0.0877
 3621SOL    HW222326   1.717   3.777  13.825  0.0635 -0.0818 -0.7297
 3622SOL     OW22327   4.144   3.309   1.287 -0.4560 -0.4201  0.2633
 3622SOL    HW122328   4.152   3.278   1.377  0.3997 -2.5752 -0.5547
 3622SOL    HW222329   4.058   3.272   1.268 -0.9774  1.1678 -0.5126
 3623SOL     OW22330   3.665   0.492  10.976  0.1270 -0.6350 -0.0164
 3623SOL    HW122331   3.574   0.513  10.998  1.4638  1.7644  3.2386
 3623SOL    HW222332   3.716   0.561  11.019 -0.2841 -2.1883  2.9909
 3624SOL     OW22333   4.294   4.345   4.986  0.4568  0.1904  0.2205
 3624SOL    HW122334   4.242   4.299   4.920  0.3027 -0.3167  0.6939
 3624SOL    HW222335   4.258   4.317   5.070  1.0429  1.8770  1.0177
 3625SOL     OW22336   2.079   3.817   8.345  0.1108 -0.0692  0.5984
 3625SOL    HW122337   2.075   3.796   8.252  0.6336  1.7627  0.1666
 3625SOL    HW222338   1.988   3.809   8.373  0.4357  1.2622  2.0873
 3626SOL     OW22339   0.230   4.504   8.726 -0.2279  0.1165  1.1371
 3626SOL    HW122340   0.202   4.526   8.638 -0.6794  0.9229  1.4902
 3626SOL    HW222341   0.151   4.514   8.778 -0.9023 -0.0230  0.1269
 3627SOL     OW22342   2.731   4.388   9.072 -0.3843 -0.5564  0.2065
 3627SOL    HW122343   2.704   4.480   9.063 -1.9650 -0.9578  0.7950
 3627SOL    HW222344   2.806   4.394   9.012 -0.6337  1.9039  0.1415
 3628SOL     OW22345   3.483   2.012   3.067 -0.3765  0.2010 -0.1490
 3628SOL    HW122346   3.521   1.936   3.111  0.8872  0.7837 -0.2356
 3628SOL    HW222347   3.429   1.965   3.004  0.6995  0.6288 -1.3736
 3629SOL     OW22348   1.119   4.057   2.211 -0.4843 -0.3185  0.1936
 3629SOL    HW122349   1.051   3.994   2.188  0.8348 -2.3766  2.0005
 3629SOL    HW222350   1.173   4.043   2.133  1.5086 -0.4902  1.6204
 3630SOL     OW22351   3.883   2.220  16.967 -0.5221 -0.0082 -0.4382
 3630SOL    HW122352   3.843   2.243  17.051 -0.4289  0.5473 -0.5491
 3630SOL    HW222353   3.798   2.208  16.925 -0.3500 -3.6956  0.2954
 3631SOL     OW22354   2.741   0.121   3.315  0.1645  0.0872  0.0994
 3631SOL    HW122355   2.703   0.208   3.310  2.0345  1.0419  2.3277
 3631SOL    HW222356   2.670   0.058   3.300 -1.3600  1.8774 -0.1960
 3632SOL     OW22357   2.295   1.397   0.404 -0.4996 -0.3420  0.2355
 3632SOL    HW122358   2.219   1.451   0.424  0.4851 -0.1069  3.4527
 3632SOL    HW222359   2.244   1.317   0.417 -4.0243  1.8674 -0.0554
 3633SOL     OW22360   3.066   3.938   9.134 -0.1855 -0.3890 -0.1120
 3633SOL    HW122361   3.160   3.952   9.125 -0.4950  1.6966  0.0284
 3633SOL    HW222362   3.052   3.981   9.218  1.7229 -0.4102  0.2165
 3634SOL     OW22363   2.120   2.754  13.568 -0.1639  0.6147  0.0500
 3634SOL    HW122364   2.107   2.799  13.485  0.3583 -0.9369 -0.8505
 3634SOL    HW222365   2.179   2.686  13.537  0.4588  0.6175  1.2156
 3635SOL     OW22366   4.549   4.689   2.539  0.8046 -0.4479  0.0436
 3635SOL    HW122367   4.565   4.595   2.550  1.3008 -0.3118  0.5149
 3635SOL    HW222368   4.566   4.717   2.629 -0.8902 -1.3285  0.6490
 3636SOL     OW22369   0.508   2.611   2.702 -0.0847  0.4227  0.2080
 3636SOL    HW122370   0.508   2.694   2.654 -0.6181  0.9351  1.0899
 3636SOL    HW222371   0.542   2.557   2.630  1.9464 -0.1153  1.5829
 3637SOL     OW22372   3.461   2.303   6.659  0.5925 -0.2497 -0.5067
 3637SOL    HW122373   3.492   2.312   6.569  1.8398  0.2413 -0.0312
 3637SOL    HW222374   3.535   2.253   6.693 -0.6739 -0.7150  1.5973
 3638SOL     OW22375   3.147   2.310   3.044  0.1222  0.3758  0.2247
 3638SOL    HW122376   3.239   2.311   3.020  0.2761  0.9465  0.8334
 3638SOL    HW222377   3.125   2.227   3.086  1.4721 -0.0573  0.0859
 3639SOL     OW22378   1.707   2.509  17.186 -0.7006  0.5915 -0.1051
 3639SOL    HW122379   1.789   2.546  17.153 -1.6565  3.1216  0.3220
 3639SOL    HW222380   1.649   2.585  17.196 -0.0706  1.0834 -0.1639
 3640SOL     OW22381   0.572   0.017  16.347  0.8082  0.0270 -0.4410
 3640SOL    HW122382   0.504   0.049  16.287  1.5213 -0.7038 -1.6393
 3640SOL    HW222383   0.557   4.644  16.335  0.0296  0.0915  0.0369
 3641SOL     OW22384   1.729   1.463   7.154  0.3253  0.0433  0.7313
 3641SOL    HW122385   1.684   1.534   7.200 -0.4235  0.0023  0.0476
 3641SOL    HW222386   1.818   1.476   7.189  0.8780 -0.4667 -0.5119
 3642SOL     OW22387   3.354   1.282   8.055 -0.5451  0.1757  0.3347
 3642SOL    HW122388   3.280   1.334   8.085  0.3527  2.2454 -1.0641
 3642SOL    HW222389   3.416   1.338   8.102 -0.0518 -0.8642  0.9339
 3643SOL     OW22390   2.008   3.791   4.751 -0.1832  0.5023  0.1105
 3643SOL    HW122391   1.998   3.785   4.656 -0.3503 -2.5423  0.3043
 3643SOL    HW222392   2.104   3.797   4.752 -0.1899  0.0146  3.3084
 3644SOL     OW22393   1.219   2.259  10.925  0.8413  0.6777 -0.2464
 3644SOL    HW122394   1.127   2.243  10.945  0.5656  3.8487  1.0900
 3644SOL    HW222395   1.260   2.208  10.995  0.6790 -1.7435 -1.9261
 3645SOL     OW22396   4.337   2.011   4.129 -0.0670  0.4243  0.1212
 3645SOL    HW122397   4.397   2.003   4.055 -2.2679 -0.9412 -1.4992
 3645SOL    HW222398   4.275   1.941   4.108  0.1690  0.1852  0.2276
 3646SOL     OW22399   3.620   2.788   3.441  0.1434  0.5480  0.4812
 3646SOL    HW122400   3.574   2.826   3.366  0.2379  1.1930  0.7473
 3646SOL    HW222401   3.588   2.851   3.505 -1.7050  2.5091 -2.3515
 3647SOL     OW22402   0.521   1.921   2.487  0.2091 -0.4405 -0.1120
 3647SOL    HW122403   0.448   1.870   2.452 -0.9778  1.7839 -0.8763
 3647SOL    HW222404   0.493   2.008   2.456  0.2758  0.5250  2.5099
 3648SOL     OW22405   3.706   2.833   5.934  0.0704  0.3327  0.0503
 3648SOL    HW122406   3.675   2.924   5.940  1.6635  0.7217  2.2758
 3648SOL    HW222407   3.757   2.821   6.014  0.7492 -0.2559 -0.4766
 3649SOL     OW22408   1.974   1.358   2.117 -0.3085 -0.5187  0.1516
 3649SOL    HW122409   1.880   1.369   2.104  0.1917  1.1774 -2.0375
 3649SOL    HW222410   2.010   1.363   2.029 -0.6996  1.3485  0.1024
 3650SOL     OW22411   4.494   2.494   7.886 -0.2105 -0.3168  0.4020
 3650SOL    HW122412   4.533   2.469   7.970 -0.4781  0.9855  0.9200
 3650SOL    HW222413   4.413   2.443   7.884 -0.5792  0.2350  1.8397
 3651SOL     OW22414   2.066   0.690   4.898 -0.2244  0.0019 -0.6435
 3651SOL    HW122415   1.999   0.726   4.840  1.5072  1.1050 -1.9591
 3651SOL    HW222416   2.006   0.641   4.954 -1.9867  1.6498 -1.1005
 3652SOL     OW22417   2.777   3.070  17.062  0.1028 -0.1552  0.5440
 3652SOL    HW122418   2.762   3.115  16.979 -1.5430 -3.1034 -0.7321
 3652SOL    HW222419   2.833   2.995  17.043  0.1988 -0.2165  1.0674
 3653SOL     OW22420   2.373   0.802  14.327  0.2203 -0.2082 -0.0793
 3653SOL    HW122421   2.316   0.774  14.399  4.0854 -2.3889  2.1613
 3653SOL    HW222422   2.325   0.792  14.245 -0.9121  0.0739  0.5376
 3654SOL     OW22423   3.580   2.952  14.217  0.2710  0.0557  0.3988
 3654SOL    HW122424   3.594   2.930  14.309  0.1577 -1.4957  0.0381
 3654SOL    HW222425   3.572   2.860  14.191 -2.5004  1.1702 -2.6203
 3655SOL     OW22426   0.768   0.235   2.274 -0.5092 -0.3062  0.3772
 3655SOL    HW122427   0.695   0.172   2.268  0.5228 -1.4516 -0.1221
 3655SOL    HW222428   0.822   0.208   2.200 -1.1815 -0.4881 -0.0434
 3656SOL     OW22429   4.139   0.565   2.999  0.0257  0.4878  0.0393
 3656SOL    HW122430   4.058   0.598   2.958 -0.8141  0.2337  1.4924
 3656SOL    HW222431   4.153   0.644   3.052  2.3073 -0.0509  0.2010
 3657SOL     OW22432   0.559   3.571   2.132  0.2776 -0.2965 -0.3005
 3657SOL    HW122433   0.487   3.509   2.143 -1.3459  1.5866 -0.3762
 3657SOL    HW222434   0.605   3.560   2.215 -0.4512 -1.9000 -0.1062
 3658SOL     OW22435   1.177   3.506   4.363  0.3330  0.2443 -0.1189
 3658SOL    HW122436   1.254   3.515   4.418  0.2669  0.5270 -0.0686
 3658SOL    HW222437   1.126   3.457   4.427 -1.8414  1.9016 -0.5308
 3659SOL     OW22438   0.484   1.063   8.806 -0.4052 -0.1239 -0.2433
 3659SOL    HW122439   0.481   0.968   8.818  0.0459 -0.1610 -0.4228
 3659SOL    HW222440   0.398   1.076   8.846 -1.1142  0.0211 -1.8479
 3660SOL     OW22441   2.132   1.972   7.652  0.0136  0.1479 -0.2874
 3660SOL    HW122442   2.214   1.936   7.618 -0.0802 -1.4464  1.1693
 3660SOL    HW222443   2.149   2.065   7.666  1.2608  0.0378 -1.0144
 3661SOL     OW22444   2.672   3.470   8.640  0.2124  0.0885  0.1040
 3661SOL    HW122445   2.710   3.475   8.728  0.4353 -0.7311  0.0631
 3661SOL    HW222446   2.600   3.532   8.647  0.2377  0.2702 -1.3824
 3662SOL     OW22447   4.505   0.967   3.253  0.1165 -0.1974 -0.6871
 3662SOL    HW122448   4.600   0.958   3.250 -0.1895 -2.9789 -1.8104
 3662SOL    HW222449   4.472   0.908   3.320  2.3255  0.1416  0.6979
 3663SOL     OW22450   3.674   3.734   7.467  0.2830  0.4461 -0.1936
 3663SOL    HW122451   3.590   3.760   7.502 -0.0231  0.3133 -0.8265
 3663SOL    HW222452   3.736   3.750   7.538  1.2587  2.5024 -1.5103
 3664SOL     OW22453   1.228   1.786   8.946  0.0787 -0.2641 -0.1997
 3664SOL    HW122454   1.225   1.799   8.851 -0.3018 -1.1037 -0.3038
 3664SOL    HW222455   1.134   1.800   8.959  0.3199  0.2034  0.9830
 3665SOL     OW22456   1.561   3.980  17.033 -0.2453 -0.8533 -0.4299
 3665SOL    HW122457   1.605   3.978  16.948 -1.4430 -0.0326 -1.0673
 3665SOL    HW222458   1.475   3.945  17.010 -0.0351 -0.6521 -1.5296
 3666SOL     OW22459   2.076   0.335   9.549  0.6854  0.1316 -0.2360
 3666SOL    HW122460   2.098   0.315   9.640  0.9839  1.9355  0.0723
 3666SOL    HW222461   1.984   0.307   9.547  1.8674 -3.9031  1.3335
 3667SOL     OW22462   1.333   0.872   7.600  0.4753 -0.3302 -0.0279
 3667SOL    HW122463   1.329   0.813   7.524 -0.3838 -0.4031  0.0743
 3667SOL    HW222464   1.265   0.846   7.662  0.3372  1.0573  0.4032
 3668SOL     OW22465   2.144   0.312   8.244  0.1166  0.3569  0.1050
 3668SOL    HW122466   2.101   0.229   8.261 -0.1888  0.4650 -0.1402
 3668SOL    HW222467   2.185   0.327   8.329  1.3341  0.6804 -0.5365
 3669SOL     OW22468   3.239   4.593   3.855 -0.4591  0.3985 -0.2655
 3669SOL    HW122469   3.167   4.618   3.913 -1.0003  2.5730 -1.8882
 3669SOL    HW222470   3.276   4.535   3.922 -1.0646  1.2653  0.8277
 3670SOL     OW22471   3.853   1.500  15.371 -0.5135  0.2877 -0.3252
 3670SOL    HW122472   3.858   1.525  15.279 -0.6266  0.2132 -0.3509
 3670SOL    HW222473   3.765   1.531  15.390 -0.7900  0.9411 -2.6851
 3671SOL     OW22474   3.564   2.691   9.340  0.4338 -0.0392 -0.3417
 3671SOL    HW122475   3.491   2.632   9.317 -1.6539  2.0407  0.9370
 3671SOL    HW222476   3.636   2.631   9.322  0.5530  0.7637 -2.5453
 3672SOL     OW22477   2.829   0.814   5.674  0.0704  0.1634  0.5626
 3672SOL    HW122478   2.794   0.782   5.592  0.6283  0.6697  0.1244
 3672SOL    HW222479   2.823   0.742   5.737 -1.9134 -0.8184 -0.7656
 3673SOL     OW22480   4.617   3.707   6.623  0.1467  0.5697 -0.1643
 3673SOL    HW122481   4.642   3.684   6.713  1.3726 -0.2338 -0.7245
 3673SOL    HW222482   4.625   3.623   6.580  0.3583  0.3601  0.2851
 3674SOL     OW22483   4.231   3.413   2.888 -0.9057 -0.1671 -0.1693
 3674SOL    HW122484   4.266   3.402   2.800  0.1525  1.2263  0.0830
 3674SOL    HW222485   4.204   3.323   2.909 -1.2189 -0.4670 -1.8470
 3675SOL     OW22486   2.982   2.719   3.360 -0.3012 -0.2696  0.3888
 3675SOL    HW122487   2.889   2.699   3.371 -0.6627  1.6850  0.8591
 3675SOL    HW222488   3.002   2.648   3.299 -0.9743 -0.0505 -0.1016
 3676SOL     OW22489   3.838   4.542  14.646 -0.1265 -0.3808  0.2109
 3676SOL    HW122490   3.849   4.584  14.561  1.0387  2.3929  1.7217
 3676SOL    HW222491   3.908   4.479  14.630 -0.8067 -1.2211  0.5581
 3677SOL     OW22492   0.492   1.714   8.804 -0.5781  0.7605  0.2832
 3677SOL    HW122493   0.409   1.761   8.798  0.3970  2.5847  1.1534
 3677SOL    HW222494   0.554   1.787   8.797  0.1410  0.0555 -0.6718
 3678SOL     OW22495   2.125   1.300   0.727  0.1485 -0.1480 -0.0710
 3678SOL    HW122496   2.189   1.371   0.729 -0.1665  0.1668 -1.5588
 3678SOL    HW222497   2.186   1.226   0.718  2.0854  1.3222  0.8957
 3679SOL     OW22498   4.179   0.942  15.365  0.0165  0.2934  0.0982
 3679SOL    HW122499   4.268   0.918  15.389  0.7637  2.9652 -0.0669
 3679SOL    HW222500   4.133   0.872  15.412 -0.0680  0.3049  0.0336
 3680SOL     OW22501   0.783   1.188   3.308 -0.0983 -0.9358 -0.5291
 3680SOL    HW122502   0.776   1.256   3.240  0.1400  0.2330  0.6043
 3680SOL    HW222503   0.875   1.167   3.292  1.0570  2.6787  1.3626
 3681SOL     OW22504   4.548   2.623   0.800 -0.7353  0.2929 -1.3312
 3681SOL    HW122505   4.563   2.560   0.870  0.7829  0.1622 -1.7796
 3681SOL    HW222506   4.525   2.558   0.734 -0.2383  1.4148 -2.5933
 3682SOL     OW22507   2.477   0.834   1.508 -0.4639  0.4566 -0.1978
 3682SOL    HW122508   2.571   0.824   1.517 -0.4750  0.7602  0.2801
 3682SOL    HW222509   2.435   0.851   1.593 -0.0313 -0.8504  0.2739
 3683SOL     OW22510   3.423   2.939   5.487  0.1279 -0.1815 -0.0744
 3683SOL    HW122511   3.500   2.995   5.473  0.8546 -0.7976  1.3585
 3683SOL    HW222512   3.355   3.004   5.502 -0.1188 -0.5816  0.5458
 3684SOL     OW22513   2.537   3.823   4.633  0.2442 -0.6113 -0.1492
 3684SOL    HW122514   2.469   3.839   4.568  2.2271  3.6507 -1.1753
 3684SOL    HW222515   2.492   3.759   4.688  0.3564  0.6293  1.3760
 3685SOL     OW22516   1.025   0.893   5.368  0.3068  0.3509 -0.7273
 3685SOL    HW122517   0.961   0.887   5.439  0.6662 -1.0834 -0.5198
 3685SOL    HW222518   1.093   0.946   5.410 -0.9054  1.6038 -0.3353
 3686SOL     OW22519   0.357   3.019   7.540  0.2090  0.2637 -0.0116
 3686SOL    HW122520   0.270   3.056   7.551  0.7043  1.5601 -0.5060
 3686SOL    HW222521   0.406   3.094   7.508 -0.8103 -0.4458 -3.1441
 3687SOL     OW22522   1.061   4.110   4.565 -0.5626  0.2056  0.6094
 3687SOL    HW122523   1.095   4.088   4.652  0.7375  1.7643  0.4852
 3687SOL    HW222524   1.140   4.115   4.511 -1.9787  0.7268 -1.4019
 3688SOL     OW22525   3.435   4.650  15.011  0.4092  0.0004 -0.3502
 3688SOL    HW122526   3.462   4.623  14.924  0.7677  2.4295 -0.9949
 3688SOL    HW222527   3.513   4.627  15.061  1.1285  0.0297 -1.4528
 3689SOL     OW22528   4.053   2.193   8.193 -0.3837  0.3265  0.2955
 3689SOL    HW122529   4.120   2.220   8.256 -0.4602  2.1125 -0.3729
 3689SOL    HW222530   4.109   2.217   8.118 -0.3437  1.9586  0.8458
 3690SOL     OW22531   1.690   1.200   4.025 -0.0503  0.3002 -0.0961
 3690SOL    HW122532   1.712   1.176   3.934  0.4804  0.4146 -0.0009
 3690SOL    HW222533   1.706   1.115   4.068  2.9493  1.3306  0.8535
 3691SOL     OW22534   0.997   3.929   8.034 -0.2766 -0.1358 -0.5295
 3691SOL    HW122535   1.047   3.990   8.088  1.2105 -1.0491 -0.8606
 3691SOL    HW222536   1.015   3.963   7.946  2.0836 -0.1914 -0.0879
 3692SOL     OW22537   0.273   2.239  17.683  0.2718 -0.2373 -0.8541
 3692SOL    HW122538   0.353   2.290   0.003  0.3796 -0.7326  1.5605
 3692SOL    HW222539   0.270   2.188   0.077  0.0100 -1.3652 -1.5676
 3693SOL     OW22540   0.220   4.337   6.162 -0.4877 -0.7001  0.3351
 3693SOL    HW122541   0.278   4.351   6.086  0.0587  0.3527  0.9399
 3693SOL    HW222542   0.288   4.346   6.229 -0.1454  0.8236 -0.1925
 3694SOL     OW22543   0.466   1.783   6.079 -0.3538 -0.0163 -0.0400
 3694SOL    HW122544   0.410   1.827   6.015  0.7216 -0.0854 -1.0339
 3694SOL    HW222545   0.485   1.700   6.036  2.5116  0.1451  0.8787
 3695SOL     OW22546   1.245   3.598  11.521 -0.1008  0.6524  0.2278
 3695SOL    HW122547   1.251   3.528  11.586 -1.0278  0.5850  0.2388
 3695SOL    HW222548   1.154   3.605  11.493 -0.7311 -0.5117  1.9848
 3696SOL     OW22549   4.309   3.366  17.561 -0.0526  0.4892  0.1179
 3696SOL    HW122550   4.362   3.412  17.627  1.0564 -1.0122  0.2562
 3696SOL    HW222551   4.222   3.356  17.601  0.9679 -0.8129  1.9879
 3697SOL     OW22552   0.861   1.696   2.215 -0.0229  0.4538 -0.4091
 3697SOL    HW122553   0.838   1.771   2.270  0.5787  1.8769 -2.0785
 3697SOL    HW222554   0.905   1.747   2.147 -2.4019  2.9427 -0.1095
 3698SOL     OW22555   4.563   1.559   3.228  0.5697 -0.2278 -0.0356
 3698SOL    HW122556   4.561   1.539   3.321 -0.1567  2.8532  0.6222
 3698SOL    HW222557   4.625   1.494   3.195  0.5520 -0.2871  0.0475
 3699SOL     OW22558   1.248   0.336  17.071  0.4683  0.2293  0.2416
 3699SOL    HW122559   1.323   0.300  17.025  1.2033  2.0908 -0.0069
 3699SOL    HW222560   1.256   0.296  17.158  0.2700 -0.3440 -0.0012
 3700SOL     OW22561   4.280   3.545   3.677  0.1880  0.2393 -0.5045
 3700SOL    HW122562   4.366   3.587   3.680  0.1066  0.3539  0.4464
 3700SOL    HW222563   4.306   3.464   3.720 -1.3331 -0.0708 -0.1607
 3701SOL     OW22564   3.428   3.779   5.121  0.0817 -0.6238 -0.4226
 3701SOL    HW122565   3.398   3.865   5.152  1.9379 -0.2423  0.3128
 3701SOL    HW222566   3.500   3.752   5.179  0.1800  1.4131  0.4139
 3702SOL     OW22567   0.421   4.352   4.864 -0.5186 -0.5108  0.3208
 3702SOL    HW122568   0.406   4.337   4.957  0.2316 -3.0765  0.0175
 3702SOL    HW222569   0.386   4.272   4.824 -3.2676  0.7651  0.1434
 3703SOL     OW22570   2.447   1.079   7.815 -0.0575 -0.9223 -0.1262
 3703SOL    HW122571   2.351   1.074   7.810 -0.0787  2.0179 -2.2633
 3703SOL    HW222572   2.481   1.123   7.737  0.6377  0.8914  1.2032
 3704SOL     OW22573   4.267   1.572   9.075 -0.0714 -0.7941  0.1504
 3704SOL    HW122574   4.269   1.477   9.079 -0.0564 -0.8138 -0.2991
 3704SOL    HW222575   4.227   1.599   8.992  3.1224 -0.0012 -1.1543
 3705SOL     OW22576   2.897   0.247  14.662 -0.0985  0.5330 -0.1188
 3705SOL    HW122577   2.842   0.310  14.708 -2.6707 -1.2208 -0.7889
 3705SOL    HW222578   2.836   0.202  14.603 -0.1998 -1.3960  1.4442
 3706SOL     OW22579   3.631   4.636   7.586  0.2368  0.2799  0.3350
 3706SOL    HW122580   3.664   4.556   7.628 -0.1796  0.2883  0.6842
 3706SOL    HW222581   3.673   4.708   7.631 -0.8298  1.0771  0.0444
 3707SOL     OW22582   2.721   1.998  11.534 -0.0534 -0.0097 -0.2667
 3707SOL    HW122583   2.780   2.059  11.578 -0.0867 -2.8905  3.8012
 3707SOL    HW222584   2.784   1.950  11.480 -0.5321 -1.0308  0.0881
 3708SOL     OW22585   4.299   2.373   2.831  0.1954  0.0728 -0.3866
 3708SOL    HW122586   4.334   2.342   2.748  0.8589  2.5105 -1.0270
 3708SOL    HW222587   4.220   2.320   2.838 -1.3539  2.2437 -1.3220
 3709SOL     OW22588   0.252   3.870   5.775  1.0053  0.2404 -0.1040
 3709SOL    HW122589   0.297   3.948   5.743 -0.2144  0.6101 -0.8864
 3709SOL    HW222590   0.246   3.818   5.695 -2.1272 -0.3128  0.5068
 3710SOL     OW22591   0.793   4.162   6.386 -0.3521 -0.2603  0.2204
 3710SOL    HW122592   0.766   4.079   6.424 -2.9982 -0.7807 -2.7957
 3710SOL    HW222593   0.714   4.196   6.346  0.9495  1.0678 -1.2469
 3711SOL     OW22594   3.553   2.338   5.044 -0.0280 -0.1552  0.8120
 3711SOL    HW122595   3.562   2.422   5.089  0.7330  0.6658 -0.8774
 3711SOL    HW222596   3.587   2.354   4.956  0.1289 -1.5003  0.6257
 3712SOL     OW22597   3.180   1.183   5.218 -0.1526  0.4042  0.1901
 3712SOL    HW122598   3.102   1.234   5.197  1.2109  1.4510 -2.3268
 3712SOL    HW222599   3.249   1.248   5.206  0.3170  0.0253  0.8073
 3713SOL     OW22600   2.114   3.931   2.012  0.6751 -0.9400  0.1933
 3713SOL    HW122601   2.040   3.891   2.059 -0.8851 -2.1154 -3.2359
 3713SOL    HW222602   2.140   3.848   1.972 -0.1274 -0.2115 -1.8418
 3714SOL     OW22603   4.596   0.587  10.067  0.7896 -0.0809 -0.6624
 3714SOL    HW122604   4.666   0.560  10.008  0.3421 -0.3438 -1.0759
 3714SOL    HW222605   4.547   0.648  10.012  1.5982  1.8769  0.7565
 3715SOL     OW22606   1.488   4.265   7.304  0.4833  0.3773 -0.2174
 3715SOL    HW122607   1.570   4.284   7.258 -0.7372 -0.0454 -2.5832
 3715SOL    HW222608   1.519   4.288   7.392  0.1189  1.8773 -0.4798
 3716SOL     OW22609   3.729   3.594  17.245  0.2002 -0.2274 -0.0979
 3716SOL    HW122610   3.806   3.620  17.296  0.7665  1.0633 -1.5984
 3716SOL    HW222611   3.669   3.573  17.317 -0.1305 -0.1953 -0.3619
 3717SOL     OW22612   3.414   3.324  10.876  0.3370 -0.1328 -0.0575
 3717SOL    HW122613   3.439   3.252  10.819 -2.7050 -0.4652 -0.9790
 3717SOL    HW222614   3.480   3.322  10.944 -1.3902 -3.5876  1.4786
 3718SOL     OW22615   3.627   0.194   7.297 -0.5722  0.4440  0.2445
 3718SOL    HW122616   3.640   0.099   7.295  0.1062  0.5290  0.8581
 3718SOL    HW222617   3.703   0.207   7.353 -0.4153  1.5956 -0.2505
 3719SOL     OW22618   1.080   1.072   2.168 -0.5010  0.2019  0.2280
 3719SOL    HW122619   1.135   1.150   2.171  1.6491 -1.2543 -0.9277
 3719SOL    HW222620   1.115   1.023   2.093 -0.3389  0.9403 -0.1744
 3720SOL     OW22621   2.315   2.405   8.038  0.1955  0.2204  0.6818
 3720SOL    HW122622   2.349   2.315   8.036 -0.2690  0.0381  0.8397
 3720SOL    HW222623   2.397   2.450   8.020 -0.3920  0.8610 -0.4477
 3721SOL     OW22624   4.352   1.294   1.659  0.1948 -0.2032 -0.1535
 3721SOL    HW122625   4.371   1.361   1.724  0.5281 -0.1736 -0.2846
 3721SOL    HW222626   4.362   1.214   1.710 -0.5991  0.6262  1.3088
 3722SOL     OW22627   0.689   1.840   8.231  0.1435  0.1961  0.1866
 3722SOL    HW122628   0.663   1.807   8.317  1.6435  0.0805  0.5835
 3722SOL    HW222629   0.618   1.802   8.179 -0.2744  0.2364  0.7305
 3723SOL     OW22630   0.710   0.806   5.858  0.2101  0.0839 -0.3895
 3723SOL    HW122631   0.726   0.712   5.867 -0.8682 -0.0043  0.5467
 3723SOL    HW222632   0.717   0.827   5.951 -0.7084 -0.4272 -0.2028
 3724SOL     OW22633   3.164   3.755  15.595 -0.0177  0.0382  0.1734
 3724SOL    HW122634   3.087   3.805  15.569  0.4860  1.0372  0.6158
 3724SOL    HW222635   3.196   3.717  15.513 -1.1593 -2.6560  0.9641
 3725SOL     OW22636   0.956   0.533  16.910 -0.4889 -0.0426 -0.5855
 3725SOL    HW122637   0.893   0.535  16.981  0.3171  2.1302  0.0693
 3725SOL    HW222638   0.980   0.441  16.923  2.1055  0.9179  1.3927
 3726SOL     OW22639   3.699   1.503   3.418 -0.0609  0.0621 -0.2423
 3726SOL    HW122640   3.621   1.485   3.471  0.2191  0.0671  0.1765
 3726SOL    HW222641   3.731   1.581   3.465  0.8238  0.2871 -1.2093
 3727SOL     OW22642   0.141   1.566   4.798  0.3554 -0.6140 -0.1787
 3727SOL    HW122643   0.143   1.600   4.888  0.9885 -0.0277 -0.4172
 3727SOL    HW222644   0.234   1.577   4.775  0.3988  0.8529  0.6847
 3728SOL     OW22645   2.380   3.087   8.722  0.5696 -0.1656 -0.2698
 3728SOL    HW122646   2.462   3.126   8.692  1.2653 -0.6532  1.0196
 3728SOL    HW222647   2.385   2.998   8.687  1.6117 -0.5092  0.7289
 3729SOL     OW22648   3.878   2.981  14.474 -0.6114 -0.6017  0.1245
 3729SOL    HW122649   3.803   2.921  14.469 -0.5499 -0.2875 -5.1187
 3729SOL    HW222650   3.838   3.064  14.498 -2.0015 -0.9815 -0.7931
 3730SOL     OW22651   0.011   0.059  16.558  0.1872  0.3311  0.2817
 3730SOL    HW122652   0.100   0.036  16.585  0.7613  0.7811 -1.2568
 3730SOL    HW222653   4.682   4.699  16.556  0.3581  0.2346 -0.0670
 3731SOL     OW22654   3.054   1.557   5.353  0.4469 -0.4670 -0.1424
 3731SOL    HW122655   3.003   1.488   5.311 -0.4553  0.0139  0.1528
 3731SOL    HW222656   3.127   1.552   5.292  1.3599  3.1642  0.6411
 3732SOL     OW22657   0.206   0.251   6.350  0.3200  0.5005  0.0367
 3732SOL    HW122658   0.283   0.297   6.318 -0.5930  1.8310 -0.2777
 3732SOL    HW222659   0.166   0.201   6.279  2.5740 -2.5348  0.9166
 3733SOL     OW22660   0.617   3.381  13.174  0.2620  0.4900  0.3498
 3733SOL    HW122661   0.671   3.452  13.207 -3.4432  2.7291  1.6592
 3733SOL    HW222662   0.647   3.370  13.084  2.9178  3.1602  0.9361
 3734SOL     OW22663   4.100   0.688   5.272  0.0813  0.8533 -0.5515
 3734SOL    HW122664   4.155   0.693   5.194  0.2604 -2.7809 -0.6606
 3734SOL    HW222665   4.027   0.644   5.229  2.0673 -1.0336 -2.0305
 3735SOL     OW22666   4.670   1.696   9.710 -0.4072  0.1668  0.3938
 3735SOL    HW122667   4.676   1.636   9.635 -0.9759 -1.7574  1.9014
 3735SOL    HW222668   4.597   1.750   9.680 -0.6387  0.0623  0.7747
 3736SOL     OW22669   0.303   0.393   7.321 -0.0548 -0.0763 -0.4505
 3736SOL    HW122670   0.229   0.337   7.342  0.2690 -0.5073 -0.4571
 3736SOL    HW222671   0.329   0.418   7.409 -1.9220  0.3198 -0.0270
 3737SOL     OW22672   3.247   2.102   3.202 -0.2415 -0.3546  0.1064
 3737SOL    HW122673   3.258   2.018   3.245 -2.7998 -1.2997 -1.0915
 3737SOL    HW222674   3.335   2.116   3.167 -0.3070 -2.3129 -0.8115
 3738SOL     OW22675   1.286   0.182  14.997 -0.3871  0.3533 -0.1103
 3738SOL    HW122676   1.301   0.125  14.921 -0.9540  1.6698 -1.2169
 3738SOL    HW222677   1.344   0.150  15.066  0.1593  0.8887 -0.3184
 3739SOL     OW22678   1.758   0.501   3.645  0.3540  0.1025 -0.2485
 3739SOL    HW122679   1.845   0.502   3.685  0.1086  0.5336  0.2811
 3739SOL    HW222680   1.788   0.511   3.555 -0.3949 -0.1635 -0.5312
 3740SOL     OW22681   4.412   0.008   3.093 -0.0013  0.7537 -0.1692
 3740SOL    HW122682   4.328   0.050   3.115  1.0091  1.9831  1.3250
 3740SOL    HW222683   4.475   0.077   3.115  1.5324 -0.8139  0.2884
 3741SOL     OW22684   2.820   3.031  14.857 -0.1784 -0.5596 -0.2508
 3741SOL    HW122685   2.844   2.979  14.780 -2.9507 -1.9144 -0.2003
 3741SOL    HW222686   2.807   2.968  14.927  1.7076 -0.0689  0.5374
 3742SOL     OW22687   4.089   0.922   0.963 -0.0826  0.5078  0.0817
 3742SOL    HW122688   4.158   0.858   0.945 -0.3506  0.2842 -0.1434
 3742SOL    HW222689   4.139   0.970   1.029  0.5639 -0.3536  0.2199
 3743SOL     OW22690   3.245   2.580   5.683  0.2307  0.0915  0.3205
 3743SOL    HW122691   3.187   2.512   5.648  1.1302  0.3791 -1.7450
 3743SOL    HW222692   3.213   2.610   5.767  2.0675  0.3221  0.9445
 3744SOL     OW22693   1.678   1.524   4.872 -0.0769  0.3977 -0.0247
 3744SOL    HW122694   1.657   1.579   4.797  1.2188  0.6890 -0.1729
 3744SOL    HW222695   1.773   1.530   4.868 -0.1545 -0.0755 -2.8830
 3745SOL     OW22696   4.281   0.764   4.711  0.0167  0.4405  0.1289
 3745SOL    HW122697   4.321   0.843   4.674  0.4736  0.8038  1.4045
 3745SOL    HW222698   4.248   0.794   4.795  1.3871 -1.5612  1.4032
 3746SOL     OW22699   2.244   3.495  14.782  0.5163 -0.3178  0.4063
 3746SOL    HW122700   2.229   3.537  14.698  2.3332  0.5600  0.5081
 3746SOL    HW222701   2.335   3.521  14.800 -0.2317  0.8709  2.4214
 3747SOL     OW22702   1.204   2.331   1.135  0.1346  0.8073 -0.2561
 3747SOL    HW122703   1.168   2.419   1.126 -0.6800  0.5874  0.9532
 3747SOL    HW222704   1.233   2.333   1.226  0.1714  1.4741 -0.2832
 3748SOL     OW22705   0.800   0.947   2.807  0.3987  0.1177 -0.1274
 3748SOL    HW122706   0.735   0.879   2.792 -2.3723  2.9177 -0.9886
 3748SOL    HW222707   0.874   0.892   2.782  0.4559  0.4574 -0.7109
 3749SOL     OW22708   4.152   0.103   4.685  0.5189  0.5970  0.3633
 3749SOL    HW122709   4.244   0.098   4.660  0.7448  0.7957  1.1630
 3749SOL    HW222710   4.157   0.071   4.775  1.7938  0.9318  0.4007
 3750SOL     OW22711   3.739   4.358   2.104  0.3103 -0.6657  0.0712
 3750SOL    HW122712   3.811   4.421   2.103 -0.6885  0.4162 -3.1340
 3750SOL    HW222713   3.692   4.381   2.184  1.8256  1.6999  0.2850
 3751SOL     OW22714   1.551   3.391   5.607  0.6522 -0.2198 -0.6350
 3751SOL    HW122715   1.618   3.373   5.672  0.7601  0.4720 -0.5614
 3751SOL    HW222716   1.518   3.304   5.584  0.3672  0.0124 -1.1064
 3752SOL     OW22717   3.347   3.828  12.522 -0.2764 -0.1838 -0.3450
 3752SOL    HW122718   3.366   3.818  12.615 -0.1394 -3.0902 -0.6732
 3752SOL    HW222719   3.326   3.738  12.497  1.2633 -0.2358 -1.4574
 3753SOL     OW22720   3.651   0.262   3.027  0.1760  0.7877  0.3651
 3753SOL    HW122721   3.745   0.254   3.042 -0.0066 -0.7134  0.7103
 3753SOL    HW222722   3.651   0.329   2.958  1.6187  0.3874 -0.0211
 3754SOL     OW22723   1.629   0.061  16.243  0.1998 -0.2308 -0.4413
 3754SOL    HW122724   1.562   0.050  16.310  0.4314 -1.0803 -0.3428
 3754SOL    HW222725   1.571   0.055  16.167  0.3187  0.8363 -0.6151
 3755SOL     OW22726   2.290   1.314   6.450 -0.3623  0.4280 -0.2104
 3755SOL    HW122727   2.195   1.316   6.458 -0.3990  0.9102 -0.7965
 3755SOL    HW222728   2.309   1.302   6.543  0.9867 -2.4742 -0.8445
 3756SOL     OW22729   2.053   2.479  14.192 -0.5126  0.1573  0.0064
 3756SOL    HW122730   2.114   2.479  14.117 -1.1544 -1.4613 -0.5074
 3756SOL    HW222731   2.079   2.400  14.239  2.2295  0.9389 -0.1687
 3757SOL     OW22732   2.396   2.126   5.403  0.2238  0.4502 -0.2831
 3757SOL    HW122733   2.323   2.121   5.463  2.9660 -0.9834  2.9020
 3757SOL    HW222734   2.476   2.131   5.456 -0.5932  0.6103  0.9128
 3758SOL     OW22735   0.884   0.329   7.240 -0.0856  0.1774 -0.4699
 3758SOL    HW122736   0.852   0.418   7.222 -0.5496  0.1505  0.2564
 3758SOL    HW222737   0.832   0.270   7.186 -1.0257  0.0327  0.5922
 3759SOL     OW22738   3.015   2.059   7.406 -0.1602  0.4037 -0.1619
 3759SOL    HW122739   3.100   2.016   7.399 -0.4519 -0.5138  1.8272
 3759SOL    HW222740   2.960   1.983   7.387  0.7481 -0.4133  0.4328
 3760SOL     OW22741   3.908   0.876  10.257 -0.1717  0.4570 -0.0221
 3760SOL    HW122742   3.949   0.932  10.323  2.2174 -0.0348 -1.1205
 3760SOL    HW222743   3.948   0.919  10.182  0.6095  0.4279  0.3870
 3761SOL     OW22744   3.250   1.905   3.628 -0.0964 -0.0637 -0.3077
 3761SOL    HW122745   3.172   1.866   3.589  1.1715 -0.7333 -2.2093
 3761SOL    HW222746   3.302   1.903   3.547  1.2344 -1.2729  0.5598
 3762SOL     OW22747   4.484   0.238  12.122  0.3060  0.4273 -0.1376
 3762SOL    HW122748   4.474   0.273  12.034  2.4417 -0.0546 -0.5791
 3762SOL    HW222749   4.561   0.288  12.149  1.5034 -0.9196 -1.1085
 3763SOL     OW22750   3.909   3.274  10.710  0.4393 -0.0522  0.2438
 3763SOL    HW122751   3.911   3.334  10.784  0.4541  0.5243 -0.2301
 3763SOL    HW222752   3.844   3.216  10.751  0.8086 -0.7003 -0.0831
 3764SOL     OW22753   1.192   1.836  15.622  0.4083  0.1510 -0.5047
 3764SOL    HW122754   1.243   1.765  15.660  1.6232  0.4331 -1.5639
 3764SOL    HW222755   1.159   1.801  15.539  2.3560  0.4118 -1.3896
 3765SOL     OW22756   0.938   2.321  11.315  0.8429  0.3199  0.2192
 3765SOL    HW122757   0.975   2.354  11.397 -1.7834  0.6240  1.3031
 3765SOL    HW222758   0.895   2.238  11.336  0.5387 -0.3285 -2.9948
 3766SOL     OW22759   0.996   3.290   0.578 -0.5786 -0.3585  0.4316
 3766SOL    HW122760   0.908   3.284   0.617 -1.3005  2.1369 -0.7812
 3766SOL    HW222761   1.021   3.198   0.575  0.6635 -0.0209  0.6565
 3767SOL     OW22762   3.950   0.750   9.685 -0.1776  0.1834  0.2597
 3767SOL    HW122763   3.959   0.747   9.780 -3.5226 -0.1135  0.5593
 3767SOL    HW222764   3.861   0.785   9.684 -0.9401 -1.7990 -0.6427
 3768SOL     OW22765   0.644   0.958  12.362  0.0594 -0.1656 -0.2715
 3768SOL    HW122766   0.556   0.982  12.388 -0.2940 -0.8812 -0.8175
 3768SOL    HW222767   0.626   0.888  12.299  1.0122  0.5256 -1.3342
 3769SOL     OW22768   3.164   1.082   5.784 -0.0070 -0.7003  0.6864
 3769SOL    HW122769   3.196   0.993   5.771 -0.6794 -0.8799  0.2375
 3769SOL    HW222770   3.157   1.124   5.699 -1.1666  0.9430  1.5787
 3770SOL     OW22771   1.799   1.716   4.696  0.1642 -0.0917 -0.3776
 3770SOL    HW122772   1.830   1.706   4.606 -3.2984  1.6927 -1.7714
 3770SOL    HW222773   1.879   1.762   4.721  0.5987  0.2361 -2.4022
 3771SOL     OW22774   0.123   1.644   7.787 -0.2886 -0.2099  0.6828
 3771SOL    HW122775   0.107   1.638   7.881  0.9171 -1.2440  0.8173
 3771SOL    HW222776   0.033   1.628   7.759 -0.2079  0.5711 -0.0473
 3772SOL     OW22777   1.901   3.707  11.342 -0.1063 -0.3430 -0.1927
 3772SOL    HW122778   1.877   3.650  11.416  0.9789 -0.5963 -0.0319
 3772SOL    HW222779   1.887   3.791  11.384 -1.1194  0.0209 -1.2675
 3773SOL     OW22780   2.483   4.041   2.026  0.2940 -0.7599 -0.4204
 3773SOL    HW122781   2.432   4.059   1.946 -0.2323  3.1861  0.7953
 3773SOL    HW222782   2.570   4.036   1.988  0.9980 -0.0665  1.1233
 3774SOL     OW22783   2.121   4.599   4.856 -0.6649 -0.2024 -0.2844
 3774SOL    HW122784   2.097   4.544   4.930  1.3702 -1.8119 -0.8288
 3774SOL    HW222785   2.141   4.530   4.793  0.5169  0.6680 -0.8828
 3775SOL     OW22786   4.404   0.658   2.017 -0.5127 -0.0952 -0.6321
 3775SOL    HW122787   4.456   0.579   2.006 -0.7470 -0.2640 -0.5299
 3775SOL    HW222788   4.467   0.716   1.974  0.7111  0.8772  2.4228
 3776SOL     OW22789   2.142   4.036   7.521 -0.3144 -0.0106  0.5740
 3776SOL    HW122790   2.143   3.941   7.533 -0.1215  0.1713  2.0106
 3776SOL    HW222791   2.204   4.045   7.448 -0.5162  0.2325  0.4331
 3777SOL     OW22792   3.395   0.629   9.241 -0.2195  0.0979  0.0495
 3777SOL    HW122793   3.448   0.638   9.320  0.4943  2.1371 -0.6741
 3777SOL    HW222794   3.389   0.534   9.249  1.7001 -0.0410 -0.1932
 3778SOL     OW22795   4.665   0.189  15.610 -0.0059 -0.3253 -0.5613
 3778SOL    HW122796   0.003   0.213  15.539 -1.1379  3.4389 -0.2372
 3778SOL    HW222797   0.003   0.216  15.681 -1.5148 -0.3420  0.7067
 3779SOL     OW22798   1.457   4.362  14.351  0.3412  0.5745 -0.2740
 3779SOL    HW122799   1.537   4.354  14.404  0.1820 -1.8605 -0.3796
 3779SOL    HW222800   1.501   4.375  14.267  0.1855  2.5558 -0.0375
 3780SOL     OW22801   4.362   4.650  10.740 -0.1826 -0.3784  0.2236
 3780SOL    HW122802   4.370   4.644  10.644 -2.1046 -1.2345  0.1280
 3780SOL    HW222803   4.451   4.620  10.760 -0.3751 -1.7835 -1.0224
 3781SOL     OW22804   2.209   4.005   3.852  0.5114  0.1387 -0.7903
 3781SOL    HW122805   2.141   4.072   3.845  2.3065  1.8979 -1.4241
 3781SOL    HW222806   2.158   3.925   3.861 -1.5764  1.4151 -1.2765
 3782SOL     OW22807   2.176   3.967  10.080  0.4968 -0.7152  0.0493
 3782SOL    HW122808   2.118   3.986  10.007  2.3436  2.8117 -0.5021
 3782SOL    HW222809   2.198   4.055  10.112  0.5674 -0.6711 -0.1216
 3783SOL     OW22810   4.213   4.692  15.577  0.1256 -0.2517  0.1127
 3783SOL    HW122811   4.205   4.607  15.619 -2.0589 -0.3876 -0.6030
 3783SOL    HW222812   4.308   4.700  15.576  0.2164 -1.6883 -2.2570
 3784SOL     OW22813   0.646   1.054  16.109 -0.2556  0.1047  0.1462
 3784SOL    HW122814   0.702   1.128  16.129  0.4586 -0.1313 -0.9479
 3784SOL    HW222815   0.560   1.095  16.117  0.0104  0.5226  0.7854
 3785SOL     OW22816   3.158   0.354  16.330  0.2303  0.2109 -0.2119
 3785SOL    HW122817   3.252   0.371  16.332  0.2880 -0.3840  1.8280
 3785SOL    HW222818   3.119   0.434  16.296 -2.1438 -0.9595 -0.2754
 3786SOL     OW22819   0.345   2.050  11.530  0.0503 -0.2537 -0.5626
 3786SOL    HW122820   0.268   2.103  11.550  0.3642  0.8837 -2.2981
 3786SOL    HW222821   0.409   2.104  11.577  0.0729 -1.7820  1.1103
 3787SOL     OW22822   0.910   1.369   4.250  0.4339 -0.4847 -0.2848
 3787SOL    HW122823   0.979   1.417   4.203 -0.8314 -0.6656 -2.3127
 3787SOL    HW222824   0.929   1.277   4.233 -0.6641 -1.1364  2.0436
 3788SOL     OW22825   1.668   0.179   2.270  0.5112  0.4999  0.2910
 3788SOL    HW122826   1.725   0.125   2.325 -1.0455 -0.6620  0.7453
 3788SOL    HW222827   1.587   0.186   2.321 -0.1831  1.5738 -0.9571
 3789SOL     OW22828   4.653   4.256   3.489 -0.1397  0.0375  0.0004
 3789SOL    HW122829   4.695   4.211   3.416  0.3681 -1.3531  1.1361
 3789SOL    HW222830   4.714   4.227   3.558  0.0568 -0.1876 -0.2664
 3790SOL     OW22831   1.499   1.973   4.212 -0.6192 -0.1735  0.4563
 3790SOL    HW122832   1.534   2.010   4.293 -0.5587  1.0391 -0.1364
 3790SOL    HW222833   1.431   1.912   4.242 -1.4017  0.6420  0.3432
 3791SOL     OW22834   1.931   3.107   6.203 -0.9707  0.0413 -0.4409
 3791SOL    HW122835   2.012   3.094   6.153  0.7501  1.0608  2.0881
 3791SOL    HW222836   1.932   3.195   6.239  2.7725  0.1563 -0.7616
 3792SOL     OW22837   0.233   2.389   1.407  0.2961  0.9072  0.1821
 3792SOL    HW122838   0.147   2.368   1.442  0.2680 -0.6993 -0.8671
 3792SOL    HW222839   0.226   2.485   1.413 -3.9205  0.4944  2.1574
 3793SOL     OW22840   2.596   3.177  16.873 -0.1725 -0.0254  0.4095
 3793SOL    HW122841   2.591   3.172  16.777  0.2448  1.2875  0.3167
 3793SOL    HW222842   2.506   3.205  16.890 -0.4057 -1.5069  1.6043
 3794SOL     OW22843   3.563   0.930   2.554 -0.0986 -0.1533 -0.8921
 3794SOL    HW122844   3.489   0.909   2.611 -0.7294  0.0277 -1.6457
 3794SOL    HW222845   3.508   0.968   2.485  0.3602  0.1341 -1.1030
 3795SOL     OW22846   0.547   0.586   6.178  0.0107 -0.6005  0.0455
 3795SOL    HW122847   0.621   0.633   6.217 -0.2001  1.6920 -2.3314
 3795SOL    HW222848   0.581   0.573   6.090 -0.6031 -1.8103 -0.0170
 3796SOL     OW22849   0.342   0.099  16.231 -0.7229  0.0183 -0.6256
 3796SOL    HW122850   0.295   0.042  16.170  0.4824  0.8549 -2.3324
 3796SOL    HW222851   0.320   0.185  16.195  0.4175  0.3147 -0.6020
 3797SOL     OW22852   4.571   0.544   2.539  0.7653  0.0308 -0.0231
 3797SOL    HW122853   4.479   0.542   2.512  0.7329  0.6913  0.0469
 3797SOL    HW222854   4.619   0.544   2.456 -1.5735 -0.9889 -1.3730
 3798SOL     OW22855   2.613   3.071  14.229 -0.6807 -0.5722 -0.6759
 3798SOL    HW122856   2.564   3.110  14.156 -3.2776 -2.9956 -0.2565
 3798SOL    HW222857   2.687   3.129  14.238 -0.8068 -0.5311  0.0302
 3799SOL     OW22858   3.061   1.926   7.894  0.4093 -0.8362  0.2969
 3799SOL    HW122859   2.975   1.969   7.888  1.3036  0.8201 -0.7121
 3799SOL    HW222860   3.035   1.838   7.921 -0.7225 -0.8953 -0.9463
 3800SOL     OW22861   4.674   2.291   9.856 -0.2345 -0.0079  0.3519
 3800SOL    HW122862   4.623   2.337   9.923 -0.1148  2.9389 -1.5820
 3800SOL    HW222863   0.028   2.266   9.908 -0.3073  0.8585  0.8697
 3801SOL     OW22864   1.331   1.381   7.339  0.4911  0.4281 -0.3476
 3801SOL    HW122865   1.386   1.456   7.314  1.1222  0.2347  0.4806
 3801SOL    HW222866   1.267   1.389   7.268  0.1457  0.4451 -0.0341
 3802SOL     OW22867   4.156   1.528   1.759  0.6157 -0.7269 -0.1029
 3802SOL    HW122868   4.251   1.530   1.754  0.5372  1.7750 -0.4839
 3802SOL    HW222869   4.129   1.570   1.841  1.3758 -0.8035  0.1856
 3803SOL     OW22870   2.673   1.501  16.174  0.2529  0.2372  0.3389
 3803SOL    HW122871   2.578   1.495  16.168  0.3835  0.4239 -1.7165
 3803SOL    HW222872   2.691   1.413  16.208  0.8421 -0.4994 -1.9110
 3804SOL     OW22873   1.789   2.568   9.825  0.5466  0.0055 -0.2020
 3804SOL    HW122874   1.798   2.650   9.873  1.5689 -0.2137 -0.0280
 3804SOL    HW222875   1.722   2.514   9.867  0.5904 -1.2261 -1.6960
 3805SOL     OW22876   1.803   0.301  10.010 -0.4848  0.8546  0.5699
 3805SOL    HW122877   1.889   0.322  10.045 -0.9058 -1.0208  2.6965
 3805SOL    HW222878   1.786   0.218  10.055  2.2254 -0.1357 -0.2576
 3806SOL     OW22879   3.954   0.544   2.302  0.2912 -0.0317  0.1829
 3806SOL    HW122880   4.032   0.524   2.250 -1.2167 -1.9245 -1.3539
 3806SOL    HW222881   3.938   0.635   2.275 -0.3675 -0.3047 -0.3365
 3807SOL     OW22882   0.739   1.586  17.536  1.0256  0.1634  0.2813
 3807SOL    HW122883   0.789   1.661  17.569  0.6489  0.8803 -0.7885
 3807SOL    HW222884   0.801   1.530  17.489  2.0183  2.3468 -0.9687
 3808SOL     OW22885   0.507   3.211   8.689  0.3868 -0.2158 -0.4207
 3808SOL    HW122886   0.525   3.230   8.781  0.4004  1.9906 -0.8970
 3808SOL    HW222887   0.521   3.116   8.679  0.5738 -0.2129 -0.1841
 3809SOL     OW22888   3.254   0.118   3.751  0.3346  0.4951  0.0163
 3809SOL    HW122889   3.288   0.038   3.791 -0.8197  0.3600  0.7233
 3809SOL    HW222890   3.321   0.140   3.686 -0.0983  0.0665 -0.5810
 3810SOL     OW22891   3.519   4.150  11.734 -0.2085  0.3953  0.1973
 3810SOL    HW122892   3.469   4.155  11.653  1.1082 -0.7081 -0.6878
 3810SOL    HW222893   3.531   4.056  11.743  2.1368  0.9680  2.8527
 3811SOL     OW22894   1.510   2.698  17.218 -0.0970 -0.0473 -0.1386
 3811SOL    HW122895   1.458   2.622  17.243 -1.2242  0.9360  0.5229
 3811SOL    HW222896   1.448   2.747  17.164  1.8598  0.1903 -2.1681
 3812SOL     OW22897   2.996   1.621   2.325 -0.3935  0.0267 -0.1502
 3812SOL    HW122898   2.995   1.610   2.230  0.1889 -1.0421 -0.0244
 3812SOL    HW222899   3.033   1.536   2.349 -1.4018 -0.7738 -1.4268
 3813SOL     OW22900   4.347   3.382   9.015  0.3904 -0.4953  0.2632
 3813SOL    HW122901   4.379   3.301   9.054 -2.8702 -0.8993  2.1502
 3813SOL    HW222902   4.346   3.443   9.089  0.7779  0.6227 -0.6532
 3814SOL     OW22903   3.478   1.079   2.352 -0.4341  0.1372 -0.2182
 3814SOL    HW122904   3.424   1.062   2.275 -0.3198 -0.5901 -0.1352
 3814SOL    HW222905   3.444   1.167   2.370  0.7415  0.4881  0.2865
 3815SOL     OW22906   4.444   1.022  10.403 -0.2104 -0.1173  0.2449
 3815SOL    HW122907   4.413   0.963  10.472 -1.3143  3.1306  2.5367
 3815SOL    HW222908   4.468   0.955  10.338  1.1599  0.2608  0.3624
 3816SOL     OW22909   1.337   4.511   7.675  0.1081 -0.3842 -0.0788
 3816SOL    HW122910   1.362   4.549   7.591  0.7372  0.2774  0.4032
 3816SOL    HW222911   1.414   4.528   7.730 -0.4240 -1.2317  0.9343
 3817SOL     OW22912   4.250   3.553   8.012 -0.2491 -0.4008  0.2265
 3817SOL    HW122913   4.320   3.539   7.949  0.1637  1.3701  0.2730
 3817SOL    HW222914   4.293   3.629   8.051 -1.6911 -0.1984  1.4577
 3818SOL     OW22915   2.152   1.178   0.458  0.2321 -0.5715  0.4676
 3818SOL    HW122916   2.155   1.136   0.544 -5.1053 -1.2301  0.3252
 3818SOL    HW222917   2.106   1.115   0.403 -1.5404 -0.2622  1.6051
 3819SOL     OW22918   1.481   2.554   3.678 -0.1270 -1.0815 -0.4389
 3819SOL    HW122919   1.429   2.629   3.648 -0.1264 -1.0490 -0.3579
 3819SOL    HW222920   1.417   2.519   3.739  0.7288 -1.8448  0.0091
 3820SOL     OW22921   4.475   1.296   7.236 -0.0979  0.7043  0.5086
 3820SOL    HW122922   4.399   1.245   7.263 -0.3564  1.8346  1.9097
 3820SOL    HW222923   4.512   1.321   7.321  0.3965  2.3922 -0.1860
 3821SOL     OW22924   3.102   3.170  12.170 -0.5783 -0.0616  0.3424
 3821SOL    HW122925   3.166   3.100  12.165 -1.0350 -0.4315 -0.2846
 3821SOL    HW222926   3.022   3.119  12.182  0.5105 -1.8181  0.0693
 3822SOL     OW22927   0.416   3.108   5.586  0.1530  0.1490 -0.1359
 3822SOL    HW122928   0.398   3.100   5.680  0.7887 -0.0936 -0.0333
 3822SOL    HW222929   0.354   3.040   5.562 -0.1688 -0.0971  1.4164
 3823SOL     OW22930   1.937   1.572   4.478  0.1965 -0.1983  0.0706
 3823SOL    HW122931   2.007   1.529   4.527 -1.6438 -3.2586  0.0322
 3823SOL    HW222932   1.988   1.626   4.418  0.5630 -0.2003  0.3817
 3824SOL     OW22933   4.460   0.136   7.083 -0.2165  0.1698  0.0439
 3824SOL    HW122934   4.419   0.052   7.065  1.3368 -0.4895 -0.4285
 3824SOL    HW222935   4.389   0.184   7.126 -0.7417  2.3504 -3.2180
 3825SOL     OW22936   1.436   2.260   0.993 -0.1278  0.8729 -0.3509
 3825SOL    HW122937   1.396   2.261   0.906 -0.2015 -0.7558 -0.3316
 3825SOL    HW222938   1.363   2.296   1.044  2.4914  2.0788  2.5170
 3826SOL     OW22939   0.942   2.836   5.552 -0.0240  0.0602 -0.0820
 3826SOL    HW122940   0.929   2.835   5.647  1.7998 -0.8110  0.1536
 3826SOL    HW222941   0.859   2.878   5.531 -0.1219  0.5826  1.3183
 3827SOL     OW22942   1.110   0.431   4.851 -1.0304  0.5359 -0.1350
 3827SOL    HW122943   1.205   0.441   4.856 -0.9985  1.1685 -2.1082
 3827SOL    HW222944   1.090   0.396   4.938  0.3957 -2.7386 -1.1543
 3828SOL     OW22945   2.994   1.967   8.355 -0.1184  0.0918 -0.8937
 3828SOL    HW122946   3.006   2.019   8.434 -1.7261  4.2640 -3.4188
 3828SOL    HW222947   3.007   1.879   8.392 -0.4997  0.9177  1.1982
 3829SOL     OW22948   3.809   2.802   8.308 -0.7734  0.4220 -0.1128
 3829SOL    HW122949   3.852   2.828   8.226  1.7403 -0.5295  0.8956
 3829SOL    HW222950   3.720   2.829   8.286 -0.8071  0.4836  0.1059
 3830SOL     OW22951   3.284   1.020   9.032  0.2605  0.1955 -0.2125
 3830SOL    HW122952   3.199   0.996   9.069  0.3769 -0.9950 -0.7114
 3830SOL    HW222953   3.274   1.000   8.939 -1.6204  1.9286 -0.3970
 3831SOL     OW22954   3.325   2.568   9.259 -0.0956  0.6569  0.0055
 3831SOL    HW122955   3.306   2.477   9.283  0.8954  0.1968 -0.9914
 3831SOL    HW222956   3.265   2.591   9.188 -0.4714  2.3158  0.8440
 3832SOL     OW22957   2.551   0.978   5.920  0.3349  0.4491 -0.7365
 3832SOL    HW122958   2.556   1.009   6.010  1.5771 -1.9815  0.0377
 3832SOL    HW222959   2.459   0.959   5.901  0.9686 -0.6597 -2.7321
 3833SOL     OW22960   0.519   3.262   4.461  0.0259  0.0049 -0.2605
 3833SOL    HW122961   0.606   3.221   4.471  0.0206  0.3790  1.2650
 3833SOL    HW222962   0.518   3.292   4.370 -0.2222  0.5933 -0.0600
 3834SOL     OW22963   4.122   1.580  13.413 -0.1048 -0.0200 -0.1326
 3834SOL    HW122964   4.211   1.616  13.409 -0.3839  0.5710 -1.1718
 3834SOL    HW222965   4.143   1.488  13.431 -0.5068 -0.1003 -0.0929
 3835SOL     OW22966   3.077   0.959   7.906 -0.1337 -0.0526  0.0700
 3835SOL    HW122967   2.999   0.943   7.959 -0.1349 -4.5258 -1.2382
 3835SOL    HW222968   3.134   0.887   7.932  0.6773  1.2710  1.9391
 3836SOL     OW22969   1.256   2.445   5.480  0.1318  0.3214 -0.3963
 3836SOL    HW122970   1.288   2.375   5.423 -1.8402 -0.7059 -0.2198
 3836SOL    HW222971   1.244   2.517   5.418  0.4774 -1.0048 -1.9878
 3837SOL     OW22972   2.045   0.675   1.885 -0.2239  0.4014 -0.0281
 3837SOL    HW122973   2.115   0.698   1.824 -0.3232 -1.7461 -0.9548
 3837SOL    HW222974   2.025   0.582   1.869  1.1410 -0.0231  0.7814
 3838SOL     OW22975   0.914   0.248  14.846 -0.3936 -0.0096  0.3396
 3838SOL    HW122976   0.999   0.289  14.859  0.4020 -1.2957 -0.7711
 3838SOL    HW222977   0.896   0.253  14.940  0.4378 -0.0637  0.5001
 3839SOL     OW22978   1.013   3.173   5.042  0.3539  0.1098  0.1262
 3839SOL    HW122979   0.937   3.220   5.006  1.0403  0.8379 -0.3631
 3839SOL    HW222980   0.967   3.111   5.099 -0.1269  1.0249  0.7410
 3840SOL     OW22981   2.265   0.074  11.138 -0.1309 -0.2989 -0.7782
 3840SOL    HW122982   2.282   0.071  11.232  0.9884 -0.9963 -1.0162
 3840SOL    HW222983   2.333   0.135  11.109 -0.1327  1.3143  2.5503
 3841SOL     OW22984   3.591   4.138   5.401  0.1201  0.1081 -0.2921
 3841SOL    HW122985   3.574   4.221   5.445 -2.4602 -0.8002  0.4635
 3841SOL    HW222986   3.640   4.092   5.470 -0.7805  1.4029  1.2058
 3842SOL     OW22987   1.626   1.714   6.864 -0.3293  0.0168  0.4871
 3842SOL    HW122988   1.553   1.758   6.906 -0.7156 -0.4243  0.2777
 3842SOL    HW222989   1.627   1.748   6.775 -2.2483  0.9960  0.8383
 3843SOL     OW22990   4.005   1.491  10.509  0.5943  0.6728  0.0614
 3843SOL    HW122991   4.063   1.427  10.550  0.6768  0.3260 -0.5955
 3843SOL    HW222992   3.934   1.500  10.573  0.9467  0.2130  0.5205
 3844SOL     OW22993   0.119   3.666   0.969  0.4582 -0.6651  0.3388
 3844SOL    HW122994   0.167   3.594   1.008  1.6537  0.1151  0.2941
 3844SOL    HW222995   0.050   3.618   0.922  0.0055  0.0299  0.2857
 3845SOL     OW22996   0.157   2.237  11.593  0.4586 -0.0836  0.0205
 3845SOL    HW122997   0.214   2.253  11.668  2.6330  0.0751 -1.6710
 3845SOL    HW222998   0.091   2.306  11.596  0.8931  0.3542 -0.6418
 3846SOL     OW22999   3.590   1.432  12.637 -0.2611 -0.5813  0.5300
 3846SOL    HW123000   3.617   1.520  12.611  1.0246 -1.2110 -0.2245
 3846SOL    HW223001   3.505   1.447  12.679 -0.2701  2.5906 -0.6446
 3847SOL     OW23002   0.187   3.798  11.177 -0.1906 -0.1009 -0.1568
 3847SOL    HW123003   0.280   3.773  11.177 -0.6418 -1.7180 -0.7371
 3847SOL    HW223004   0.213   3.887  11.153 -0.1876 -0.0100  0.1730
 3848SOL     OW23005   2.417   1.824  17.588 -0.2743 -0.1693  0.0958
 3848SOL    HW123006   2.420   1.751  17.526  0.5194  0.5903 -0.7827
 3848SOL    HW223007   2.502   1.866  17.570  0.6408 -1.6375  0.9524
 3849SOL     OW23008   1.907   2.245   4.154  0.1078 -0.0229  0.6452
 3849SOL    HW123009   1.893   2.227   4.061 -2.1172 -0.8279  1.1233
 3849SOL    HW223010   2.001   2.263   4.157  0.6182 -2.5968  0.4955
 3850SOL     OW23011   3.878   0.512   5.461 -0.5206  0.6448 -0.3851
 3850SOL    HW123012   3.882   0.435   5.406  0.2071  0.4955 -0.1228
 3850SOL    HW223013   3.890   0.461   5.541  1.2395  0.4214 -0.7928
 3851SOL     OW23014   2.953   2.986   8.485 -0.2557  0.8103  0.0483
 3851SOL    HW123015   2.902   2.945   8.415 -0.0502 -0.2722  0.5187
 3851SOL    HW223016   2.897   2.986   8.563 -0.5415 -0.4383 -0.1495
 3852SOL     OW23017   2.522   3.950   1.179 -0.0088 -0.1435  0.6523
 3852SOL    HW123018   2.613   3.959   1.210  0.3883  1.0746 -0.9049
 3852SOL    HW223019   2.533   3.991   1.093 -0.1123 -0.1382  0.6415
 3853SOL     OW23020   2.898   1.964   6.492 -0.4923  0.9028  0.2014
 3853SOL    HW123021   2.853   2.029   6.546  0.0300  0.5406  1.0699
 3853SOL    HW223022   2.960   1.935   6.559  0.9992  1.7693 -0.8112
 3854SOL     OW23023   0.364   2.789  10.669 -0.0141  0.0905  0.4916
 3854SOL    HW123024   0.300   2.775  10.599  0.7349 -0.2965 -0.1188
 3854SOL    HW223025   0.346   2.710  10.719  2.0897 -1.7610 -1.7145
 3855SOL     OW23026   3.201   4.286  13.828  0.2487  0.3782  0.1171
 3855SOL    HW123027   3.239   4.317  13.911  2.2222  0.6174 -0.8736
 3855SOL    HW223028   3.134   4.349  13.802  0.1900  0.5100  0.5826
 3856SOL     OW23029   2.715   4.115   1.095  0.1583  0.3710 -0.3785
 3856SOL    HW123030   2.752   4.198   1.126 -0.4671  0.8597 -0.9363
 3856SOL    HW223031   2.796   4.081   1.058 -0.3974 -1.9716  0.5341
 3857SOL     OW23032   1.406   1.143   7.884 -0.3117 -0.1414  0.1002
 3857SOL    HW123033   1.360   1.127   7.801 -0.1948 -0.6417  0.1273
 3857SOL    HW223034   1.420   1.054   7.918 -1.8882 -0.3884  0.1207
 3858SOL     OW23035   1.205   2.814   5.025  0.3341  0.4328 -0.4127
 3858SOL    HW123036   1.187   2.901   5.062  0.7372 -0.1871  1.2394
 3858SOL    HW223037   1.270   2.841   4.960 -0.5174  1.2122 -0.9527
 3859SOL     OW23038   2.157   0.290  17.202 -0.6320 -0.0375 -0.1087
 3859SOL    HW123039   2.068   0.310  17.174  0.0587  2.6201 -0.3736
 3859SOL    HW223040   2.157   0.316  17.294  0.1267  0.9247 -0.3798
 3860SOL     OW23041   0.488   0.963  13.790  0.6723  0.0490  0.3384
 3860SOL    HW123042   0.477   0.955  13.885  3.2033  1.7531  0.7698
 3860SOL    HW223043   0.440   0.884  13.764  0.1142  0.5996 -0.3110
 3861SOL     OW23044   4.649   0.262  10.384  0.1169  0.4445 -0.6892
 3861SOL    HW123045   4.659   0.312  10.466  0.6730  1.0385 -1.1139
 3861SOL    HW223046   4.719   0.300  10.331 -1.5732  0.3017 -3.0122
 3862SOL     OW23047   1.105   3.132  15.068 -0.2019 -0.2785 -0.5435
 3862SOL    HW123048   1.145   3.219  15.068 -0.9477  0.0601  0.2780
 3862SOL    HW223049   1.159   3.089  15.134 -0.5118  2.4999  1.5494
 3863SOL     OW23050   1.254   0.908   6.335  0.3037  0.5205 -0.5742
 3863SOL    HW123051   1.261   0.997   6.369  0.4423 -0.9238  3.1770
 3863SOL    HW223052   1.289   0.856   6.407  0.8720  1.8938  0.1411
 3864SOL     OW23053   1.130   4.051  16.972  0.4167 -0.3090  0.2164
 3864SOL    HW123054   1.186   3.975  16.966 -0.7288 -1.1960  0.7505
 3864SOL    HW223055   1.153   4.089  16.887  0.1177  0.5072  0.4972
 3865SOL     OW23056   2.879   0.340   1.519  0.0812  0.3249 -0.1188
 3865SOL    HW123057   2.853   0.255   1.483  1.1107 -0.8567  1.9106
 3865SOL    HW223058   2.970   0.310   1.524  0.4013  1.1866 -0.8865
 3866SOL     OW23059   2.139   2.549  16.019  0.1673  0.0362 -0.0548
 3866SOL    HW123060   2.147   2.474  16.077  0.7425 -0.0506 -0.2369
 3866SOL    HW223061   2.192   2.614  16.065 -1.0052  1.5126 -0.7950
 3867SOL     OW23062   4.550   1.470  10.415 -0.0532 -0.2132 -0.7449
 3867SOL    HW123063   4.627   1.526  10.405  0.1607 -0.7129 -1.9496
 3867SOL    HW223064   4.505   1.507  10.339 -1.5744 -0.5416 -0.0011
 3868SOL     OW23065   4.136   3.444   1.935  0.1336 -0.4903 -0.5215
 3868SOL    HW123066   4.218   3.457   1.983  1.3501 -1.0801 -2.4169
 3868SOL    HW223067   4.171   3.402   1.856 -1.0113  1.8567 -2.2690
 3869SOL     OW23068   3.301   0.991   4.476  0.1094  0.4726 -0.2095
 3869SOL    HW123069   3.373   0.947   4.521  0.8570 -0.7128 -2.5787
 3869SOL    HW223070   3.303   0.931   4.402  1.5754  0.6382 -0.3123
 3870SOL     OW23071   3.748   3.317   2.503  0.2870  0.1659  0.2386
 3870SOL    HW123072   3.686   3.388   2.489  0.9717  0.7820  0.3481
 3870SOL    HW223073   3.711   3.293   2.589 -1.7678 -2.8460 -1.4706
 3871SOL     OW23074   3.178   0.404   7.107  0.6990 -0.2214  0.6292
 3871SOL    HW123075   3.193   0.469   7.038 -0.4993  1.2751  1.7732
 3871SOL    HW223076   3.258   0.353   7.099  0.5267 -0.0503 -2.0380
 3872SOL     OW23077   4.645   0.305   5.520  0.2497  0.1675 -0.1044
 3872SOL    HW123078   4.651   0.222   5.474  2.2387 -0.8146  1.9294
 3872SOL    HW223079   4.689   0.292   5.604 -1.4742  1.0050  0.9416
 3873SOL     OW23080   2.049   1.040   5.219 -0.6354 -0.1577  0.2325
 3873SOL    HW123081   2.053   1.131   5.192  0.3230 -0.2272  0.1498
 3873SOL    HW223082   2.019   1.001   5.137  1.1439 -0.1512 -0.4223
 3874SOL     OW23083   4.173   1.182  15.654 -0.4131  0.1818 -0.5528
 3874SOL    HW123084   4.171   1.183  15.750  1.0143  1.9769 -0.5386
 3874SOL    HW223085   4.244   1.121  15.632  0.0995  0.7490 -0.4817
 3875SOL     OW23086   1.186   4.383   5.457  0.6883  0.5179 -0.2865
 3875SOL    HW123087   1.148   4.314   5.510  1.9041 -0.7620 -1.0751
 3875SOL    HW223088   1.196   4.323   5.384  1.5319 -0.1810  0.4009
 3876SOL     OW23089   3.589   1.773   2.222  0.2058  0.3916  0.5768
 3876SOL    HW123090   3.500   1.803   2.240 -0.2855 -0.5493 -0.3078
 3876SOL    HW223091   3.574   1.730   2.138  0.0060 -0.5365  1.0878
 3877SOL     OW23092   1.413   3.629   5.854  0.2657 -0.0452 -0.0943
 3877SOL    HW123093   1.416   3.613   5.760 -3.5490 -0.7013 -0.1091
 3877SOL    HW223094   1.507   3.637   5.867  0.4416 -0.8913 -0.8558
 3878SOL     OW23095   2.365   2.703   4.758  0.1314 -0.5676 -0.1627
 3878SOL    HW123096   2.282   2.664   4.785 -0.8742  0.5835 -1.5657
 3878SOL    HW223097   2.377   2.659   4.674  1.3170  1.9965 -1.3470
 3879SOL     OW23098   4.322   3.785   8.378 -0.4849  0.0327  0.0757
 3879SOL    HW123099   4.262   3.712   8.391  0.2924 -0.2628  1.8840
 3879SOL    HW223100   4.278   3.858   8.422  0.2890 -0.2428  1.2992
 3880SOL     OW23101   1.284   2.144   2.296  0.2726 -0.7160  0.2149
 3880SOL    HW123102   1.334   2.219   2.263  0.0246 -1.0297 -0.8776
 3880SOL    HW223103   1.290   2.082   2.223  1.1908 -0.8456  0.4082
 3881SOL     OW23104   4.229   2.534   3.538  0.7658  0.0470 -0.8193
 3881SOL    HW123105   4.281   2.558   3.615 -0.5488 -0.2027  0.1684
 3881SOL    HW223106   4.258   2.600   3.476  1.1691  0.8393  0.2016
 3882SOL     OW23107   4.437   0.406   5.390  0.0952 -0.5948  0.2814
 3882SOL    HW123108   4.496   0.429   5.318  2.3626  0.3535  2.4656
 3882SOL    HW223109   4.505   0.368   5.446  0.3838  1.8202  1.5544
 3883SOL     OW23110   1.347   0.235  11.624 -0.2103 -0.1815  0.1168
 3883SOL    HW123111   1.396   0.155  11.607 -0.8225 -0.6883  0.7865
 3883SOL    HW223112   1.280   0.205  11.685  1.2248 -3.1232  0.2049
 3884SOL     OW23113   4.655   2.815   5.423 -0.7170 -0.2000 -0.4517
 3884SOL    HW123114   4.616   2.761   5.492 -0.2140 -0.7701 -0.6171
 3884SOL    HW223115   4.579   2.867   5.396 -0.1281  0.3552 -1.0429
 3885SOL     OW23116   0.036   0.405   1.560  0.2880  0.8768  0.4101
 3885SOL    HW123117   0.007   0.332   1.506  0.5664  0.5691  0.6813
 3885SOL    HW223118   4.697   0.399   1.634 -0.7467 -1.0150 -0.5736
 3886SOL     OW23119   2.806   0.035   3.904  0.1809 -0.4715 -0.6742
 3886SOL    HW123120   2.838   4.666   3.907 -1.9734 -1.1964  0.9699
 3886SOL    HW223121   2.738   0.033   3.972 -1.0283 -3.5683 -1.9654
 3887SOL     OW23122   1.583   3.555   4.446 -0.1340 -0.1468  0.0776
 3887SOL    HW123123   1.632   3.625   4.403  0.6677 -0.2998  0.7252
 3887SOL    HW223124   1.625   3.542   4.532 -0.5819 -0.5983  0.2325
 3888SOL     OW23125   1.991   3.533   5.548  0.6552 -0.3526 -0.2891
 3888SOL    HW123126   1.947   3.448   5.548  0.2333 -0.1256 -1.4784
 3888SOL    HW223127   2.047   3.522   5.472  0.7499  0.7197 -0.3720
 3889SOL     OW23128   3.569   4.529   4.672  0.3620 -0.5926  0.3049
 3889SOL    HW123129   3.550   4.445   4.629  0.3929  0.6428 -2.0998
 3889SOL    HW223130   3.488   4.526   4.724  0.6360 -1.8703  0.6665
 3890SOL     OW23131   3.065   2.181  16.519 -0.0934  0.7455 -0.6526
 3890SOL    HW123132   3.019   2.167  16.602  1.1791  1.0442  0.1044
 3890SOL    HW223133   3.004   2.136  16.461  0.8627 -1.3432 -0.0394
 3891SOL     OW23134   0.004   1.267   9.480 -0.2174 -0.1961  0.4881
 3891SOL    HW123135   0.089   1.289   9.519  0.4455 -0.1696 -0.9578
 3891SOL    HW223136   4.712   1.183   9.524 -0.5143 -0.6714 -0.5186
 3892SOL     OW23137   0.600   2.632   7.313  0.6280  0.0690 -0.8422
 3892SOL    HW123138   0.532   2.693   7.342  1.1957  0.5414 -0.5012
 3892SOL    HW223139   0.669   2.696   7.296 -1.9913  2.8238 -0.8895
 3893SOL     OW23140   1.595   0.775   8.703  0.3023  0.5841  0.3319
 3893SOL    HW123141   1.553   0.809   8.782 -0.7907  2.0403 -0.8652
 3893SOL    HW223142   1.525   0.735   8.651 -0.5599  0.9974  1.1756
 3894SOL     OW23143   0.342   0.137   7.047  0.5843 -0.3781 -0.4469
 3894SOL    HW123144   0.372   0.228   7.036  3.1966 -1.1145  0.4468
 3894SOL    HW223145   0.414   0.105   7.101 -1.0655 -0.7732  1.4937
 3895SOL     OW23146   2.022   4.308  15.735 -0.2815  0.1096  0.4611
 3895SOL    HW123147   1.949   4.287  15.676 -0.0035  1.1522 -0.2430
 3895SOL    HW223148   2.054   4.386  15.690  1.6604 -0.6378  0.5531
 3896SOL     OW23149   1.075   1.722   7.801  0.2120 -0.3725  0.7004
 3896SOL    HW123150   1.027   1.641   7.784 -1.0852  0.9250 -1.9185
 3896SOL    HW223151   1.146   1.692   7.858  0.5769  0.3408  0.6246
 3897SOL     OW23152   0.287   2.940   3.800  0.6978  0.3382 -0.3696
 3897SOL    HW123153   0.341   2.991   3.740  0.4894 -0.1134 -0.9485
 3897SOL    HW223154   0.331   2.856   3.814 -0.0394 -0.4242 -2.5035
 3898SOL     OW23155   3.292   1.992   6.927  0.4985 -0.3898 -0.1750
 3898SOL    HW123156   3.229   2.063   6.923 -0.5414 -1.2673  0.5998
 3898SOL    HW223157   3.372   2.043   6.915  0.4839 -0.3010  0.1134
 3899SOL     OW23158   0.354   1.182   7.690 -0.1346 -0.2990  0.3247
 3899SOL    HW123159   0.446   1.202   7.673 -0.4538  0.7414 -0.1947
 3899SOL    HW223160   0.365   1.148   7.779 -1.8519  0.1213  0.7046
 3900SOL     OW23161   4.442   0.763   4.232  0.7114 -0.3130 -0.8283
 3900SOL    HW123162   4.378   0.741   4.164 -1.4497 -0.2519  1.1786
 3900SOL    HW223163   4.414   0.853   4.250  0.2980 -0.3290 -1.3826
 3901SOL     OW23164   3.803   0.675   6.836 -0.5581  0.0595 -0.0507
 3901SOL    HW123165   3.853   0.713   6.763 -0.0318  0.0814  0.3210
 3901SOL    HW223166   3.825   0.741   6.902  0.2791 -1.8248  1.5585
 3902SOL     OW23167   4.122   3.246   6.950  0.2901 -0.0630 -0.0289
 3902SOL    HW123168   4.135   3.183   6.880 -0.2461  1.6879 -1.6840
 3902SOL    HW223169   4.041   3.292   6.928 -0.8947 -1.1771  1.9920
 3903SOL     OW23170   3.740   4.718   1.179  0.1215 -0.1699 -0.8618
 3903SOL    HW123171   3.791   4.641   1.155 -1.6925 -1.7276  0.2210
 3903SOL    HW223172   3.736   0.042   1.095 -2.4523  0.0618 -0.6119
 3904SOL     OW23173   2.926   1.878   2.908  0.4025 -0.2140 -0.6445
 3904SOL    HW123174   2.841   1.876   2.951 -0.3177 -0.5988 -2.0677
 3904SOL    HW223175   2.894   1.887   2.818 -0.7531 -0.2060 -0.2296
 3905SOL     OW23176   1.315   3.959  15.351  0.0857 -0.9356  0.0249
 3905SOL    HW123177   1.319   3.866  15.330 -0.9753 -1.4057  1.8537
 3905SOL    HW223178   1.248   3.994  15.293 -2.3707 -2.9323  1.6766
 3906SOL     OW23179   2.470   3.647   1.869 -0.3929  0.1457 -0.3271
 3906SOL    HW123180   2.507   3.672   1.953  1.0511 -0.6130 -0.7440
 3906SOL    HW223181   2.440   3.559   1.894 -1.3997  0.3720 -0.7341
 3907SOL     OW23182   0.397   0.196  13.233  0.1581 -0.4133  0.1354
 3907SOL    HW123183   0.378   0.234  13.319 -1.6334 -0.5528 -0.1974
 3907SOL    HW223184   0.334   0.238  13.175  0.9339  1.9790  1.0230
 3908SOL     OW23185   2.196   2.730   8.075  0.4651  0.8998 -0.0763
 3908SOL    HW123186   2.137   2.753   8.003 -1.3851 -1.2557  0.7332
 3908SOL    HW223187   2.270   2.689   8.030 -0.7755 -1.5422  0.0883
 3909SOL     OW23188   1.102   0.831   4.878  0.1613 -0.0059  0.4355
 3909SOL    HW123189   1.039   0.760   4.885  0.2278 -0.2658 -1.6280
 3909SOL    HW223190   1.185   0.789   4.900  0.2302  0.2204  0.6045
 3910SOL     OW23191   1.420   3.522  12.926 -0.1951 -0.0493 -0.0213
 3910SOL    HW123192   1.425   3.431  12.895  1.5096 -0.2355  0.8049
 3910SOL    HW223193   1.332   3.544  12.897 -0.8745 -1.1045  1.2337
 3911SOL     OW23194   1.374   0.723   6.510  0.1362  0.3213 -0.1893
 3911SOL    HW123195   1.391   0.630   6.501  1.6580  0.3546  2.5130
 3911SOL    HW223196   1.463   0.749   6.533  0.5866 -1.4412 -0.0138
 3912SOL     OW23197   1.703   2.627   8.599 -0.6856 -0.8470 -0.2930
 3912SOL    HW123198   1.635   2.581   8.549 -0.1811 -1.9672  0.0568
 3912SOL    HW223199   1.740   2.556   8.651  2.4336  1.3330  0.4492
 3913SOL     OW23200   3.701   3.179  14.903  0.1925  0.6316 -0.1562
 3913SOL    HW123201   3.779   3.171  14.848  0.4632 -0.8197  0.4298
 3913SOL    HW223202   3.716   3.113  14.970 -0.0255  0.0975 -0.6268
 3914SOL     OW23203   0.686   2.312   6.528 -0.3535  0.2031  0.1943
 3914SOL    HW123204   0.714   2.322   6.437  0.6378  1.7331  0.6588
 3914SOL    HW223205   0.601   2.275   6.506 -0.7850  0.2033  1.8602
 3915SOL     OW23206   1.305   3.665   7.806 -0.1760 -0.4219  0.4364
 3915SOL    HW123207   1.359   3.744   7.810  0.1318 -0.7093  2.3658
 3915SOL    HW223208   1.329   3.630   7.892 -2.7718  0.1828  1.4109
 3916SOL     OW23209   1.719   0.378   1.923 -0.7975 -0.1029 -0.7137
 3916SOL    HW123210   1.641   0.363   1.975 -1.0632 -0.3406 -1.1849
 3916SOL    HW223211   1.760   0.453   1.967  0.1485 -0.5148 -0.8912
 3917SOL     OW23212   2.931   2.516   6.709  0.2825 -0.0559  0.3844
 3917SOL    HW123213   2.985   2.594   6.692  1.2371 -0.9198 -0.5398
 3917SOL    HW223214   2.843   2.553   6.708  0.1611 -0.3362  1.0694
 3918SOL     OW23215   3.284   4.292   9.073 -0.2216  0.2873  0.0050
 3918SOL    HW123216   3.349   4.362   9.067 -0.5164  0.5280 -0.3528
 3918SOL    HW223217   3.213   4.339   9.029  0.7279  1.9453  0.2188
 3919SOL     OW23218   3.325   1.566  16.533  0.3079 -0.1807  0.1294
 3919SOL    HW123219   3.403   1.510  16.528 -0.2693 -0.9443 -0.2057
 3919SOL    HW223220   3.335   1.620  16.611 -2.8287  1.7981 -0.8645
 3920SOL     OW23221   3.516   0.512   5.593  0.6582  0.6620  0.1179
 3920SOL    HW123222   3.433   0.471   5.569  1.7524 -0.2254 -2.2034
 3920SOL    HW223223   3.530   0.495   5.686  1.3329  0.2925 -0.0468
 3921SOL     OW23224   2.593   3.181   8.326  0.7513 -0.3791 -0.0373
 3921SOL    HW123225   2.642   3.163   8.247 -0.8952 -0.9658 -0.9295
 3921SOL    HW223226   2.511   3.193   8.278  0.2932 -0.2646  0.7582
 3922SOL     OW23227   0.712   0.220   9.698 -0.9369 -0.0884 -0.5412
 3922SOL    HW123228   0.751   0.134   9.682  1.6771  0.8764  0.6107
 3922SOL    HW223229   0.688   0.245   9.609 -1.1549  0.8013 -0.2345
 3923SOL     OW23230   3.802   3.698  11.435 -0.1200 -0.1385 -0.0887
 3923SOL    HW123231   3.775   3.615  11.394  0.5878 -0.6362  0.4424
 3923SOL    HW223232   3.863   3.741  11.374  0.7510  0.3481  1.1256
 3924SOL     OW23233   0.401   1.814  10.763  0.3746  0.1281 -0.0017
 3924SOL    HW123234   0.480   1.866  10.751  0.6834 -0.7789 -1.8176
 3924SOL    HW223235   0.326   1.873  10.757  0.6029  0.5327  1.1396
 3925SOL     OW23236   3.015   4.547   1.387  0.4030  0.3971 -0.0317
 3925SOL    HW123237   2.945   4.570   1.326  0.9822 -0.6330 -1.0757
 3925SOL    HW223238   2.966   4.483   1.439 -0.7430  2.0755  0.9197
 3926SOL     OW23239   3.679   4.589  15.102 -0.7418 -0.8551  0.1854
 3926SOL    HW123240   3.743   4.543  15.156 -1.9099 -1.5364  0.9880
 3926SOL    HW223241   3.726   4.594  15.019  0.0940  2.3743  0.8700
 3927SOL     OW23242   3.859   2.829   5.346  0.0004 -0.7140  0.3809
 3927SOL    HW123243   3.903   2.859   5.426  3.3191 -1.7753 -1.0761
 3927SOL    HW223244   3.795   2.761   5.366 -0.3715 -0.1185  1.2359
 3928SOL     OW23245   1.291   2.868  12.932 -0.0332  0.4964  0.5391
 3928SOL    HW123246   1.225   2.812  12.891  0.6601 -0.5888  0.9134
 3928SOL    HW223247   1.238   2.921  12.991 -0.7897 -0.1283  0.4188
 3929SOL     OW23248   3.559   3.898  11.083 -0.0877  0.6669 -0.6262
 3929SOL    HW123249   3.532   3.988  11.064 -0.0309  0.5879 -1.0688
 3929SOL    HW223250   3.570   3.913  11.177  0.6552  1.6737 -0.8785
 3930SOL     OW23251   3.376   3.383   3.203 -0.5671 -0.3987 -0.1124
 3930SOL    HW123252   3.402   3.300   3.162 -0.3572 -1.0130  1.2795
 3930SOL    HW223253   3.371   3.436   3.123 -2.4102 -2.0272 -1.0674
 3931SOL     OW23254   3.064   0.007   5.588  0.1495 -0.6403 -0.2952
 3931SOL    HW123255   3.034   4.660   5.528  1.7881 -0.3778 -1.4224
 3931SOL    HW223256   3.136   4.685   5.634  0.2755  0.7934  0.8632
 3932SOL     OW23257   2.021   4.004   5.996  0.3635  0.3846 -0.0320
 3932SOL    HW123258   2.089   4.060   6.034  3.2817 -1.5534 -2.3674
 3932SOL    HW223259   2.064   3.970   5.918  1.8851 -2.3170  1.9690
 3933SOL     OW23260   3.361   1.022   8.230  0.1027 -0.2726 -0.0108
 3933SOL    HW123261   3.320   1.070   8.158  1.6749  0.0474 -0.6779
 3933SOL    HW223262   3.305   0.946   8.245 -1.7705  1.0394 -0.3683
 3934SOL     OW23263   2.542   1.130   9.874  0.3187  0.0192  0.3775
 3934SOL    HW123264   2.587   1.089   9.948 -1.7364 -1.7567  0.6480
 3934SOL    HW223265   2.485   1.187   9.925  1.7327  2.7348 -1.0473
 3935SOL     OW23266   2.629   1.548  11.149  0.3859  0.4996  0.3548
 3935SOL    HW123267   2.633   1.637  11.183 -0.6747  1.2956 -1.5462
 3935SOL    HW223268   2.665   1.564  11.062 -0.2603  0.4058  0.0638
 3936SOL     OW23269   0.088   4.680   7.810  0.4092  0.1560 -0.0898
 3936SOL    HW123270   0.156   0.026   7.820  0.0693  0.4858  0.0073
 3936SOL    HW223271   0.066   4.698   7.718 -0.7179  1.9784  0.5354
 3937SOL     OW23272   3.561   2.368   8.128  0.8154  0.3344  0.4565
 3937SOL    HW123273   3.574   2.460   8.107 -3.0195  1.0499  1.1776
 3937SOL    HW223274   3.479   2.383   8.177 -0.4993 -2.5357 -0.8450
 3938SOL     OW23275   3.029   4.460   3.327 -0.3665 -0.1520 -0.9941
 3938SOL    HW123276   3.101   4.469   3.389 -0.9076  2.4352 -0.7448
 3938SOL    HW223277   2.960   4.516   3.362 -0.2658 -0.5668 -0.1227
 3939SOL     OW23278   0.179   1.278   1.273  0.1404  0.1161 -0.3713
 3939SOL    HW123279   0.168   1.286   1.367 -1.8992 -0.7141 -0.5361
 3939SOL    HW223280   0.093   1.251   1.240 -0.7282  1.2712  0.9293
 3940SOL     OW23281   3.200   0.202  16.558  0.6634 -0.2846 -0.3492
 3940SOL    HW123282   3.175   0.292  16.581 -0.8434 -1.1075  1.1742
 3940SOL    HW223283   3.219   0.208  16.464  0.0939 -0.6442 -0.4822
 3941SOL     OW23284   2.071   0.908   9.177 -0.3925 -0.3492 -0.8011
 3941SOL    HW123285   1.979   0.926   9.159 -0.3387 -1.3269 -2.0597
 3941SOL    HW223286   2.104   0.987   9.134 -1.6551  0.0650 -1.0184
 3942SOL     OW23287   4.417   1.432   6.767 -0.1004  0.3152 -0.5789
 3942SOL    HW123288   4.477   1.403   6.836  0.8305  1.6200 -0.8286
 3942SOL    HW223289   4.334   1.418   6.812  0.7941  1.7496  1.5324
 3943SOL     OW23290   0.470   3.287   3.201 -0.1349  0.1019 -0.0148
 3943SOL    HW123291   0.422   3.245   3.130 -2.2620  0.5878  1.1218
 3943SOL    HW223292   0.398   3.299   3.263  0.1021 -2.3773  0.7511
 3944SOL     OW23293   4.451   0.173   1.246 -0.4435 -0.2563  0.0502
 3944SOL    HW123294   4.534   0.133   1.220 -0.2894  0.7608 -1.0187
 3944SOL    HW223295   4.430   0.133   1.331  0.8545 -0.5338  0.2392
 3945SOL     OW23296   3.099   4.145   8.729  0.6886  0.5953 -0.2786
 3945SOL    HW123297   3.135   4.080   8.789  0.5918  2.3043  1.6154
 3945SOL    HW223298   3.172   4.175   8.674  1.6339  1.3812  1.4137
 3946SOL     OW23299   1.746   4.336  14.489  0.6873  0.7267 -0.4954
 3946SOL    HW123300   1.701   4.290  14.559 -1.0231  2.1072 -0.6896
 3946SOL    HW223301   1.780   4.412  14.537  0.8090  0.8854 -0.8317
 3947SOL     OW23302   2.011   2.083   7.417 -0.4959 -0.0269  0.1148
 3947SOL    HW123303   2.006   2.173   7.450  1.2753 -0.5344  1.7347
 3947SOL    HW223304   1.945   2.038   7.470 -1.5794 -1.3950 -2.3950
 3948SOL     OW23305   1.398   2.798   6.039  0.2750  0.7376 -0.4729
 3948SOL    HW123306   1.328   2.750   5.995 -0.5610  0.8617  0.7431
 3948SOL    HW223307   1.471   2.746   6.005 -1.8147 -1.5883 -1.3620
 3949SOL     OW23308   2.982   0.539   9.650 -0.1888  0.4476  0.2119
 3949SOL    HW123309   2.955   0.626   9.620 -0.6172  0.6295  1.1371
 3949SOL    HW223310   2.962   0.474   9.583  1.8910 -0.2797  0.2728
 3950SOL     OW23311   1.332   4.588   5.602  0.1818 -0.0222  0.4085
 3950SOL    HW123312   1.266   4.527   5.568  2.1369 -1.0544 -1.5549
 3950SOL    HW223313   1.409   4.563   5.551 -0.6278 -0.1387 -0.7488
 3951SOL     OW23314   4.396   0.603   3.194 -0.4587 -0.3195 -0.4167
 3951SOL    HW123315   4.432   0.659   3.263  2.4415 -0.7712 -1.5968
 3951SOL    HW223316   4.378   0.662   3.121 -1.6806 -0.3421 -0.1409
 3952SOL     OW23317   3.038   3.415   5.079 -0.4360 -0.0140 -0.1248
 3952SOL    HW123318   3.082   3.489   5.035  1.9681 -0.8561  0.8314
 3952SOL    HW223319   3.101   3.348   5.052 -0.4635  0.3045 -0.9880
 3953SOL     OW23320   1.051   4.518   4.465  0.3713  0.4619 -0.0583
 3953SOL    HW123321   1.017   4.492   4.550 -0.4424  0.7905 -0.2853
 3953SOL    HW223322   1.136   4.555   4.492  1.7329 -1.7209 -1.3277
 3954SOL     OW23323   4.059   3.605   4.167  0.6046 -0.8174  0.7774
 3954SOL    HW123324   4.140   3.645   4.136  0.3378  0.0380  1.1895
 3954SOL    HW223325   4.060   3.640   4.256  2.0140  3.3424 -0.8389
 3955SOL     OW23326   1.074   3.959  10.836 -0.6046 -0.2945  0.1242
 3955SOL    HW123327   1.023   3.885  10.869 -0.7982 -0.3893 -0.3853
 3955SOL    HW223328   1.029   4.039  10.862 -0.6124 -0.7778  1.5668
 3956SOL     OW23329   1.655   0.981   5.614  0.0363  0.3947 -0.0383
 3956SOL    HW123330   1.669   0.893   5.579 -1.9066 -0.1625  0.5401
 3956SOL    HW223331   1.570   1.012   5.581 -0.7323 -2.9005 -1.0729
 3957SOL     OW23332   0.867   2.013   2.916 -0.0850 -0.9257 -0.3337
 3957SOL    HW123333   0.882   2.049   3.004  0.6503  2.0310 -1.6739
 3957SOL    HW223334   0.813   2.078   2.872 -0.8480  0.3134  2.4423
 3958SOL     OW23335   3.363   4.624   8.811 -0.4209  0.4382 -0.3286
 3958SOL    HW123336   3.292   4.615   8.875 -0.8714  2.8174 -0.4964
 3958SOL    HW223337   3.350   4.707   8.765  0.3434 -0.3034 -1.8483
 3959SOL     OW23338   1.995   1.359   6.392  0.1770 -0.0856  0.8703
 3959SOL    HW123339   2.048   1.337   6.315 -0.1603 -0.4907  0.7531
 3959SOL    HW223340   1.909   1.330   6.362  0.0412 -0.0846  1.2604
 3960SOL     OW23341   2.732   0.255  10.673 -0.2067 -0.4094  0.0653
 3960SOL    HW123342   2.668   0.297  10.731 -0.4711  1.7004 -1.7845
 3960SOL    HW223343   2.780   0.193  10.729 -0.7388 -0.7360  0.1661
 3961SOL     OW23344   3.603   1.199   5.359 -0.2193  0.2081 -0.4307
 3961SOL    HW123345   3.592   1.189   5.264  0.9935  0.5502 -0.5975
 3961SOL    HW223346   3.696   1.220   5.359 -0.3507  0.7834 -1.9281
 3962SOL     OW23347   2.332   2.865   6.948  0.5947 -0.5515 -0.4475
 3962SOL    HW123348   2.398   2.928   6.977  0.9734 -1.3051  0.3222
 3962SOL    HW223349   2.311   2.895   6.860 -2.2110  0.1060  0.4600
 3963SOL     OW23350   4.213   0.109   6.898  0.2169 -0.7213 -0.2040
 3963SOL    HW123351   4.280   0.041   6.887  1.5256 -0.0818  3.9195
 3963SOL    HW223352   4.151   0.071   6.836  0.0458 -1.2296  0.2801
 3964SOL     OW23353   4.062   2.446  13.821 -0.0633  0.5541  0.1400
 3964SOL    HW123354   3.990   2.449  13.759  0.4920 -0.7434 -0.5690
 3964SOL    HW223355   4.108   2.366  13.795  1.2116  0.9544  1.1232
 3965SOL     OW23356   4.522   0.073   5.109  0.4867 -0.2302 -0.0087
 3965SOL    HW123357   4.472   4.715   5.092  0.2479  0.3785 -2.1164
 3965SOL    HW223358   4.613   0.043   5.099 -0.1251 -1.9483 -0.3880
 3966SOL     OW23359   3.173   2.509   2.637  0.9708 -0.2122 -0.0456
 3966SOL    HW123360   3.139   2.583   2.585  1.6595 -0.7216 -1.2288
 3966SOL    HW223361   3.244   2.555   2.681  0.7862 -1.2870  1.3454
 3967SOL     OW23362   0.755   2.405   9.053 -0.3182 -0.0822 -0.3014
 3967SOL    HW123363   0.684   2.398   9.117  2.5860  0.5396  3.0016
 3967SOL    HW223364   0.751   2.498   9.033  0.6393  0.2183  0.9507
 3968SOL     OW23365   1.463   1.590   3.840  0.2093 -0.0759 -0.5310
 3968SOL    HW123366   1.533   1.591   3.906  0.3876 -0.6717 -0.7085
 3968SOL    HW223367   1.496   1.522   3.781  2.4170  0.9620 -0.4844
 3969SOL     OW23368   1.786   1.456   4.232 -0.2489  0.0277 -0.1223
 3969SOL    HW123369   1.788   1.509   4.312  1.7118 -0.0259 -0.1302
 3969SOL    HW223370   1.829   1.521   4.177  2.5774 -0.0513  1.9830
 3970SOL     OW23371   0.415   2.395   6.860 -0.7269  0.0095  0.0855
 3970SOL    HW123372   0.462   2.431   6.935  1.7747  0.4144 -1.6822
 3970SOL    HW223373   0.345   2.458   6.848 -0.3947  0.1319 -1.1743
 3971SOL     OW23374   0.873   1.064  14.448 -0.1795  0.2983 -0.7967
 3971SOL    HW123375   0.840   1.066  14.358 -2.0568 -2.9369 -0.1970
 3971SOL    HW223376   0.904   0.974  14.445 -1.6901 -0.2180 -1.3343
 3972SOL     OW23377   1.220   2.548   3.413 -0.4346  0.1444 -0.2102
 3972SOL    HW123378   1.135   2.581   3.384 -0.4755  1.1037  0.9528
 3972SOL    HW223379   1.205   2.459   3.382 -1.0815  1.3718 -3.4285
 3973SOL     OW23380   2.307   4.197   5.736  0.7498  0.0160  0.1624
 3973SOL    HW123381   2.287   4.125   5.795  1.5711  1.9511  2.8180
 3973SOL    HW223382   2.310   4.155   5.650  0.6784 -0.6228  0.4799
 3974SOL     OW23383   1.389   0.826   5.277  0.1149  0.1267 -0.6911
 3974SOL    HW123384   1.338   0.748   5.257 -1.3249  0.6987  0.7434
 3974SOL    HW223385   1.382   0.844   5.371 -0.2950  1.9458 -1.0673
 3975SOL     OW23386   1.460   1.947  10.954 -0.3475  0.1073 -0.3391
 3975SOL    HW123387   1.375   1.980  10.981 -0.2151 -0.6035  0.9728
 3975SOL    HW223388   1.515   1.958  11.031  0.7262  0.5238 -1.1614
 3976SOL     OW23389   0.366   2.777  12.704  0.2571 -0.2993  0.1748
 3976SOL    HW123390   0.386   2.862  12.742  0.7366 -0.8473  1.1643
 3976SOL    HW223391   0.289   2.789  12.649  1.7253  2.9069 -1.1171
 3977SOL     OW23392   0.539   0.302   4.018 -0.2885 -0.1613  0.4318
 3977SOL    HW123393   0.465   0.318   3.959 -0.6246  0.5923  1.0653
 3977SOL    HW223394   0.531   0.206   4.023 -1.0722 -0.0222  1.8853
 3978SOL     OW23395   2.797   1.016   7.656  0.4249 -0.1361  0.0290
 3978SOL    HW123396   2.845   1.054   7.729  2.5928 -1.5117 -0.6653
 3978SOL    HW223397   2.724   1.077   7.647  0.5411 -0.0534 -0.3677
 3979SOL     OW23398   2.357   3.957   4.067 -0.0173 -0.1595 -0.2402
 3979SOL    HW123399   2.318   3.974   3.981  0.7297 -3.2627 -1.2022
 3979SOL    HW223400   2.279   3.990   4.111  0.3939  1.0366 -0.4101
 3980SOL     OW23401   1.876   2.100   2.356 -0.1856  0.0004 -0.2338
 3980SOL    HW123402   1.792   2.054   2.356 -0.7024  0.9729  0.5716
 3980SOL    HW223403   1.855   2.188   2.387 -0.9339 -0.6490  1.0949
 3981SOL     OW23404   1.003   0.580   6.161 -0.0900 -0.3151  0.1445
 3981SOL    HW123405   0.941   0.550   6.228  0.3746 -0.2737  0.5950
 3981SOL    HW223406   1.068   0.511   6.179 -1.8314 -2.6439 -2.6546
 3982SOL     OW23407   4.321   2.270   0.863  0.1580  0.0681  0.5136
 3982SOL    HW123408   4.359   2.186   0.838  1.3520  0.4673  0.9568
 3982SOL    HW223409   4.356   2.330   0.797 -0.5518 -0.5254 -0.3980
 3983SOL     OW23410   2.751   2.041  12.299 -0.2338 -0.6163  0.3931
 3983SOL    HW123411   2.702   2.076  12.224  0.3720  0.8019  0.6570
 3983SOL    HW223412   2.791   1.961  12.266  1.7143  0.2759  0.5944
 3984SOL     OW23413   2.249   3.058   0.595  0.6581 -0.4770 -0.0041
 3984SOL    HW123414   2.226   2.971   0.628 -2.7309  0.4303 -0.0079
 3984SOL    HW223415   2.323   3.035   0.539  1.8159  0.3264  1.1833
 3985SOL     OW23416   2.989   0.322   9.415 -0.2863  0.3932 -0.1075
 3985SOL    HW123417   3.054   0.380   9.376 -0.3757  1.2926  1.0959
 3985SOL    HW223418   2.969   0.265   9.340 -1.0446 -1.4126  1.4689
 3986SOL     OW23419   1.894   4.346   0.886 -0.6197 -0.1156  0.0715
 3986SOL    HW123420   1.824   4.314   0.828  0.1482 -1.6395 -0.0215
 3986SOL    HW223421   1.859   4.426   0.924  0.2860  0.0643  0.5317
 3987SOL     OW23422   0.318   0.603  15.323  0.0364  0.4701 -0.3635
 3987SOL    HW123423   0.233   0.599  15.279  0.6787  3.3753 -1.8945
 3987SOL    HW223424   0.382   0.575  15.257  1.5791  2.5960  0.2238
 3988SOL     OW23425   3.707   0.160   3.589  0.0552 -0.7384  0.1397
 3988SOL    HW123426   3.776   0.149   3.524  0.5095  1.1849  0.3029
 3988SOL    HW223427   3.736   0.082   3.637  1.3558 -0.6918 -0.5607
 3989SOL     OW23428   0.023   0.903   9.510 -0.3699  0.1688 -0.3489
 3989SOL    HW123429   4.655   0.935   9.498  0.9897  3.5350 -1.4652
 3989SOL    HW223430   0.030   0.905   9.605 -0.2111 -0.8337 -0.3395
 3990SOL     OW23431   4.496   1.775  10.059  0.0070 -0.0418  0.3011
 3990SOL    HW123432   4.488   1.679  10.062  1.3643 -0.1292  1.4186
 3990SOL    HW223433   4.412   1.804  10.093  0.1668  1.6453 -0.7645
 3991SOL     OW23434   4.445   2.025   1.437  0.0652 -0.1034 -0.2054
 3991SOL    HW123435   4.385   1.952   1.421 -0.7783  0.5898 -0.2225
 3991SOL    HW223436   4.404   2.062   1.516  0.1203 -0.5965  0.0517
 3992SOL     OW23437   0.843   3.676   5.041  0.3273 -0.4746  0.6050
 3992SOL    HW123438   0.798   3.606   5.089 -1.0770 -1.4469 -2.1354
 3992SOL    HW223439   0.892   3.726   5.106  0.3596 -0.3951  0.5201
 3993SOL     OW23440   0.161   4.308   7.160  0.2172 -0.1162 -0.4430
 3993SOL    HW123441   0.130   4.333   7.072  0.9243 -2.5194 -1.3522
 3993SOL    HW223442   0.204   4.392   7.180  3.1707 -2.0017  1.0524
 3994SOL     OW23443   0.435   3.946   2.394  0.0844 -0.3940  0.3482
 3994SOL    HW123444   0.396   4.020   2.347 -0.0157 -0.1612  0.7961
 3994SOL    HW223445   0.375   3.875   2.375 -0.2878  0.2920 -1.0693
 3995SOL     OW23446   3.821   3.852   7.940 -0.3243 -0.1056  0.0599
 3995SOL    HW123447   3.757   3.900   7.992 -0.8289  0.6621 -1.2763
 3995SOL    HW223448   3.888   3.840   8.007  0.9179  2.0290 -0.8163
 3996SOL     OW23449   1.212   2.611   8.490  0.1924 -0.4288  0.4252
 3996SOL    HW123450   1.277   2.614   8.560  0.2952  0.0663  0.3107
 3996SOL    HW223451   1.261   2.668   8.430  0.5592  0.2307  1.3551
 3997SOL     OW23452   1.900   1.239   8.655  0.2507 -0.6437 -0.0642
 3997SOL    HW123453   1.944   1.203   8.578 -0.6271 -1.7253 -0.0551
 3997SOL    HW223454   1.887   1.151   8.690  0.5794 -1.2893 -1.5266
 3998SOL     OW23455   3.042   3.924   8.439  0.4579 -0.1723  0.2342
 3998SOL    HW123456   3.129   3.963   8.438  0.1014  0.5965 -0.6402
 3998SOL    HW223457   3.007   3.954   8.523 -0.5660 -1.3893  0.2441
 3999SOL     OW23458   4.469   4.010  10.427 -0.2480  0.2361 -0.0741
 3999SOL    HW123459   4.418   4.072  10.374  1.7733 -0.3996 -2.7515
 3999SOL    HW223460   4.531   3.987  10.357  1.1872  1.2289  0.8806
 4000SOL     OW23461   3.827   1.654   8.848 -0.3947  0.1167  0.5160
 4000SOL    HW123462   3.824   1.584   8.784  1.6345 -0.4709  1.0423
 4000SOL    HW223463   3.782   1.727   8.806  0.0173  0.4020  0.5706
 4001SOL     OW23464   0.834   1.755  10.056  0.2921 -0.2911  0.4662
 4001SOL    HW123465   0.860   1.826  10.116 -0.6887  0.8253 -0.4474
 4001SOL    HW223466   0.739   1.765  10.055  0.1000 -1.7674  2.7270
 4002SOL     OW23467   1.526   3.552  12.000 -0.1235  0.2908  0.2038
 4002SOL    HW123468   1.515   3.583  12.090  0.0901 -0.4723  0.4925
 4002SOL    HW223469   1.509   3.635  11.956  1.5733  0.8297  0.5591
 4003SOL     OW23470   3.131   2.627  15.074  0.3408 -0.9860 -0.3009
 4003SOL    HW123471   3.041   2.636  15.106 -0.1697 -0.2248 -1.9336
 4003SOL    HW223472   3.144   2.534  15.058  0.8728 -0.5297 -2.5928
 4004SOL     OW23473   4.571   1.564  13.097 -0.5984  0.0103 -0.0863
 4004SOL    HW123474   4.630   1.608  13.037 -0.6808 -0.2107 -0.3318
 4004SOL    HW223475   4.486   1.597  13.067 -0.7120 -0.9938 -0.9020
 4005SOL     OW23476   1.637   0.373   9.472 -0.4730  0.3259 -0.2571
 4005SOL    HW123477   1.626   0.439   9.541 -2.1032 -1.5548  1.2855
 4005SOL    HW223478   1.707   0.318   9.508 -0.4823  0.0352 -0.6827
 4006SOL     OW23479   2.952   2.179   5.136 -0.1109  0.3745  0.3194
 4006SOL    HW123480   2.877   2.122   5.122  1.3292 -1.2246 -0.9498
 4006SOL    HW223481   3.018   2.147   5.073 -1.0674 -1.4437  0.2436
 4007SOL     OW23482   4.308   4.055   0.937  0.0127 -0.2050  0.5177
 4007SOL    HW123483   4.379   3.999   0.968  0.1276  1.4029  3.1378
 4007SOL    HW223484   4.232   4.038   0.993 -0.0271  2.5445  1.3301
 4008SOL     OW23485   3.602   1.856   3.335 -0.0544 -0.2631 -0.2828
 4008SOL    HW123486   3.678   1.802   3.312 -1.3412 -2.6600  1.0070
 4008SOL    HW223487   3.647   1.932   3.372  1.0294 -0.4171 -1.2858
 4009SOL     OW23488   1.167   4.445   8.971 -0.3924  0.1370  0.3498
 4009SOL    HW123489   1.150   4.503   9.046 -0.8944  0.7236 -0.2098
 4009SOL    HW223490   1.231   4.388   9.013 -1.5469 -0.8089  0.8225
 4010SOL     OW23491   1.901   1.082   8.277 -0.2530 -0.2789  0.1370
 4010SOL    HW123492   1.806   1.069   8.277 -0.2242 -0.5055 -1.2200
 4010SOL    HW223493   1.930   0.992   8.290 -0.8244 -0.3585  0.8821
 4011SOL     OW23494   2.382   3.937  11.310 -0.2308  0.2079  0.4718
 4011SOL    HW123495   2.414   4.010  11.363 -0.5012 -0.0611  1.0086
 4011SOL    HW223496   2.438   3.862  11.331 -0.7861 -0.4733 -0.4645
 4012SOL     OW23497   4.172   0.503   7.389 -0.2392  0.5215 -0.4241
 4012SOL    HW123498   4.110   0.467   7.453  1.6707  1.1630  1.7897
 4012SOL    HW223499   4.121   0.535   7.315 -1.4919 -1.4496 -0.4078
 4013SOL     OW23500   4.675   0.138  16.287 -0.4300 -0.1888  0.2140
 4013SOL    HW123501   4.589   0.132  16.329 -0.8127 -3.4104 -1.0002
 4013SOL    HW223502   0.015   0.121  16.358  0.1873  1.5713  0.1015
 4014SOL     OW23503   3.968   1.597  12.599 -0.4004 -0.1200 -0.0528
 4014SOL    HW123504   4.050   1.597  12.550  0.3710 -1.8412  1.2247
 4014SOL    HW223505   3.909   1.653  12.548  2.3729  3.2177  0.4066
 4015SOL     OW23506   4.336   4.674  17.138 -0.2046  0.4038  0.3774
 4015SOL    HW123507   4.349   4.582  17.161 -1.5666  0.0496 -0.2597
 4015SOL    HW223508   4.360   4.720  17.219 -2.1502  0.6426  0.8398
 4016SOL     OW23509   4.129   2.407  14.984 -0.6025 -0.3674 -0.4738
 4016SOL    HW123510   4.095   2.474  15.042  0.5692  0.7831 -1.1154
 4016SOL    HW223511   4.204   2.456  14.949  0.2930 -0.3304  1.4994
 4017SOL     OW23512   4.549   1.581   8.474 -0.5354  0.1764 -0.0364
 4017SOL    HW123513   4.612   1.511   8.458  0.2704  1.1898 -1.3294
 4017SOL    HW223514   4.579   1.622   8.555 -1.8531 -0.3314  0.7147
 4018SOL     OW23515   4.532   1.243   3.242 -0.3494  0.1737 -0.0508
 4018SOL    HW123516   4.534   1.148   3.254 -1.0926  0.2770  0.8277
 4018SOL    HW223517   4.611   1.266   3.192 -1.0139 -0.9852 -1.6493
 4019SOL     OW23518   0.866   4.438   4.682  0.1370  0.0416  0.3987
 4019SOL    HW123519   0.777   4.472   4.697  0.2627  0.2874  0.5978
 4019SOL    HW223520   0.908   4.440   4.768 -0.6871  0.8249  0.7900
 4020SOL     OW23521   2.697   1.693   4.432 -0.0586 -0.0242 -0.5746
 4020SOL    HW123522   2.672   1.622   4.490 -1.1696  0.6888 -0.1806
 4020SOL    HW223523   2.709   1.770   4.489  0.5310 -0.3236 -0.2846
 4021SOL     OW23524   1.463   3.123   1.338  0.4469 -0.2754 -0.3404
 4021SOL    HW123525   1.530   3.148   1.275  0.2102 -1.4479 -1.0573
 4021SOL    HW223526   1.393   3.127   1.273 -0.5451 -0.1448  0.7470
 4022SOL     OW23527   3.274   2.812  15.996 -0.5599  1.0151 -0.6295
 4022SOL    HW123528   3.218   2.875  15.952 -1.1706 -0.6338 -2.1988
 4022SOL    HW223529   3.356   2.834  15.952  0.9526 -1.0889  1.0989
 4023SOL     OW23530   1.669   2.031   9.245  0.0765 -1.0149 -0.1313
 4023SOL    HW123531   1.587   2.078   9.237 -0.5921 -2.2865 -0.7129
 4023SOL    HW223532   1.713   2.087   9.309  1.1455 -0.9790 -0.8917
 4024SOL     OW23533   4.367   3.764   8.104  0.3534 -0.0221 -0.6948
 4024SOL    HW123534   4.453   3.800   8.085  0.8732 -0.9202 -0.0066
 4024SOL    HW223535   4.354   3.768   8.199  3.5560  1.5731 -0.3201
 4025SOL     OW23536   0.834   3.010  13.985 -0.1443 -0.2402 -0.2666
 4025SOL    HW123537   0.850   2.917  13.974  0.0069 -0.0395 -1.6724
 4025SOL    HW223538   0.924   3.041  13.994  0.3164 -2.8668  4.1751
 4026SOL     OW23539   4.016   3.452  10.094 -0.1786  0.4408  0.2649
 4026SOL    HW123540   4.018   3.531  10.148 -2.1532 -0.0381  1.0379
 4026SOL    HW223541   4.090   3.395  10.115  2.5160  3.5546 -0.6592
 4027SOL     OW23542   2.174   3.616   5.875  0.1155 -0.0810 -0.2033
 4027SOL    HW123543   2.244   3.663   5.830 -0.5839  2.6972  1.6107
 4027SOL    HW223544   2.101   3.672   5.846 -1.4748 -1.6376  0.8141
 4028SOL     OW23545   3.333   3.019  13.045  0.0955 -0.3765 -0.1943
 4028SOL    HW123546   3.333   3.064  13.129  1.1330 -2.8799  1.1459
 4028SOL    HW223547   3.384   3.079  12.990 -0.5432 -1.6299 -2.1899
 4029SOL     OW23548   2.784   0.555   1.715  0.1318  0.2114  0.2682
 4029SOL    HW123549   2.808   0.468   1.683  1.2835  1.0125 -1.0431
 4029SOL    HW223550   2.846   0.616   1.676  0.9577 -1.5921 -1.2506
 4030SOL     OW23551   1.860   4.069  13.555  0.3664 -0.3036  0.7172
 4030SOL    HW123552   1.854   4.083  13.460  0.3515 -0.5424  0.6830
 4030SOL    HW223553   1.922   4.137  13.579  0.2142  0.2832 -0.5666
 4031SOL     OW23554   3.027   0.949  16.373  0.7716  0.0693 -0.6079
 4031SOL    HW123555   3.075   0.869  16.349  1.0526 -0.5093  1.8986
 4031SOL    HW223556   3.101   1.007  16.392  0.2699  1.2736 -2.2990
 4032SOL     OW23557   3.922   1.769  13.071 -0.2077  0.0604 -0.1312
 4032SOL    HW123558   3.967   1.687  13.052 -1.2466 -0.5612  0.1319
 4032SOL    HW223559   3.989   1.822  13.026 -0.6102 -0.3952 -1.2465
 4033SOL     OW23560   0.306   3.216   0.992 -0.3410 -0.1012  0.2963
 4033SOL    HW123561   0.344   3.166   1.064 -0.1789  0.0766  0.3351
 4033SOL    HW223562   0.217   3.222   1.024  0.3585  1.1867  1.9892
 4034SOL     OW23563   2.921   2.330   2.880 -0.1168 -0.2472 -0.0773
 4034SOL    HW123564   2.950   2.305   2.792  0.5537  0.9357 -0.1909
 4034SOL    HW223565   3.003   2.341   2.928 -0.3871 -0.9179  0.5336
 4035SOL     OW23566   2.911   1.311   8.968  0.4460  0.2376 -0.4291
 4035SOL    HW123567   2.950   1.230   9.003 -3.2084 -0.4085  2.1355
 4035SOL    HW223568   2.819   1.287   8.975  0.7035 -0.8631 -0.7447
 4036SOL     OW23569   0.797   2.058   4.863  0.4392 -0.0659 -0.0805
 4036SOL    HW123570   0.858   2.121   4.900  2.0224 -0.4854 -1.9660
 4036SOL    HW223571   0.847   1.994   4.811  0.1465 -0.7912  0.5322
 4037SOL     OW23572   3.428   2.291   0.570  0.0467  0.0184 -0.0883
 4037SOL    HW123573   3.361   2.356   0.593  1.8431  2.4592 -1.7334
 4037SOL    HW223574   3.446   2.236   0.646  0.3445 -1.3372 -1.1557
 4038SOL     OW23575   3.297   2.957  12.641  0.2471  0.2118 -0.2548
 4038SOL    HW123576   3.378   2.982  12.687 -0.1773  1.6941 -0.3135
 4038SOL    HW223577   3.325   2.875  12.600 -0.0429  0.9351 -1.8848
 4039SOL     OW23578   1.515   1.110   2.416 -0.4204  0.0801 -0.1988
 4039SOL    HW123579   1.426   1.074   2.411  0.9028 -2.8819 -2.2991
 4039SOL    HW223580   1.568   1.032   2.432  1.2403  0.8087 -2.1646
 4040SOL     OW23581   3.088   2.179   4.769 -0.5735 -0.2268  0.3919
 4040SOL    HW123582   3.088   2.185   4.674  0.1890 -1.8323  0.2864
 4040SOL    HW223583   3.006   2.221   4.796  0.2062  2.6929 -1.7865
 4041SOL     OW23584   0.478   2.978   8.172  0.6797  0.3861 -0.2163
 4041SOL    HW123585   0.504   3.068   8.193  1.4242  0.0349  0.4056
 4041SOL    HW223586   0.564   2.942   8.150  1.1776  0.4507  1.6180
 4042SOL     OW23587   1.032   2.440   6.371 -0.1198 -0.2418  0.4316
 4042SOL    HW123588   1.075   2.526   6.372 -0.2023 -0.1617 -3.5313
 4042SOL    HW223589   1.050   2.413   6.461 -0.3540 -0.5188  0.3957
 4043SOL     OW23590   4.028   1.118  12.005 -0.9584  0.0426 -0.0165
 4043SOL    HW123591   3.934   1.135  12.017 -0.4641  1.6899  1.4398
 4043SOL    HW223592   4.059   1.175  11.935  0.5669 -2.0270 -1.0096
 4044SOL     OW23593   2.666   1.308   4.471 -0.0634  0.3496  0.4078
 4044SOL    HW123594   2.630   1.373   4.532 -0.2693 -3.0456  3.8928
 4044SOL    HW223595   2.700   1.368   4.405 -2.4813  0.0483 -1.1447
 4045SOL     OW23596   3.273   2.942  12.218  1.0543 -0.4234 -0.1741
 4045SOL    HW123597   3.312   2.896  12.293 -1.0447 -2.1007 -0.1348
 4045SOL    HW223598   3.221   2.874  12.176  2.3218 -1.2744 -0.3844
 4046SOL     OW23599   2.285   3.944   5.903  0.8648 -0.3509 -0.6974
 4046SOL    HW123600   2.329   3.862   5.882  0.9278 -0.3038 -0.7508
 4046SOL    HW223601   2.289   3.947   5.999  1.1849 -0.1610 -0.7166
 4047SOL     OW23602   4.306   2.363   6.619 -0.4190 -0.3181  0.1858
 4047SOL    HW123603   4.308   2.334   6.528  0.1047  0.9030 -0.2021
 4047SOL    HW223604   4.401   2.364   6.636 -0.3436 -1.5487 -0.1606
 4048SOL     OW23605   0.760   2.432  12.656 -0.4251  0.3678 -0.0481
 4048SOL    HW123606   0.806   2.485  12.721  0.1114  1.4774 -1.3461
 4048SOL    HW223607   0.689   2.490  12.630 -1.3535 -0.2577  1.0377
 4049SOL     OW23608   4.082   0.312   0.289 -0.5042  0.4429  0.6819
 4049SOL    HW123609   4.091   0.354   0.203  0.4016 -1.6535 -0.2403
 4049SOL    HW223610   4.172   0.285   0.307 -0.4154  1.8754  2.3824
 4050SOL     OW23611   0.325   2.635   7.776  0.2679 -0.1212 -0.1376
 4050SOL    HW123612   0.367   2.550   7.783 -1.2368 -0.8278  0.2422
 4050SOL    HW223613   0.238   2.607   7.804 -0.4482  2.3629  0.1845
 4051SOL     OW23614   3.916   4.143   4.655 -0.5870 -0.2167 -0.1424
 4051SOL    HW123615   3.949   4.229   4.628  1.3282  0.1736  3.4045
 4051SOL    HW223616   3.879   4.170   4.740  1.0725 -0.8453  0.7819
 4052SOL     OW23617   0.832   0.485   5.109 -0.4772 -0.1987  0.0254
 4052SOL    HW123618   0.811   0.429   5.034 -0.9410 -0.5527  0.4135
 4052SOL    HW223619   0.830   0.572   5.069  2.7490 -0.2500 -0.2451
 4053SOL     OW23620   2.748   1.310   0.783  0.1686 -0.1059  0.5816
 4053SOL    HW123621   2.823   1.284   0.838  1.1788  1.5677  0.0153
 4053SOL    HW223622   2.695   1.231   0.779  3.2520 -2.1696  0.5817
 4054SOL     OW23623   1.930   0.800  12.045 -0.1389  0.1512 -0.8394
 4054SOL    HW123624   1.953   0.847  12.125 -0.4315  0.5504 -0.9903
 4054SOL    HW223625   2.008   0.815  11.991 -0.0583 -0.8260 -0.9938
 4055SOL     OW23626   3.600   4.422  12.134  0.0952  0.5717 -0.6533
 4055SOL    HW123627   3.527   4.410  12.073 -0.2961  1.2332 -0.3143
 4055SOL    HW223628   3.555   4.379  12.206  0.9705  1.4790  0.4451
 4056SOL     OW23629   3.440   0.785   3.528 -0.2401  0.1637  0.3242
 4056SOL    HW123630   3.501   0.727   3.484  0.5837  2.3102 -1.3652
 4056SOL    HW223631   3.360   0.766   3.479  0.2097  0.9723 -0.7102
 4057SOL     OW23632   3.336   3.973   5.612 -0.0732  0.0819 -0.2343
 4057SOL    HW123633   3.244   3.949   5.627 -0.1900  1.8370  1.9940
 4057SOL    HW223634   3.326   4.049   5.555  0.4672  1.8957  2.0945
 4058SOL     OW23635   4.246   0.404   3.308  0.5771 -0.0208 -0.3673
 4058SOL    HW123636   4.270   0.479   3.254  2.2316 -0.2096  0.0927
 4058SOL    HW223637   4.183   0.446   3.366  1.2141  0.9598 -0.3804
 4059SOL     OW23638   3.587   0.620   4.412 -0.0722  0.3391 -0.5558
 4059SOL    HW123639   3.680   0.610   4.392  0.4008 -2.1950  2.9988
 4059SOL    HW223640   3.566   0.528   4.394  0.4849  0.4223 -1.6660
 4060SOL     OW23641   2.961   1.648   3.223  0.1723 -0.1500 -0.3002
 4060SOL    HW123642   2.918   1.734   3.225 -0.2149 -0.3633  0.3994
 4060SOL    HW223643   3.051   1.660   3.193  0.6779 -0.3785  1.1028
 4061SOL     OW23644   0.529   1.357  11.667  0.3174 -0.5312 -0.2377
 4061SOL    HW123645   0.508   1.347  11.760 -2.7265  0.0151 -0.8680
 4061SOL    HW223646   0.540   1.451  11.651  0.4263 -0.7162 -1.2448
 4062SOL     OW23647   0.628   2.670  13.225 -0.0690  0.1353 -0.0009
 4062SOL    HW123648   0.711   2.674  13.271 -0.2083 -1.1062  0.3502
 4062SOL    HW223649   0.651   2.594  13.173  0.8736  0.1997  0.3264
 4063SOL     OW23650   2.168   1.893  12.385 -0.2268 -0.0428  0.4797
 4063SOL    HW123651   2.092   1.945  12.413  0.9246  2.2980 -0.7425
 4063SOL    HW223652   2.208   1.878  12.471  0.6317 -0.2186  0.0447
 4064SOL     OW23653   3.002   3.525  14.897  0.0190 -0.3502 -0.4563
 4064SOL    HW123654   3.068   3.469  14.855  2.1901 -0.1725  2.7002
 4064SOL    HW223655   2.933   3.465  14.924 -1.0442  0.4649 -1.3469
 4065SOL     OW23656   3.384   1.624  12.730  0.0420  0.3049  0.8269
 4065SOL    HW123657   3.349   1.591  12.813  2.3089  0.6741  1.9282
 4065SOL    HW223658   3.434   1.692  12.775 -0.0974 -0.8296  2.6872
 4066SOL     OW23659   2.254   1.059   0.689  0.5962 -0.1381 -0.2109
 4066SOL    HW123660   2.195   1.001   0.737  0.6796  0.8590  1.0766
 4066SOL    HW223661   2.322   0.995   0.668  0.2888  0.1128 -1.9964
 4067SOL     OW23662   0.291   3.949   5.071  0.0506  0.0502 -0.1721
 4067SOL    HW123663   0.229   3.878   5.090 -0.0487  0.1792 -0.0220
 4067SOL    HW223664   0.240   4.026   5.095 -1.3455 -0.7711 -0.5041
 4068SOL     OW23665   2.603   4.697   6.594 -0.2454 -0.8897  0.0520
 4068SOL    HW123666   2.614   0.065   6.627  2.2486 -1.4476  0.7464
 4068SOL    HW223667   2.589   4.647   6.674 -0.9259  0.6451  0.8967
 4069SOL     OW23668   1.034   0.435   4.271  0.0625 -0.2839  0.3533
 4069SOL    HW123669   1.077   0.432   4.357 -0.7198 -1.8720  0.6926
 4069SOL    HW223670   1.083   0.372   4.218  1.2299 -1.6592  3.0611
 4070SOL     OW23671   3.120   1.237  15.105  0.2642 -0.3594  0.1081
 4070SOL    HW123672   3.025   1.242  15.096  0.3564  1.6729  0.3791
 4070SOL    HW223673   3.123   1.180  15.181  0.0250 -1.6183 -0.8131
 4071SOL     OW23674   2.566   1.896   0.143  0.2707  0.4420 -0.2509
 4071SOL    HW123675   2.646   1.898   0.092  0.4185  1.8057  0.0313
 4071SOL    HW223676   2.496   1.868   0.084  1.0860  0.3892 -1.1911
 4072SOL     OW23677   3.988   1.242   6.952  0.3370 -0.1782 -0.0405
 4072SOL    HW123678   4.005   1.192   7.033 -0.2307 -0.2708  0.0183
 4072SOL    HW223679   3.923   1.303   6.986 -1.0307 -0.1418 -2.7780
 4073SOL     OW23680   2.671   2.720   8.678 -0.1609 -0.5813  0.2552
 4073SOL    HW123681   2.598   2.758   8.629  0.2394  0.5933  0.5571
 4073SOL    HW223682   2.695   2.802   8.722 -4.2103  0.2560  0.9358
 4074SOL     OW23683   0.755   1.656   6.126  0.3890  0.2493 -0.3489
 4074SOL    HW123684   0.718   1.629   6.042  1.6559  0.1502 -0.8804
 4074SOL    HW223685   0.793   1.741   6.104  0.9700 -0.3650 -1.7198
 4075SOL     OW23686   3.498   2.184   6.960  0.1015 -0.3468 -0.3894
 4075SOL    HW123687   3.512   2.168   7.053 -0.5137 -0.7737 -0.3713
 4075SOL    HW223688   3.496   2.280   6.958 -0.3826 -0.3274  1.0720
 4076SOL     OW23689   1.088   1.264  12.403 -0.3981 -0.3235  0.1533
 4076SOL    HW123690   1.175   1.302  12.414  0.3472 -2.6593  2.3145
 4076SOL    HW223691   1.050   1.341  12.361  3.1803  1.2793 -0.1403
 4077SOL     OW23692   0.788   3.586   2.791 -0.2471 -0.1674  0.5168
 4077SOL    HW123693   0.694   3.584   2.774 -0.3901 -1.3058  1.4428
 4077SOL    HW223694   0.798   3.493   2.773  0.5888  0.1781 -0.8213
 4078SOL     OW23695   1.428   4.714   8.489  0.4034  0.8797  0.0219
 4078SOL    HW123696   1.496   4.678   8.432  0.7074  1.0260  0.2959
 4078SOL    HW223697   1.423   4.645   8.556  2.6331  0.1695 -0.5366
 4079SOL     OW23698   1.042   1.269  15.931  0.3873 -0.1275 -0.5619
 4079SOL    HW123699   1.116   1.216  15.960 -1.4761 -1.5769  1.5391
 4079SOL    HW223700   0.979   1.236  15.995 -0.8337  1.2784 -1.0479
 4080SOL     OW23701   2.253   2.267  17.477  0.2599  0.4781 -0.0108
 4080SOL    HW123702   2.333   2.313  17.451  0.0589  0.3029 -0.9221
 4080SOL    HW223703   2.279   2.228  17.561 -0.3086 -1.9665 -0.9813
 4081SOL     OW23704   0.068   1.907   9.536  0.1208  0.0372 -1.0350
 4081SOL    HW123705   0.075   1.874   9.447  0.7558 -0.7129 -0.7080
 4081SOL    HW223706   4.721   1.973   9.525 -3.3114 -2.6741  4.3023
 4082SOL     OW23707   4.049   1.269   5.986 -0.0115  0.3647 -0.1140
 4082SOL    HW123708   3.967   1.318   5.980  0.6783  1.5302 -0.0654
 4082SOL    HW223709   4.014   1.195   6.035 -0.9522  1.7397  1.3076
 4083SOL     OW23710   2.390   4.374  11.711 -0.8085 -0.1936  0.3233
 4083SOL    HW123711   2.424   4.455  11.673 -1.3710  0.2033  0.6467
 4083SOL    HW223712   2.343   4.336  11.637 -2.5165 -1.6258  2.1243
 4084SOL     OW23713   4.220   3.284   5.536  0.0778 -0.0948  0.6368
 4084SOL    HW123714   4.235   3.190   5.534  0.7617  0.0158  0.5098
 4084SOL    HW223715   4.128   3.280   5.561  0.3337 -0.7529  1.4862
 4085SOL     OW23716   4.203   0.625  10.012  0.0082 -0.5692 -0.1687
 4085SOL    HW123717   4.217   0.531  10.025 -0.6350 -0.7821 -1.0210
 4085SOL    HW223718   4.231   0.657  10.098 -0.0704 -2.3927  0.5358
 4086SOL     OW23719   0.571   3.906   5.129  0.3770 -0.2856 -0.5018
 4086SOL    HW123720   0.476   3.916   5.133  0.5096  1.1897 -1.2606
 4086SOL    HW223721   0.604   3.995   5.114  1.0242 -0.5439 -0.6423
 4087SOL     OW23722   2.556   1.568   3.433 -0.1781  0.2985 -0.2887
 4087SOL    HW123723   2.631   1.625   3.416 -0.4695  0.6658 -0.3350
 4087SOL    HW223724   2.522   1.559   3.344 -2.4410  2.0446  0.4167
 4088SOL     OW23725   1.966   4.663   5.718 -0.1946 -0.0776 -0.1075
 4088SOL    HW123726   1.963   4.692   5.809 -0.7108  1.2066 -0.5446
 4088SOL    HW223727   2.051   4.619   5.709 -0.4814 -0.6562 -0.0013
 4089SOL     OW23728   1.526   3.228   4.254 -0.0391 -0.0784  0.1950
 4089SOL    HW123729   1.580   3.269   4.321 -2.3108  0.8764  1.4294
 4089SOL    HW223730   1.584   3.215   4.179  0.9542 -2.9246  1.4440
 4090SOL     OW23731   4.506   0.654   1.563 -0.3602  0.0206 -0.3145
 4090SOL    HW123732   4.541   0.733   1.522  1.9848 -0.8717 -0.0616
 4090SOL    HW223733   4.479   0.603   1.486  0.8480 -0.6248 -0.3041
 4091SOL     OW23734   4.003   0.708   8.055 -0.8973  0.4340  0.6946
 4091SOL    HW123735   4.061   0.773   8.095  2.0216 -0.9947 -1.2033
 4091SOL    HW223736   3.951   0.664   8.122 -1.3114  1.8761  1.3173
 4092SOL     OW23737   3.800   3.160   0.780 -0.2501  0.0784  0.0796
 4092SOL    HW123738   3.803   3.145   0.874  1.4920 -0.6842 -0.0951
 4092SOL    HW223739   3.713   3.125   0.760 -1.3486  1.6990  2.0802
 4093SOL     OW23740   1.601   3.980  16.567 -0.2784  0.0764  0.3378
 4093SOL    HW123741   1.644   4.025  16.640  2.2604  0.1909 -1.2129
 4093SOL    HW223742   1.533   3.931  16.613 -0.4109 -1.7827 -1.8466
 4094SOL     OW23743   3.328   0.002   3.402 -0.3620  0.2743 -0.0490
 4094SOL    HW123744   3.250   0.024   3.351 -0.2066  0.4515 -0.2050
 4094SOL    HW223745   3.393   0.006   3.333  0.1608 -0.0460  0.4232
 4095SOL     OW23746   4.499   1.179  13.909  0.2459 -0.5342 -0.1936
 4095SOL    HW123747   4.439   1.214  13.976  0.7691  0.9957 -0.5255
 4095SOL    HW223748   4.486   1.086  13.924 -2.1968 -0.0005  1.0819
 4096SOL     OW23749   2.668   4.288   4.967  0.3888  0.0453  0.1282
 4096SOL    HW123750   2.589   4.290   5.019 -0.6883  1.6814 -1.5504
 4096SOL    HW223751   2.699   4.198   4.979 -0.4490 -0.5346 -2.0696
 4097SOL     OW23752   2.679   2.884  17.593 -0.4671 -0.0610  0.1965
 4097SOL    HW123753   2.664   2.819  17.661 -2.1999  1.1789  1.0076
 4097SOL    HW223754   2.651   2.962  17.640 -0.7247 -0.9864  1.5574
 4098SOL     OW23755   0.522   4.316   7.237 -0.2581  0.3141  0.3739
 4098SOL    HW123756   0.575   4.261   7.180  1.6571  0.5228  1.9575
 4098SOL    HW223757   0.456   4.254   7.266 -0.6363  0.8779  0.7153
 4099SOL     OW23758   3.551   0.063   4.284 -0.5996 -0.3012 -0.4598
 4099SOL    HW123759   3.634   0.070   4.238 -0.5876  1.5004 -0.1613
 4099SOL    HW223760   3.572   4.717   4.349  1.5849  0.8156 -0.0067
 4100SOL     OW23761   4.203   2.832   4.198  0.0609 -0.1343  0.4145
 4100SOL    HW123762   4.144   2.822   4.273 -1.8898  1.5881 -0.8643
 4100SOL    HW223763   4.174   2.771   4.131  1.8960 -2.1119  1.4362
 4101SOL     OW23764   2.839   0.089   1.431 -0.2188  0.4128  0.4832
 4101SOL    HW123765   2.896   0.070   1.356 -2.0231  0.2527 -0.8463
 4101SOL    HW223766   2.757   0.047   1.405 -1.8807  1.2733  4.3871
 4102SOL     OW23767   4.036   4.006  11.500  0.6075  0.1997  0.1656
 4102SOL    HW123768   4.086   3.965  11.571  0.1200  0.9706  0.9580
 4102SOL    HW223769   3.964   4.042  11.551 -1.1403 -0.6879 -1.7077
 4103SOL     OW23770   3.618   3.240  11.024 -0.0661 -0.6348 -0.0623
 4103SOL    HW123771   3.693   3.205  11.072 -0.2940  0.1940  0.9028
 4103SOL    HW223772   3.639   3.193  10.944 -0.1327 -1.9811  0.7128
 4104SOL     OW23773   0.963   2.080   2.533  0.1617 -0.3234 -0.3209
 4104SOL    HW123774   0.908   2.003   2.524  0.3480 -0.3206 -1.5012
 4104SOL    HW223775   1.050   2.042   2.517 -0.5778 -1.2041 -2.2034
 4105SOL     OW23776   4.259   0.326  15.234 -0.1779 -0.0927  0.4971
 4105SOL    HW123777   4.346   0.353  15.263  0.6468 -0.0264 -2.0179
 4105SOL    HW223778   4.289   0.246  15.192  1.0116 -0.0260  1.1999
 4106SOL     OW23779   1.640   3.522   4.712  0.0276  0.2111  0.0506
 4106SOL    HW123780   1.633   3.617   4.717 -0.0516  0.1154  1.7343
 4106SOL    HW223781   1.599   3.510   4.798 -1.9426  0.2466 -0.8811
 4107SOL     OW23782   1.145   2.094   9.359 -0.3381  0.2908 -0.3887
 4107SOL    HW123783   1.078   2.026   9.365 -1.4409  1.4635  0.5015
 4107SOL    HW223784   1.110   2.153   9.292  0.8695  0.2245 -1.0803
 4108SOL     OW23785   1.469   3.819   7.349  0.1576 -0.1316  0.1774
 4108SOL    HW123786   1.542   3.783   7.401 -0.9169 -1.9388  0.4041
 4108SOL    HW223787   1.405   3.760   7.387 -0.6478  0.3576 -0.4444
 4109SOL     OW23788   3.449   0.244   3.557  0.5367  0.2808  0.4018
 4109SOL    HW123789   3.539   0.246   3.592  0.9560  1.2377 -0.7318
 4109SOL    HW223790   3.453   0.227   3.463  0.2354 -3.2571  1.0268
 4110SOL     OW23791   4.028   1.218  17.428 -0.5252 -0.2760 -0.9737
 4110SOL    HW123792   3.935   1.223  17.448 -0.5293  2.0093 -1.4826
 4110SOL    HW223793   4.044   1.303  17.470 -0.2263 -1.4426  1.2567
 4111SOL     OW23794   4.034   3.669  11.791  0.2089  0.3605  0.3522
 4111SOL    HW123795   3.940   3.676  11.774  0.5446 -0.2920 -1.8262
 4111SOL    HW223796   4.038   3.677  11.886  0.5051 -0.3263  0.3945
 4112SOL     OW23797   0.299   2.429  13.716 -0.6329  0.3562  0.1263
 4112SOL    HW123798   0.217   2.392  13.751 -0.1602 -1.0305 -0.2380
 4112SOL    HW223799   0.363   2.373  13.759 -0.4344  0.9603  0.6048
 4113SOL     OW23800   0.017   1.811   2.856 -0.2507 -0.1889 -0.5289
 4113SOL    HW123801   4.669   1.758   2.817 -0.7149  0.3784 -0.4744
 4113SOL    HW223802   4.693   1.853   2.929 -0.8378  0.5788 -1.3392
 4114SOL     OW23803   1.178   1.168   5.412  0.5118 -0.0467  0.0018
 4114SOL    HW123804   1.181   1.162   5.507  2.0198  4.4233  0.2656
 4114SOL    HW223805   1.090   1.201   5.396  0.3540 -0.3525  0.2565
 4115SOL     OW23806   1.204   0.765   0.619 -0.2948  0.3398  0.5544
 4115SOL    HW123807   1.170   0.752   0.531 -0.6496  0.6950  0.6386
 4115SOL    HW223808   1.240   0.853   0.622 -0.4613  0.3771  1.8167
 4116SOL     OW23809   2.108   2.483   8.568 -0.0104 -0.4256 -0.0970
 4116SOL    HW123810   2.146   2.472   8.481 -0.2920 -0.4963 -0.2114
 4116SOL    HW223811   2.037   2.419   8.575 -0.0906 -0.0992  2.2403
 4117SOL     OW23812   3.918   4.636   2.575 -0.1002 -0.5077  0.0421
 4117SOL    HW123813   3.992   4.588   2.612  0.5172  0.8891  0.6429
 4117SOL    HW223814   3.941   0.003   2.605 -2.0459 -0.0292  0.1281
 4118SOL     OW23815   3.136   4.078   2.958 -0.0343  0.3317  0.2670
 4118SOL    HW123816   3.159   4.137   3.029  0.0219  0.5583  0.0589
 4118SOL    HW223817   3.216   4.090   2.907  0.5849 -0.6356  1.0137
 4119SOL     OW23818   2.327   4.021   2.676  0.2013  0.2381  0.5426
 4119SOL    HW123819   2.352   3.939   2.632 -0.4819  0.2092  0.2184
 4119SOL    HW223820   2.366   4.086   2.618  1.8880  0.4353  1.8719
 4120SOL     OW23821   0.747   3.069   8.789  0.0126  0.6912 -0.2731
 4120SOL    HW123822   0.662   3.026   8.796  0.6087 -0.0274  2.4461
 4120SOL    HW223823   0.777   3.061   8.698 -1.1148 -0.1653 -0.5611
 4121SOL     OW23824   1.454   4.475   5.216 -0.0263 -0.0718  0.0167
 4121SOL    HW123825   1.482   4.495   5.305 -1.0793  0.6632  0.1842
 4121SOL    HW223826   1.520   4.411   5.191 -1.7673 -1.9738  0.2808
 4122SOL     OW23827   1.243   4.330   5.775  0.7663 -0.5760 -0.0538
 4122SOL    HW123828   1.306   4.311   5.706 -0.5218  2.3496 -2.0538
 4122SOL    HW223829   1.247   4.246   5.820  0.5113 -1.3382 -1.4861
 4123SOL     OW23830   1.954   3.690   6.828  0.2358 -0.9362  0.4374
 4123SOL    HW123831   1.909   3.756   6.882 -1.3013 -0.6724 -1.1466
 4123SOL    HW223832   1.970   3.627   6.898  0.1142  0.0807  1.3814
 4124SOL     OW23833   1.760   4.365  12.640  0.3032 -0.4540 -0.6830
 4124SOL    HW123834   1.697   4.293  12.639  1.2919 -1.3690  3.1994
 4124SOL    HW223835   1.700   4.436  12.662  1.7343 -0.4043  3.1018
 4125SOL     OW23836   2.381   1.638   7.630  0.2064 -0.0003  0.3004
 4125SOL    HW123837   2.299   1.630   7.677 -1.0939 -0.9211 -2.1016
 4125SOL    HW223838   2.372   1.722   7.586 -0.4543 -0.1815  0.0900
 4126SOL     OW23839   4.494   0.167   8.713 -0.1821 -0.2641 -0.5668
 4126SOL    HW123840   4.414   0.171   8.660  0.6999  0.0730 -1.8575
 4126SOL    HW223841   4.540   0.101   8.662  1.2565 -0.0839  0.5265
 4127SOL     OW23842   3.531   1.228  12.160  0.1129 -0.0905  0.4781
 4127SOL    HW123843   3.502   1.269  12.079  0.8221  0.9487  0.7554
 4127SOL    HW223844   3.537   1.309  12.212 -0.1624 -0.0360  0.4228
 4128SOL     OW23845   2.044   1.766   4.272  0.6319  0.4033  0.1152
 4128SOL    HW123846   1.993   1.729   4.200 -1.7745  3.9395  0.0465
 4128SOL    HW223847   2.130   1.727   4.253 -0.7882 -3.0018  0.5722
 4129SOL     OW23848   3.577   4.169   8.205 -0.1475  0.1469  0.0932
 4129SOL    HW123849   3.659   4.193   8.162 -0.6223 -0.8689 -1.3878
 4129SOL    HW223850   3.603   4.078   8.219 -0.1549 -0.0158 -0.9428
 4130SOL     OW23851   2.789   2.494   6.067 -0.7034  0.1177 -0.3070
 4130SOL    HW123852   2.839   2.482   5.986  1.4103  1.8501  0.7271
 4130SOL    HW223853   2.700   2.475   6.036 -0.1064 -0.8315 -1.4219
 4131SOL     OW23854   1.091   3.131  11.564 -0.1560 -0.1273 -0.0443
 4131SOL    HW123855   1.050   3.089  11.488 -1.1304  3.5678 -1.5677
 4131SOL    HW223856   1.044   3.095  11.639  0.0871  0.3418  0.3335
 4132SOL     OW23857   1.753   1.929   7.912 -0.7038 -0.7319 -0.1800
 4132SOL    HW123858   1.786   2.015   7.939 -1.4947 -0.3113 -0.5449
 4132SOL    HW223859   1.835   1.888   7.888 -0.5373  0.6731 -1.9389
 4133SOL     OW23860   0.969   1.355   8.160 -0.1199 -0.0678  0.5655
 4133SOL    HW123861   0.990   1.286   8.223  1.9114 -0.3896 -0.4547
 4133SOL    HW223862   1.025   1.425   8.193  0.5186  0.4003 -1.4833
 4134SOL     OW23863   3.730   0.112   9.042  0.8830 -0.5559  0.0279
 4134SOL    HW123864   3.758   0.141   9.129 -1.6480 -1.5929  1.1592
 4134SOL    HW223865   3.810   0.089   8.994 -1.0658 -1.5066 -2.7631
 4135SOL     OW23866   1.612   0.922  11.741  0.0178  0.3879 -0.1338
 4135SOL    HW123867   1.527   0.881  11.752 -0.2984  1.8740  2.8985
 4135SOL    HW223868   1.677   0.852  11.752 -0.4526  0.3980  2.5966
 4136SOL     OW23869   1.834   3.907   3.862  0.0225 -0.2103  0.2488
 4136SOL    HW123870   1.908   3.858   3.825 -0.4382 -0.4504 -0.3562
 4136SOL    HW223871   1.855   3.998   3.843  0.6256  0.1111  2.4498
 4137SOL     OW23872   3.460   0.367   4.903  0.0358 -0.9699  0.3177
 4137SOL    HW123873   3.554   0.380   4.895 -0.5175  2.8529  0.1036
 4137SOL    HW223874   3.433   0.435   4.965 -0.4560  0.1904 -1.1890
 4138SOL     OW23875   2.920   3.168  16.704  0.2546  0.5737 -0.2913
 4138SOL    HW123876   2.853   3.100  16.716 -0.5721  1.3947 -0.2053
 4138SOL    HW223877   2.950   3.136  16.619 -0.4603 -0.5676 -0.1117
 4139SOL     OW23878   2.471   1.389   9.623 -0.3136  0.6327  0.1926
 4139SOL    HW123879   2.444   1.444   9.697  0.5234  1.2626  0.0310
 4139SOL    HW223880   2.396   1.330   9.615 -0.8832  1.3621  0.0824
 4140SOL     OW23881   1.845   2.016   8.314 -0.2441  0.1834 -0.3832
 4140SOL    HW123882   1.807   2.100   8.287 -1.2668 -0.9888 -2.5414
 4140SOL    HW223883   1.930   2.039   8.351 -1.0055  1.2889  0.6801
 4141SOL     OW23884   2.051   2.957  16.377  0.4993 -0.0030 -0.3913
 4141SOL    HW123885   2.004   3.006  16.310  0.2072  1.1727  0.6637
 4141SOL    HW223886   1.985   2.894  16.408  1.5148 -0.6334  0.5143
 4142SOL     OW23887   3.171   0.354   4.835 -0.4289 -0.2344  0.1494
 4142SOL    HW123888   3.141   0.391   4.918 -1.1430  0.5394 -0.4515
 4142SOL    HW223889   3.259   0.329   4.862 -0.3832  0.9931  1.1192
 4143SOL     OW23890   1.972   0.783   8.817 -0.4349 -0.4870  0.3027
 4143SOL    HW123891   1.996   0.736   8.737  0.6799 -0.0142  0.3486
 4143SOL    HW223892   2.035   0.744   8.877 -0.9589 -0.0999  1.0983
 4144SOL     OW23893   1.887   4.650  17.119 -0.4626  0.2302  0.3792
 4144SOL    HW123894   1.858   0.008  17.163 -2.2523  1.1935 -2.5468
 4144SOL    HW223895   1.856   4.676  17.032  2.4086 -0.9316 -0.9892
 4145SOL     OW23896   2.291   0.375   4.021  0.1474  0.2011  0.1845
 4145SOL    HW123897   2.288   0.284   3.992  1.6716 -0.1124  1.0247
 4145SOL    HW223898   2.361   0.375   4.086  0.1295 -2.0764  0.1853
 4146SOL     OW23899   0.374   2.870   4.401 -0.5293 -0.1594 -0.1710
 4146SOL    HW123900   0.403   2.840   4.487  1.1392 -0.2780 -0.7717
 4146SOL    HW223901   0.295   2.920   4.420 -1.8246 -1.2100 -2.7181
 4147SOL     OW23902   4.707   2.379   1.513 -0.7936 -0.1014  0.2816
 4147SOL    HW123903   4.656   2.388   1.594 -2.5151 -0.1301 -0.8047
 4147SOL    HW223904   4.692   2.287   1.494  0.0948 -0.4270  1.1286
 4148SOL     OW23905   3.649   0.445   9.320 -0.7693  0.6739 -0.3150
 4148SOL    HW123906   3.694   0.512   9.371 -1.2276  0.0374  0.9216
 4148SOL    HW223907   3.576   0.421   9.377 -0.4628  1.4914  0.4273
 4149SOL     OW23908   4.540   2.743   7.295 -0.4931  0.4724 -0.3703
 4149SOL    HW123909   4.517   2.817   7.351 -2.2232 -1.3073  1.2773
 4149SOL    HW223910   4.616   2.779   7.250  1.5857 -0.4857  2.3534
 4150SOL     OW23911   1.499   0.169  15.176  0.1467 -1.0344  0.0445
 4150SOL    HW123912   1.580   0.145  15.133 -1.1989 -0.5211 -2.8184
 4150SOL    HW223913   1.512   0.104  15.244 -3.4884 -0.0405  1.7035
 4151SOL     OW23914   3.505   0.226   8.975 -0.1868  0.0215  0.1816
 4151SOL    HW123915   3.532   0.286   8.907 -1.3875 -0.2310 -0.5203
 4151SOL    HW223916   3.573   0.158   8.980 -0.1735 -0.0332 -0.8289
 4152SOL     OW23917   2.927   2.856   1.952 -0.7356 -0.0919 -0.0406
 4152SOL    HW123918   2.926   2.792   2.024  3.1603  1.7354  1.6228
 4152SOL    HW223919   2.986   2.814   1.890 -1.0723 -1.3419  0.4830
 4153SOL     OW23920   4.121   2.023  14.276  0.1464  0.1021  0.1744
 4153SOL    HW123921   4.123   2.013  14.371  2.0985  1.2442  0.2416
 4153SOL    HW223922   4.059   2.094  14.258 -0.9336 -0.9219 -0.2025
 4154SOL     OW23923   1.654   4.040   7.519 -0.2536 -0.0440  0.0197
 4154SOL    HW123924   1.564   4.072   7.509  0.1262  0.7206 -0.8977
 4154SOL    HW223925   1.706   4.118   7.536 -1.4543  1.0141 -1.2111
 4155SOL     OW23926   2.838   3.699  10.168  0.4933 -0.1624  0.0589
 4155SOL    HW123927   2.893   3.727  10.241 -0.7409  1.0526  0.5097
 4155SOL    HW223928   2.887   3.622  10.137 -1.1211 -0.1297 -2.5636
 4156SOL     OW23929   1.264   0.249  16.033 -0.2951 -0.5430  0.2251
 4156SOL    HW123930   1.273   0.154  16.039  1.1128 -0.2330  2.6245
 4156SOL    HW223931   1.181   0.254  16.081  0.3311 -2.1823  1.4354
 4157SOL     OW23932   0.587   1.729  10.554 -0.0533 -0.0168  0.0410
 4157SOL    HW123933   0.584   1.684  10.638 -0.7565 -0.0150  0.0120
 4157SOL    HW223934   0.512   1.688  10.511  0.1597 -0.9833  0.5971
 4158SOL     OW23935   2.025   2.506   1.701 -0.8075  0.2691 -0.0840
 4158SOL    HW123936   2.043   2.554   1.620  3.3939  0.7882  1.1380
 4158SOL    HW223937   2.098   2.537   1.754 -1.0426  1.3852 -0.4089
 4159SOL     OW23938   3.877   0.476   2.568 -0.2008  0.0657  0.7868
 4159SOL    HW123939   3.822   0.407   2.530  0.3468  0.3096 -0.4536
 4159SOL    HW223940   3.897   0.519   2.485  0.8129  0.4420  1.2299
 4160SOL     OW23941   1.714   2.110   1.617  0.1711  0.2303 -0.1481
 4160SOL    HW123942   1.768   2.187   1.632 -0.6201  0.6061  0.7525
 4160SOL    HW223943   1.762   2.043   1.666  0.0404  0.9912  1.0013
 4161SOL     OW23944   2.397   0.722   4.258  0.3369 -0.0653 -0.0153
 4161SOL    HW123945   2.478   0.671   4.248 -0.1623 -0.9880  0.7395
 4161SOL    HW223946   2.405   0.751   4.349 -1.6379  2.1889 -0.5723
 4162SOL     OW23947   1.677   3.495  14.045 -0.5655 -0.1405  0.3386
 4162SOL    HW123948   1.682   3.563  14.113 -1.1839  0.9538 -0.7099
 4162SOL    HW223949   1.684   3.558  13.973  3.3649  0.9582  1.6569
 4163SOL     OW23950   0.115   2.458   4.683  0.1016 -0.2642  0.7401
 4163SOL    HW123951   0.114   2.545   4.643 -2.7598 -1.3083 -1.5220
 4163SOL    HW223952   0.100   2.479   4.775 -1.7020  1.4048  0.0790
 4164SOL     OW23953   4.595   0.378   5.165  0.6342  0.4990 -0.4102
 4164SOL    HW123954   4.681   0.344   5.141  0.0062 -1.5728  0.2877
 4164SOL    HW223955   4.544   0.298   5.159 -0.5321  1.2589 -0.6857
 4165SOL     OW23956   3.834   3.196   6.076  0.9540 -0.0581 -0.1206
 4165SOL    HW123957   3.865   3.167   5.990 -0.9685 -2.7329  0.0731
 4165SOL    HW223958   3.739   3.193   6.061  1.0372  0.6089 -0.7741
 4166SOL     OW23959   3.899   1.798  16.424 -0.5117  0.1735 -0.5390
 4166SOL    HW123960   3.978   1.753  16.395 -1.7743 -2.2066 -0.2842
 4166SOL    HW223961   3.873   1.736  16.492  1.2026  0.1347  0.0630
 4167SOL     OW23962   2.474   1.883   6.540 -0.4243  1.1148  0.3119
 4167SOL    HW123963   2.390   1.919   6.568 -2.5284 -2.3799 -1.5456
 4167SOL    HW223964   2.490   1.818   6.608  0.4354  1.6348  0.6068
 4168SOL     OW23965   0.103   0.357  10.198 -0.6888 -0.0416  0.0469
 4168SOL    HW123966   0.051   0.436  10.179 -0.9418  0.2381  1.8743
 4168SOL    HW223967   0.106   0.317  10.111 -0.2859 -1.3588  0.6655
 4169SOL     OW23968   1.410   3.536   6.764  0.2101  0.2841  0.5058
 4169SOL    HW123969   1.493   3.494   6.786  0.8488  0.8284 -0.9002
 4169SOL    HW223970   1.349   3.469   6.793  0.3030  1.2441  2.9092
 4170SOL     OW23971   3.642   2.898  17.105 -0.1718  0.5962 -0.1813
 4170SOL    HW123972   3.652   2.941  17.020 -1.2007 -0.7289 -0.9689
 4170SOL    HW223973   3.557   2.934  17.129  0.4272  2.3002 -0.6106
 4171SOL     OW23974   0.802   0.859   5.522 -0.0064 -0.1894 -0.3345
 4171SOL    HW123975   0.724   0.901   5.559  0.6646  0.9686 -0.2052
 4171SOL    HW223976   0.763   0.791   5.468  0.6593 -0.1748 -0.8372
 4172SOL     OW23977   0.150   0.229   1.844 -0.3776  0.0626  0.5138
 4172SOL    HW123978   0.155   0.310   1.794 -1.4531 -0.6761 -0.7993
 4172SOL    HW223979   0.168   0.172   1.770  0.7165  1.7862 -0.5279
 4173SOL     OW23980   4.224   0.021  16.861 -0.3032  0.1149 -0.5990
 4173SOL    HW123981   4.246   4.685  16.934  0.4697  0.5471 -0.4894
 4173SOL    HW223982   4.214   4.678  16.790  0.2683  0.2178 -0.7706
 4174SOL     OW23983   1.689   0.399   7.547  0.2536 -0.3574  0.1485
 4174SOL    HW123984   1.718   0.363   7.463  0.2419  0.6310 -0.2731
 4174SOL    HW223985   1.767   0.444   7.580 -0.2644  0.2196  0.5911
 4175SOL     OW23986   4.664   1.515  12.290 -0.1546 -0.2349 -0.3821
 4175SOL    HW123987   0.031   1.551  12.301  0.1091 -0.8704 -0.4328
 4175SOL    HW223988   4.673   1.460  12.212 -0.8734  1.4573 -1.6562
 4176SOL     OW23989   0.871   1.639   1.776 -0.2427  0.0460 -0.7272
 4176SOL    HW123990   0.966   1.632   1.769  0.0906  0.3602  3.5802
 4176SOL    HW223991   0.869   1.730   1.748 -1.8959 -0.1363 -1.1807
 4177SOL     OW23992   0.156   4.493   4.991  0.5846 -0.6919  0.3871
 4177SOL    HW123993   0.233   4.464   4.941  1.7549  3.1426 -0.0216
 4177SOL    HW223994   0.088   4.448   4.941  1.5443  1.6869 -3.0506
 4178SOL     OW23995   2.454   0.674   6.766 -0.0436  0.0015  0.8998
 4178SOL    HW123996   2.469   0.594   6.817  2.4834 -0.2460 -0.2025
 4178SOL    HW223997   2.509   0.738   6.811  2.4314 -0.8481 -0.9255
 4179SOL     OW23998   3.968   1.497  15.662 -0.1188  0.1654 -0.3215
 4179SOL    HW123999   3.923   1.508  15.746  0.6438  1.5923 -0.1123
 4179SOL    HW224000   4.010   1.582  15.650 -0.2861  0.6680  2.7689
 4180SOL     OW24001   1.054   0.733   3.455 -0.2628  0.6793 -0.0553
 4180SOL    HW124002   0.972   0.781   3.445 -0.4811  0.5923  1.3093
 4180SOL    HW224003   1.025   0.679   3.528 -0.0783  1.9430  0.9523
 4181SOL     OW24004   1.382   2.914   6.418 -0.1145  0.4063 -0.0942
 4181SOL    HW124005   1.416   2.941   6.333 -0.3261 -0.2089 -0.3741
 4181SOL    HW224006   1.461   2.883   6.462 -1.9883  0.3341  3.2097
 4182SOL     OW24007   4.406   4.603   5.512  0.1111 -0.0308  1.3952
 4182SOL    HW124008   4.432   4.695   5.520  0.3137  0.2106 -2.1772
 4182SOL    HW224009   4.439   4.548   5.582  1.1718 -1.0171  0.1144
 4183SOL     OW24010   3.424   0.226   2.580  0.5324  0.1637  0.4130
 4183SOL    HW124011   3.368   0.282   2.633 -0.3882  1.3969 -1.8445
 4183SOL    HW224012   3.385   0.242   2.494 -1.4098 -1.0318  1.0711
 4184SOL     OW24013   4.284   3.024   4.890  0.4970 -1.2515  0.3421
 4184SOL    HW124014   4.378   3.012   4.904  0.7893  0.0212 -0.5340
 4184SOL    HW224015   4.253   2.933   4.890 -1.4111 -0.5997  2.1666
 4185SOL     OW24016   4.651   4.012   3.992 -0.6771  0.8963 -0.1599
 4185SOL    HW124017   4.694   4.021   4.078  1.3319  1.7117 -1.2520
 4185SOL    HW224018   4.692   4.080   3.938  1.1104 -1.0755 -1.2641
 4186SOL     OW24019   0.652   2.041   4.642  0.1021  0.1941 -0.6435
 4186SOL    HW124020   0.583   2.107   4.648 -2.1432 -2.2677  1.0900
 4186SOL    HW224021   0.695   2.047   4.728  0.8962  0.4760 -1.0633
 4187SOL     OW24022   1.546   0.712   7.241  0.1391 -0.2999 -0.1419
 4187SOL    HW124023   1.510   0.787   7.289 -2.0423 -0.1858 -1.9578
 4187SOL    HW224024   1.556   0.653   7.316 -0.1981  0.5801  0.5904
 4188SOL     OW24025   2.803   2.129   3.109  0.3473 -0.0214  0.2342
 4188SOL    HW124026   2.841   2.165   3.028  2.0278 -1.2845  0.4479
 4188SOL    HW224027   2.711   2.112   3.088  1.0339 -2.2866 -1.0205
 4189SOL     OW24028   4.184   4.045  10.570 -0.2902  0.0886 -0.4043
 4189SOL    HW124029   4.164   4.059  10.662 -2.8752  1.6065 -1.1943
 4189SOL    HW224030   4.269   4.089  10.577  0.4287 -1.1717 -1.1527
 4190SOL     OW24031   1.634   1.981   6.046  0.0640 -0.2774  0.1494
 4190SOL    HW124032   1.689   1.956   5.971  0.1686  0.7929 -0.1313
 4190SOL    HW224033   1.672   2.066   6.068  0.3809 -0.3086 -0.2612
 4191SOL     OW24034   2.033   1.852   4.670 -0.4083 -0.6618 -0.1018
 4191SOL    HW124035   2.118   1.851   4.626  0.3278 -1.5755  1.3367
 4191SOL    HW224036   2.019   1.946   4.671 -0.9517 -0.7533  1.0515
 4192SOL     OW24037   3.906   4.566  14.943  0.0968  0.3023 -0.2268
 4192SOL    HW124038   3.875   4.548  14.854  0.6845 -0.5527 -0.2577
 4192SOL    HW224039   3.973   4.632  14.924  0.0485  0.9346  1.8600
 4193SOL     OW24040   1.799   3.481   2.895 -0.1793  0.2052  0.3306
 4193SOL    HW124041   1.713   3.463   2.857 -0.3939  0.1650  0.8339
 4193SOL    HW224042   1.817   3.564   2.851 -1.1594  0.5049  0.4833
 4194SOL     OW24043   4.284   3.323   7.705  0.3857 -0.1308  0.0488
 4194SOL    HW124044   4.340   3.370   7.767 -1.2729 -1.4376  2.5560
 4194SOL    HW224045   4.201   3.320   7.754  0.0859 -0.3955 -0.4753
 4195SOL     OW24046   1.059   0.975   9.499  0.2474 -0.3829 -0.2766
 4195SOL    HW124047   1.086   1.020   9.419 -1.1712  1.6117  0.3436
 4195SOL    HW224048   0.994   0.915   9.462  0.2601 -1.0376  0.7610
 4196SOL     OW24049   2.211   1.094   3.424 -0.4211  0.5922  0.7602
 4196SOL    HW124050   2.288   1.044   3.396  0.0492  1.2904  0.8175
 4196SOL    HW224051   2.250   1.175   3.456 -1.9982  1.2309  1.0722
 4197SOL     OW24052   4.105   4.688   7.973 -0.0946 -0.0229  0.2765
 4197SOL    HW124053   4.133   4.622   7.910 -2.5423 -2.1398  1.4101
 4197SOL    HW224054   4.180   4.680   8.031  0.3083  0.8014 -0.1359
 4198SOL     OW24055   0.891   2.695  11.451 -0.7808 -0.1716 -0.2821
 4198SOL    HW124056   0.903   2.601  11.467  1.1829  0.0341 -0.5506
 4198SOL    HW224057   0.986   2.708  11.457 -1.1388  1.3211  1.9233
 4199SOL     OW24058   3.457   2.578  16.128 -0.4559  0.6292 -0.6701
 4199SOL    HW124059   3.480   2.664  16.093 -0.5252  1.1231  0.4958
 4199SOL    HW224060   3.529   2.521  16.101  0.6577  1.6486  0.1282
 4200SOL     OW24061   3.681   1.907  13.053 -0.7004  0.5703  0.1979
 4200SOL    HW124062   3.763   1.858  13.064 -1.4970 -0.5150  1.2859
 4200SOL    HW224063   3.723   1.986  13.018 -2.3808  1.0344 -0.7288
 4201SOL     OW24064   3.256   1.491   6.188  0.1984 -0.0424 -0.2199
 4201SOL    HW124065   3.164   1.513   6.171  0.3122 -0.1229 -0.9608
 4201SOL    HW224066   3.264   1.463   6.279  1.9832  0.3088 -0.2801
 4202SOL     OW24067   1.196   3.838   5.941  0.8205  0.3880 -0.2949
 4202SOL    HW124068   1.260   3.774   5.910  1.5807  0.0420  1.9867
 4202SOL    HW224069   1.140   3.843   5.863  0.1665 -0.9292  0.0933
 4203SOL     OW24070   3.556   1.505   8.545 -0.2328 -0.2938  0.0408
 4203SOL    HW124071   3.524   1.594   8.554 -1.0619 -0.5488 -0.3844
 4203SOL    HW224072   3.537   1.474   8.634 -0.0047 -0.4744  0.0267
 4204SOL     OW24073   1.393   3.538   6.374 -0.0768  0.4548 -0.8865
 4204SOL    HW124074   1.405   3.560   6.282 -0.2504 -0.5441 -1.1481
 4204SOL    HW224075   1.363   3.449   6.355  0.6350  0.2444 -1.0153
 4205SOL     OW24076   1.684   1.985   9.860 -0.0359 -0.0964  0.2634
 4205SOL    HW124077   1.614   2.037   9.899 -2.0291 -0.7542 -2.4470
 4205SOL    HW224078   1.717   2.055   9.804 -1.2725  1.8231  1.9025
 4206SOL     OW24079   1.255   1.140  16.066  0.0751 -0.2440 -0.0310
 4206SOL    HW124080   1.248   1.048  16.040 -2.9159  0.7309 -2.7037
 4206SOL    HW224081   1.347   1.135  16.090  0.5932  1.6517 -1.7046
 4207SOL     OW24082   4.521   1.090  13.178  0.2013 -0.2408 -0.0913
 4207SOL    HW124083   4.586   1.155  13.151  2.0066 -2.1837 -0.4406
 4207SOL    HW224084   4.502   1.122  13.266 -1.5800 -1.3081 -0.1086
 4208SOL     OW24085   3.465   1.401   1.884  0.0217 -0.1850  0.2284
 4208SOL    HW124086   3.412   1.330   1.919 -0.8606  0.6184  0.5219
 4208SOL    HW224087   3.540   1.353   1.849 -0.9312  0.1422 -2.2468
 4209SOL     OW24088   0.241   4.512  15.107 -0.2386 -0.4329 -0.2616
 4209SOL    HW124089   0.158   4.471  15.132 -0.6030  0.0362 -0.6961
 4209SOL    HW224090   0.273   4.455  15.036 -2.5050 -1.1100 -0.7386
 4210SOL     OW24091   2.747   0.441   0.018  0.1168  0.1356 -0.4918
 4210SOL    HW124092   2.798   0.473  17.631  0.4294 -2.3471 -1.3521
 4210SOL    HW224093   2.809   0.381   0.060 -1.9684 -1.4631  0.2921
 4211SOL     OW24094   0.392   4.019   5.549 -0.3730  0.0706  0.1412
 4211SOL    HW124095   0.428   4.100   5.513 -0.2715  0.1978  0.5300
 4211SOL    HW224096   0.475   3.978   5.572 -1.0758 -1.2031  0.4307
 4212SOL     OW24097   4.638   4.048   0.952 -0.2253 -0.6233  0.1028
 4212SOL    HW124098   4.578   4.075   0.881 -0.5781 -1.4482  0.0882
 4212SOL    HW224099   4.635   4.127   1.006 -0.5744 -0.5261 -0.0581
 4213SOL     OW24100   1.906   0.422   7.974  0.2523  0.1900 -0.3556
 4213SOL    HW124101   1.862   0.485   7.917 -0.2448 -0.1718 -0.3654
 4213SOL    HW224102   1.898   0.471   8.056  0.7253  0.2477 -0.3440
 4214SOL     OW24103   1.217   2.333  10.191 -0.7213  0.4424  0.8454
 4214SOL    HW124104   1.205   2.347  10.284 -0.3511 -0.0263  0.9662
 4214SOL    HW224105   1.153   2.263  10.178  0.0095 -0.3000  1.2144
 4215SOL     OW24106   4.017   1.774   7.550 -0.7113  0.5415  0.1284
 4215SOL    HW124107   4.047   1.794   7.639  0.5040 -1.1917  0.1072
 4215SOL    HW224108   4.047   1.853   7.505  0.4944 -0.2156 -0.4060
 4216SOL     OW24109   0.524   3.217   8.957  0.1092  0.2434  0.0611
 4216SOL    HW124110   0.458   3.259   9.012  1.5608  0.8207  1.3555
 4216SOL    HW224111   0.606   3.213   9.006  0.6059  1.0834 -0.7022
 4217SOL     OW24112   2.360   3.582   8.287 -0.0252 -0.3849 -0.2847
 4217SOL    HW124113   2.416   3.647   8.330 -1.7927  0.7105  0.3638
 4217SOL    HW224114   2.306   3.633   8.226 -1.5255 -0.6993  0.7706
 4218SOL     OW24115   4.321   1.723   3.206  0.1567  0.2575 -0.5170
 4218SOL    HW124116   4.407   1.682   3.219  0.4571  1.1609  0.3463
 4218SOL    HW224117   4.288   1.742   3.293 -3.2937 -3.1794 -1.0961
 4219SOL     OW24118   4.569   0.804  10.242  0.1017  0.2639  0.1769
 4219SOL    HW124119   4.641   0.866  10.256 -1.2109  1.9949 -0.8848
 4219SOL    HW224120   4.583   0.754  10.162 -0.9578  2.1323 -1.1756
 4220SOL     OW24121   2.684   1.731  13.075  0.3637  0.1002 -0.3441
 4220SOL    HW124122   2.725   1.645  13.079  1.8318  0.7234 -2.0661
 4220SOL    HW224123   2.736   1.792  13.128  0.6426  0.0792 -0.5900
 4221SOL     OW24124   0.116   2.482   7.894  0.0446 -0.0773 -0.7551
 4221SOL    HW124125   0.143   2.404   7.944  1.1096 -0.3742 -1.7973
 4221SOL    HW224126   0.079   2.538   7.962 -1.7162 -0.7764 -1.1461
 4222SOL     OW24127   1.725   1.408   6.281 -0.1819 -0.3466  0.0431
 4222SOL    HW124128   1.773   1.486   6.310 -1.1276  0.6734 -1.1406
 4222SOL    HW224129   1.689   1.443   6.200  3.1770  2.1474 -0.3788
 4223SOL     OW24130   4.703   0.276  13.462 -0.2372  0.6260  0.5253
 4223SOL    HW124131   0.019   0.356  13.498 -0.4010  0.7283  0.4671
 4223SOL    HW224132   0.009   0.206  13.521 -2.1138  1.0579  1.9260
 4224SOL     OW24133   1.190   3.625   8.168 -0.2078  0.7080 -0.2990
 4224SOL    HW124134   1.220   3.614   8.258  0.8566  0.3348 -0.6972
 4224SOL    HW224135   1.267   3.615   8.112 -0.7168 -1.2302 -0.6267
 4225SOL     OW24136   3.565   2.692   5.413 -0.2208  0.3325  0.0741
 4225SOL    HW124137   3.574   2.647   5.496 -0.5909  0.9426  0.4496
 4225SOL    HW224138   3.515   2.771   5.437 -1.6261 -0.1870 -1.1081
 4226SOL     OW24139   3.017   2.974   6.653  0.2391  0.4386 -0.1432
 4226SOL    HW124140   2.952   3.022   6.705  0.0854 -1.0943  1.0570
 4226SOL    HW224141   2.965   2.958   6.574  1.0745 -1.8626 -0.2202
 4227SOL     OW24142   2.863   0.151   2.198 -0.2877 -0.1898 -0.2587
 4227SOL    HW124143   2.824   0.069   2.169 -0.7443  0.6042 -1.8926
 4227SOL    HW224144   2.876   0.188   2.111 -3.8515  1.9804  0.1184
 4228SOL     OW24145   4.247   0.405   9.436  0.8153  0.0454 -0.4055
 4228SOL    HW124146   4.235   0.409   9.341  0.0511  2.1394 -0.2293
 4228SOL    HW224147   4.334   0.445   9.434  0.0663  1.7030  0.1386
 4229SOL     OW24148   1.101   1.854   6.969 -0.4060 -0.0858 -0.0278
 4229SOL    HW124149   1.028   1.837   7.028  0.4603 -1.3970  0.6784
 4229SOL    HW224150   1.066   1.927   6.919 -1.0599  0.0620  0.6480
 4230SOL     OW24151   0.926   3.172  17.016  0.0537 -0.0745 -0.7311
 4230SOL    HW124152   0.929   3.264  16.989  1.5099  0.3354  0.8335
 4230SOL    HW224153   0.936   3.138  16.928  0.6687  2.7292 -1.7702
 4231SOL     OW24154   0.626   4.424  17.427  0.0061 -0.2102  0.2491
 4231SOL    HW124155   0.537   4.389  17.426 -0.1744  0.2601 -0.1652
 4231SOL    HW224156   0.608   4.510  17.388 -1.5391 -0.7638 -0.2601
 4232SOL     OW24157   1.526   4.636  14.943 -0.0187 -0.3710  1.0915
 4232SOL    HW124158   1.583   4.559  14.942 -0.1836 -0.4559 -1.9398
 4232SOL    HW224159   1.590   4.702  14.972  1.5415 -0.8246 -1.3106
 4233SOL     OW24160   2.252   3.378  13.285  0.2908  0.0548  0.2565
 4233SOL    HW124161   2.302   3.387  13.366 -1.8595  0.1867  1.5868
 4233SOL    HW224162   2.164   3.363  13.320  0.4640 -0.6819  0.3779
 4234SOL     OW24163   2.277   1.952   8.369  0.1524 -0.4263 -0.5773
 4234SOL    HW124164   2.330   1.875   8.389  0.3625  0.0444  0.6856
 4234SOL    HW224165   2.339   2.010   8.324  1.7512 -0.6224  1.3794
 4235SOL     OW24166   3.833   2.271   8.324 -0.2249 -0.1022 -0.2561
 4235SOL    HW124167   3.766   2.209   8.295  0.2900 -0.6642 -0.2453
 4235SOL    HW224168   3.917   2.239   8.292 -0.2599  0.4965 -0.9279
 4236SOL     OW24169   3.044   0.881   7.112 -0.4514  0.0910 -0.0995
 4236SOL    HW124170   3.040   0.977   7.103 -2.4980 -0.1114 -1.3925
 4236SOL    HW224171   3.083   0.866   7.026  0.6406  3.1596 -0.1441
 4237SOL     OW24172   3.622   2.213  17.445  0.3807 -0.7962 -0.4522
 4237SOL    HW124173   3.535   2.195  17.480 -0.0722 -1.4137 -1.9172
 4237SOL    HW224174   3.666   2.263  17.515  1.6722 -0.8876 -1.1912
 4238SOL     OW24175   4.018   1.030   0.713  0.0636 -0.0671  0.7063
 4238SOL    HW124176   4.007   0.948   0.664  0.5208 -0.3187  1.0330
 4238SOL    HW224177   4.042   0.990   0.796  0.7808 -0.4650  0.3158
 4239SOL     OW24178   3.880   4.342  10.745 -0.1270 -0.5083  0.5775
 4239SOL    HW124179   3.939   4.269  10.726  0.0933 -0.4258  0.9419
 4239SOL    HW224180   3.864   4.341  10.840 -1.4471 -0.5036  0.3624
 4240SOL     OW24181   3.437   0.797   7.026 -0.4734  0.0752  0.1726
 4240SOL    HW124182   3.513   0.748   7.056  0.2060  1.5529  0.8475
 4240SOL    HW224183   3.452   0.793   6.931  1.4226 -1.4068  0.5369
 4241SOL     OW24184   0.500   1.021   2.377  0.5524 -0.6555  0.0110
 4241SOL    HW124185   0.523   1.111   2.399 -0.5755  0.2995 -2.6666
 4241SOL    HW224186   0.458   1.034   2.291 -2.2848  1.1901  1.6673
 4242SOL     OW24187   3.352   1.393  16.851  0.1025  0.6519  0.0178
 4242SOL    HW124188   3.390   1.317  16.895 -0.2736  0.6117  0.2670
 4242SOL    HW224189   3.296   1.419  16.924 -0.1623 -0.0918  0.0843
 4243SOL     OW24190   2.784   2.034   2.094  0.1199  0.2569 -0.3485
 4243SOL    HW124191   2.772   2.016   2.000  1.1508 -2.0681 -0.0308
 4243SOL    HW224192   2.804   1.952   2.139 -0.8934  0.8492  1.1637
 4244SOL     OW24193   1.818   0.612   5.059 -0.4752  0.2447 -0.3195
 4244SOL    HW124194   1.847   0.539   5.113  0.9744 -0.6562 -2.3000
 4244SOL    HW224195   1.820   0.692   5.112 -1.1446 -1.8133  2.8205
 4245SOL     OW24196   4.462   4.472   2.892 -0.3713 -0.3865 -0.2141
 4245SOL    HW124197   4.498   4.404   2.836  1.3232 -0.4490  0.9674
 4245SOL    HW224198   4.502   4.550   2.854  1.1763 -1.6216 -1.0715
 4246SOL     OW24199   2.935   1.661   4.272  0.0117  0.1347  0.6431
 4246SOL    HW124200   2.963   1.602   4.342 -1.2994 -2.1610 -0.7676
 4246SOL    HW224201   2.849   1.679   4.308  0.6137  2.3604  0.9774
 4247SOL     OW24202   0.940   3.541   6.716 -0.0400 -0.6887 -0.1762
 4247SOL    HW124203   1.029   3.506   6.711 -0.2954 -0.9993 -2.5633
 4247SOL    HW224204   0.932   3.563   6.809 -0.5967  0.6196 -0.5257
 4248SOL     OW24205   3.947   0.498   6.021  0.5156  0.6438 -0.4235
 4248SOL    HW124206   3.951   0.565   6.089  1.2683 -1.0320  1.1693
 4248SOL    HW224207   3.885   0.542   5.962 -1.0586 -0.1216  0.6518
 4249SOL     OW24208   4.497   0.851   6.846  0.4330  0.4493 -0.0256
 4249SOL    HW124209   4.497   0.755   6.846  2.6226  0.4576  0.3832
 4249SOL    HW224210   4.581   0.859   6.889 -0.4430  1.4419  1.4878
 4250SOL     OW24211   3.898   3.957  10.988  0.1926 -0.7230 -0.1322
 4250SOL    HW124212   3.911   3.970  11.082 -1.7512 -1.7491  0.2707
 4250SOL    HW224213   3.830   4.023  10.978  1.3062  0.1569 -1.8363
 4251SOL     OW24214   1.891   0.549   7.614 -0.6099 -0.2416  0.2835
 4251SOL    HW124215   1.837   0.595   7.679  0.2839 -0.1288  0.9477
 4251SOL    HW224216   1.953   0.618   7.591 -2.3286  0.8634 -1.0672
 4252SOL     OW24217   4.491   1.360   9.776  0.2653 -0.2257 -0.1338
 4252SOL    HW124218   4.541   1.427   9.729  0.8817  0.9804  2.2617
 4252SOL    HW224219   4.513   1.385   9.866 -2.0401 -0.5028  0.5081
 4253SOL     OW24220   3.372   2.244   3.715  0.4078  0.2674 -0.3223
 4253SOL    HW124221   3.353   2.153   3.740  0.2932  0.4578  0.2781
 4253SOL    HW224222   3.329   2.288   3.788  1.4541 -0.3674  0.6772
 4254SOL     OW24223   3.492   3.059  11.284  0.2090  0.2317 -0.1533
 4254SOL    HW124224   3.403   3.025  11.294 -0.1547  1.0857 -0.4177
 4254SOL    HW224225   3.476   3.136  11.228  0.2970 -0.2998 -0.9040
 4255SOL     OW24226   0.242   0.085   2.057 -0.4061  0.2916 -0.6954
 4255SOL    HW124227   0.333   0.117   2.065 -0.0768 -1.1828  1.6034
 4255SOL    HW224228   0.207   0.143   1.990 -0.3166 -2.5770 -3.2027
 4256SOL     OW24229   0.079   2.831   5.184 -0.0823 -0.5163 -0.0467
 4256SOL    HW124230   0.051   2.829   5.275  0.7924  1.1366  0.2651
 4256SOL    HW224231   0.126   2.749   5.171 -1.4803 -1.4050  0.5350
 4257SOL     OW24232   0.176   2.541   8.538  0.4811  0.1957  0.6058
 4257SOL    HW124233   0.241   2.482   8.499 -2.8081 -2.1681 -1.3420
 4257SOL    HW224234   0.133   2.481   8.599  0.7876 -0.3920  0.2508
 4258SOL     OW24235   0.503   1.005   2.104 -0.4517 -0.4817 -0.1704
 4258SOL    HW124236   0.587   0.982   2.064  0.3040  0.0069  1.0956
 4258SOL    HW224237   0.454   0.924   2.119  1.5718 -1.6326  0.3417
 4259SOL     OW24238   3.360   4.488   4.078  0.6767  0.3998  0.5079
 4259SOL    HW124239   3.399   4.520   4.160  0.3437 -1.3926  1.3799
 4259SOL    HW224240   3.425   4.422   4.055 -0.4788 -0.2722 -0.7957
 4260SOL     OW24241   1.811   4.542   1.025  0.2681  0.0387 -0.4745
 4260SOL    HW124242   1.720   4.552   1.052  0.5797 -0.3461  0.7100
 4260SOL    HW224243   1.846   4.630   1.013 -1.9686  0.8819 -0.8402
 4261SOL     OW24244   0.604   4.010   1.476  0.0347 -0.0463  0.3185
 4261SOL    HW124245   0.581   4.092   1.519  0.6103 -0.4088  1.2896
 4261SOL    HW224246   0.621   4.041   1.387  3.8626  1.0952  1.4757
 4262SOL     OW24247   0.166   1.115   5.256 -0.0186 -0.7476 -0.3557
 4262SOL    HW124248   0.129   1.063   5.185  1.4348 -0.4034 -1.3594
 4262SOL    HW224249   0.087   1.126   5.309 -0.3877 -0.0913 -1.0531
 4263SOL     OW24250   2.824   4.101   6.955 -0.0381 -0.3108 -0.3131
 4263SOL    HW124251   2.772   4.141   6.885  0.8979  2.2900  0.4451
 4263SOL    HW224252   2.793   4.012   6.940  1.4518 -0.9280  0.2532
 4264SOL     OW24253   1.991   3.649  11.616 -0.2086  0.2080  0.2163
 4264SOL    HW124254   1.919   3.619  11.560  0.1976 -1.0017  0.3369
 4264SOL    HW224255   1.994   3.574  11.675 -1.2992  0.1355  0.1740
 4265SOL     OW24256   1.719   4.032   6.281 -0.3737 -0.2180  0.6782
 4265SOL    HW124257   1.787   4.005   6.343  0.6817 -0.2601 -0.4986
 4265SOL    HW224258   1.654   3.962   6.281 -1.2311  0.5789 -0.0292
 4266SOL     OW24259   1.247   3.350   3.349  0.2191  0.3363  0.0838
 4266SOL    HW124260   1.259   3.445   3.345  1.8323  0.2048  1.9600
 4266SOL    HW224261   1.250   3.332   3.443 -1.3518  0.1024  0.0877
 4267SOL     OW24262   0.092   4.653  13.648  0.3858 -0.1962 -0.2971
 4267SOL    HW124263   0.103   4.616  13.735 -0.7852  3.0242  1.2017
 4267SOL    HW224264   0.146   4.603  13.587  3.2287  1.7162  0.6438
 4268SOL     OW24265   0.284   4.129   4.784 -0.5231 -0.0989 -0.3823
 4268SOL    HW124266   0.277   4.076   4.863 -1.5778 -0.9069 -1.0081
 4268SOL    HW224267   0.311   4.067   4.717 -0.2814  0.2356 -0.5968
 4269SOL     OW24268   3.682   1.386   4.187  0.3852 -0.3165 -0.8045
 4269SOL    HW124269   3.752   1.329   4.217 -2.1865 -2.4244  1.2283
 4269SOL    HW224270   3.707   1.410   4.098 -3.2723 -1.4052 -2.1480
 4270SOL     OW24271   3.321   4.126   1.879  0.3504 -0.6337  0.5299
 4270SOL    HW124272   3.258   4.132   1.951 -0.9322  0.3621 -0.6705
 4270SOL    HW224273   3.319   4.217   1.848  0.3447 -0.8042  0.0254
 4271SOL     OW24274   1.656   0.093   6.283  0.2435 -0.1162  0.6934
 4271SOL    HW124275   1.696   0.010   6.254  0.1004 -0.8388  2.5796
 4271SOL    HW224276   1.724   0.114   6.347  0.7629 -0.9400  0.4156
 4272SOL     OW24277   0.116   0.198   5.066  0.1742 -0.4389  0.1531
 4272SOL    HW124278   0.080   0.155   4.988 -3.6826  1.7419  0.7820
 4272SOL    HW224279   0.196   0.244   5.038  0.0420 -0.0884  0.3602
 4273SOL     OW24280   1.488   1.342  16.323 -0.6244 -0.6185  0.1694
 4273SOL    HW124281   1.571   1.294  16.328 -0.0502  0.2179 -1.2742
 4273SOL    HW224282   1.470   1.365  16.414  2.7455  2.1161  0.1472
 4274SOL     OW24283   4.374   3.290  16.523 -0.3629 -0.5776 -0.1278
 4274SOL    HW124284   4.466   3.274  16.545 -0.0729  0.2040 -0.7674
 4274SOL    HW224285   4.335   3.271  16.608 -0.0717  1.6444  0.4861
 4275SOL     OW24286   1.846   0.689   6.043 -0.2372 -0.0951  0.2055
 4275SOL    HW124287   1.871   0.614   5.989  0.9931  1.1658 -0.9571
 4275SOL    HW224288   1.901   0.751   5.996 -1.1223 -1.5502 -2.7652
 4276SOL     OW24289   1.676   2.348  16.981  0.1238 -0.0705 -0.2351
 4276SOL    HW124290   1.670   2.403  17.060 -1.3431 -0.0739 -0.3288
 4276SOL    HW224291   1.610   2.286  17.014  1.0166 -2.2148 -2.5242
 4277SOL     OW24292   4.335   4.464   3.666 -0.5581 -0.3111  1.0184
 4277SOL    HW124293   4.428   4.484   3.652 -0.5003 -0.6051  0.9723
 4277SOL    HW224294   4.315   4.386   3.614  2.5672 -0.8714  0.6930
 4278SOL     OW24295   1.375   3.172  12.086  0.0546 -0.0779 -0.6710
 4278SOL    HW124296   1.331   3.135  12.010  0.3206  0.4228 -1.0687
 4278SOL    HW224297   1.425   3.244  12.048 -2.7585  2.0411 -0.3387
 4279SOL     OW24298   1.315   0.534   7.664  0.2158 -0.7344 -0.0699
 4279SOL    HW124299   1.220   0.518   7.666  0.5243 -2.7107 -0.7249
 4279SOL    HW224300   1.353   0.451   7.634 -1.4322 -1.5526  0.0809
 4280SOL     OW24301   2.761   2.597   1.260 -0.6590  0.2462 -0.7014
 4280SOL    HW124302   2.688   2.639   1.306  0.8791 -2.7605  4.4990
 4280SOL    HW224303   2.730   2.508   1.275  0.9355 -0.1339  0.3275
 4281SOL     OW24304   3.214   0.799   5.739  0.1426 -0.1133 -0.3162
 4281SOL    HW124305   3.179   0.748   5.811 -1.2166 -1.8001 -2.1810
 4281SOL    HW224306   3.301   0.759   5.739  0.4747  0.6191  1.2969
 4282SOL     OW24307   2.340   0.300  13.936  0.0903  0.4464  0.0430
 4282SOL    HW124308   2.337   0.327  13.844  1.8221  0.2458 -0.0607
 4282SOL    HW224309   2.394   0.221  13.934 -2.2584 -1.1776 -0.7943
 4283SOL     OW24310   4.356   1.829   6.540 -0.3104 -0.3894  0.8030
 4283SOL    HW124311   4.432   1.805   6.594  2.4787  1.2807 -2.3552
 4283SOL    HW224312   4.386   1.913   6.505  5.3456 -2.4041  0.7793
 4284SOL     OW24313   2.796   3.892   9.060  0.0476 -0.0766  0.1144
 4284SOL    HW124314   2.885   3.920   9.085  0.1839 -0.9153  0.5731
 4284SOL    HW224315   2.778   3.946   8.983 -1.6407 -1.1091 -0.2225
 4285SOL     OW24316   0.018   1.737   8.757 -0.5242  0.0030  0.4675
 4285SOL    HW124317   4.645   1.745   8.770 -0.2830  1.5871  1.2710
 4285SOL    HW224318   0.054   1.712   8.842 -0.2669 -0.4094  0.2372
 4286SOL     OW24319   3.209   2.382   6.063  0.2944 -0.1542 -0.1853
 4286SOL    HW124320   3.275   2.359   6.129  1.0121 -0.7274 -1.1176
 4286SOL    HW224321   3.241   2.459   6.017 -1.1741  1.3479  1.3130
 4287SOL     OW24322   1.305   4.503   0.752 -0.1857  0.0272  0.9477
 4287SOL    HW124323   1.325   4.588   0.792  2.2559  0.2186 -0.6843
 4287SOL    HW224324   1.258   4.455   0.820  4.1077 -1.9483  2.5477
 4288SOL     OW24325   1.512   0.592   4.695  0.5662  0.1713 -0.2676
 4288SOL    HW124326   1.488   0.685   4.689  3.2078  0.8491 -0.4822
 4288SOL    HW224327   1.534   0.571   4.604 -1.7706 -1.1305 -0.5292
 4289SOL     OW24328   1.920   4.667   5.991 -0.2142 -0.0524  0.2105
 4289SOL    HW124329   1.938   0.012   6.058 -0.1608  0.2534 -0.1104
 4289SOL    HW224330   1.963   4.588   6.023 -0.3248  0.4750  1.6549
 4290SOL     OW24331   4.676   4.018   3.283  0.8420 -0.2647 -0.3135
 4290SOL    HW124332   4.592   4.040   3.241  1.0111 -1.5747 -1.3326
 4290SOL    HW224333   0.018   4.054   3.221  0.0551  0.3288 -0.7822
 4291SOL     OW24334   1.289   1.345   3.555  0.4504 -0.4371  0.1125
 4291SOL    HW124335   1.244   1.393   3.625  0.3964 -1.4275  0.7509
 4291SOL    HW224336   1.217   1.286   3.532  1.0330 -0.2459 -2.2636
 4292SOL     OW24337   1.573   4.104   2.764  0.0047  0.4170 -0.0463
 4292SOL    HW124338   1.532   4.061   2.690  1.1598  0.2175 -0.5704
 4292SOL    HW224339   1.624   4.173   2.722  1.2466 -0.8681 -0.6353
 4293SOL     OW24340   4.361   3.334   7.085  1.1177  0.4547 -0.0047
 4293SOL    HW124341   4.296   3.281   7.038 -0.1977  2.5595 -0.5288
 4293SOL    HW224342   4.359   3.410   7.027 -1.0117  0.4016  0.0260
 4294SOL     OW24343   0.115   3.948   5.997  0.1858  0.3299  0.2525
 4294SOL    HW124344   0.042   3.891   6.020  0.0183  1.0330  1.4518
 4294SOL    HW224345   0.158   3.884   5.940  1.7819  1.7135 -0.1131
 4295SOL     OW24346   4.664   4.610   8.688  0.5147  0.5450  0.7108
 4295SOL    HW124347   4.648   4.611   8.593 -1.4990 -0.7109  1.0307
 4295SOL    HW224348   4.633   4.526   8.722  0.1286  0.7955  0.9817
 4296SOL     OW24349   2.605   3.042   7.831  0.3721 -0.5102 -0.0275
 4296SOL    HW124350   2.530   3.060   7.774  0.0109  2.5185  1.4167
 4296SOL    HW224351   2.598   2.947   7.839 -3.0874 -0.1177  1.4523
 4297SOL     OW24352   3.137   3.360  14.200 -0.3357  0.1779  0.7159
 4297SOL    HW124353   3.067   3.336  14.261 -2.0548  2.4507 -0.3540
 4297SOL    HW224354   3.087   3.382  14.121  0.7449  2.5781  0.6840
 4298SOL     OW24355   2.769   1.554   8.896  0.0800  0.5554 -0.1065
 4298SOL    HW124356   2.771   1.569   8.801 -0.5745  0.0578 -0.1988
 4298SOL    HW224357   2.840   1.490   8.902  0.6086  1.4540  2.9758
 4299SOL     OW24358   4.636   0.930   1.576  0.3131 -0.0947 -1.0915
 4299SOL    HW124359   4.594   0.968   1.499  1.7577 -0.3985 -2.0148
 4299SOL    HW224360   4.681   1.006   1.613 -2.4592  1.0625 -0.0476
 4300SOL     OW24361   4.529   4.138  10.105  0.6550  0.7516 -0.3802
 4300SOL    HW124362   4.449   4.144  10.157 -0.1229  0.0343 -1.4860
 4300SOL    HW224363   4.586   4.112  10.177  1.7668  1.5522 -0.9716
 4301SOL     OW24364   2.550   0.907   3.660 -0.1622  0.5284  0.2657
 4301SOL    HW124365   2.645   0.910   3.671 -0.3265 -1.5531  2.3283
 4301SOL    HW224366   2.522   0.993   3.631 -0.4050  0.9785  1.8257
 4302SOL     OW24367   3.508   3.279   7.435  0.1855  0.5327  0.2794
 4302SOL    HW124368   3.558   3.201   7.411  0.7407 -0.0652  3.3589
 4302SOL    HW224369   3.558   3.320   7.505  0.8841  0.0714  0.0522
 4303SOL     OW24370   4.022   3.204   0.348 -0.2562 -0.0041 -0.6682
 4303SOL    HW124371   4.058   3.136   0.292  3.3647 -0.0796  1.7664
 4303SOL    HW224372   4.001   3.277   0.289  0.7636 -0.9553 -2.1820
 4304SOL     OW24373   0.282   1.055  16.560  0.0358 -0.0748  0.0970
 4304SOL    HW124374   0.253   1.015  16.478 -1.2777  0.1886  0.4332
 4304SOL    HW224375   0.375   1.038  16.546  0.4148  1.5217  0.7135
 4305SOL     OW24376   4.064   0.331   1.447 -0.5098  0.4831  0.2916
 4305SOL    HW124377   4.002   0.304   1.380  0.7896  0.7245 -1.0102
 4305SOL    HW224378   4.139   0.348   1.390  0.5960 -0.3972  1.5024
 4306SOL     OW24379   4.036   2.134   9.272 -0.0716 -0.0489  0.3807
 4306SOL    HW124380   4.077   2.207   9.319 -1.8611  2.4601 -1.9838
 4306SOL    HW224381   3.974   2.185   9.221  0.4959 -0.7496 -1.0233
 4307SOL     OW24382   2.018   0.871   1.054  0.2199  0.0908 -0.4984
 4307SOL    HW124383   2.037   0.876   0.960 -0.1337 -1.5234 -0.6473
 4307SOL    HW224384   2.031   0.963   1.077 -3.2278  0.1765  1.0321
 4308SOL     OW24385   4.160   3.408   3.165  0.3957 -0.7399 -0.0311
 4308SOL    HW124386   4.145   3.363   3.082  0.9782 -0.2417 -0.4087
 4308SOL    HW224387   4.251   3.380   3.177 -0.2991 -2.4930  1.0632
 4309SOL     OW24388   3.284   4.048   8.087 -0.6559  0.2106 -0.1034
 4309SOL    HW124389   3.340   4.091   8.152  0.0611 -2.2045  0.8962
 4309SOL    HW224390   3.238   4.125   8.054 -1.0626  0.1880  0.4155
 4310SOL     OW24391   0.774   4.602   5.694 -0.6619  0.2383 -0.2253
 4310SOL    HW124392   0.844   4.651   5.651 -0.7248  0.9427  0.4855
 4310SOL    HW224393   0.824   4.529   5.730 -0.0876  1.0317  0.6073
 4311SOL     OW24394   2.162   3.197   3.995  0.1223 -0.1973  0.6305
 4311SOL    HW124395   2.097   3.128   4.010  1.2629 -0.7766  2.9530
 4311SOL    HW224396   2.203   3.163   3.915 -0.6500  2.7862 -1.0275
 4312SOL     OW24397   1.387   3.246   6.281 -0.2761 -0.1754 -0.1091
 4312SOL    HW124398   1.325   3.218   6.348  0.7043 -2.2813 -0.0783
 4312SOL    HW224399   1.390   3.170   6.222  1.4733  0.0425 -0.3089
 4313SOL     OW24400   2.286   4.627   5.407  0.1672  0.5375  0.1493
 4313SOL    HW124401   2.360   4.607   5.465  0.9976  3.3646  0.0525
 4313SOL    HW224402   2.247   4.703   5.450 -1.1817 -0.4633  0.7341
 4314SOL     OW24403   1.897   1.223  10.355  0.3842 -0.3618  0.1553
 4314SOL    HW124404   1.926   1.138  10.322 -0.0883 -0.0782 -0.9960
 4314SOL    HW224405   1.970   1.275  10.321 -1.1579  1.3230 -0.5986
 4315SOL     OW24406   4.097   3.105   7.212 -0.2518 -0.4402  0.0833
 4315SOL    HW124407   4.095   3.152   7.129  1.7707  0.5621  0.6235
 4315SOL    HW224408   4.073   3.173   7.275 -0.6710  0.6419 -1.2398
 4316SOL     OW24409   4.531   1.710   6.729  0.5363 -0.7199  0.3385
 4316SOL    HW124410   4.530   1.614   6.730 -0.6481 -0.6992  1.3355
 4316SOL    HW224411   4.623   1.726   6.751  0.6968  1.1244 -1.7290
 4317SOL     OW24412   3.798   4.122   7.833  0.0764  0.2844 -0.5959
 4317SOL    HW124413   3.814   4.028   7.847 -0.4150  0.2222 -0.4680
 4317SOL    HW224414   3.803   4.153   7.923  1.3174 -1.0773 -0.1872
 4318SOL     OW24415   4.379   4.364   4.625  0.1660 -0.3120 -0.6150
 4318SOL    HW124416   4.441   4.328   4.687  1.1662  2.4490 -0.0363
 4318SOL    HW224417   4.395   4.300   4.555  2.5813  0.5155 -0.8005
 4319SOL     OW24418   2.760   0.874   4.139 -0.1249  0.2588 -0.4707
 4319SOL    HW124419   2.833   0.818   4.165  0.0238  0.5477 -0.2625
 4319SOL    HW224420   2.719   0.817   4.075  1.1753 -1.3105  0.0849
 4320SOL     OW24421   2.504   2.074   3.879 -0.3949 -0.2620  0.3843
 4320SOL    HW124422   2.433   2.074   3.943  0.9494 -0.8346  1.9005
 4320SOL    HW224423   2.500   1.988   3.836 -0.9886 -1.1170  2.1419
 4321SOL     OW24424   2.839   4.424   8.285  0.0010 -0.3124 -0.1276
 4321SOL    HW124425   2.789   4.379   8.354 -1.7767  0.5992 -0.8306
 4321SOL    HW224426   2.898   4.350   8.272  3.3100  1.8829  2.5095
 4322SOL     OW24427   0.782   3.241   7.598  0.2665  0.0981 -0.6034
 4322SOL    HW124428   0.737   3.179   7.656  2.8606  0.4548  1.7903
 4322SOL    HW224429   0.719   3.300   7.556 -0.8600 -0.4352  0.3054
 4323SOL     OW24430   0.302   0.042   4.532 -0.3372 -0.9411 -0.0548
 4323SOL    HW124431   0.318   0.133   4.505  1.1368 -1.5729 -1.2146
 4323SOL    HW224432   0.262   0.059   4.618  0.9197  0.6228  0.2222
 4324SOL     OW24433   1.538   2.160   0.256 -0.1497 -0.3058 -0.5817
 4324SOL    HW124434   1.534   2.240   0.309  1.5677 -0.2343 -0.5382
 4324SOL    HW224435   1.618   2.175   0.206 -0.1076 -0.5822 -0.6004
 4325SOL     OW24436   3.714   3.100   5.676  0.2404  0.4118  0.1226
 4325SOL    HW124437   3.642   3.038   5.682  0.9332 -0.0548  3.2156
 4325SOL    HW224438   3.669   3.183   5.657  1.2641  0.9865  0.2008
 4326SOL     OW24439   4.426   1.518   1.803  0.2787  0.1502 -0.0376
 4326SOL    HW124440   4.484   1.539   1.729  1.0004  3.4230  1.4305
 4326SOL    HW224441   4.477   1.568   1.867 -2.3093  1.5939  0.8660
 4327SOL     OW24442   0.615   0.334  15.024 -0.3736 -0.3659  0.5304
 4327SOL    HW124443   0.603   0.260  15.084  3.6964 -1.4281  0.0940
 4327SOL    HW224444   0.622   0.282  14.944 -0.4428  0.6187 -0.1090
 4328SOL     OW24445   2.824   1.750   5.249  0.2897  0.4277  0.4547
 4328SOL    HW124446   2.904   1.701   5.265  0.1965 -0.1441 -0.8306
 4328SOL    HW224447   2.825   1.752   5.153 -3.0815 -0.6333  0.3914
 4329SOL     OW24448   0.800   3.312  16.784  0.1169  0.0996 -0.4296
 4329SOL    HW124449   0.767   3.326  16.695 -2.7134  0.6972  0.7186
 4329SOL    HW224450   0.871   3.252  16.760  0.0449 -0.8392  1.7265
 4330SOL     OW24451   0.653   2.522   1.563  0.4301  0.0148  0.7714
 4330SOL    HW124452   0.713   2.540   1.634  0.6162  1.5679  0.2401
 4330SOL    HW224453   0.649   2.427   1.559  1.6200 -0.0448  1.3243
 4331SOL     OW24454   2.339   2.675   6.630  0.1800 -0.5260 -0.5442
 4331SOL    HW124455   2.419   2.703   6.586 -0.1772  1.1298 -0.1113
 4331SOL    HW224456   2.298   2.639   6.551 -0.0492 -1.9384  0.2226
 4332SOL     OW24457   1.558   3.146   5.936 -0.2657 -0.1074 -0.0706
 4332SOL    HW124458   1.471   3.121   5.907 -0.0222 -1.0021 -0.0308
 4332SOL    HW224459   1.594   3.193   5.860 -2.0025  0.6923 -0.3920
 4333SOL     OW24460   1.174   1.066   3.491  0.2514  0.4724  0.1445
 4333SOL    HW124461   1.128   1.031   3.567  1.5269 -0.4133  0.5158
 4333SOL    HW224462   1.263   1.034   3.509 -0.3633  0.1297  2.5235
 4334SOL     OW24463   3.705   3.341   0.131 -0.1233 -0.3098  0.8821
 4334SOL    HW124464   3.680   3.279   0.199  0.1213  0.0642  1.3133
 4334SOL    HW224465   3.794   3.362   0.158 -0.5399  2.1392  0.3348
 4335SOL     OW24466   1.457   1.821  14.328  0.2977 -0.3314  0.7090
 4335SOL    HW124467   1.462   1.741  14.276  1.5086  0.9464 -1.1394
 4335SOL    HW224468   1.361   1.822  14.335  0.2141 -0.8412 -0.4024
 4336SOL     OW24469   4.570   2.314   6.648  0.6260 -0.2684  0.0438
 4336SOL    HW124470   4.580   2.273   6.562 -2.2833  0.3807 -0.6081
 4336SOL    HW224471   4.640   2.379   6.643  2.0595 -1.6667  2.1786
 4337SOL     OW24472   3.785   3.199   4.017  0.8629  0.1523  0.7601
 4337SOL    HW124473   3.823   3.280   4.051  2.3426  0.1381 -0.8674
 4337SOL    HW224474   3.842   3.130   4.049 -1.6014 -2.3185 -0.1960
 4338SOL     OW24475   0.725   2.897   0.218 -0.3255 -0.0313 -0.4055
 4338SOL    HW124476   0.722   2.980   0.265  2.2220 -2.2569  3.7413
 4338SOL    HW224477   0.753   2.841   0.290  2.0675  0.3544 -1.0470
 4339SOL     OW24478   0.461   0.052   4.302 -0.4091  0.1196 -0.1666
 4339SOL    HW124479   0.427   0.003   4.377  1.8758  0.0409  0.8034
 4339SOL    HW224480   0.502   0.130   4.340  2.0808 -0.6086 -1.4014
 4340SOL     OW24481   3.786   3.713  15.869 -0.2927  0.1310  0.3840
 4340SOL    HW124482   3.787   3.794  15.920  1.9815  0.5097 -0.2610
 4340SOL    HW224483   3.719   3.734  15.804  0.1598 -0.3103 -0.2211
 4341SOL     OW24484   3.422   1.956  16.509  0.0927 -0.2498 -0.0236
 4341SOL    HW124485   3.416   1.999  16.424  0.2614 -4.2693 -2.0239
 4341SOL    HW224486   3.462   1.871  16.491  0.2921  0.2994 -2.1878
 4342SOL     OW24487   3.026   2.517   4.177  0.0490 -0.0257  0.0240
 4342SOL    HW124488   2.991   2.435   4.213  0.5923  0.2871  1.2509
 4342SOL    HW224489   3.035   2.572   4.254 -2.0734  0.1893  0.1092
 4343SOL     OW24490   0.600   2.401   4.971  0.0717 -0.3842 -0.1496
 4343SOL    HW124491   0.625   2.400   4.879 -1.1520 -0.3583 -0.4887
 4343SOL    HW224492   0.578   2.310   4.992  0.7493 -0.4253  0.3731
 4344SOL     OW24493   3.551   3.087   9.966 -0.2728 -0.0965  0.0509
 4344SOL    HW124494   3.579   3.046   9.884 -0.3552 -0.0306 -0.0107
 4344SOL    HW224495   3.565   3.017  10.029 -0.4185  2.2679  2.6786
 4345SOL     OW24496   3.733   4.511   5.658 -0.5495  0.2722  0.1859
 4345SOL    HW124497   3.772   4.585   5.612  3.1383 -1.7652  0.0584
 4345SOL    HW224498   3.813   4.475   5.696  0.1284  1.4055 -0.1968
 4346SOL     OW24499   3.466   0.337   3.949 -0.6450 -0.2945 -0.3449
 4346SOL    HW124500   3.534   0.279   3.984 -0.1291  0.5804  0.0850
 4346SOL    HW224501   3.520   0.401   3.904 -0.2619  1.0511  2.0207
 4347SOL     OW24502   0.052   2.125   8.286  0.4154 -0.7242  0.7516
 4347SOL    HW124503   0.038   2.036   8.320 -0.9483 -0.0038  2.0710
 4347SOL    HW224504   0.036   2.113   8.192 -0.0056  2.8546  0.3671
 4348SOL     OW24505   4.527   3.796   4.711  0.4095 -0.5464 -0.2346
 4348SOL    HW124506   4.473   3.820   4.636  2.5094 -0.5879 -1.7446
 4348SOL    HW224507   4.609   3.833   4.679  0.4341  0.4407  0.9600
 4349SOL     OW24508   0.750   4.400   3.055 -0.2706  0.0667 -0.2363
 4349SOL    HW124509   0.766   4.381   2.963  1.2604 -1.6372  0.3718
 4349SOL    HW224510   0.812   4.343   3.101  0.0146 -0.5162 -1.3579
 4350SOL     OW24511   1.973   1.085  15.929 -0.0874 -0.0132 -0.1284
 4350SOL    HW124512   1.955   1.177  15.907 -2.2106 -0.8060 -1.6573
 4350SOL    HW224513   2.021   1.057  15.852 -2.8336 -0.6498 -1.6102
 4351SOL     OW24514   4.050   0.379   3.607  0.0949  0.2389  0.0262
 4351SOL    HW124515   3.958   0.402   3.595  0.3177  0.9971 -0.2254
 4351SOL    HW224516   4.049   0.286   3.585  1.7238  0.2351 -0.0231
 4352SOL     OW24517   4.416   3.171   9.137  0.2560  0.1057 -0.1089
 4352SOL    HW124518   4.408   3.086   9.093 -0.1378 -0.6577  1.4415
 4352SOL    HW224519   4.511   3.163   9.147  0.3725  0.6496 -0.7812
 4353SOL     OW24520   3.198   0.549   8.152  0.1230  0.0245  0.3122
 4353SOL    HW124521   3.226   0.460   8.129  1.8635  1.0238 -1.3948
 4353SOL    HW224522   3.119   0.513   8.194 -0.8018  0.5504 -0.9650
 4354SOL     OW24523   0.994   1.119   6.341  0.2241 -0.5844  0.1858
 4354SOL    HW124524   1.039   1.096   6.423 -0.0910 -1.5732  0.0763
 4354SOL    HW224525   0.964   1.031   6.317 -1.0073  0.0263 -0.4880
 4355SOL     OW24526   2.364   1.097   5.511 -0.1321  0.7568  0.1136
 4355SOL    HW124527   2.285   1.046   5.497  0.4417 -0.1891  0.3194
 4355SOL    HW224528   2.428   1.030   5.537 -1.3691  0.0116  1.2506
 4356SOL     OW24529   3.828   3.909   3.145  0.8678 -0.9174 -0.1652
 4356SOL    HW124530   3.862   3.955   3.068  1.0631 -0.0163  0.4507
 4356SOL    HW224531   3.810   3.991   3.193 -1.0003 -1.5908  0.2817
 4357SOL     OW24532   0.645   3.117  11.606 -0.2401 -0.0914  0.0365
 4357SOL    HW124533   0.696   3.036  11.603 -1.8907 -1.1155 -0.2535
 4357SOL    HW224534   0.693   3.170  11.543 -1.2860 -0.7094 -1.2570
 4358SOL     OW24535   1.356   0.727   6.164  0.4636 -0.6237 -0.3232
 4358SOL    HW124536   1.323   0.782   6.235  1.5571 -1.1522  0.6041
 4358SOL    HW224537   1.433   0.707   6.218 -1.0724 -2.0085  1.3595
 4359SOL     OW24538   2.652   2.833   5.871  0.0294 -0.3030  0.0939
 4359SOL    HW124539   2.719   2.862   5.809 -1.5744 -1.0653 -1.9837
 4359SOL    HW224540   2.711   2.827   5.946  0.6882  0.8715 -0.3409
 4360SOL     OW24541   3.467   1.400   9.617  0.3784  0.3751  0.2124
 4360SOL    HW124542   3.517   1.422   9.538 -0.8601 -2.4500 -1.3688
 4360SOL    HW224543   3.378   1.424   9.592  0.4743  1.4076  0.8869
 4361SOL     OW24544   4.660   0.795   4.753  0.1567  0.0569 -0.4626
 4361SOL    HW124545   0.007   0.729   4.766 -0.2684  0.1136  1.9842
 4361SOL    HW224546   4.603   0.775   4.827  1.3483  0.0219  0.4368
 4362SOL     OW24547   1.191   1.278   6.559 -0.3610  0.0853 -0.1414
 4362SOL    HW124548   1.155   1.350   6.610 -0.2745  0.3238 -0.4198
 4362SOL    HW224549   1.280   1.313   6.566 -0.3192 -0.2255  0.9400
 4363SOL     OW24550   3.090   2.290   4.351  0.0627 -0.2195  0.1400
 4363SOL    HW124551   3.176   2.248   4.342  0.1790  0.1852 -0.6401
 4363SOL    HW224552   3.037   2.214   4.374  2.9131 -2.5497 -0.9184
 4364SOL     OW24553   0.776   2.680   2.099  0.4675 -0.3119  0.4185
 4364SOL    HW124554   0.724   2.672   2.179  0.9609  0.2169  0.7949
 4364SOL    HW224555   0.807   2.769   2.119 -0.6851  0.1899  0.0019
 4365SOL     OW24556   2.791   2.303   0.967 -0.0693 -0.1922 -0.1141
 4365SOL    HW124557   2.838   2.221   0.951  1.4184  0.7551 -0.5363
 4365SOL    HW224558   2.831   2.330   1.049  0.2328 -0.2252 -0.2528
 4366SOL     OW24559   4.380   2.885   7.726  0.3446  0.0915  0.1020
 4366SOL    HW124560   4.347   2.925   7.807  0.1303 -0.2773  0.1926
 4366SOL    HW224561   4.456   2.842   7.766 -0.1499 -1.5536 -0.7426
 4367SOL     OW24562   2.628   1.048   6.178 -0.3463  0.0338  0.4487
 4367SOL    HW124563   2.636   1.139   6.205  1.6254 -0.3884  1.3178
 4367SOL    HW224564   2.688   1.020   6.248  0.2059 -2.2784 -0.9694
 4368SOL     OW24565   0.837   1.541  10.268  0.2992  0.2513  0.1818
 4368SOL    HW124566   0.885   1.466  10.232  1.0142  0.6283  0.3523
 4368SOL    HW224567   0.786   1.563  10.190 -0.0220 -0.5980  0.1484
 4369SOL     OW24568   1.862   2.114   2.745 -0.2749  0.0540 -0.1170
 4369SOL    HW124569   1.918   2.168   2.801 -1.2140 -1.1762  2.0487
 4369SOL    HW224570   1.790   2.174   2.728 -1.9450 -1.9613 -0.1317
 4370SOL     OW24571   2.266   1.870   4.519  0.5031  0.5790  0.0575
 4370SOL    HW124572   2.309   1.793   4.480  2.3087  1.8964 -0.5564
 4370SOL    HW224573   2.276   1.937   4.451  0.1024  0.9685  0.3877
 4371SOL     OW24574   4.478   4.048  15.449  0.1137 -0.1335 -0.2605
 4371SOL    HW124575   4.428   3.967  15.446 -0.2944  0.0894  0.5573
 4371SOL    HW224576   4.502   4.061  15.357 -1.2685  0.1971 -0.5777
 4372SOL     OW24577   4.414   3.410   6.638 -0.1649 -0.0954 -0.3139
 4372SOL    HW124578   4.424   3.452   6.723 -1.0578 -0.9254  0.2029
 4372SOL    HW224579   4.478   3.461   6.588  1.0842 -0.2411  1.1704
 4373SOL     OW24580   3.113   4.016   6.340  0.3128 -0.0955 -0.0983
 4373SOL    HW124581   3.018   4.025   6.346  0.1627 -2.3857  1.1491
 4373SOL    HW224582   3.126   3.971   6.423  0.0273  1.1176  0.5951
 4374SOL     OW24583   0.364   3.754   4.141  0.7762 -0.1320  0.1065
 4374SOL    HW124584   0.291   3.781   4.197  0.0745 -1.2625 -0.2652
 4374SOL    HW224585   0.397   3.842   4.126  1.6092 -0.2335  1.4122
 4375SOL     OW24586   4.372   1.670  15.462  0.3004 -0.0897  0.2876
 4375SOL    HW124587   4.467   1.674  15.447  0.4035  0.9895  1.1973
 4375SOL    HW224588   4.370   1.751  15.513 -0.0007 -1.0761  1.8524
 4376SOL     OW24589   0.983   1.975   7.723 -0.5046  0.1065 -0.2390
 4376SOL    HW124590   1.028   1.979   7.639 -0.1175  1.5228  0.0320
 4376SOL    HW224591   0.988   1.882   7.743  2.2951  0.4533  0.6397
 4377SOL     OW24592   2.494   1.035   7.181  0.0977 -0.0962  0.1886
 4377SOL    HW124593   2.551   0.968   7.220 -0.1228 -0.4681 -0.1300
 4377SOL    HW224594   2.551   1.112   7.174 -0.4374  0.0304 -2.5460
 4378SOL     OW24595   4.336   1.184   2.629  0.2421  0.0722 -0.3262
 4378SOL    HW124596   4.326   1.093   2.655 -1.4993  0.1579 -0.6544
 4378SOL    HW224597   4.382   1.212   2.707 -0.6140  1.1872 -0.2121
 4379SOL     OW24598   3.221   3.026   8.509  0.0305  0.2177  0.0623
 4379SOL    HW124599   3.130   2.996   8.504  0.1620  0.0907 -1.3491
 4379SOL    HW224600   3.258   2.938   8.520 -1.1869 -0.4286 -0.9060
 4380SOL     OW24601   4.618   2.120   9.172 -1.1408  0.6892  0.4452
 4380SOL    HW124602   4.582   2.113   9.083  0.0581 -1.3879  0.1109
 4380SOL    HW224603   4.626   2.027   9.193 -0.9904  0.7117  0.4862
 4381SOL     OW24604   4.193   2.487  17.243 -0.1644 -0.3160  0.4350
 4381SOL    HW124605   4.162   2.423  17.179 -2.8420 -0.0760  1.5058
 4381SOL    HW224606   4.280   2.449  17.259 -0.2333 -0.0387  1.4791
 4382SOL     OW24607   2.123   0.981   5.502 -0.4139 -0.2199  0.5940
 4382SOL    HW124608   2.072   0.900   5.509 -0.2635 -0.2479  1.3734
 4382SOL    HW224609   2.088   1.021   5.422 -0.8613 -1.4144  0.2011
 4383SOL     OW24610   1.675   2.381   3.041  0.6727  0.4723  0.0305
 4383SOL    HW124611   1.743   2.448   3.049  1.9192 -0.7383 -0.3040
 4383SOL    HW224612   1.692   2.357   2.950  0.9179 -1.8634  0.7010
 4384SOL     OW24613   3.680   0.809   8.713 -0.4840 -0.6550  0.8186
 4384SOL    HW124614   3.673   0.715   8.730  1.4967 -1.3088 -2.0500
 4384SOL    HW224615   3.714   0.847   8.794  1.6704 -1.0505  0.0882
 4385SOL     OW24616   2.785   1.834   1.072 -0.3065 -0.1929  0.4755
 4385SOL    HW124617   2.826   1.793   1.148 -2.0339  0.8671  1.9695
 4385SOL    HW224618   2.788   1.755   1.018 -0.8589 -1.4230  2.2428
 4386SOL     OW24619   2.682   4.090   3.792  0.2295 -0.2768  0.1736
 4386SOL    HW124620   2.684   4.153   3.720  0.4537  1.0055  1.3040
 4386SOL    HW224621   2.588   4.080   3.782  0.2300  0.5313 -0.6339
 4387SOL     OW24622   1.013   2.494  14.218 -0.3974  0.2319 -0.4658
 4387SOL    HW124623   1.010   2.399  14.227 -0.7152  0.1468 -1.4391
 4387SOL    HW224624   0.965   2.511  14.137  0.2517  1.9791 -0.4892
 4388SOL     OW24625   0.960   0.863   8.845 -0.5381  0.0564  0.1656
 4388SOL    HW124626   0.958   0.768   8.839  1.4661  0.0399 -0.4243
 4388SOL    HW224627   0.881   0.869   8.791  0.2730 -1.6385 -1.2314
 4389SOL     OW24628   4.594   4.537   3.689  0.0024  0.1551 -0.4537
 4389SOL    HW124629   4.608   4.533   3.595 -1.7279  1.3716 -0.7605
 4389SOL    HW224630   4.683   4.509   3.715 -0.2833 -0.7562 -0.4451
 4390SOL     OW24631   1.731   3.348   5.776  0.3866 -0.2039 -0.7371
 4390SOL    HW124632   1.742   3.259   5.744 -1.3969 -0.7485  0.1829
 4390SOL    HW224633   1.808   3.352   5.834 -1.0653 -0.6692  1.2355
 4391SOL     OW24634   3.096   3.369   7.232  0.8414 -0.2025 -0.4335
 4391SOL    HW124635   3.098   3.446   7.289  0.3867 -0.2598 -0.3328
 4391SOL    HW224636   3.190   3.367   7.217  1.0352 -0.6560  0.8880
 4392SOL     OW24637   1.351   2.867  14.534 -0.0327  0.1446 -0.2480
 4392SOL    HW124638   1.333   2.926  14.607  0.7637 -1.5428  1.3209
 4392SOL    HW224639   1.349   2.781  14.576 -1.1131  0.3792  0.1740
 4393SOL     OW24640   1.470   2.141  16.126 -0.6646 -0.1151  0.2465
 4393SOL    HW124641   1.523   2.062  16.135  0.2111  0.3742 -0.5446
 4393SOL    HW224642   1.413   2.118  16.052 -0.3731 -0.9113  0.2750
 4394SOL     OW24643   1.120   1.010   7.270 -0.1138 -0.0566 -0.1885
 4394SOL    HW124644   1.036   0.971   7.294  0.2727 -1.5575 -1.2005
 4394SOL    HW224645   1.112   1.033   7.177 -1.3827 -0.4748 -0.1750
 4395SOL     OW24646   3.137   4.649   9.770  0.1592  0.2387  0.1042
 4395SOL    HW124647   3.119   0.009   9.818 -2.4616  0.0925 -0.6288
 4395SOL    HW224648   3.228   4.662   9.745  0.2844 -0.6656  0.0901
 4396SOL     OW24649   3.529   1.186  15.893 -0.1162 -0.2246  0.2706
 4396SOL    HW124650   3.566   1.099  15.876  0.3892 -0.2417  1.4375
 4396SOL    HW224651   3.471   1.193  15.817  0.8088 -1.6463 -0.5871
 4397SOL     OW24652   1.283   2.082   2.038 -0.3288  0.1146 -0.4718
 4397SOL    HW124653   1.331   2.086   1.955  0.1926  2.4806 -0.0386
 4397SOL    HW224654   1.267   2.174   2.058  2.0007  0.3740  0.1997
 4398SOL     OW24655   1.315   2.245   5.291 -0.3502  0.2211  0.2216
 4398SOL    HW124656   1.289   2.183   5.360  0.9069  0.8441  1.2495
 4398SOL    HW224657   1.404   2.212   5.283 -1.4668 -2.3980 -1.2790
 4399SOL     OW24658   1.437   3.334  11.868 -0.0990  0.1216  0.3959
 4399SOL    HW124659   1.515   3.314  11.815 -0.1579  0.0000  0.3550
 4399SOL    HW224660   1.457   3.421  11.903 -0.0779  0.4625 -0.4619
 4400SOL     OW24661   2.121   0.728   3.256 -0.0863 -0.1302 -0.2675
 4400SOL    HW124662   2.112   0.783   3.179 -0.9493 -1.0399 -0.8271
 4400SOL    HW224663   2.148   0.645   3.217  2.7163  0.5202  0.3442
 4401SOL     OW24664   4.412   1.437  16.809  0.0166 -0.4294 -1.1325
 4401SOL    HW124665   4.328   1.423  16.853  0.2617 -0.3307 -0.6265
 4401SOL    HW224666   4.400   1.383  16.731 -0.5304 -4.4306  1.7124
 4402SOL     OW24667   0.575   2.810   8.440 -0.2060 -0.1390  0.0863
 4402SOL    HW124668   0.536   2.857   8.514  1.7050  0.4353  0.7198
 4402SOL    HW224669   0.519   2.826   8.365  0.1241 -1.6444 -0.4875
 4403SOL     OW24670   0.818   4.118  11.767 -0.1330 -0.5586  0.5430
 4403SOL    HW124671   0.849   4.194  11.816 -0.2738  0.7137 -1.3346
 4403SOL    HW224672   0.798   4.056  11.838 -2.8289  0.5322  0.7376
 4404SOL     OW24673   0.198   3.459   2.696 -0.0388 -0.3733 -1.1085
 4404SOL    HW124674   0.219   3.452   2.603  0.3325 -0.1394 -1.0392
 4404SOL    HW224675   0.263   3.395   2.727  0.8316  1.3852  0.6907
 4405SOL     OW24676   4.124   4.465   3.251 -0.1822  0.5558  0.2635
 4405SOL    HW124677   4.194   4.452   3.315  0.9028  0.2117 -0.9799
 4405SOL    HW224678   4.071   4.386   3.262  1.1411 -0.3041  0.3903
 4406SOL     OW24679   0.370   2.876   4.683 -0.3613 -0.1450  0.4496
 4406SOL    HW124680   0.410   2.882   4.770 -0.8371 -1.1894  0.7429
 4406SOL    HW224681   0.353   2.969   4.669  0.2187 -0.0038  0.7177
 4407SOL     OW24682   0.772   1.886   1.707 -0.0128  0.5232  0.5729
 4407SOL    HW124683   0.757   1.978   1.728  0.7398  0.8568 -0.3771
 4407SOL    HW224684   0.693   1.857   1.662  0.2458 -1.2957  1.2908
 4408SOL     OW24685   3.589   1.971  12.012  0.0710 -0.0818 -0.0897
 4408SOL    HW124686   3.643   2.022  11.951  1.1194 -0.1323  0.8190
 4408SOL    HW224687   3.548   1.910  11.950 -0.6612  1.1992 -0.8709
 4409SOL     OW24688   4.070   3.823  16.475  0.1904 -0.3366 -0.4511
 4409SOL    HW124689   4.100   3.741  16.514  1.9529 -1.2091 -3.6129
 4409SOL    HW224690   4.121   3.823  16.394 -1.7148 -0.0786 -1.6437
 4410SOL     OW24691   4.598   0.172   2.363 -0.4861 -0.3923  0.2056
 4410SOL    HW124692   4.580   0.093   2.414  0.7314 -0.7760  0.0510
 4410SOL    HW224693   4.505   0.192   2.361 -0.3218  0.3318 -0.1755
 4411SOL     OW24694   3.676   1.270   7.322  0.2016 -0.8119 -0.1404
 4411SOL    HW124695   3.748   1.293   7.262 -0.8193  0.9838 -0.6616
 4411SOL    HW224696   3.667   1.353   7.368  2.3688 -1.4830  1.4825
 4412SOL     OW24697   1.021   1.388  17.094 -0.4817 -0.3683  0.1293
 4412SOL    HW124698   0.947   1.364  17.038 -0.2436  1.0129 -0.7957
 4412SOL    HW224699   1.088   1.331  17.055 -1.1906  0.3828 -2.2025
 4413SOL     OW24700   2.376   1.074   6.289 -0.0070 -0.1987 -0.3169
 4413SOL    HW124701   2.464   1.070   6.251  0.1260  0.5145 -0.0814
 4413SOL    HW224702   2.377   1.142   6.357  0.4281 -2.5488  2.0406
 4414SOL     OW24703   2.302   1.140  14.945 -1.1100 -0.1023  0.4566
 4414SOL    HW124704   2.305   1.235  14.934  0.8793 -0.4540 -1.9004
 4414SOL    HW224705   2.345   1.120  14.862 -1.1507 -0.4691  0.5213
 4415SOL     OW24706   4.367   2.067  13.016 -0.4538 -0.2000 -0.4809
 4415SOL    HW124707   4.404   1.995  12.965 -1.3902 -1.3910  0.5117
 4415SOL    HW224708   4.438   2.131  13.019 -1.1632  0.5762 -0.3723
 4416SOL     OW24709   3.810   2.092   8.755  0.3992 -0.9128 -0.4171
 4416SOL    HW124710   3.817   2.178   8.713  1.7078 -0.6599  0.3213
 4416SOL    HW224711   3.762   2.053   8.682  1.0046  0.1705 -1.3879
 4417SOL     OW24712   3.784   0.430   3.600  0.2063 -0.2615  0.1745
 4417SOL    HW124713   3.755   0.466   3.516  0.8215  0.2580  0.1873
 4417SOL    HW224714   3.737   0.347   3.599 -3.1894  1.6658 -1.2118
 4418SOL     OW24715   3.180   3.927   8.855 -0.4327  0.0806 -0.3818
 4418SOL    HW124716   3.139   3.842   8.842 -0.2888 -0.2306  1.1298
 4418SOL    HW224717   3.163   3.948   8.947  1.5533  1.6962 -0.3773
 4419SOL     OW24718   2.253   1.404   1.013  0.0897  0.1911 -0.5831
 4419SOL    HW124719   2.348   1.395   1.000  0.0985 -2.2015  1.0952
 4419SOL    HW224720   2.229   1.314   1.034 -0.1634  0.8610  1.9448
 4420SOL     OW24721   0.954   0.417   1.980 -0.2688 -0.4683  0.3112
 4420SOL    HW124722   1.014   0.342   1.982 -0.1991 -0.4598 -1.5457
 4420SOL    HW224723   0.874   0.364   1.981 -0.0214 -0.8459 -0.4624
 4421SOL     OW24724   3.390   2.413   4.632  0.0413 -0.1097 -0.2099
 4421SOL    HW124725   3.371   2.324   4.603  0.7479 -0.0321 -0.8836
 4421SOL    HW224726   3.328   2.425   4.704 -1.5041 -0.8567 -1.4344
 4422SOL     OW24727   1.739   2.683   9.023  0.1412 -0.3233  0.0226
 4422SOL    HW124728   1.790   2.725   9.093 -1.7613  0.6319  0.8392
 4422SOL    HW224729   1.814   2.653   8.971  1.0613 -2.4994  2.6082
 4423SOL     OW24730   3.569   2.056   4.998  0.1733 -0.0694 -0.2335
 4423SOL    HW124731   3.576   2.151   5.002  1.5860 -0.2374  1.3648
 4423SOL    HW224732   3.562   2.044   4.903  2.1108 -2.6698 -0.0798
 4424SOL     OW24733   2.788   2.825   5.029  0.0144 -0.3427  0.5441
 4424SOL    HW124734   2.753   2.737   5.040 -1.5222  0.1270 -0.6692
 4424SOL    HW224735   2.880   2.804   5.014 -0.2622  0.3325 -2.1032
 4425SOL     OW24736   3.834   0.341   0.678  0.0246  0.4031  0.0225
 4425SOL    HW124737   3.835   0.437   0.679  1.9712  0.3747  1.6556
 4425SOL    HW224738   3.742   0.321   0.664 -0.6918  2.7064  1.3230
 4426SOL     OW24739   4.204   4.355   6.303 -0.3102  0.3673  0.2610
 4426SOL    HW124740   4.280   4.413   6.298 -0.4670  0.5304 -0.2762
 4426SOL    HW224741   4.202   4.325   6.393 -0.7945 -0.4330 -0.0131
 4427SOL     OW24742   3.564   0.641  14.989 -0.0023  0.0783 -0.1646
 4427SOL    HW124743   3.474   0.673  14.979  0.3333  1.9714  2.9365
 4427SOL    HW224744   3.544   0.551  15.016  2.2759 -0.2019  0.5964
 4428SOL     OW24745   0.740   3.149   4.542  0.3332  0.2824  0.3721
 4428SOL    HW124746   0.807   3.113   4.484 -0.5084  0.7657 -0.8878
 4428SOL    HW224747   0.727   3.082   4.610  1.1892 -0.4908 -0.2226
 4429SOL     OW24748   3.915   3.530   2.342  0.1535  0.0256  0.1835
 4429SOL    HW124749   3.925   3.605   2.283 -0.5289  0.4150  0.5658
 4429SOL    HW224750   3.894   3.468   2.272 -1.4718  1.6796 -0.7929
 4430SOL     OW24751   0.753   1.713   4.457 -0.1484 -0.2498 -0.1441
 4430SOL    HW124752   0.669   1.671   4.444 -2.4287  4.1939  0.1421
 4430SOL    HW224753   0.803   1.642   4.498  0.6373  1.0596  1.1897
 4431SOL     OW24754   0.977   4.083   0.167  0.0300 -0.4466 -0.5208
 4431SOL    HW124755   1.012   4.136   0.239  1.9012 -3.1484  0.5644
 4431SOL    HW224756   0.970   3.998   0.211 -0.1584 -1.6793 -2.9168
 4432SOL     OW24757   1.823   3.682   4.029 -0.5260 -0.4441  0.5904
 4432SOL    HW124758   1.820   3.771   3.994  0.4082  1.7821  6.1726
 4432SOL    HW224759   1.879   3.688   4.106 -0.7161 -0.5870  0.7389
 4433SOL     OW24760   1.996   2.760   7.863  0.0558 -0.5608 -0.0870
 4433SOL    HW124761   2.004   2.677   7.815 -0.8782 -1.5417  1.4134
 4433SOL    HW224762   1.954   2.814   7.796  1.8496  1.2113  0.2547
 4434SOL     OW24763   4.298   1.957   8.320 -0.2110  0.0719 -0.5114
 4434SOL    HW124764   4.330   1.895   8.255  1.8537  0.8606 -0.2346
 4434SOL    HW224765   4.203   1.944   8.317 -0.2440  0.5005 -1.4340
 4435SOL     OW24766   1.202   2.067   5.439  0.0317  0.0722  0.7493
 4435SOL    HW124767   1.142   2.030   5.504  1.5030 -1.3519  1.2962
 4435SOL    HW224768   1.240   1.984   5.409 -1.7957 -0.6085  0.3232
 4436SOL     OW24769   0.650   0.809   4.413 -0.4877  0.1640  0.1648
 4436SOL    HW124770   0.585   0.795   4.344  0.3678 -2.8976 -0.0177
 4436SOL    HW224771   0.652   0.716   4.439 -1.4919  0.2642  0.6106
 4437SOL     OW24772   2.050   0.800  12.681  0.0003  0.2821 -0.4740
 4437SOL    HW124773   2.047   0.869  12.615 -0.0650 -2.0622 -2.9242
 4437SOL    HW224774   1.997   0.732  12.639 -0.5246  1.9666 -2.5419
 4438SOL     OW24775   1.487   0.649   7.843 -0.8395 -0.4513 -0.2449
 4438SOL    HW124776   1.410   0.628   7.790  0.2108 -1.5350 -1.3635
 4438SOL    HW224777   1.471   0.738   7.874 -0.2748 -0.1834 -0.7039
 4439SOL     OW24778   4.440   3.543   4.046 -0.0806 -0.3900 -0.5147
 4439SOL    HW124779   4.415   3.482   3.977 -0.4816  0.1110 -0.8139
 4439SOL    HW224780   4.468   3.618   3.993  0.2458 -0.6872 -0.7589
 4440SOL     OW24781   4.581   3.422  17.132 -0.3702 -0.0557  0.3187
 4440SOL    HW124782   4.646   3.487  17.106  0.2102 -1.4865 -1.8032
 4440SOL    HW224783   4.518   3.426  17.060  1.9288  1.3392 -1.5910
 4441SOL     OW24784   1.850   3.187   2.704 -0.6650  0.2839 -0.0607
 4441SOL    HW124785   1.923   3.245   2.721 -0.2270  0.1389 -1.4277
 4441SOL    HW224786   1.799   3.245   2.647 -0.8444  0.4321  0.2557
 4442SOL     OW24787   0.732   2.153   1.772  0.0977 -0.0726 -0.1865
 4442SOL    HW124788   0.707   2.206   1.696  1.0904  0.3179 -0.2426
 4442SOL    HW224789   0.645   2.128   1.803  0.5049 -1.1367  0.0775
 4443SOL     OW24790   1.182   4.248   1.151 -0.2086 -0.1950  0.1501
 4443SOL    HW124791   1.188   4.161   1.111  0.9401 -0.5548  1.1188
 4443SOL    HW224792   1.148   4.298   1.077 -0.5516 -0.5566  0.0656
 4444SOL     OW24793   3.120   2.380   5.127  0.3665 -0.1565 -0.1486
 4444SOL    HW124794   3.037   2.339   5.151  0.1368 -1.1742 -2.6452
 4444SOL    HW224795   3.123   2.459   5.180  0.9306  0.8589 -1.7055
 4445SOL     OW24796   3.053   0.093   6.858 -0.1696 -0.5969  0.4001
 4445SOL    HW124797   3.016   0.036   6.790  0.5734 -1.3318  0.6227
 4445SOL    HW224798   3.126   0.133   6.811  0.9262 -1.3942  1.4238
 4446SOL     OW24799   4.249   3.015  12.126 -0.0819 -0.3556  0.2196
 4446SOL    HW124800   4.218   2.924  12.129  0.0693 -0.4431 -0.8959
 4446SOL    HW224801   4.288   3.001  12.040  0.5577 -1.2118  0.6484
 4447SOL     OW24802   3.147   3.326  16.772  0.1869 -0.5315  0.4925
 4447SOL    HW124803   3.058   3.298  16.751  0.1805  0.4268 -0.7550
 4447SOL    HW224804   3.189   3.248  16.809  0.2216 -1.1978 -0.9801
 4448SOL     OW24805   2.798   1.351   4.772  0.0690 -0.6108  0.1070
 4448SOL    HW124806   2.800   1.365   4.866 -0.3613 -2.0352  0.3392
 4448SOL    HW224807   2.848   1.269   4.775  0.6341 -0.2034  1.8923
 4449SOL     OW24808   1.098   0.160   4.436  0.1393  0.0584  0.0121
 4449SOL    HW124809   1.190   0.137   4.431  0.7101  2.5131 -0.7103
 4449SOL    HW224810   1.078   0.156   4.530  0.4535 -0.8477  0.0439
 4450SOL     OW24811   1.045   0.435   6.455  0.6629  0.5947 -0.2708
 4450SOL    HW124812   1.137   0.426   6.428  0.9577  0.4185  0.8038
 4450SOL    HW224813   1.052   0.396   6.542 -0.8223  4.9672  1.7992
 4451SOL     OW24814   0.774   1.598   9.193 -0.0519  0.6717  0.4535
 4451SOL    HW124815   0.821   1.536   9.248 -3.0423 -2.4512 -0.4995
 4451SOL    HW224816   0.797   1.567   9.105 -0.9887  0.7691  0.1692
 4452SOL     OW24817   2.634   1.523   4.645 -0.5190 -0.3568  0.3493
 4452SOL    HW124818   2.556   1.561   4.686 -2.5085 -2.8119 -1.1581
 4452SOL    HW224819   2.677   1.479   4.719  1.1851 -0.0313 -0.4615
 4453SOL     OW24820   4.718   0.845  10.896  0.0874 -0.1834 -0.2081
 4453SOL    HW124821   4.636   0.799  10.879 -0.3924  1.1640 -1.5355
 4453SOL    HW224822   0.041   0.781  10.952  1.3177  2.4087  1.8092
 4454SOL     OW24823   1.695   1.652   0.720 -0.1061  0.0211 -0.0146
 4454SOL    HW124824   1.669   1.562   0.742  0.9693 -0.7044 -1.6703
 4454SOL    HW224825   1.687   1.654   0.624 -1.9051 -0.9964  0.1169
 4455SOL     OW24826   1.263   4.642  17.226  0.4971 -0.2328  0.3500
 4455SOL    HW124827   1.325   4.620  17.157 -1.0948 -0.8460 -0.8669
 4455SOL    HW224828   1.282   0.014  17.234  1.0373 -0.2325 -0.8666
 4456SOL     OW24829   3.980   3.126  16.774  0.3019 -0.3356  0.0714
 4456SOL    HW124830   3.897   3.165  16.746  1.2884  2.1123  0.5543
 4456SOL    HW224831   3.967   3.131  16.869 -2.7297  1.5208 -0.4550
 4457SOL     OW24832   4.252   0.981   5.259  0.7185 -0.4607 -0.0525
 4457SOL    HW124833   4.200   0.916   5.305 -0.3972 -0.2177 -0.9679
 4457SOL    HW224834   4.250   1.049   5.327  1.6647 -0.5287  0.0358
 4458SOL     OW24835   1.791   4.488   4.005  0.0863  0.0921  0.2925
 4458SOL    HW124836   1.766   4.563   4.058 -0.2243  0.9279 -1.0260
 4458SOL    HW224837   1.846   4.452   4.075 -0.7806 -3.2883 -0.7774
 4459SOL     OW24838   3.425   1.218   7.680  0.5784  0.3539 -0.1289
 4459SOL    HW124839   3.467   1.157   7.619 -2.7573 -0.5745 -1.5269
 4459SOL    HW224840   3.454   1.173   7.759  0.2466 -1.0262 -0.7911
 4460SOL     OW24841   2.264   1.798  11.237  0.5047 -0.7643 -0.1368
 4460SOL    HW124842   2.248   1.866  11.171  3.0936  0.0149  0.0567
 4460SOL    HW224843   2.277   1.849  11.316  1.7470 -1.8966  0.4026
 4461SOL     OW24844   3.888   1.759   6.335  0.7606  0.0681 -0.2236
 4461SOL    HW124845   3.842   1.843   6.329  0.7749  0.0477 -0.6036
 4461SOL    HW224846   3.953   1.778   6.402 -0.7306  0.2521  1.1684
 4462SOL     OW24847   4.613   0.220  16.752  0.0263 -0.7274  0.0668
 4462SOL    HW124848   4.544   0.267  16.704  1.0055  1.1237  0.4471
 4462SOL    HW224849   4.655   0.173  16.680 -3.5771 -0.6591 -2.1058
 4463SOL     OW24850   4.266   1.325  13.433 -0.6127  0.3957  0.2607
 4463SOL    HW124851   4.345   1.271  13.434 -0.8153  0.0836 -0.7714
 4463SOL    HW224852   4.290   1.387  13.364 -0.2510 -0.4860 -0.4056
 4464SOL     OW24853   2.433   4.053   3.720  0.4442 -0.4920 -0.0633
 4464SOL    HW124854   2.406   4.054   3.628  2.1455  3.3152 -0.4943
 4464SOL    HW224855   2.355   4.018   3.763 -0.9464  1.3177 -1.1024
 4465SOL     OW24856   0.773   4.660  15.719 -0.0566  0.4994  0.0010
 4465SOL    HW124857   0.739   4.573  15.736  0.6280 -0.0255 -1.3001
 4465SOL    HW224858   0.801   4.648  15.628 -1.5956  0.4792 -0.4568
 4466SOL     OW24859   3.911   3.249   3.505 -0.3601  0.3944  0.6267
 4466SOL    HW124860   3.882   3.221   3.592 -1.0581 -1.2763 -0.1291
 4466SOL    HW224861   3.844   3.203   3.454  1.3040 -1.1854 -0.1198
 4467SOL     OW24862   4.323   1.026  15.121  0.0501  0.0136  0.1207
 4467SOL    HW124863   4.397   0.968  15.141  0.8321  1.1467  0.4923
 4467SOL    HW224864   4.355   1.048  15.034 -1.1487 -0.0315 -0.3397
 4468SOL     OW24865   0.829   3.856   6.968 -0.1500  0.2216  0.7368
 4468SOL    HW124866   0.839   3.760   6.968 -2.9034 -0.0599 -0.9835
 4468SOL    HW224867   0.917   3.889   6.989  0.5876 -1.4204  0.2326
 4469SOL     OW24868   2.474   2.450   2.055 -0.3070  0.4613  0.4062
 4469SOL    HW124869   2.516   2.365   2.065 -1.9018 -0.4695 -0.7883
 4469SOL    HW224870   2.429   2.450   2.139  0.4201 -1.2680  0.7800
 4470SOL     OW24871   3.945   2.511  15.930  0.1881  0.1707  0.6408
 4470SOL    HW124872   3.925   2.580  15.867  0.0760 -0.3817  0.0811
 4470SOL    HW224873   3.941   2.560  16.013  1.5076  0.4093  0.5677
 4471SOL     OW24874   2.473   4.660  14.126 -0.0537  0.1224 -0.2475
 4471SOL    HW124875   2.529   4.651  14.203  0.7171  1.0523 -0.6984
 4471SOL    HW224876   2.512   0.013  14.080 -0.0274  1.1006  1.3743
 4472SOL     OW24877   0.012   3.118   6.333  0.2671 -1.1217  0.6611
 4472SOL    HW124878   4.701   3.178   6.401 -0.4705  0.0291 -0.7260
 4472SOL    HW224879   0.019   3.044   6.394  0.6828 -0.3471  1.5633
 4473SOL     OW24880   4.629   1.504   9.037 -0.1335  0.2991 -0.0468
 4473SOL    HW124881   4.577   1.525   9.115  2.1804  0.5770  1.4070
 4473SOL    HW224882   4.690   1.442   9.077 -1.3069 -0.3184  0.8064
 4474SOL     OW24883   1.013   2.951   2.860 -0.1168 -0.4967 -0.3111
 4474SOL    HW124884   0.979   2.915   2.778  0.7636  0.5653 -1.1429
 4474SOL    HW224885   1.095   2.986   2.823  1.0065 -0.5407  2.1755
 4475SOL     OW24886   3.353   3.377  12.360 -0.3535  0.6098  0.1573
 4475SOL    HW124887   3.306   3.305  12.402  0.6785 -0.8634 -1.2192
 4475SOL    HW224888   3.339   3.361  12.266 -1.2131 -0.7689  0.5139
 4476SOL     OW24889   1.360   2.482   4.493  0.1376 -0.1135  0.5030
 4476SOL    HW124890   1.416   2.441   4.428 -1.6398 -0.6004 -0.7229
 4476SOL    HW224891   1.344   2.406   4.549  3.6531  0.2829  2.0406
 4477SOL     OW24892   2.713   0.821   5.371  0.6278 -0.1803  0.1430
 4477SOL    HW124893   2.808   0.835   5.362  0.7711 -0.9865  0.4430
 4477SOL    HW224894   2.697   0.772   5.290  0.4656 -0.2640  0.2277
 4478SOL     OW24895   4.692   3.890   2.904 -0.3775  0.1217 -0.2177
 4478SOL    HW124896   4.676   3.798   2.886 -1.2752  0.0739  0.8534
 4478SOL    HW224897   0.046   3.907   2.847 -0.4858 -0.7728 -0.6242
 4479SOL     OW24898   4.044   1.486   9.187 -0.1240  0.3068  0.2593
 4479SOL    HW124899   4.115   1.527   9.138 -0.4676  0.2131 -0.3219
 4479SOL    HW224900   4.063   1.502   9.279  1.6845  1.2483 -0.2846
 4480SOL     OW24901   0.211   0.607   6.437  0.3137 -0.3013  0.0647
 4480SOL    HW124902   0.204   0.536   6.501  0.9422 -1.5541 -1.2625
 4480SOL    HW224903   0.123   0.646   6.437  0.4281 -0.0556 -0.8062
 4481SOL     OW24904   1.708   1.881   5.129 -0.9718  0.2375 -1.1342
 4481SOL    HW124905   1.735   1.841   5.211  0.0903  1.8207 -0.7083
 4481SOL    HW224906   1.786   1.937   5.127 -0.2163 -0.8420 -1.7954
 4482SOL     OW24907   2.661   2.503   8.376  0.3689  0.3863 -0.4184
 4482SOL    HW124908   2.739   2.451   8.356 -0.1190 -0.6101  0.2488
 4482SOL    HW224909   2.612   2.449   8.438  0.5443  0.0362 -0.5847
 4483SOL     OW24910   2.209   4.655   8.960 -0.5448  0.1832 -0.2183
 4483SOL    HW124911   2.146   4.685   9.025 -0.7568 -1.0154  0.1332
 4483SOL    HW224912   2.175   4.715   8.894 -0.1463  0.9744  0.2968
 4484SOL     OW24913   3.514   4.240  16.101 -0.0731 -0.0369  0.1481
 4484SOL    HW124914   3.535   4.309  16.165  1.7835 -1.4289  1.0301
 4484SOL    HW224915   3.423   4.265  16.084  0.5563  2.6356  0.5671
 4485SOL     OW24916   0.037   2.069   6.906  0.1811  0.0153  0.1042
 4485SOL    HW124917   0.054   2.150   6.857  3.5154  0.3858  1.8491
 4485SOL    HW224918   0.110   2.015   6.877 -0.6616 -0.9217 -0.2904
 4486SOL     OW24919   1.013   3.082   5.912  0.2931 -0.1444 -0.4720
 4486SOL    HW124920   0.925   3.119   5.923  0.3001 -0.3229  0.1953
 4486SOL    HW224921   1.054   3.129   5.984 -1.6039  1.3581 -0.3598
 4487SOL     OW24922   3.715   0.773  12.408 -0.1145  0.2508 -0.4285
 4487SOL    HW124923   3.695   0.851  12.356 -0.4558  0.4148 -0.0524
 4487SOL    HW224924   3.810   0.782  12.400 -0.0658 -0.6050 -0.8117
 4488SOL     OW24925   2.594   0.995  12.732 -0.0228  0.6862  0.3861
 4488SOL    HW124926   2.548   1.001  12.816 -1.2049  0.5799 -0.2469
 4488SOL    HW224927   2.661   1.063  12.742  2.1581 -1.6384  1.4682
 4489SOL     OW24928   1.712   0.793   3.627 -0.3485  0.1252 -0.4753
 4489SOL    HW124929   1.768   0.798   3.549 -1.6006  2.1565 -1.2490
 4489SOL    HW224930   1.726   0.706   3.663 -2.2753  0.2039  0.4355
 4490SOL     OW24931   1.337   2.163   8.293  0.5547 -0.1255  0.2124
 4490SOL    HW124932   1.288   2.082   8.302 -1.8519  1.1968 -0.7930
 4490SOL    HW224933   1.358   2.164   8.200  1.3934  0.3485  0.4091
 4491SOL     OW24934   0.662   3.048   7.717 -0.2601  0.0333  0.2368
 4491SOL    HW124935   0.590   2.996   7.752 -1.1488 -0.8377 -2.8476
 4491SOL    HW224936   0.728   2.978   7.714 -1.0738 -0.6354 -2.2459
 4492SOL     OW24937   3.067   2.517   8.050  0.3212 -0.3758  0.1457
 4492SOL    HW124938   3.055   2.553   8.138 -0.3391  1.0280 -0.5244
 4492SOL    HW224939   3.147   2.466   8.058  0.0432 -0.8192  0.0800
 4493SOL     OW24940   0.154   2.128   0.944  0.2402 -0.3101  0.0139
 4493SOL    HW124941   0.159   2.036   0.920  0.3372  0.4418 -2.8217
 4493SOL    HW224942   0.082   2.123   1.007 -0.3344  0.4519 -0.5911
 4494SOL     OW24943   1.526   3.540   9.572 -0.2708  0.1639 -0.3110
 4494SOL    HW124944   1.613   3.514   9.601  0.0622  0.5490 -0.9737
 4494SOL    HW224945   1.502   3.454   9.537  1.3465 -0.0945 -0.7618
 4495SOL     OW24946   1.913   0.965  17.397 -0.4117  0.1678 -0.1703
 4495SOL    HW124947   1.928   0.965  17.302 -0.1403 -1.2029 -0.1289
 4495SOL    HW224948   1.833   0.912  17.401 -0.3389 -0.1200 -2.4728
 4496SOL     OW24949   3.613   3.991  13.387 -0.6922  0.0818 -0.4235
 4496SOL    HW124950   3.615   3.960  13.296  0.1187  1.8200 -1.0030
 4496SOL    HW224951   3.547   4.059  13.384 -0.4826  0.2331 -1.8634
 4497SOL     OW24952   1.151   3.891   8.304  0.1570  0.6895 -0.6182
 4497SOL    HW124953   1.193   3.962   8.353 -0.2696  0.0757  0.6208
 4497SOL    HW224954   1.214   3.869   8.235  1.7187 -1.7290  1.6041
 4498SOL     OW24955   0.833   3.159   6.581 -0.3004 -0.0364 -0.2206
 4498SOL    HW124956   0.766   3.153   6.649 -2.0197  0.3125 -1.8754
 4498SOL    HW224957   0.808   3.075   6.544  1.5512 -0.5801 -0.2312
 4499SOL     OW24958   2.791   0.033   7.794  0.0563  0.2887 -0.1267
 4499SOL    HW124959   2.874   0.060   7.755  1.5426  0.6071  3.1840
 4499SOL    HW224960   2.769   4.688   7.730  0.6881 -1.9930  2.0072
 4500SOL     OW24961   1.328   0.063   7.415 -0.4300 -0.3998 -0.5876
 4500SOL    HW124962   1.299   4.699   7.385 -0.8624 -0.3672 -0.2754
 4500SOL    HW224963   1.249   0.113   7.393 -0.4949 -1.4146 -2.5924
 4501SOL     OW24964   1.250   4.460   0.508  0.0837 -0.0963  0.1821
 4501SOL    HW124965   1.155   4.462   0.497 -0.2729 -3.1390  2.6395
 4501SOL    HW224966   1.259   4.473   0.602 -0.0631 -2.1731  0.4820
 4502SOL     OW24967   2.721   2.457   8.768 -0.0850  0.5250  0.2133
 4502SOL    HW124968   2.670   2.531   8.736  1.0772  1.6387  0.9770
 4502SOL    HW224969   2.807   2.480   8.733 -0.3741  0.7536 -0.3365
 4503SOL     OW24970   1.312   0.292   6.448  0.4416 -0.3569  0.2568
 4503SOL    HW124971   1.340   0.220   6.391 -0.7344  0.6927 -1.6504
 4503SOL    HW224972   1.249   0.247   6.505 -0.6701 -0.3424 -0.9559
 4504SOL     OW24973   1.416   3.852  16.719  0.6395  0.1811 -0.0204
 4504SOL    HW124974   1.363   3.790  16.669  1.9810  0.0766 -1.2952
 4504SOL    HW224975   1.370   3.868  16.802  0.1829 -0.9974 -0.0443
 4505SOL     OW24976   1.700   3.015   1.783 -0.0923 -0.8638  0.1523
 4505SOL    HW124977   1.605   3.001   1.785 -0.3177  0.7651  0.7428
 4505SOL    HW224978   1.732   2.925   1.786  1.0964 -0.5310 -2.1557
 4506SOL     OW24979   2.720   3.810   3.650  0.0086  0.0537 -0.5754
 4506SOL    HW124980   2.710   3.901   3.621  2.5766  0.8859  1.1834
 4506SOL    HW224981   2.784   3.774   3.588  0.4827  0.9283 -0.5887
 4507SOL     OW24982   1.170   1.962   6.626 -0.1122 -0.4150  0.2448
 4507SOL    HW124983   1.120   1.890   6.665 -0.8681  1.6017  2.9531
 4507SOL    HW224984   1.131   1.957   6.538 -2.4654  0.5017  1.2536
 4508SOL     OW24985   0.917   3.247   3.862 -0.3575 -0.5383 -0.2956
 4508SOL    HW124986   0.931   3.314   3.929  4.0332 -0.6465 -1.1323
 4508SOL    HW224987   0.907   3.170   3.918 -1.0075 -0.4662 -0.3145
 4509SOL     OW24988   4.261   0.223   6.226 -0.1773  0.0120 -0.3372
 4509SOL    HW124989   4.312   0.162   6.173  0.6602  1.0398 -0.7339
 4509SOL    HW224990   4.176   0.208   6.185 -0.7753  1.6358  0.2805
 4510SOL     OW24991   1.536   2.695   5.109  0.6527  0.3860  0.2005
 4510SOL    HW124992   1.516   2.719   5.019  0.5512  0.7299  0.3130
 4510SOL    HW224993   1.466   2.635   5.136  3.0589 -2.8951 -0.8847
 4511SOL     OW24994   4.405   0.078   6.029 -0.1078  0.2150  0.3887
 4511SOL    HW124995   4.498   0.057   6.031 -0.2281 -0.2407  1.2181
 4511SOL    HW224996   4.407   0.156   5.973  2.4178 -2.1023 -2.7296
 4512SOL     OW24997   0.037   1.676  10.511  0.1027  0.0615 -0.0035
 4512SOL    HW124998   0.014   1.709  10.598 -0.5403  2.1639 -0.9771
 4512SOL    HW224999   0.008   1.752  10.461 -2.3709  0.0799  1.4419
 4513SOL     OW25000   4.247   0.028   6.524  0.0808 -0.2605 -0.2184
 4513SOL    HW125001   4.311   4.679   6.509 -0.5577 -0.8983  0.0313
 4513SOL    HW225002   4.218   0.053   6.436  0.6886  0.5828 -0.1790
 4514SOL     OW25003   0.967   4.092  15.757 -0.2884  0.6366 -0.0213
 4514SOL    HW125004   0.932   4.177  15.782 -3.3954 -0.8417  0.6921
 4514SOL    HW225005   1.038   4.124  15.702 -0.0605  1.1537  0.5689
 4515SOL     OW25006   3.118   1.231   4.455  0.1181  0.1398  0.6863
 4515SOL    HW125007   3.201   1.182   4.460  0.2770  0.3350 -0.0102
 4515SOL    HW225008   3.057   1.173   4.409  0.0533  1.6437 -1.1066
 4516SOL     OW25009   1.916   0.930   5.018 -0.7201  0.2938  0.3548
 4516SOL    HW125010   1.915   0.877   4.938  0.2718  1.0719 -0.1762
 4516SOL    HW225011   1.830   0.914   5.057 -0.4125  0.9495  1.3046
 4517SOL     OW25012   1.137   3.702   3.565  0.1721 -0.2744 -0.5625
 4517SOL    HW125013   1.227   3.696   3.531  0.6044 -1.9572  0.8281
 4517SOL    HW225014   1.093   3.721   3.482  1.4204  0.3683 -1.0788
 4518SOL     OW25015   1.064   3.019   0.552 -0.1019  0.4266 -0.6340
 4518SOL    HW125016   1.101   2.985   0.471  0.5604  0.9071 -0.5318
 4518SOL    HW225017   0.975   2.985   0.549  0.1579 -0.1406 -1.7448
 4519SOL     OW25018   3.452   3.338   9.895 -0.4061  0.4910  0.7417
 4519SOL    HW125019   3.489   3.263   9.942  3.1884  0.9451 -1.3733
 4519SOL    HW225020   3.512   3.365   9.826 -3.2729  1.3565 -1.4086
 4520SOL     OW25021   2.915   3.670  11.257 -0.0284  0.5012 -0.4516
 4520SOL    HW125022   2.830   3.682  11.215  0.3913  1.6420 -0.9769
 4520SOL    HW225023   2.925   3.575  11.257  1.5567  0.6540  0.7150
 4521SOL     OW25024   2.489   2.505   9.347  0.1098 -0.2332  0.4442
 4521SOL    HW125025   2.544   2.442   9.394 -2.3164 -0.4292  3.0285
 4521SOL    HW225026   2.403   2.465   9.360  0.0434 -0.0815  0.4703
 4522SOL     OW25027   1.899   1.650   4.085  0.4162  0.1497  0.1821
 4522SOL    HW125028   1.881   1.610   4.000 -0.8270 -2.7855  1.8323
 4522SOL    HW225029   1.886   1.735   4.043  2.4365 -0.7629 -2.3213
 4523SOL     OW25030   4.086   2.817   4.689 -0.2921  0.1129  0.4646
 4523SOL    HW125031   4.034   2.887   4.726 -0.9918  0.3972 -1.0567
 4523SOL    HW225032   4.022   2.748   4.706  0.0186 -0.4434 -0.5713
 4524SOL     OW25033   0.905   0.418   5.835 -0.0458  0.1453  0.5594
 4524SOL    HW125034   0.978   0.468   5.799  1.0468 -2.1686 -0.3880
 4524SOL    HW225035   0.954   0.340   5.861 -0.8252  0.2741  2.4013
 4525SOL     OW25036   3.358   2.769  12.413  0.1985  0.2054 -0.0404
 4525SOL    HW125037   3.274   2.723  12.419 -0.2622  1.2653  1.5254
 4525SOL    HW225038   3.411   2.698  12.450 -0.2922 -0.2701 -0.2460
 4526SOL     OW25039   0.913   1.964  11.194  0.2114  0.0657 -0.3262
 4526SOL    HW125040   0.995   1.990  11.236 -0.8080  2.8160 -0.0691
 4526SOL    HW225041   0.849   2.006  11.250 -0.0790 -1.6022  0.5940
 4527SOL     OW25042   2.148   3.252   9.204  0.4868 -0.1600  0.4001
 4527SOL    HW125043   2.223   3.278   9.257  1.5628 -2.3149 -0.0842
 4527SOL    HW225044   2.073   3.278   9.258 -0.4595  0.6888 -1.3105
 4528SOL     OW25045   2.733   4.056   4.664  0.3885 -0.1440 -0.4813
 4528SOL    HW125046   2.714   3.975   4.616 -2.3949  0.6066 -0.6273
 4528SOL    HW225047   2.735   4.127   4.599  0.6630 -0.2292 -0.5676
 4529SOL     OW25048   0.617   4.680   1.357  0.4703 -0.1800  0.7275
 4529SOL    HW125049   0.544   4.621   1.378  0.2276  0.3080  1.2568
 4529SOL    HW225050   0.658   4.643   1.279  2.3987  0.8942  1.2361
 4530SOL     OW25051   3.711   0.489   4.870  0.2114 -0.7232  0.6450
 4530SOL    HW125052   3.804   0.488   4.892  0.8116  4.1607 -1.5054
 4530SOL    HW225053   3.703   0.568   4.815  1.0330 -3.5816 -3.5845
 4531SOL     OW25054   3.374   1.339  13.294 -0.1176  0.4193 -0.3291
 4531SOL    HW125055   3.460   1.376  13.274  0.2224  1.1147  2.5271
 4531SOL    HW225056   3.400   1.272  13.357 -2.8864 -1.1846 -0.8930
 4532SOL     OW25057   4.256   0.990   7.576  0.2562  1.3608  0.3909
 4532SOL    HW125058   4.176   1.027   7.539 -1.4460 -0.2052  2.4861
 4532SOL    HW225059   4.283   0.921   7.515  0.8544  1.7635  0.1966
 4533SOL     OW25060   1.476   2.340   4.069  0.2984 -0.6030 -0.2435
 4533SOL    HW125061   1.541   2.367   4.004  0.1376  0.1256 -0.1017
 4533SOL    HW225062   1.527   2.331   4.149  0.4568 -0.3550 -0.3195
 4534SOL     OW25063   1.965   4.276  12.052  0.5379 -0.1310  0.0344
 4534SOL    HW125064   2.013   4.307  12.129 -0.5363  0.8856  0.2860
 4534SOL    HW225065   1.918   4.213  12.106 -0.5527  1.4417  0.9222
 4535SOL     OW25066   2.370   3.714   8.905 -0.1463  0.6106 -0.0173
 4535SOL    HW125067   2.280   3.746   8.912 -0.0981  0.8428 -0.4816
 4535SOL    HW225068   2.420   3.779   8.953  1.8271  0.6224 -2.1206
 4536SOL     OW25069   4.609   2.631   8.547 -0.4452  0.4629  0.2896
 4536SOL    HW125070   4.702   2.648   8.537 -0.4905 -0.3034 -1.4975
 4536SOL    HW225071   4.612   2.536   8.552  0.8746  0.3356 -3.2559
 4537SOL     OW25072   1.548   1.740   6.202 -0.0632  0.0626  0.2162
 4537SOL    HW125073   1.535   1.647   6.182  1.3990 -0.3531  1.2281
 4537SOL    HW225074   1.536   1.783   6.117  1.2842  0.4638  0.2338
 4538SOL     OW25075   3.550   0.615   7.176 -0.5183  0.4737 -0.2269
 4538SOL    HW125076   3.577   0.609   7.267  0.0782  0.4055 -0.4121
 4538SOL    HW225077   3.457   0.636   7.187 -0.3326  0.2717  1.7157
 4539SOL     OW25078   0.311   1.540  10.450  0.1250 -0.6042  0.0352
 4539SOL    HW125079   0.230   1.590  10.458 -0.0348 -0.7770 -0.5393
 4539SOL    HW225080   0.289   1.483  10.377 -0.9191  0.0921 -0.1888
 4540SOL     OW25081   0.788   1.652  15.047 -0.0785  0.0755  0.2321
 4540SOL    HW125082   0.763   1.581  15.105  2.0871  1.2160  2.5602
 4540SOL    HW225083   0.773   1.599  14.968 -0.1494  0.9162 -0.3218
 4541SOL     OW25084   4.065   4.108   4.376 -0.0505 -0.5566 -0.2657
 4541SOL    HW125085   3.983   4.059   4.370  0.3827 -1.3728  0.5509
 4541SOL    HW225086   4.022   4.193   4.384 -1.0362 -1.0959  0.1891
 4542SOL     OW25087   4.700   2.632  11.180 -0.6098 -0.3726 -0.0691
 4542SOL    HW125088   4.712   2.679  11.097  1.7258 -1.1746 -0.1802
 4542SOL    HW225089   0.066   2.596  11.196 -1.0377 -0.4614  2.0662
 4543SOL     OW25090   3.775   2.358   5.581 -0.1811  0.1905  0.3649
 4543SOL    HW125091   3.692   2.359   5.629 -1.1574 -0.8975 -1.2972
 4543SOL    HW225092   3.835   2.366   5.655 -0.1800  1.0980  0.2615
 4544SOL     OW25093   3.950   0.019   4.518  0.0842  0.0317  0.3351
 4544SOL    HW125094   4.035   4.697   4.525  0.6326  1.1783  0.7411
 4544SOL    HW225095   3.958   0.088   4.584  1.1223  1.2472 -1.0613
 4545SOL     OW25096   0.821   3.332   7.068  0.2895 -0.3833 -0.2156
 4545SOL    HW125097   0.820   3.274   6.993  2.6786  0.9412 -1.2711
 4545SOL    HW225098   0.865   3.283   7.137  0.2692 -1.8039 -1.2326
 4546SOL     OW25099   0.864   2.905  14.994  0.3897  0.2259  0.3434
 4546SOL    HW125100   0.831   2.890  15.083  0.4020 -1.0000  0.1421
 4546SOL    HW225101   0.788   2.885  14.939 -0.8492  2.2498  1.3087
 4547SOL     OW25102   3.962   0.742   9.969  0.1686  0.2526  0.6035
 4547SOL    HW125103   3.994   0.827   9.999  0.1828  1.1694 -2.0493
 4547SOL    HW225104   4.043   0.691   9.982  0.0070 -0.5796 -1.5361
 4548SOL     OW25105   3.497   2.145   6.018 -0.0130 -0.4861  0.1808
 4548SOL    HW125106   3.421   2.134   6.076  0.0613  1.9101  0.7608
 4548SOL    HW225107   3.520   2.055   5.997 -0.3632 -1.3703  3.6185
 4549SOL     OW25108   3.843   1.114  12.986  0.0665  0.5533  0.2274
 4549SOL    HW125109   3.846   1.197  13.034 -0.4149  0.5487  0.2693
 4549SOL    HW225110   3.812   1.145  12.901  0.0882 -1.3779 -0.4905
 4550SOL     OW25111   3.669   0.224   4.610  0.5125 -0.2633  0.0201
 4550SOL    HW125112   3.752   0.268   4.593 -0.3409  1.6926  0.9362
 4550SOL    HW225113   3.662   0.170   4.531 -1.4879  0.8262 -0.5620
 4551SOL     OW25114   3.956   4.719   6.124  0.3478  1.0459  0.2774
 4551SOL    HW125115   3.991   4.697   6.038  0.1250  1.0849  0.1790
 4551SOL    HW225116   3.973   0.092   6.126 -1.5962  1.3961 -0.5605
 4552SOL     OW25117   0.304   0.679   4.505  0.3943  0.2747  0.6837
 4552SOL    HW125118   0.384   0.630   4.523  1.0504  1.6388  1.4835
 4552SOL    HW225119   0.235   0.631   4.552 -1.2038  2.5619  0.6722
 4553SOL     OW25120   4.039   3.438   8.392 -0.5223  0.2885 -0.0471
 4553SOL    HW125121   4.103   3.463   8.459 -0.1719  1.0492 -0.6757
 4553SOL    HW225122   3.961   3.472   8.434 -0.0624 -1.5593  2.3361
 4554SOL     OW25123   4.484   1.624   1.552 -0.5688 -0.1160  0.3094
 4554SOL    HW125124   4.428   1.695   1.520 -0.2766 -1.8144 -3.8928
 4554SOL    HW225125   4.515   1.587   1.470  0.6189  0.3464  0.5565
 4555SOL     OW25126   4.696   4.707   7.551 -0.2025  0.5205  0.2552
 4555SOL    HW125127   0.025   4.639   7.507  0.5362  0.0187  1.8397
 4555SOL    HW225128   4.644   0.007   7.474  0.4406 -0.3751 -0.4305
 4556SOL     OW25129   3.648   3.071   5.372  0.1149 -0.3702  0.0171
 4556SOL    HW125130   3.631   3.152   5.324  1.2545  0.2123  0.5815
 4556SOL    HW225131   3.725   3.099   5.422 -1.3352  0.2019  1.9242
 4557SOL     OW25132   3.766   1.067  15.181 -0.4335  0.2658  0.9384
 4557SOL    HW125133   3.852   1.107  15.164 -0.3313 -0.3688 -0.0226
 4557SOL    HW225134   3.794   1.007  15.250  0.7296  2.4513  2.3691
 4558SOL     OW25135   2.423   3.053   1.741  0.0219 -0.1429  0.0040
 4558SOL    HW125136   2.433   3.134   1.791 -0.8905 -0.1638  0.2328
 4558SOL    HW225137   2.402   3.083   1.653  1.1632 -1.1676 -0.6048
 4559SOL     OW25138   0.363   3.989   6.514 -0.0309 -0.4271 -0.5329
 4559SOL    HW125139   0.332   3.982   6.604  0.3378 -1.0032 -0.4514
 4559SOL    HW225140   0.310   3.929   6.460 -1.0251 -0.3330  0.3318
 4560SOL     OW25141   2.133   2.913   3.409 -0.0699  0.5413 -0.2293
 4560SOL    HW125142   2.169   2.998   3.435  1.2208 -0.3675  0.9751
 4560SOL    HW225143   2.179   2.886   3.330  0.8012 -1.8966  1.1198
 4561SOL     OW25144   0.475   2.587  12.994 -0.8044 -0.0117 -0.3498
 4561SOL    HW125145   0.504   2.672  12.959 -0.5767  0.1566  0.2517
 4561SOL    HW225146   0.495   2.591  13.087 -0.6951  0.2766 -0.3847
 4562SOL     OW25147   2.839   4.595   2.846  0.4604  0.1474  0.0403
 4562SOL    HW125148   2.911   4.580   2.906 -0.6669  0.7605  1.5437
 4562SOL    HW225149   2.856   4.524   2.784  1.6793  0.5752 -0.1104
 4563SOL     OW25150   4.719   0.954   8.941 -0.4567  0.2081  0.1522
 4563SOL    HW125151   4.699   0.876   8.992  2.0295 -0.2133  0.4998
 4563SOL    HW225152   4.635   0.971   8.898 -0.5071 -0.2074  0.0892
 4564SOL     OW25153   2.209   4.178   8.641 -0.3254  0.5050  0.0476
 4564SOL    HW125154   2.162   4.225   8.572  1.0292  0.0817 -1.1798
 4564SOL    HW225155   2.235   4.098   8.594  0.3620  1.3880 -1.0899
 4565SOL     OW25156   2.486   2.427   6.697 -0.0140 -0.5068  0.4534
 4565SOL    HW125157   2.422   2.490   6.667  0.4123 -1.2250 -2.0023
 4565SOL    HW225158   2.567   2.474   6.674  0.0873  0.0883  2.0401
 4566SOL     OW25159   0.301   1.267   3.825 -0.3518 -0.0279 -0.0951
 4566SOL    HW125160   0.395   1.277   3.812 -0.3125  1.3210  1.1449
 4566SOL    HW225161   0.279   1.174   3.820  1.3317 -0.4261  0.0324
 4567SOL     OW25162   3.872   4.462   6.887 -0.1112  0.1189  0.8713
 4567SOL    HW125163   3.779   4.451   6.871  0.4422 -1.2326 -1.4126
 4567SOL    HW225164   3.898   4.451   6.795  2.3134  2.5088  1.2561
 4568SOL     OW25165   2.430   4.188  10.398 -0.0738  0.1381 -0.2291
 4568SOL    HW125166   2.462   4.150  10.479 -0.0720  0.1218 -0.2373
 4568SOL    HW225167   2.391   4.265  10.438  1.7081 -0.4038  2.5016
 4569SOL     OW25168   3.866   3.825   1.763 -0.0643  0.2678  0.0829
 4569SOL    HW125169   3.861   3.921   1.758  2.3832  0.4971  2.4899
 4569SOL    HW225170   3.796   3.805   1.824  0.7232 -0.2008  0.8352
 4570SOL     OW25171   1.595   3.787   6.353 -0.4544  0.1828 -0.1926
 4570SOL    HW125172   1.531   3.832   6.298  0.5681 -0.0066 -1.5238
 4570SOL    HW225173   1.577   3.821   6.441 -0.2856  0.2140 -0.1707
 4571SOL     OW25174   2.043   4.327  16.008 -0.4157  0.4949 -0.3873
 4571SOL    HW125175   1.961   4.356  16.049 -0.3407 -2.1017  1.5650
 4571SOL    HW225176   2.012   4.323  15.918 -0.9245  2.7142 -0.3196
 4572SOL     OW25177   4.067   2.047   2.243  0.1829  0.3720 -0.1649
 4572SOL    HW125178   3.989   2.050   2.298 -0.7341  2.0006 -1.5681
 4572SOL    HW225179   4.031   2.033   2.155  1.9264 -0.6158 -0.7294
 4573SOL     OW25180   2.222   2.973   3.037 -0.1375  0.4838 -0.5198
 4573SOL    HW125181   2.185   2.965   2.949 -0.6552 -1.5041 -0.1212
 4573SOL    HW225182   2.217   2.879   3.053 -1.6181  0.3589 -1.7752
 4574SOL     OW25183   1.138   3.381   5.195  0.2934  0.0790  0.2591
 4574SOL    HW125184   1.137   3.342   5.282  0.2776  0.7043  0.5368
 4574SOL    HW225185   1.092   3.311   5.148  0.5023  0.1284 -0.0189
 4575SOL     OW25186   0.773   1.930   2.354 -0.6920  0.2078 -0.4959
 4575SOL    HW125187   0.756   2.022   2.333 -1.4091  0.7471  2.4009
 4575SOL    HW225188   0.701   1.906   2.412  0.2993 -0.0327  0.6341
 4576SOL     OW25189   2.646   0.924   9.694  0.1539 -0.3588  1.0678
 4576SOL    HW125190   2.646   1.016   9.720  0.2479 -0.8551  2.8569
 4576SOL    HW225191   2.551   0.934   9.682  0.3197 -0.1254 -0.0163
 4577SOL     OW25192   1.360   2.794   5.423 -0.8240  0.0473 -0.0777
 4577SOL    HW125193   1.319   2.832   5.501  0.1716  0.6328  0.1638
 4577SOL    HW225194   1.314   2.842   5.355 -2.1614 -0.9422  0.1309
 4578SOL     OW25195   2.398   1.433   7.030  0.5815 -0.2557 -0.3212
 4578SOL    HW125196   2.364   1.511   6.985  0.2995 -0.4735 -0.4844
 4578SOL    HW225197   2.335   1.366   7.004  0.3279 -0.3150  0.4416
 4579SOL     OW25198   1.513   0.232  14.237 -0.1723 -0.0400 -0.4790
 4579SOL    HW125199   1.582   0.283  14.194 -0.7891  0.2362 -1.1398
 4579SOL    HW225200   1.464   0.192  14.165  0.8712  1.3284 -1.9536
 4580SOL     OW25201   1.488   3.218  15.157 -0.0053  0.0772 -0.5741
 4580SOL    HW125202   1.528   3.212  15.244  1.0832  0.9531 -1.0233
 4580SOL    HW225203   1.410   3.274  15.161 -0.5413 -0.6926 -0.3031
 4581SOL     OW25204   3.247   1.055   2.636 -0.5654 -0.0199 -0.3270
 4581SOL    HW125205   3.229   1.045   2.542 -3.1651 -0.7884  0.2496
 4581SOL    HW225206   3.280   1.144   2.627 -0.2114 -0.0855  0.3371
 4582SOL     OW25207   4.089   4.061   0.456  0.5167 -0.3717  0.7088
 4582SOL    HW125208   3.997   4.033   0.448  0.1581  0.9166  0.3044
 4582SOL    HW225209   4.112   4.065   0.363  2.1894 -0.0025  1.1416
 4583SOL     OW25210   4.703   2.050   2.375  0.1567 -0.4583 -0.2152
 4583SOL    HW125211   4.690   2.066   2.469  0.1267 -1.8417  0.0184
 4583SOL    HW225212   0.018   1.961   2.375  0.5033 -0.3126 -1.1929
 4584SOL     OW25213   0.024   2.653   1.473  0.1187  0.4412 -0.2490
 4584SOL    HW125214   4.708   2.568   1.494 -0.5156  1.2807  2.0697
 4584SOL    HW225215   0.011   2.696   1.558  1.7820  0.1275  0.1771
 4585SOL     OW25216   0.521   0.303  12.719 -0.3494 -0.1190  0.0724
 4585SOL    HW125217   0.518   0.384  12.668 -2.1076 -0.1073  0.1971
 4585SOL    HW225218   0.591   0.253  12.678 -0.0805  1.2792 -1.1561
 4586SOL     OW25219   3.527   4.382   9.391 -0.3691  0.3888 -0.2091
 4586SOL    HW125220   3.585   4.427   9.452  1.5813 -0.2282 -1.5839
 4586SOL    HW225221   3.590   4.325   9.346 -1.4919 -0.1467 -1.0948
 4587SOL     OW25222   4.481   4.196   9.516  0.0771 -0.6006  0.2922
 4587SOL    HW125223   4.571   4.206   9.485 -0.2055 -0.2657 -0.4123
 4587SOL    HW225224   4.490   4.223   9.608 -0.4053 -1.1506  0.5006
 4588SOL     OW25225   2.502   0.780   6.412  0.1253 -0.8053  0.6167
 4588SOL    HW125226   2.471   0.706   6.359 -2.0794  0.9143 -0.5005
 4588SOL    HW225227   2.596   0.772   6.402  0.0149 -0.9371 -0.2628
 4589SOL     OW25228   3.998   1.382   3.353 -0.3970 -0.2280  0.3466
 4589SOL    HW125229   3.999   1.452   3.418 -1.7689 -0.5521  0.7168
 4589SOL    HW225230   4.091   1.390   3.334 -0.6788  0.7244 -0.6144
 4590SOL     OW25231   0.779   0.889  17.433 -0.3203 -0.0079 -0.3512
 4590SOL    HW125232   0.693   0.875  17.473 -0.7192  1.1824 -0.7839
 4590SOL    HW225233   0.780   0.985  17.436 -3.8703  0.0647 -1.6985
 4591SOL     OW25234   1.415   3.329   8.356  0.7209  0.0704  0.0417
 4591SOL    HW125235   1.323   3.307   8.344  1.1159 -2.1514  1.1375
 4591SOL    HW225236   1.446   3.335   8.265 -0.5875  0.6860 -0.3638
 4592SOL     OW25237   4.010   3.827   8.349  0.2432  0.5247 -0.1304
 4592SOL    HW125238   3.966   3.767   8.288 -1.7717  0.0486  1.8053
 4592SOL    HW225239   3.947   3.822   8.420 -1.4851 -0.0747 -1.6921
 4593SOL     OW25240   4.038   1.031   9.609 -0.0941 -0.0694  0.1483
 4593SOL    HW125241   4.084   1.056   9.690 -0.3806  1.1842 -0.0771
 4593SOL    HW225242   4.011   0.940   9.622  0.3732 -0.3505 -0.9281
 4594SOL     OW25243   2.314   1.514  11.219 -0.3484  0.1274 -0.1882
 4594SOL    HW125244   2.325   1.609  11.217 -0.2687  0.1668  3.3425
 4594SOL    HW225245   2.252   1.510  11.291  1.5733 -1.7258  1.3386
 4595SOL     OW25246   4.383   2.919   9.054 -0.1374 -0.1392 -0.2474
 4595SOL    HW125247   4.455   2.909   8.992  0.0081 -1.6509  0.1458
 4595SOL    HW225248   4.416   2.864   9.125 -0.5283  1.2418  0.9977
 4596SOL     OW25249   4.586   0.706   5.499  0.4233  0.2916 -0.2928
 4596SOL    HW125250   4.547   0.746   5.422  1.9290 -0.4268 -1.4251
 4596SOL    HW225251   4.587   0.783   5.556  2.6173 -1.4136  1.9805
 4597SOL     OW25252   3.049   1.551   6.959 -0.5764 -0.5137 -0.5318
 4597SOL    HW125253   3.101   1.495   7.017  1.3910  0.6015 -1.2090
 4597SOL    HW225254   3.111   1.581   6.892 -0.0889  0.6823  0.4446
 4598SOL     OW25255   3.656   4.628   7.287 -0.5886 -0.8050  0.4410
 4598SOL    HW125256   3.702   4.561   7.237  1.5631  1.2591 -0.3697
 4598SOL    HW225257   3.625   4.581   7.363 -0.9711  0.3367  0.9969
 4599SOL     OW25258   2.478   4.660   5.589  0.2883 -0.0802 -0.8742
 4599SOL    HW125259   2.557   4.702   5.555 -1.1680  3.0513 -0.4233
 4599SOL    HW225260   2.516   4.573   5.603  0.4055  0.0748 -0.2172
 4600SOL     OW25261   0.457   2.969  17.295 -0.2731  0.8963  0.0453
 4600SOL    HW125262   0.370   2.936  17.274  0.5484  0.4708 -2.6856
 4600SOL    HW225263   0.490   2.905  17.359 -0.0896  1.4707  0.5322
 4601SOL     OW25264   1.679   2.779   3.307  0.3266 -0.0166  0.0950
 4601SOL    HW125265   1.605   2.723   3.280  1.1028 -0.0253 -2.0137
 4601SOL    HW225266   1.634   2.843   3.361  1.4762  1.8442 -1.1704
 4602SOL     OW25267   0.533   4.078   3.604  0.2838  0.2468  0.1831
 4602SOL    HW125268   0.542   4.131   3.684 -2.9531  0.4353  0.4024
 4602SOL    HW225269   0.454   4.026   3.617 -1.0119  1.7348 -1.7688
 4603SOL     OW25270   4.388   3.251   3.165 -0.0707  0.3347 -0.5158
 4603SOL    HW125271   4.464   3.236   3.221 -1.6173 -0.7501  1.3179
 4603SOL    HW225272   4.426   3.252   3.078 -0.7642 -0.5885 -0.8335
 4604SOL     OW25273   2.651   3.848   9.661  0.2927 -0.0057  0.0195
 4604SOL    HW125274   2.704   3.912   9.613 -1.1196  0.1361 -1.3517
 4604SOL    HW225275   2.599   3.912   9.710  1.4032 -0.7537  2.1999
 4605SOL     OW25276   1.450   3.134   5.254  0.0467  0.1088  0.7078
 4605SOL    HW125277   1.421   3.185   5.178 -1.0517 -1.1269  0.2981
 4605SOL    HW225278   1.380   3.069   5.258 -0.6135  0.6369 -2.1487
 4606SOL     OW25279   4.223   1.456  15.439 -0.4131  0.0260  0.4795
 4606SOL    HW125280   4.280   1.379  15.440 -1.7289 -0.9310  1.7349
 4606SOL    HW225281   4.279   1.529  15.464 -0.3618 -0.1429  0.8520
 4607SOL     OW25282   1.078   2.603   7.618  0.2782 -0.0937 -0.2168
 4607SOL    HW125283   1.143   2.569   7.556  1.7049  0.8734  0.7486
 4607SOL    HW225284   1.045   2.672   7.561  3.0075 -2.0900 -4.2350
 4608SOL     OW25285   2.410   4.414   3.484  0.0948  0.6641  0.4084
 4608SOL    HW125286   2.435   4.377   3.568  1.5489 -0.1590 -0.3922
 4608SOL    HW225287   2.414   4.328   3.443  1.2456  2.1623 -2.5995
 4609SOL     OW25288   0.798   3.077   2.938 -0.4919  0.6136  0.4167
 4609SOL    HW125289   0.882   3.032   2.941 -0.3576  0.8688  0.5279
 4609SOL    HW225290   0.798   3.125   3.021  0.0540 -0.7668  1.2160
 4610SOL     OW25291   1.667   2.558   9.349  0.0734 -0.6060  0.1776
 4610SOL    HW125292   1.762   2.560   9.363 -0.1208  1.1551  1.2635
 4610SOL    HW225293   1.648   2.632   9.407 -1.2349 -0.7939 -0.0321
 4611SOL     OW25294   1.955   1.299  16.227 -0.2920  0.3932  0.2741
 4611SOL    HW125295   1.889   1.338  16.285 -1.2657  0.7474 -1.0974
 4611SOL    HW225296   1.907   1.269  16.150  1.4676 -0.0694 -0.6372
 4612SOL     OW25297   4.478   3.244   4.223 -0.6259  0.1824 -0.3902
 4612SOL    HW125298   4.396   3.275   4.260 -1.4867 -1.0070 -1.3016
 4612SOL    HW225299   4.465   3.256   4.129  0.0862 -0.1444 -0.5327
 4613SOL     OW25300   4.088   2.962  11.094  0.2209  0.0975 -0.0103
 4613SOL    HW125301   4.143   3.033  11.128  1.9648 -1.7064  0.9557
 4613SOL    HW225302   4.143   2.884  11.103  1.3654  0.8982 -0.0952
 4614SOL     OW25303   2.539   2.969   9.148 -0.3332 -0.1161  0.2940
 4614SOL    HW125304   2.517   2.918   9.226 -0.5131 -0.2518  0.1552
 4614SOL    HW225305   2.450   2.988   9.117 -0.3755 -3.0150 -1.2995
 4615SOL     OW25306   1.356   2.676   0.987  0.1249  0.4431 -0.3099
 4615SOL    HW125307   1.332   2.604   0.928  1.8350  0.6926 -1.3091
 4615SOL    HW225308   1.376   2.753   0.935  2.7258  0.6629  1.0106
 4616SOL     OW25309   2.816   1.405   7.310 -0.1029  0.1465  0.1149
 4616SOL    HW125310   2.890   1.448   7.352  0.7202 -1.1600 -0.0110
 4616SOL    HW225311   2.746   1.457   7.349 -0.8440 -0.0369 -0.9660
 4617SOL     OW25312   4.008   4.177   5.664 -0.0719  0.1768 -0.7198
 4617SOL    HW125313   3.950   4.124   5.719 -1.5825  2.9084  0.2839
 4617SOL    HW225314   4.035   4.108   5.604  0.2624 -0.8662  0.6160
 4618SOL     OW25315   4.665   3.469   6.499  0.8789 -0.1414  0.0487
 4618SOL    HW125316   4.685   3.385   6.539 -1.3314  0.7520  3.1038
 4618SOL    HW225317   0.006   3.476   6.427  0.9110 -2.4131 -0.1370
 4619SOL     OW25318   3.579   1.377   7.070 -0.1601  0.3998  0.1574
 4619SOL    HW125319   3.536   1.370   6.985  1.0596 -1.1561 -0.3422
 4619SOL    HW225320   3.560   1.293   7.112 -2.0144  1.4917  1.4705
 4620SOL     OW25321   0.003   4.583  12.682 -0.0641  0.2823 -0.0582
 4620SOL    HW125322   0.095   4.559  12.673 -0.2126  0.3805 -1.8224
 4620SOL    HW225323   4.712   4.634  12.602 -0.7191  0.3628  0.0936
 4621SOL     OW25324   2.214   1.173  16.307  0.1514  0.8349 -0.0449
 4621SOL    HW125325   2.162   1.112  16.255  1.0446  0.0378  0.0029
 4621SOL    HW225326   2.154   1.247  16.311  1.7687  2.1664 -0.0713
 4622SOL     OW25327   0.970   3.083  16.756  0.2339  0.0706  0.0590
 4622SOL    HW125328   0.962   2.990  16.740 -1.7561  0.6841 -2.4305
 4622SOL    HW225329   1.031   3.106  16.686  0.4547 -0.4185  0.0906
 4623SOL     OW25330   1.408   3.388  14.461 -0.4854 -0.1518 -0.6140
 4623SOL    HW125331   1.336   3.399  14.522 -1.0936 -1.8303 -1.0125
 4623SOL    HW225332   1.424   3.478  14.432 -3.0232 -0.2883 -2.4831
 4624SOL     OW25333   3.269   2.654  12.715  0.8009  0.1468  0.5835
 4624SOL    HW125334   3.295   2.565  12.739  1.8230 -0.0186 -1.1110
 4624SOL    HW225335   3.350   2.698  12.689 -0.0942  2.1709  1.2777
 4625SOL     OW25336   1.878   1.469   3.576  0.4726 -0.4314 -0.0710
 4625SOL    HW125337   1.914   1.506   3.495  0.5975  0.3483  0.3493
 4625SOL    HW225338   1.886   1.375   3.560  1.7644 -0.2418 -0.4971
 4626SOL     OW25339   1.576   2.127   5.361 -0.0073  0.5513  0.1268
 4626SOL    HW125340   1.609   2.139   5.450 -0.1957 -1.3239  0.4466
 4626SOL    HW225341   1.553   2.034   5.365 -0.0394  0.4825 -1.7317
 4627SOL     OW25342   1.387   1.987  15.886  0.5628  0.3261 -0.6394
 4627SOL    HW125343   1.390   1.962  15.793  2.1596  3.4131 -1.4105
 4627SOL    HW225344   1.382   1.895  15.915 -0.3091  1.1829  1.9104
 4628SOL     OW25345   1.088   2.587   4.518  0.3194  0.3635 -0.9544
 4628SOL    HW125346   1.167   2.544   4.484 -0.9833 -1.2436 -2.0079
 4628SOL    HW225347   1.113   2.598   4.609 -1.0054 -0.8729 -0.4493
 4629SOL     OW25348   0.496   3.961   7.658 -0.1239 -0.1286  0.3942
 4629SOL    HW125349   0.412   3.922   7.681 -0.0715 -0.8717 -0.6416
 4629SOL    HW225350   0.479   4.055   7.646  1.2830  0.2443  1.3230
 4630SOL     OW25351   0.095   0.171   0.541  0.0479  0.1862 -0.3758
 4630SOL    HW125352   0.097   0.079   0.517 -0.2967 -0.1234  0.7499
 4630SOL    HW225353   0.176   0.205   0.503  0.3887  1.8918  1.7944
 4631SOL     OW25354   0.045   0.719   5.875 -0.5887  0.3972  0.3023
 4631SOL    HW125355   0.075   0.802   5.910 -1.9315  1.8119 -1.9385
 4631SOL    HW225356   4.692   0.695   5.932  0.7725  1.4900  2.5384
 4632SOL     OW25357   0.978   0.340  16.599  0.0707  0.2747  0.6143
 4632SOL    HW125358   0.953   0.292  16.520  3.0319 -0.9424  0.4082
 4632SOL    HW225359   0.907   0.328  16.662  0.9957  0.4837  1.6924
 4633SOL     OW25360   1.811   4.077   0.061  0.2441 -0.0278 -0.4828
 4633SOL    HW125361   1.792   4.102   0.152  2.5067  0.6660 -0.1960
 4633SOL    HW225362   1.729   4.041   0.029  0.3248  1.6770 -2.6248
 4634SOL     OW25363   3.343   3.919   9.101 -0.0793 -0.8243  0.1357
 4634SOL    HW125364   3.387   4.001   9.075  0.7488 -1.6722 -1.1632
 4634SOL    HW225365   3.422   3.871   9.125 -0.0381 -0.8263 -0.0027
 4635SOL     OW25366   1.425   2.352   6.217 -1.0092  0.2281 -0.0549
 4635SOL    HW125367   1.346   2.314   6.179 -0.9614 -0.1568  0.2288
 4635SOL    HW225368   1.420   2.446   6.196 -2.1240 -0.0000 -0.8052
 4636SOL     OW25369   1.771   2.204   9.400 -0.3508 -0.0642  0.0932
 4636SOL    HW125370   1.824   2.273   9.360 -1.6866  2.3720  2.5037
 4636SOL    HW225371   1.697   2.256   9.431  0.0575 -1.6431  3.6030
 4637SOL     OW25372   0.957   0.192   4.975  1.0129  0.5060 -0.3311
 4637SOL    HW125373   1.050   0.170   4.968  0.8412 -0.2917 -0.1430
 4637SOL    HW225374   0.938   0.135   5.049 -1.2729  1.4356 -0.1971
 4638SOL     OW25375   1.598   0.106   1.708  0.2020 -0.0820 -0.2548
 4638SOL    HW125376   1.562   0.051   1.638 -0.2478 -0.5831  0.3663
 4638SOL    HW225377   1.644   0.173   1.657  0.1310 -1.2213 -1.8300
 4639SOL     OW25378   3.529   4.714   5.567  0.1200 -0.3339 -0.6745
 4639SOL    HW125379   3.563   0.052   5.634  0.2006  0.4859 -1.4365
 4639SOL    HW225380   3.548   0.045   5.489 -0.7234  0.7341 -0.1579
 4640SOL     OW25381   4.017   2.188  16.682  0.1215 -0.2649 -0.0476
 4640SOL    HW125382   4.100   2.233  16.695  1.2985 -2.1578 -0.9246
 4640SOL    HW225383   3.947   2.252  16.692 -0.3551 -0.6546 -0.8811
 4641SOL     OW25384   2.068   4.471   5.325  0.2701  0.5377 -0.3225
 4641SOL    HW125385   2.144   4.527   5.342  0.3669  0.4825 -0.5675
 4641SOL    HW225386   2.006   4.540   5.299  1.1072  1.5378  0.3715
 4642SOL     OW25387   1.148   2.171   0.475  0.2940 -0.1179  0.2736
 4642SOL    HW125388   1.148   2.120   0.556  0.9397 -1.1756 -0.3811
 4642SOL    HW225389   1.160   2.097   0.415  2.5908  0.7367 -0.3434
 4643SOL     OW25390   4.094   2.427   5.905  0.1702  0.0637  0.5037
 4643SOL    HW125391   4.018   2.371   5.885 -1.4903  1.6678  2.2718
 4643SOL    HW225392   4.160   2.358   5.901 -1.6385 -1.6601  0.2488
 4644SOL     OW25393   1.936   0.989  17.132  0.3264  0.0806 -0.2390
 4644SOL    HW125394   2.015   1.041  17.125  0.7897 -0.8441 -1.8752
 4644SOL    HW225395   1.890   1.037  17.063  1.7742  0.3964 -0.9759
 4645SOL     OW25396   4.119   1.289  11.503 -0.1242 -0.7831 -0.6749
 4645SOL    HW125397   4.024   1.285  11.488 -0.2320 -0.6225 -0.0236
 4645SOL    HW225398   4.135   1.317  11.413 -1.3198  0.5667 -0.4587
 4646SOL     OW25399   1.021   1.623   3.339 -0.7374  0.0052 -0.2006
 4646SOL    HW125400   0.927   1.633   3.325 -0.9622 -1.7961  0.1005
 4646SOL    HW225401   1.017   1.555   3.406  2.0333  1.1295  1.1406
 4647SOL     OW25402   1.174   3.819   7.146 -0.3879 -0.3871 -0.5696
 4647SOL    HW125403   1.096   3.774   7.177 -0.7079  0.2573 -0.4585
 4647SOL    HW225404   1.164   3.913   7.151 -1.5740 -0.5973  0.6831
 4648SOL     OW25405   0.311   0.175  12.050  0.4308 -0.2956  0.0788
 4648SOL    HW125406   0.375   0.112  12.015  0.1717  0.8942 -2.4926
 4648SOL    HW225407   0.298   0.229  11.972  2.9657 -1.6656 -1.3125
 4649SOL     OW25408   1.077   2.237   2.744  0.4282  0.3906 -0.1868
 4649SOL    HW125409   1.026   2.176   2.690 -0.7993 -0.0392  1.4718
 4649SOL    HW225410   1.111   2.186   2.817 -1.2260  1.0976  1.0766
 4650SOL     OW25411   1.848   1.514   5.128  0.9358 -0.2470  0.2538
 4650SOL    HW125412   1.777   1.530   5.066  0.1682 -3.9486  0.1211
 4650SOL    HW225413   1.811   1.559   5.204 -0.7739  1.3405 -1.5217
 4651SOL     OW25414   4.240   2.636   1.862  0.1066 -0.0577  0.2648
 4651SOL    HW125415   4.237   2.675   1.950 -1.6798 -0.1500  0.2350
 4651SOL    HW225416   4.293   2.560   1.887  2.7430  1.5115 -0.4899
 4652SOL     OW25417   4.376   3.819   4.464  0.4473  0.3224  1.0173
 4652SOL    HW125418   4.344   3.748   4.408  1.8829  0.6641 -0.2240
 4652SOL    HW225419   4.338   3.895   4.421 -0.3064 -1.4939 -1.5991
 4653SOL     OW25420   2.382   1.860   7.456 -0.1898  0.3557  0.3692
 4653SOL    HW125421   2.434   1.911   7.519  1.4281 -0.7977 -0.0180
 4653SOL    HW225422   2.374   1.925   7.387 -1.6056  0.6878  0.8583
 4654SOL     OW25423   1.305   2.549   4.068  0.6662  0.7003 -0.3021
 4654SOL    HW125424   1.279   2.505   3.987  0.4084 -1.5008  0.9807
 4654SOL    HW225425   1.370   2.486   4.099 -2.3514 -1.9589  0.5305
 4655SOL     OW25426   1.051   0.955   2.726 -0.3955 -0.3811 -0.1010
 4655SOL    HW125427   1.071   0.890   2.659 -3.6955 -1.4560 -0.0281
 4655SOL    HW225428   1.097   1.029   2.685  1.4752 -1.3369  0.2602
 4656SOL     OW25429   1.188   2.665   5.928  0.8559 -0.3535 -0.3800
 4656SOL    HW125430   1.107   2.682   5.881 -1.3264 -2.0706  2.7610
 4656SOL    HW225431   1.209   2.577   5.897  0.8488 -0.0755 -1.1712
 4657SOL     OW25432   0.243   3.138   3.531  0.0677 -0.0451 -0.2102
 4657SOL    HW125433   0.230   3.175   3.618 -0.2558  1.6870 -0.9841
 4657SOL    HW225434   0.174   3.073   3.531  0.1082 -0.0874 -2.3883
 4658SOL     OW25435   3.482   0.353  12.905 -0.0970 -0.6230 -0.1812
 4658SOL    HW125436   3.434   0.409  12.844 -1.0508 -0.1183  1.0421
 4658SOL    HW225437   3.408   0.312  12.948  1.0740 -0.9378  1.5425
 4659SOL     OW25438   0.521   2.479   7.118 -0.3245  0.2501  0.2682
 4659SOL    HW125439   0.552   2.534   7.190  0.5289  1.9116 -1.3612
 4659SOL    HW225440   0.485   2.403   7.164  1.0220  0.4626  1.6784
 4660SOL     OW25441   3.729   1.709   3.582 -0.2887 -0.2795  0.3103
 4660SOL    HW125442   3.640   1.704   3.618  0.5211 -1.5371  2.1038
 4660SOL    HW225443   3.782   1.700   3.661 -0.0994  1.3750  0.3753
 4661SOL     OW25444   3.739   4.381   0.498 -0.1786  0.4995  0.1839
 4661SOL    HW125445   3.830   4.406   0.479  0.0731 -0.2774  0.3769
 4661SOL    HW225446   3.707   4.358   0.410  0.2405 -0.4045  0.2664
 4662SOL     OW25447   4.086   2.968  15.083 -0.7129  0.6668  0.5677
 4662SOL    HW125448   4.178   2.967  15.113 -0.3795  0.1619 -0.4791
 4662SOL    HW225449   4.104   3.025  15.008  0.9181  0.2239  0.6094
 4663SOL     OW25450   4.036   4.005   1.038  0.0680  0.4721 -0.4726
 4663SOL    HW125451   3.976   4.028   0.968  1.3394  0.6773 -1.4864
 4663SOL    HW225452   4.014   3.912   1.049 -0.1066  0.4809 -0.7675
 4664SOL     OW25453   2.846   1.060   3.045 -0.0707 -0.1636 -0.3516
 4664SOL    HW125454   2.926   1.039   2.996  1.1009  3.7720 -0.1003
 4664SOL    HW225455   2.815   0.972   3.066  2.9117 -1.8679 -3.0087
 4665SOL     OW25456   0.546   3.800   7.186 -0.1573  0.2200  0.3651
 4665SOL    HW125457   0.458   3.760   7.187 -0.2326  0.3770 -1.9468
 4665SOL    HW225458   0.599   3.721   7.173 -0.2959  0.2562 -0.3723
 4666SOL     OW25459   2.968   1.064   9.152  0.6406  0.4645  0.2900
 4666SOL    HW125460   2.993   1.132   9.215  0.1772  0.3809  0.5681
 4666SOL    HW225461   2.949   0.989   9.207 -0.9445  1.5467  1.2297
 4667SOL     OW25462   1.799   1.265   4.874 -0.2616  0.6966  0.0951
 4667SOL    HW125463   1.883   1.224   4.855 -0.7309 -0.0233 -0.4261
 4667SOL    HW225464   1.771   1.301   4.790 -1.9809 -0.7707  0.0412
 4668SOL     OW25465   1.755   4.250  13.037  0.1924 -0.0087 -0.8337
 4668SOL    HW125466   1.803   4.226  12.957  0.9864  0.6350 -0.5589
 4668SOL    HW225467   1.755   4.345  13.024 -3.4048 -0.1025 -1.5074
 4669SOL     OW25468   1.945   3.973  11.452 -0.4444 -0.0023 -0.4099
 4669SOL    HW125469   1.922   4.056  11.411  0.4672 -0.1334 -1.2007
 4669SOL    HW225470   1.923   3.991  11.543  1.3502  2.0632 -0.3797
 4670SOL     OW25471   0.823   2.111   0.764 -0.0215 -0.1196 -0.1446
 4670SOL    HW125472   0.750   2.153   0.809  0.8003  0.3085  0.7887
 4670SOL    HW225473   0.888   2.182   0.773  1.3352 -1.8126  3.4236
 4671SOL     OW25474   1.881   3.257   1.662  0.1578 -0.1919 -0.3290
 4671SOL    HW125475   1.931   3.257   1.581  2.4677 -1.0078  1.0969
 4671SOL    HW225476   1.943   3.219   1.725  2.6297 -0.4895 -2.9472
 4672SOL     OW25477   4.424   3.126  17.615 -0.3648  0.2270 -0.3491
 4672SOL    HW125478   4.505   3.176  17.604 -0.6516  1.1895  1.9455
 4672SOL    HW225479   4.382   3.198  17.567  0.4343 -0.4901 -2.0979
 4673SOL     OW25480   3.954   4.519   5.366  0.0541 -0.3306  0.0430
 4673SOL    HW125481   4.041   4.538   5.330 -0.2395  1.6327  0.4037
 4673SOL    HW225482   3.941   4.576   5.441  0.0496 -0.7810  0.3848
 4674SOL     OW25483   3.071   3.453   8.715 -0.0003 -0.3209 -0.4234
 4674SOL    HW125484   3.085   3.444   8.621  0.5379 -0.8775 -0.2921
 4674SOL    HW225485   3.092   3.362   8.738  1.1849  0.1924  0.5391
 4675SOL     OW25486   1.604   0.254   4.903  0.1663 -0.5215  0.3004
 4675SOL    HW125487   1.666   0.320   4.872 -1.4996 -0.1041 -2.1076
 4675SOL    HW225488   1.639   0.223   4.987  0.1888 -1.9609 -0.2400
 4676SOL     OW25489   2.278   2.360   8.737 -1.0916 -0.0531  0.1580
 4676SOL    HW125490   2.332   2.437   8.752  0.2026 -0.5952 -1.7047
 4676SOL    HW225491   2.204   2.410   8.704  1.2944  2.8044 -0.8235
 4677SOL     OW25492   1.948   3.717   7.699  0.2127  0.6431 -0.1215
 4677SOL    HW125493   1.943   3.716   7.794 -0.9876  1.4736 -0.1811
 4677SOL    HW225494   1.918   3.807   7.690 -0.1197  0.6631  1.2316
 4678SOL     OW25495   0.033   4.136   5.810 -0.3296  0.2001  0.6251
 4678SOL    HW125496   4.667   4.097   5.807 -0.5614  0.8165 -0.6524
 4678SOL    HW225497   0.081   4.070   5.860 -0.6288 -0.7888 -0.3878
 4679SOL     OW25498   0.520   0.245   7.378 -0.1869  0.0518  0.1968
 4679SOL    HW125499   0.444   0.297   7.352 -0.9952 -0.5402  1.3606
 4679SOL    HW225500   0.593   0.306   7.379 -0.8410  0.8290  0.1494
 4680SOL     OW25501   0.433   0.051  12.698 -0.1139 -0.7103  0.3811
 4680SOL    HW125502   0.444   0.135  12.653  0.5699 -1.6376 -1.1688
 4680SOL    HW225503   0.512   0.030  12.748  0.7016  0.4299 -0.4262
 4681SOL     OW25504   0.001   0.459   5.998 -0.1161 -0.6956 -0.1118
 4681SOL    HW125505   4.667   0.515   6.052  0.1188 -1.3393  0.7978
 4681SOL    HW225506   0.070   0.519   5.970 -1.1772  0.7202  0.3458
 4682SOL     OW25507   2.274   4.203  10.192  0.2827  0.3520  0.0610
 4682SOL    HW125508   2.309   4.276  10.141  1.6314 -0.1852  0.2262
 4682SOL    HW225509   2.341   4.182  10.257 -0.1493 -0.3803  0.2750
 4683SOL     OW25510   3.441   1.971   0.451 -0.2319 -0.2002  0.1709
 4683SOL    HW125511   3.383   1.980   0.377  1.6078  1.2410 -1.1028
 4683SOL    HW225512   3.397   2.006   0.528 -1.5726  1.8197 -1.5507
 4684SOL     OW25513   3.582   4.469   3.447 -0.0985 -0.1489  0.0306
 4684SOL    HW125514   3.608   4.547   3.398  1.0645 -1.5629 -1.5934
 4684SOL    HW225515   3.507   4.501   3.498  1.5475  2.2464  0.9172
 4685SOL     OW25516   0.308   3.989   2.990  0.3395 -0.1016 -0.2247
 4685SOL    HW125517   0.304   3.914   2.932 -0.5408 -0.5414  0.4143
 4685SOL    HW225518   0.340   3.949   3.071  0.0551 -0.4196 -0.2711
 4686SOL     OW25519   2.457   0.058  15.404  0.3192 -0.1684  0.1086
 4686SOL    HW125520   2.452   4.689  15.434 -1.9867  0.1011  0.5242
 4686SOL    HW225521   2.489   0.095  15.487  1.8066 -1.6701  0.2038
 4687SOL     OW25522   1.543   0.166   2.985 -0.4179  0.2618  0.2930
 4687SOL    HW125523   1.571   0.222   2.913  0.1704 -0.6068 -0.1543
 4687SOL    HW225524   1.464   0.125   2.948 -1.0019  0.4476  1.3173
 4688SOL     OW25525   1.111   1.480   3.708  0.9237  0.0682  0.1108
 4688SOL    HW125526   1.090   1.514   3.795  1.0277  1.6510 -0.4852
 4688SOL    HW225527   1.157   1.557   3.675  2.0475 -0.4396  0.5166
 4689SOL     OW25528   3.849   1.826   2.170 -0.0767 -0.7264  0.5348
 4689SOL    HW125529   3.835   1.907   2.218  0.2895  0.7713 -1.8728
 4689SOL    HW225530   3.757   1.801   2.163  0.0859 -0.8440 -1.0738
 4690SOL     OW25531   1.752   3.759  16.492 -0.5080  0.0854  0.2020
 4690SOL    HW125532   1.833   3.786  16.535  0.3215  1.0316 -1.9329
 4690SOL    HW225533   1.688   3.828  16.506 -2.0532 -0.7749 -2.5295
 4691SOL     OW25534   2.275   1.885   7.889 -0.2448  0.1831  0.2739
 4691SOL    HW125535   2.316   1.808   7.928  0.0941  1.4150  2.3330
 4691SOL    HW225536   2.183   1.863   7.904  0.0816 -1.6283 -0.2897
 4692SOL     OW25537   2.081   4.147   2.569  0.0634  0.2147 -0.2254
 4692SOL    HW125538   2.138   4.078   2.603  0.6532 -0.2578 -2.1580
 4692SOL    HW225539   1.997   4.112   2.599  0.0022  0.3008 -0.2946
 4693SOL     OW25540   3.910   0.214   1.250 -0.5936  0.2517  0.3342
 4693SOL    HW125541   3.854   0.139   1.270 -2.8048  1.5000 -1.1230
 4693SOL    HW225542   3.901   0.217   1.155 -0.8627 -2.1445  0.2845
 4694SOL     OW25543   3.670   0.484   6.962  0.5582 -0.1293 -0.2920
 4694SOL    HW125544   3.706   0.560   6.916  1.0013 -0.1163  0.0770
 4694SOL    HW225545   3.666   0.515   7.052 -0.3131  0.5956 -0.5777
 4695SOL     OW25546   1.098   2.062  11.517 -0.7263  0.8824 -0.1082
 4695SOL    HW125547   1.032   2.116  11.561 -0.9754  0.2735  0.2567
 4695SOL    HW225548   1.051   1.981  11.535  2.0694 -0.1022  2.6956
 4696SOL     OW25549   3.845   3.832   8.561  0.3852 -0.1328  0.0857
 4696SOL    HW125550   3.787   3.807   8.634 -0.6575 -1.4426 -1.1976
 4696SOL    HW225551   3.920   3.861   8.612  1.0787 -0.3523 -0.8182
 4697SOL     OW25552   0.355   0.531  11.405  0.6263  0.4149 -0.1241
 4697SOL    HW125553   0.403   0.612  11.423 -0.8241  1.1972  0.2021
 4697SOL    HW225554   0.362   0.521  11.310 -2.3212  2.0998 -0.4883
 4698SOL     OW25555   2.425   0.081   3.642 -0.3514  0.4031 -0.0223
 4698SOL    HW125556   2.457   0.170   3.652 -1.3381  0.8424 -0.7960
 4698SOL    HW225557   2.436   0.051   3.733 -0.7792 -0.3076 -0.2023
 4699SOL     OW25558   0.323   3.629   6.223 -0.1456 -0.0418 -0.2925
 4699SOL    HW125559   0.417   3.623   6.242  0.1794 -0.6000 -2.0114
 4699SOL    HW225560   0.322   3.667   6.135  0.9153 -1.4364 -0.9110
 4700SOL     OW25561   2.377   2.564   6.950 -0.2400 -0.5240 -0.6949
 4700SOL    HW125562   2.440   2.575   6.878  0.9383 -1.5378  0.1806
 4700SOL    HW225563   2.353   2.654   6.975  1.6329 -0.1101 -0.3301
 4701SOL     OW25564   0.930   4.086  11.159 -0.2741 -0.0021 -0.2229
 4701SOL    HW125565   0.883   4.081  11.242  1.3951 -0.4984  0.6958
 4701SOL    HW225566   0.860   4.116  11.101 -3.1338  0.7419  3.6126
 4702SOL     OW25567   2.825   2.384   0.389  0.1862 -0.7162  0.7607
 4702SOL    HW125568   2.788   2.319   0.330 -0.6407  0.0508  0.4275
 4702SOL    HW225569   2.854   2.326   0.460 -0.2620 -0.9578  0.7485
 4703SOL     OW25570   1.718   1.616   5.359 -0.1112 -0.3515 -0.2539
 4703SOL    HW125571   1.787   1.586   5.417  0.0677 -2.1681 -1.4118
 4703SOL    HW225572   1.636   1.586   5.399 -0.7109  0.1846 -1.0652
 4704SOL     OW25573   3.987   4.148   7.606  0.1888  0.0451 -0.1537
 4704SOL    HW125574   3.963   4.161   7.698  1.5090  0.4758  0.1359
 4704SOL    HW225575   3.938   4.213   7.555 -0.2434 -0.0325  0.1663
 4705SOL     OW25576   2.585   0.482   3.846  0.0873 -0.1193  0.1001
 4705SOL    HW125577   2.658   0.427   3.875 -1.4200 -0.6406  2.8861
 4705SOL    HW225578   2.550   0.427   3.776 -0.3552  1.4028 -0.8786
 4706SOL     OW25579   0.619   1.111  13.251  0.2924 -0.1149 -0.2387
 4706SOL    HW125580   0.710   1.082  13.250  1.0765  2.4406 -2.1864
 4706SOL    HW225581   0.598   1.071  13.167 -1.1950 -1.5371  0.7891
 4707SOL     OW25582   2.871   0.064  10.296  0.1020 -0.3078 -0.0111
 4707SOL    HW125583   2.872   0.056  10.201  1.6730  2.7961 -0.2527
 4707SOL    HW225584   2.946   0.124  10.301  2.5804 -3.4551  0.0782
 4708SOL     OW25585   2.011   3.772   1.610  0.0184 -0.3273  0.7606
 4708SOL    HW125586   1.993   3.690   1.564  0.0161  0.3998 -0.5386
 4708SOL    HW225587   2.099   3.790   1.579 -0.3622 -0.8717 -0.6097
 4709SOL     OW25588   3.969   1.776  13.335 -0.0747 -0.2516  0.2247
 4709SOL    HW125589   4.029   1.702  13.348  2.2170  1.5857 -0.0124
 4709SOL    HW225590   3.956   1.774  13.240  3.9961 -0.1327 -0.3426
 4710SOL     OW25591   2.028   1.332   7.632 -0.3865 -0.1036  0.0109
 4710SOL    HW125592   2.098   1.276   7.665 -0.2052  0.4919  0.6480
 4710SOL    HW225593   2.008   1.305   7.542 -0.3467  1.0793 -0.3501
 4711SOL     OW25594   3.510   3.365   4.884 -0.0260  0.2617 -0.2817
 4711SOL    HW125595   3.453   3.439   4.906  0.3154  0.1370  1.0554
 4711SOL    HW225596   3.567   3.418   4.828  1.4411  0.7252  1.6540
 4712SOL     OW25597   1.340   4.139   0.474 -0.4416  0.1989  0.0294
 4712SOL    HW125598   1.355   4.149   0.568 -1.5780  0.8304  0.1365
 4712SOL    HW225599   1.415   4.184   0.436 -1.8106  2.4830  0.0621
 4713SOL     OW25600   0.074   2.976  15.997  0.2949 -0.0290 -0.3166
 4713SOL    HW125601   0.046   3.047  16.055 -0.5666 -1.3349  0.8680
 4713SOL    HW225602   0.079   3.025  15.915  0.9988  0.1510 -0.1636
 4714SOL     OW25603   4.387   2.690  11.928  0.1423 -0.1574 -0.2728
 4714SOL    HW125604   4.398   2.680  11.833 -0.8937  1.7807 -0.5922
 4714SOL    HW225605   4.292   2.702  11.934  0.3604  1.7043 -0.4530
 4715SOL     OW25606   4.267   4.424   8.152  0.0841 -0.4471 -0.5529
 4715SOL    HW125607   4.358   4.412   8.181  0.2259  0.8998 -0.4461
 4715SOL    HW225608   4.251   4.518   8.157 -0.8902 -0.6776  0.4863
 4716SOL     OW25609   2.773   2.447   7.620  0.0648  0.8337 -0.3487
 4716SOL    HW125610   2.785   2.354   7.600  0.2986  0.4848  1.4161
 4716SOL    HW225611   2.712   2.462   7.548  0.5707  0.8861 -0.7688
 4717SOL     OW25612   0.228   3.140   7.970 -0.6542  0.4394 -0.3850
 4717SOL    HW125613   0.227   3.079   8.044  0.9327  0.9149  0.0380
 4717SOL    HW225614   0.311   3.184   7.989  0.1478 -0.9041 -0.7201
 4718SOL     OW25615   2.696   2.618   1.600 -0.1425 -0.3578 -0.4426
 4718SOL    HW125616   2.724   2.583   1.685  0.8304 -1.3042 -1.1449
 4718SOL    HW225617   2.776   2.660   1.567  0.2450 -0.7330  0.0243
 4719SOL     OW25618   0.223   0.107   1.595  0.4105 -0.2073  0.0547
 4719SOL    HW125619   0.143   0.124   1.544  1.2015 -2.2920 -1.9160
 4719SOL    HW225620   0.288   0.153   1.542 -0.6418  2.1284  0.7880
 4720SOL     OW25621   4.205   3.268   1.551  0.5790  0.0190  0.4053
 4720SOL    HW125622   4.241   3.271   1.639 -0.3900  1.2434  0.7675
 4720SOL    HW225623   4.156   3.350   1.558 -0.4161 -0.7226  2.0882
 4721SOL     OW25624   1.014   4.249   8.242  0.5159  0.2414 -0.2386
 4721SOL    HW125625   1.051   4.167   8.275  0.1847 -0.2652 -1.1269
 4721SOL    HW225626   0.925   4.224   8.220 -0.2447  3.5083 -0.8450
 4722SOL     OW25627   2.191   0.245  17.528 -0.0942  0.2526  0.2337
 4722SOL    HW125628   2.171   0.339  17.521  0.8653  0.6097  2.2066
 4722SOL    HW225629   2.283   0.247  17.505 -0.0885  0.4595  0.2757
 4723SOL     OW25630   2.670   3.540   7.536  0.1185 -0.2042  0.1116
 4723SOL    HW125631   2.708   3.505   7.616 -0.1130  0.4334  0.5009
 4723SOL    HW225632   2.729   3.508   7.468 -0.0095  0.1201 -0.1544
 4724SOL     OW25633   1.099   0.487   7.186  0.0316 -0.3601 -0.0179
 4724SOL    HW125634   1.044   0.529   7.120  0.0544  3.2226  2.2588
 4724SOL    HW225635   1.046   0.412   7.210 -0.2454 -0.7266 -1.7373
 4725SOL     OW25636   3.116   2.071   2.771 -0.0136 -0.7940  0.1038
 4725SOL    HW125637   3.201   2.027   2.784 -0.0451 -0.3669  1.7572
 4725SOL    HW225638   3.057   2.004   2.804 -1.4626  0.6520  0.4155
 4726SOL     OW25639   3.680   3.272   5.151  0.5806 -0.5120 -0.0468
 4726SOL    HW125640   3.599   3.323   5.150  0.5536 -0.5444  0.4984
 4726SOL    HW225641   3.660   3.193   5.101 -0.4291 -0.4669  0.2790
 4727SOL     OW25642   4.267   3.440  13.210  0.4884  0.3300 -0.4387
 4727SOL    HW125643   4.313   3.372  13.161  0.3913 -0.7014  0.8906
 4727SOL    HW225644   4.243   3.509  13.148  2.3336 -0.5431 -2.0993
 4728SOL     OW25645   0.872   2.741   6.505  0.1361  0.5813  0.7659
 4728SOL    HW125646   0.962   2.711   6.498 -0.6086 -1.7431  0.9533
 4728SOL    HW225647   0.835   2.677   6.567 -2.0028 -1.8384 -2.9803
 4729SOL     OW25648   1.071   1.879   4.914  0.0678 -0.3779 -0.4890
 4729SOL    HW125649   1.076   1.939   4.989 -0.9299 -0.8196 -0.0734
 4729SOL    HW225650   1.130   1.922   4.852  0.1538 -0.3393 -0.3821
 4730SOL     OW25651   1.880   0.605  14.450  0.1776 -0.1719 -0.5277
 4730SOL    HW125652   1.924   0.609  14.535 -2.4795  0.0883  0.8381
 4730SOL    HW225653   1.796   0.566  14.474  0.3210  1.1607  2.1349
 4731SOL     OW25654   1.988   1.377   6.882 -0.1656  0.4423  0.0258
 4731SOL    HW125655   2.013   1.305   6.941 -0.1096  1.0872  0.7861
 4731SOL    HW225656   2.022   1.443   6.943  1.6356 -1.6672  1.3188
 4732SOL     OW25657   0.471   3.636   9.957 -0.7637  0.2379 -0.6272
 4732SOL    HW125658   0.377   3.624   9.943 -0.8944 -0.8821  1.2142
 4732SOL    HW225659   0.512   3.565   9.909  1.6035  0.9823  0.2814
 4733SOL     OW25660   3.457   2.296   3.064  0.6423  0.4291  0.1533
 4733SOL    HW125661   3.484   2.205   3.062  2.8448  1.0303  1.7255
 4733SOL    HW225662   3.541   2.343   3.067  0.1757  1.2158  1.2430
 4734SOL     OW25663   1.068   0.519   9.026 -0.4538 -0.0476 -0.0606
 4734SOL    HW125664   1.149   0.570   9.025 -0.1216 -0.5901 -1.2731
 4734SOL    HW225665   1.022   0.556   8.950 -1.2592  1.3260  1.0841
 4735SOL     OW25666   4.067   0.390   7.069  0.5875 -0.7273 -0.0462
 4735SOL    HW125667   4.103   0.468   7.112 -1.9364  1.0924 -1.2559
 4735SOL    HW225668   4.031   0.346   7.146 -0.3928 -1.4384 -0.9112
 4736SOL     OW25669   1.415   3.589   1.970  0.1887  0.0057  0.3864
 4736SOL    HW125670   1.424   3.632   1.885  1.0633 -1.3403 -0.1873
 4736SOL    HW225671   1.493   3.622   2.014 -0.2094  0.3061  0.8745
 4737SOL     OW25672   3.905   4.563   0.250  0.4090  0.0433  0.0155
 4737SOL    HW125673   3.818   4.540   0.283  1.3411  0.5517  2.8408
 4737SOL    HW225674   3.916   4.490   0.188  0.2941  0.8395 -0.9390
 4738SOL     OW25675   1.220   3.019   5.338  0.5877  0.8023  0.0915
 4738SOL    HW125676   1.127   2.998   5.345  0.8450 -0.1382  0.7258
 4738SOL    HW225677   1.216   3.109   5.369 -3.9515  0.0750  1.5850
 4739SOL     OW25678   0.105   0.080   3.306  0.2640 -0.3188  0.2604
 4739SOL    HW125679   0.133   0.154   3.359  0.3160 -1.4485  1.8153
 4739SOL    HW225680   0.078   0.023   3.378 -0.9247  0.0797  0.1235
 4740SOL     OW25681   2.559   0.835  14.667  0.5193  0.4235  0.1192
 4740SOL    HW125682   2.519   0.865  14.585 -0.3847 -0.1954  0.3286
 4740SOL    HW225683   2.649   0.866  14.656  0.7230 -0.5014 -0.8626
 4741SOL     OW25684   3.067   2.563   0.807 -0.0129 -0.1483  0.0512
 4741SOL    HW125685   2.983   2.528   0.836 -0.4837  2.3504  1.7534
 4741SOL    HW225686   3.045   2.656   0.799  2.4426  0.5914  2.0951
 4742SOL     OW25687   4.166   0.583   2.105 -0.7080  0.1473  0.0630
 4742SOL    HW125688   4.122   0.604   2.023  0.0325  1.2754 -0.0563
 4742SOL    HW225689   4.248   0.631   2.093 -1.3539  0.9489 -1.1375
 4743SOL     OW25690   1.182   0.601  12.281 -0.3119 -0.0228  0.2870
 4743SOL    HW125691   1.112   0.643  12.332  0.2374  2.8753 -1.3011
 4743SOL    HW225692   1.146   0.572  12.198  1.5180 -1.7764  0.1115
 4744SOL     OW25693   1.576   0.090   7.329  0.1595 -0.3347 -0.0462
 4744SOL    HW125694   1.481   0.079   7.338 -0.0469  2.4340  1.0425
 4744SOL    HW225695   1.608   0.024   7.391 -0.5737  0.5956  1.2957
 4745SOL     OW25696   0.731   2.912   5.912  0.2838 -0.5316  0.2945
 4745SOL    HW125697   0.727   3.005   5.931 -0.6298 -0.5281  0.0828
 4745SOL    HW225698   0.662   2.873   5.966 -1.6338  1.8590 -0.4280
 4746SOL     OW25699   2.750   3.185   2.939  0.0966 -0.5074 -0.8989
 4746SOL    HW125700   2.727   3.178   3.032 -3.2957 -2.6051 -1.8880
 4746SOL    HW225701   2.754   3.093   2.915  1.4505 -0.4759 -0.7959
 4747SOL     OW25702   3.282   1.994   7.547 -0.3466 -0.3084  0.1042
 4747SOL    HW125703   3.232   2.040   7.613  1.5130  0.4781  0.9438
 4747SOL    HW225704   3.353   1.956   7.598  0.6795 -1.3017 -2.0452
 4748SOL     OW25705   0.268   3.479  10.276 -0.2581  0.2925 -0.1387
 4748SOL    HW125706   0.321   3.445  10.204 -1.4039 -0.5740 -0.5788
 4748SOL    HW225707   0.295   3.418  10.345 -2.2761  1.5191  1.7488
 4749SOL     OW25708   4.024   3.578   9.006  0.3056 -0.1094  0.6024
 4749SOL    HW125709   4.043   3.491   8.970  0.3864  1.4429 -3.1240
 4749SOL    HW225710   4.026   3.558   9.100 -0.4716 -1.5536  0.3177
 4750SOL     OW25711   1.001   3.527   8.343 -0.9479 -0.2033  0.2431
 4750SOL    HW125712   1.034   3.439   8.363 -0.1750  0.3230  1.2712
 4750SOL    HW225713   1.060   3.562   8.276 -0.4927 -0.0733  0.7131
 4751SOL     OW25714   1.243   3.886   3.083  0.3152 -0.4470 -0.6952
 4751SOL    HW125715   1.258   3.862   2.992  1.0584 -0.8425 -0.4659
 4751SOL    HW225716   1.154   3.852   3.090  0.6938 -1.2589  0.1130
 4752SOL     OW25717   2.234   1.140   6.056  0.1470  0.1794 -0.1048
 4752SOL    HW125718   2.291   1.132   6.132  0.2530  0.2485 -0.1774
 4752SOL    HW225719   2.143   1.123   6.082  1.0012 -1.5836  1.6858
 4753SOL     OW25720   3.074   3.505   0.348  0.4766 -0.5430  0.2079
 4753SOL    HW125721   3.160   3.467   0.328  0.9645  0.6117  0.1102
 4753SOL    HW225722   3.030   3.427   0.382 -1.2496  1.2549  2.0332
 4754SOL     OW25723   2.669   1.234   6.606 -0.1560 -0.0742 -0.2863
 4754SOL    HW125724   2.660   1.213   6.513  1.0270  0.4406 -0.5202
 4754SOL    HW225725   2.704   1.323   6.606 -0.2022 -0.0551 -0.5273
 4755SOL     OW25726   2.582   0.667   7.030 -0.2456 -0.3165  0.1699
 4755SOL    HW125727   2.666   0.641   7.067  0.0964  0.6628  0.0869
 4755SOL    HW225728   2.592   0.758   7.003  0.5224 -0.2422  0.7093
 4756SOL     OW25729   1.016   1.766   5.530 -0.2010 -0.7413 -0.1346
 4756SOL    HW125730   0.988   1.682   5.569  1.0830 -0.3553  1.6312
 4756SOL    HW225731   1.104   1.775   5.567  0.0471  0.4237 -1.0112
 4757SOL     OW25732   2.695   3.451   7.073  0.1674 -0.1949 -0.5935
 4757SOL    HW125733   2.660   3.540   7.068  1.1068  0.2069 -0.0316
 4757SOL    HW225734   2.641   3.401   7.011 -0.0724 -0.8500  0.1386
 4758SOL     OW25735   1.984   3.314  13.349  0.1068 -0.0389 -0.7035
 4758SOL    HW125736   1.966   3.331  13.256  0.4057 -0.2426 -0.8022
 4758SOL    HW225737   1.995   3.401  13.387  1.6268 -1.5952  2.3948
 4759SOL     OW25738   2.278   3.457   3.655 -0.1427  0.4678 -0.0735
 4759SOL    HW125739   2.280   3.494   3.567  0.9886  0.5091 -0.0239
 4759SOL    HW225740   2.371   3.459   3.677 -0.2811 -0.2171  0.5888
 4760SOL     OW25741   1.814   2.959  13.615  0.1893 -0.4345  0.5718
 4760SOL    HW125742   1.899   3.001  13.632  0.4437 -0.9592  0.6126
 4760SOL    HW225743   1.805   2.997  13.528 -0.5691  0.1315  0.8992
 4761SOL     OW25744   3.001   0.020   3.699 -0.4801 -0.0576 -0.4748
 4761SOL    HW125745   3.090   0.046   3.724 -1.3272  2.3522  0.0388
 4761SOL    HW225746   2.958   0.040   3.782  1.0185 -0.8703  0.4985
 4762SOL     OW25747   0.763   2.095   8.464  0.1005  1.0340  0.2855
 4762SOL    HW125748   0.821   2.157   8.507  1.0146  0.1796  0.2891
 4762SOL    HW225749   0.714   2.164   8.419 -0.8006  0.6784  0.7113
 4763SOL     OW25750   2.318   0.356   7.600  0.4782 -0.1036 -0.0109
 4763SOL    HW125751   2.363   0.300   7.536  1.5611  1.2210 -0.4232
 4763SOL    HW225752   2.330   0.438   7.551  0.5349 -0.8037 -1.1781
 4764SOL     OW25753   2.405   2.344   9.939 -0.3203 -0.0047  0.0917
 4764SOL    HW125754   2.311   2.353   9.921 -0.4677  0.5075  1.1012
 4764SOL    HW225755   2.446   2.408   9.882  2.1651 -1.6265  0.0407
 4765SOL     OW25756   2.699   0.676   3.966 -0.2483 -0.0792  0.6843
 4765SOL    HW125757   2.774   0.650   3.912 -0.9511  2.6103 -1.5822
 4765SOL    HW225758   2.640   0.606   3.941  1.1146 -1.2576  0.7744
 4766SOL     OW25759   2.359   4.653   0.452  0.4570 -0.1236  0.3783
 4766SOL    HW125760   2.269   4.680   0.436  0.4255 -1.3647 -1.4839
 4766SOL    HW225761   2.379   4.627   0.362 -2.6380 -1.6379  0.1585
 4767SOL     OW25762   3.655   1.759   8.181  0.4031  0.0605  0.1235
 4767SOL    HW125763   3.642   1.718   8.095  0.0825  2.4580 -0.9775
 4767SOL    HW225764   3.741   1.802   8.171  0.5162 -0.8826 -3.1624
 4768SOL     OW25765   0.414   2.596  13.522  0.3015 -0.6059 -0.1036
 4768SOL    HW125766   0.481   2.529  13.532  0.0556 -1.0388 -1.3375
 4768SOL    HW225767   0.366   2.591  13.604  0.6855 -1.1572  0.0912
 4769SOL     OW25768   1.379   3.468   1.208  0.4136 -0.2419 -0.2054
 4769SOL    HW125769   1.321   3.431   1.141 -0.6692  2.6396 -0.8889
 4769SOL    HW225770   1.465   3.462   1.166  0.2676 -1.3144 -0.3417
 4770SOL     OW25771   3.958   1.562  17.250  0.1930  0.0576  0.2828
 4770SOL    HW125772   4.038   1.538  17.298  1.3225  0.3796 -1.4452
 4770SOL    HW225773   3.966   1.656  17.264 -3.8609  0.2409  1.2162
 4771SOL     OW25774   0.492   4.174  13.567 -0.6309 -0.2613  0.1720
 4771SOL    HW125775   0.444   4.109  13.618 -2.3812  1.7570  1.1061
 4771SOL    HW225776   0.416   4.228  13.545 -0.5203  0.4162  1.4240
 4772SOL     OW25777   3.408   0.422   2.121 -0.3922 -0.8669  0.0271
 4772SOL    HW125778   3.490   0.424   2.171 -0.1433 -0.5371 -0.4006
 4772SOL    HW225779   3.416   0.490   2.054  0.7821 -0.5739  0.4605
 4773SOL     OW25780   1.448   4.401  10.033 -0.3938 -0.0317 -0.2952
 4773SOL    HW125781   1.529   4.402  10.085  0.7102 -1.9384 -1.9782
 4773SOL    HW225782   1.463   4.480   9.980  2.4706 -0.8648 -0.7500
 4774SOL     OW25783   4.004   1.272   4.799 -0.3966  0.4872  0.2665
 4774SOL    HW125784   4.096   1.251   4.815 -0.7791 -1.3485  0.0290
 4774SOL    HW225785   3.982   1.309   4.884 -1.6787  2.2057 -0.8025
 4775SOL     OW25786   2.329   1.759   0.521  0.0041 -0.0921  0.1215
 4775SOL    HW125787   2.237   1.735   0.519 -0.6288  2.4784 -1.1180
 4775SOL    HW225788   2.346   1.760   0.616  0.4539 -0.0805  0.0429
 4776SOL     OW25789   0.573   0.756   8.132  0.1248  0.1368  0.3450
 4776SOL    HW125790   0.617   0.696   8.072 -1.7882  0.5622 -1.4882
 4776SOL    HW225791   0.605   0.835   8.089  0.4980  0.1756  0.6937
 4777SOL     OW25792   4.021   2.273   7.043  0.1510 -0.3789 -0.5277
 4777SOL    HW125793   4.114   2.287   7.026  0.2644 -0.4994  0.0021
 4777SOL    HW225794   4.025   2.180   7.067  0.3412 -0.6091 -1.4455
 4778SOL     OW25795   3.565   0.400  15.117 -0.0224 -0.4121 -0.0762
 4778SOL    HW125796   3.645   0.361  15.080  0.3866  1.4851 -1.1707
 4778SOL    HW225797   3.511   0.321  15.118  1.0515 -1.1815 -2.0746
 4779SOL     OW25798   1.610   4.642   3.114 -0.3612 -0.2414  0.4267
 4779SOL    HW125799   1.610   4.715   3.052  2.2197  1.0334  1.9274
 4779SOL    HW225800   1.683   4.671   3.169 -1.2594 -3.3937  3.2790
 4780SOL     OW25801   2.304   0.513   8.997  0.4430 -0.3110 -0.0782
 4780SOL    HW125802   2.321   0.430   9.040  0.5432  0.0936  0.6692
 4780SOL    HW225803   2.215   0.524   9.031  0.3010 -0.0897 -0.5273
 4781SOL     OW25804   4.444   3.380   5.194  0.5877  0.1287  0.4281
 4781SOL    HW125805   4.427   3.381   5.100  0.1623 -1.2079  0.5022
 4781SOL    HW225806   4.510   3.450   5.195  0.5911  0.1196  1.5423
 4782SOL     OW25807   4.134   4.196   8.841 -0.3463  0.2599  0.1022
 4782SOL    HW125808   4.065   4.145   8.884 -1.0304  0.9279 -0.1974
 4782SOL    HW225809   4.148   4.144   8.763  0.0369 -1.2517  1.1836
 4783SOL     OW25810   1.619   3.633   8.741  0.6215  0.6220  0.4226
 4783SOL    HW125811   1.647   3.627   8.833  0.2118 -0.2277  0.4973
 4783SOL    HW225812   1.566   3.712   8.742  2.1617  1.6320  1.9141
 4784SOL     OW25813   4.007   2.363   7.311 -0.3499  0.3676  0.5786
 4784SOL    HW125814   3.997   2.339   7.219  3.0272  0.1315  0.2958
 4784SOL    HW225815   4.092   2.326   7.336 -0.3361  0.8095  1.2015
 4785SOL     OW25816   1.387   2.103   3.973 -0.1200 -0.4396 -0.1346
 4785SOL    HW125817   1.439   2.061   4.042  0.8014  0.6561 -0.1644
 4785SOL    HW225818   1.381   2.191   4.009 -3.9142 -1.5035  1.8220
 4786SOL     OW25819   2.015   0.305  12.945  0.1490 -0.0424  0.5507
 4786SOL    HW125820   1.955   0.280  12.875  1.3206 -0.2114 -0.3890
 4786SOL    HW225821   1.966   0.268  13.018  0.5522 -2.3068 -0.3483
 4787SOL     OW25822   3.548   1.026  13.188 -0.1522  0.3351  0.2641
 4787SOL    HW125823   3.594   1.106  13.212  2.0401 -1.5762  2.4178
 4787SOL    HW225824   3.492   1.003  13.262 -1.2587 -2.2896 -1.3732
 4788SOL     OW25825   1.151   1.340   1.966  0.4642 -0.0254 -0.0875
 4788SOL    HW125826   1.136   1.341   1.872 -1.6492  1.9795  0.2681
 4788SOL    HW225827   1.061   1.343   1.998 -0.6862 -0.6064 -3.2551
 4789SOL     OW25828   2.356   1.466   2.233  0.1236 -0.6009 -0.1940
 4789SOL    HW125829   2.368   1.556   2.264 -0.8761 -0.7211  0.5214
 4789SOL    HW225830   2.434   1.453   2.178  0.6202  1.1565  0.1068
 4790SOL     OW25831   1.215   0.386  13.478 -0.7054  0.1003  0.0128
 4790SOL    HW125832   1.270   0.384  13.400  0.6906 -2.9200  1.1023
 4790SOL    HW225833   1.279   0.387  13.549 -0.4387 -1.3159 -0.2068
 4791SOL     OW25834   3.109   2.328   7.458 -0.0625  0.0911  0.7104
 4791SOL    HW125835   3.135   2.264   7.392  0.4005  1.0567 -0.0452
 4791SOL    HW225836   3.063   2.272   7.520  0.1357 -1.1065 -0.2368
 4792SOL     OW25837   2.743   2.951   3.869  0.4295  0.4034 -0.0940
 4792SOL    HW125838   2.800   2.876   3.853  1.5268  1.2696 -0.2646
 4792SOL    HW225839   2.668   2.899   3.897  0.9097 -1.7965 -2.8798
 4793SOL     OW25840   0.705   0.481   4.847 -0.3410 -0.0904  0.0728
 4793SOL    HW125841   0.674   0.391   4.836  0.0377 -0.2212  0.1000
 4793SOL    HW225842   0.628   0.532   4.822 -0.2824 -1.5912 -3.1839
 4794SOL     OW25843   3.345   0.749   2.349  0.0453  0.1117 -0.4458
 4794SOL    HW125844   3.415   0.686   2.361  0.6535  0.9410  0.3958
 4794SOL    HW225845   3.331   0.739   2.255 -0.7101 -0.7353 -0.2377
 4795SOL     OW25846   3.733   0.661  15.360  0.1843  0.3584  0.6005
 4795SOL    HW125847   3.642   0.689  15.365  0.2872  0.8807 -0.4062
 4795SOL    HW225848   3.753   0.662  15.267 -1.9389  0.0399  0.1356
 4796SOL     OW25849   2.833   3.564   3.217 -0.3426 -0.2517  0.0847
 4796SOL    HW125850   2.812   3.657   3.226 -0.1019  0.0812 -2.7794
 4796SOL    HW225851   2.901   3.567   3.150  1.0299  0.6370  1.5111
 4797SOL     OW25852   3.478   0.422   4.225  0.6960 -0.1550 -0.3402
 4797SOL    HW125853   3.418   0.496   4.217  1.3973  0.5104  0.5906
 4797SOL    HW225854   3.461   0.375   4.143 -2.7222 -0.2989  0.4589
 4798SOL     OW25855   0.251   3.833   7.580 -0.5063 -0.6620 -0.3864
 4798SOL    HW125856   0.222   3.915   7.541 -1.8994 -0.8944  0.1612
 4798SOL    HW225857   0.246   3.774   7.504  1.3781  0.7339 -1.5805
 4799SOL     OW25858   0.896   4.236  15.174 -0.7060 -0.0481 -0.5861
 4799SOL    HW125859   0.927   4.301  15.110  1.0600 -1.9616 -1.6849
 4799SOL    HW225860   0.801   4.241  15.161 -0.6392  2.7819 -0.0510
 4800SOL     OW25861   4.452   0.186   5.706 -0.4315 -0.1742  0.3616
 4800SOL    HW125862   4.543   0.167   5.729 -0.2787 -0.3464 -0.3749
 4800SOL    HW225863   4.476   0.232   5.626  2.8738 -0.6554  1.0949
 4801SOL     OW25864   0.403   0.231   5.370  0.4230 -0.2523  0.0817
 4801SOL    HW125865   0.430   0.225   5.462  1.1173  0.7065 -0.0748
 4801SOL    HW225866   0.487   0.216   5.327  0.4971 -1.7568  0.7095
 4802SOL     OW25867   0.944   3.011   4.407 -0.0874  0.5459 -0.2259
 4802SOL    HW125868   0.928   2.917   4.402 -1.3714  0.7313  0.1788
 4802SOL    HW225869   0.911   3.029   4.319  0.2248 -1.0020 -0.6505
 4803SOL     OW25870   0.751   2.758   9.929  0.3408  0.3062  0.0386
 4803SOL    HW125871   0.811   2.714   9.870 -1.2525 -0.9676 -0.6237
 4803SOL    HW225872   0.708   2.807   9.860  0.1806 -2.5497 -1.8778
 4804SOL     OW25873   0.120   1.638   9.399  0.6969 -0.8665  0.3582
 4804SOL    HW125874   0.117   1.544   9.417  1.3203 -0.4181  2.7488
 4804SOL    HW225875   0.191   1.635   9.335  0.9661 -4.2783  0.8236
 4805SOL     OW25876   2.698   3.686  15.869 -0.8824  0.0737 -0.0541
 4805SOL    HW125877   2.666   3.597  15.885 -0.8414  0.0509 -0.1012
 4805SOL    HW225878   2.788   3.662  15.849 -1.0896 -1.1924  0.5052
 4806SOL     OW25879   2.486   3.509   9.075 -0.9078 -0.6317 -0.2913
 4806SOL    HW125880   2.440   3.580   9.030  1.4350 -0.0133 -1.7029
 4806SOL    HW225881   2.468   3.429   9.026 -3.7571  1.3074 -2.4021
 4807SOL     OW25882   2.170   4.233  11.861  0.7262 -0.1246  0.0214
 4807SOL    HW125883   2.111   4.272  11.925  2.0925  1.0287  0.5520
 4807SOL    HW225884   2.231   4.303  11.840  0.6410  0.2911  1.2215
 4808SOL     OW25885   4.698   2.035   9.804 -0.0185  0.4855  0.5408
 4808SOL    HW125886   4.695   2.011   9.896  0.9420 -3.2515 -0.3807
 4808SOL    HW225887   4.692   2.129   9.815 -0.1043  0.7431 -1.5796
 4809SOL     OW25888   2.978   0.575   3.346  0.0173  0.2649 -0.0177
 4809SOL    HW125889   2.921   0.571   3.269  1.4273  0.8921 -1.0972
 4809SOL    HW225890   3.035   0.503   3.317  0.7048  0.6655  0.3280
 4810SOL     OW25891   2.955   0.545  11.560  0.0864  0.0498 -0.2369
 4810SOL    HW125892   3.010   0.592  11.623 -0.9448  0.9917 -0.0459
 4810SOL    HW225893   2.986   0.455  11.572  1.2487  0.6936  1.5958
 4811SOL     OW25894   0.447   0.724   2.146 -0.2098  0.4252  0.4258
 4811SOL    HW125895   0.410   0.671   2.075  4.8398 -0.2241 -1.7846
 4811SOL    HW225896   0.531   0.677   2.150 -0.3788  0.0334 -0.4583
 4812SOL     OW25897   1.115   0.247   9.451  0.5114 -0.0505  0.6928
 4812SOL    HW125898   1.069   0.326   9.424 -1.5232 -1.3412  0.3985
 4812SOL    HW225899   1.201   0.280   9.477  0.9592 -1.1577  0.6405
 4813SOL     OW25900   4.181   3.873  11.704  0.1180 -0.2293 -0.0163
 4813SOL    HW125901   4.129   3.798  11.734  1.3249 -1.3928 -0.8305
 4813SOL    HW225902   4.183   3.946  11.766 -1.1747  0.0457 -0.2975
 4814SOL     OW25903   0.618   1.327   6.657 -0.4480  0.1531 -0.1572
 4814SOL    HW125904   0.544   1.338   6.598 -2.3051  1.8368  2.5023
 4814SOL    HW225905   0.685   1.309   6.590  0.3112  0.3350  0.5500
 4815SOL     OW25906   4.151   2.002   5.417  0.8386 -0.4262  0.4979
 4815SOL    HW125907   4.064   2.010   5.457  1.6588 -1.5279  2.5103
 4815SOL    HW225908   4.140   2.031   5.326  0.8345 -0.7229  0.4057
 4816SOL     OW25909   1.136   1.086   9.251 -0.0494 -0.3310  0.2730
 4816SOL    HW125910   1.144   1.060   9.159 -1.3214  0.4802 -0.0655
 4816SOL    HW225911   1.084   1.166   9.247 -0.6930 -0.7624 -0.0867
 4817SOL     OW25912   1.681   0.010  17.462  0.4092 -0.2759  0.1976
 4817SOL    HW125913   1.610   4.668  17.452  0.2572 -0.2066  0.8106
 4817SOL    HW225914   1.746   4.670  17.498 -0.1117 -1.3719 -0.7332
 4818SOL     OW25915   1.684   3.481   1.727 -0.5384 -0.5508 -0.7800
 4818SOL    HW125916   1.611   3.542   1.720  1.7122  2.5343  2.1844
 4818SOL    HW225917   1.757   3.540   1.750 -0.3524 -0.9595 -0.3052
 4819SOL     OW25918   3.519   0.785  10.112  0.7521  0.1294 -0.3313
 4819SOL    HW125919   3.541   0.855  10.051  0.6746  0.4555  0.0163
 4819SOL    HW225920   3.450   0.730  10.074  0.9444 -1.5535  1.7619
 4820SOL     OW25921   0.425   4.437   3.974  0.1147 -0.0841 -0.3143
 4820SOL    HW125922   0.475   4.429   4.055 -1.2174 -0.6461  0.4537
 4820SOL    HW225923   0.334   4.430   4.004  1.2657 -3.1782  2.3808
 4821SOL     OW25924   0.181   4.366   1.754 -0.2215 -0.3277  0.1501
 4821SOL    HW125925   0.183   4.386   1.847 -0.1234  1.9237 -0.3292
 4821SOL    HW225926   0.229   4.444   1.727  0.3028 -0.5199  0.5371
 4822SOL     OW25927   4.295   2.528   6.057  0.5061 -0.2621  0.0858
 4822SOL    HW125928   4.263   2.547   6.146 -0.3605 -1.4484  0.0271
 4822SOL    HW225929   4.217   2.491   6.016 -0.6125  1.4135  0.7079
 4823SOL     OW25930   4.038   4.211   6.888  0.1373  0.0219  0.6133
 4823SOL    HW125931   3.961   4.155   6.895 -0.6116  0.5632 -3.3387
 4823SOL    HW225932   3.996   4.296   6.900 -1.8718 -0.9760  0.7260
 4824SOL     OW25933   4.397   3.465  15.146 -0.3434 -0.0531 -0.2706
 4824SOL    HW125934   4.354   3.543  15.111 -0.9217  0.0824  0.7547
 4824SOL    HW225935   4.489   3.489  15.134 -0.1682  0.7637  2.6384
 4825SOL     OW25936   2.309   0.957   4.105 -0.3340 -0.2001  0.6764
 4825SOL    HW125937   2.284   0.883   4.051  3.1425 -0.8058 -0.1214
 4825SOL    HW225938   2.360   0.903   4.165 -1.3014 -2.0133 -0.1655
 4826SOL     OW25939   1.820   1.342   2.615  0.1354  0.3534  0.1501
 4826SOL    HW125940   1.866   1.269   2.657 -1.3383  0.7053  2.3311
 4826SOL    HW225941   1.868   1.419   2.647 -1.2592  0.1200  2.7596
 4827SOL     OW25942   2.270   1.985   5.214 -0.6688  0.0483 -0.2017
 4827SOL    HW125943   2.259   1.902   5.261 -1.3165  0.7356  0.8701
 4827SOL    HW225944   2.324   2.023   5.284 -0.8238  0.3272 -0.2373
 4828SOL     OW25945   2.481   3.808   5.215 -0.7583  0.3948  0.2420
 4828SOL    HW125946   2.479   3.749   5.139  0.8699  0.9055 -0.1761
 4828SOL    HW225947   2.417   3.876   5.196 -1.8717 -0.3773  1.2007
 4829SOL     OW25948   2.224   3.982   4.830  0.3001 -1.3706  0.4067
 4829SOL    HW125949   2.162   4.054   4.842  3.1756  1.2519 -0.3591
 4829SOL    HW225950   2.248   3.969   4.922 -3.3884  0.0132  1.5325
 4830SOL     OW25951   1.478   3.707  13.731  0.1567  0.0695  0.2153
 4830SOL    HW125952   1.505   3.787  13.775  1.9421 -0.1722 -0.4512
 4830SOL    HW225953   1.456   3.734  13.642  1.1572 -3.2561 -1.0425
 4831SOL     OW25954   2.088   2.939   8.484 -0.0617  0.0922  0.0769
 4831SOL    HW125955   2.021   2.894   8.535 -0.1010 -0.6537 -0.6285
 4831SOL    HW225956   2.105   2.864   8.426 -1.2613 -1.2425  1.4442
 4832SOL     OW25957   1.364   2.157   8.870  0.0891 -0.0868 -0.1251
 4832SOL    HW125958   1.366   2.168   8.965 -2.0629  0.8791 -0.1833
 4832SOL    HW225959   1.448   2.112   8.857 -0.6873 -1.9737  1.3630
 4833SOL     OW25960   1.262   2.599  14.223 -0.4821 -0.6428  0.1334
 4833SOL    HW125961   1.218   2.660  14.283 -1.0566 -0.9798  0.0584
 4833SOL    HW225962   1.180   2.550  14.213 -1.2301  0.7072 -0.3391
 4834SOL     OW25963   3.028   3.676   8.854 -0.4696  0.3451  0.6930
 4834SOL    HW125964   3.047   3.601   8.799 -1.2916 -0.4055  1.4295
 4834SOL    HW225965   2.956   3.643   8.909 -0.1205  3.0527  2.7966
 4835SOL     OW25966   0.374   0.516  10.210  0.3133 -0.5462 -0.6425
 4835SOL    HW125967   0.340   0.606  10.207  0.1268 -0.5552  0.9671
 4835SOL    HW225968   0.294   0.470  10.186  0.0171 -1.7026  2.5182
 4836SOL     OW25969   4.404   1.010   3.922 -0.0679  0.2347  0.1443
 4836SOL    HW125970   4.466   1.042   3.987  0.2859 -0.3953  0.1141
 4836SOL    HW225971   4.433   1.032   3.834  1.5417 -0.1669  0.5888
 4837SOL     OW25972   0.462   2.602   6.534 -0.4058 -0.4112 -0.4187
 4837SOL    HW125973   0.447   2.507   6.539 -0.4222 -0.3921 -0.1233
 4837SOL    HW225974   0.506   2.611   6.449  0.3879 -1.2618 -0.1005
 4838SOL     OW25975   4.363   1.765   8.109  0.4602  0.0141  0.1076
 4838SOL    HW125976   4.413   1.717   8.175 -1.3745 -0.3635  1.2398
 4838SOL    HW225977   4.311   1.695   8.068  0.4985 -0.6477  1.1998
 4839SOL     OW25978   2.500   2.947   4.461 -0.4045  0.7061  0.2321
 4839SOL    HW125979   2.438   3.020   4.467 -0.0211  0.8227  2.6622
 4839SOL    HW225980   2.496   2.917   4.370  1.4744 -0.8516  0.6693
 4840SOL     OW25981   2.364   4.336   9.456  0.1994  0.1084  0.1704
 4840SOL    HW125982   2.334   4.397   9.523 -0.4381 -0.6852  0.5989
 4840SOL    HW225983   2.443   4.375   9.419  0.2270  0.8541  1.0194
 4841SOL     OW25984   1.302   3.613   4.999  0.3335 -0.2609  0.2349
 4841SOL    HW125985   1.255   3.616   4.916 -0.6183  1.0153  0.8035
 4841SOL    HW225986   1.384   3.573   4.970 -0.3162 -1.4636  0.0604
 4842SOL     OW25987   0.755   1.425  15.188 -0.0447  0.2932  0.1979
 4842SOL    HW125988   0.730   1.411  15.280 -0.4497 -0.9192 -0.0895
 4842SOL    HW225989   0.828   1.364  15.173 -1.5058 -1.1363 -1.0266
 4843SOL     OW25990   4.295   0.791  12.350  0.2867  0.0847 -0.0610
 4843SOL    HW125991   4.312   0.780  12.443 -1.3217 -0.1499  0.2109
 4843SOL    HW225992   4.372   0.757  12.305  0.7875 -0.0533  0.9238
 4844SOL     OW25993   4.179   4.085   3.184 -1.0218  0.2947 -0.6281
 4844SOL    HW125994   4.121   4.046   3.119 -2.8917 -0.5609  1.5762
 4844SOL    HW225995   4.231   4.011   3.212 -0.0476  0.3135 -2.3607
 4845SOL     OW25996   3.443   3.781   3.345  0.4610  0.3324 -0.0358
 4845SOL    HW125997   3.458   3.727   3.267 -2.1956  0.9639 -0.9711
 4845SOL    HW225998   3.368   3.832   3.318 -0.2012 -0.4292  0.3548
 4846SOL     OW25999   0.602   3.557  10.411  0.4503 -0.1596  0.2492
 4846SOL    HW126000   0.530   3.495  10.419 -0.3789  0.7009 -0.5519
 4846SOL    HW226001   0.648   3.500  10.349  0.8032 -0.2464  0.5907
 4847SOL     OW26002   1.142   2.770  14.394  0.5930 -0.3500  0.2675
 4847SOL    HW126003   1.209   2.800  14.455 -1.1307  1.8975  1.0808
 4847SOL    HW226004   1.076   2.831  14.428  1.1603  0.9355 -0.9618
 4848SOL     OW26005   1.946   1.660   8.626 -0.4053  0.9419 -0.1888
 4848SOL    HW126006   1.978   1.732   8.571 -0.4478  1.7803  0.8804
 4848SOL    HW226007   1.866   1.697   8.663 -1.5932 -0.7980 -1.0648
 4849SOL     OW26008   1.205   3.959   8.920 -0.9969  0.7646 -0.3220
 4849SOL    HW126009   1.195   3.864   8.917  0.1775  0.6045  1.2641
 4849SOL    HW226010   1.140   3.981   8.853 -1.6507 -0.1178  0.0218
 4850SOL     OW26011   0.134   1.560  10.080  0.3916  0.3880  0.1816
 4850SOL    HW126012   0.145   1.635  10.138  0.5734 -0.0465  0.7099
 4850SOL    HW226013   0.160   1.483  10.131  1.6714  0.1474 -0.8671
 4851SOL     OW26014   4.242   4.225   2.097 -0.3233 -0.2839 -0.3508
 4851SOL    HW126015   4.275   4.263   2.016 -0.9040 -0.6238 -0.7439
 4851SOL    HW226016   4.313   4.165   2.120  1.6118  1.8640 -0.7175
 4852SOL     OW26017   1.298   2.756   3.572  0.4716  0.5882  0.2280
 4852SOL    HW126018   1.209   2.774   3.602  0.5502  1.4516 -0.0637
 4852SOL    HW226019   1.288   2.673   3.526 -2.4392 -0.0827  2.0433
 4853SOL     OW26020   2.663   2.833   8.128  0.0353  0.3522 -0.4804
 4853SOL    HW126021   2.592   2.852   8.066 -0.7615  1.1484  0.6626
 4853SOL    HW226022   2.740   2.840   8.073  0.6825  0.9073  0.4912
 4854SOL     OW26023   3.177   0.889   3.912 -0.0669 -0.2974  0.0166
 4854SOL    HW126024   3.182   0.879   3.817  0.9512 -3.2308  0.3442
 4854SOL    HW226025   3.178   0.797   3.939 -1.6704 -0.5236 -0.6969
 4855SOL     OW26026   4.594   4.487   7.080  0.0187  0.6021  0.1601
 4855SOL    HW126027   4.554   4.428   7.144  0.5704  0.5710  0.4794
 4855SOL    HW226028   4.512   4.532   7.056  0.2806  1.1056  0.2074
 4856SOL     OW26029   0.835   1.573   6.783 -0.0213  0.4238 -0.2629
 4856SOL    HW126030   0.779   1.628   6.728 -0.1586 -1.3449 -1.8561
 4856SOL    HW226031   0.777   1.512   6.829 -0.4555  0.0595 -1.2915
 4857SOL     OW26032   0.008   1.161   4.752  0.0687  0.3698 -0.0925
 4857SOL    HW126033   4.688   1.213   4.821  1.4651  0.0995  0.9483
 4857SOL    HW226034   0.028   1.231   4.689  1.6473  0.1439  0.1572
 4858SOL     OW26035   3.009   0.962   8.907  0.9235  0.2288  0.9020
 4858SOL    HW126036   3.076   1.015   8.866 -0.0625  1.1865  0.5258
 4858SOL    HW226037   2.988   1.018   8.982 -0.0052  0.8115  0.2133
 4859SOL     OW26038   1.953   2.198  12.799  0.2918 -0.3817 -0.1571
 4859SOL    HW126039   2.006   2.229  12.725  2.7365  0.9118  2.1287
 4859SOL    HW226040   1.881   2.260  12.807 -0.9660 -1.8350 -0.2872
 4860SOL     OW26041   2.701   3.039   4.870 -0.3888  0.1206  0.1353
 4860SOL    HW126042   2.677   2.972   4.806  0.3003  0.7014 -0.7442
 4860SOL    HW226043   2.725   2.979   4.940  1.1055  0.2808 -0.2267
 4861SOL     OW26044   4.323   2.109   1.948 -0.1933 -0.1492  0.2793
 4861SOL    HW126045   4.312   2.102   2.043 -0.1421  1.9012  0.4518
 4861SOL    HW226046   4.240   2.128   1.906 -0.7615 -0.0630  1.4375
 4862SOL     OW26047   2.354   0.436   4.996 -0.1702 -0.3931 -0.1713
 4862SOL    HW126048   2.361   0.481   4.912 -1.0657  0.5239  0.2528
 4862SOL    HW226049   2.277   0.382   4.979 -0.5463 -0.8160  2.9180
 4863SOL     OW26050   1.220   4.144   8.053 -0.3165 -0.0658 -0.4549
 4863SOL    HW126051   1.197   4.228   8.091  0.2553  0.2677 -0.8430
 4863SOL    HW226052   1.289   4.167   7.990  1.7814 -3.9805  0.3838
 4864SOL     OW26053   4.700   4.240   7.388 -0.2292 -0.5149 -0.2184
 4864SOL    HW126054   0.024   4.255   7.305  0.3679 -0.8210  0.0505
 4864SOL    HW226055   4.607   4.260   7.382  0.2962  2.4504  1.2631
 4865SOL     OW26056   0.725   0.893   8.705  0.1662  0.0629  0.4854
 4865SOL    HW126057   0.694   0.969   8.755  1.2718  0.3060  0.8128
 4865SOL    HW226058   0.681   0.819   8.744 -0.4002 -0.7566 -1.7135
 4866SOL     OW26059   4.489   4.199   4.802  0.2829 -0.3029 -0.1764
 4866SOL    HW126060   4.437   4.120   4.790  0.1114 -0.0994 -0.7798
 4866SOL    HW226061   4.444   4.235   4.879 -0.7486  1.0817 -1.4233
 4867SOL     OW26062   3.798   0.311   1.935 -0.0218  0.1700 -0.4164
 4867SOL    HW126063   3.718   0.284   1.891  0.3159 -1.7376  0.1452
 4867SOL    HW226064   3.808   0.400   1.901 -1.3806  0.9372  1.1453
 4868SOL     OW26065   2.007   1.995   2.557  0.1204 -0.2868  0.3187
 4868SOL    HW126066   1.977   2.022   2.471 -0.3600 -0.4917  0.4231
 4868SOL    HW226067   1.953   2.049   2.616 -2.6941 -4.4383  1.5099
 4869SOL     OW26068   1.639   1.459   7.957 -0.1883 -0.0559  0.3420
 4869SOL    HW126069   1.706   1.485   8.019 -2.0137  3.9375  0.6229
 4869SOL    HW226070   1.567   1.455   8.020 -0.3146  2.6294  0.3596
 4870SOL     OW26071   0.235   1.469   1.103 -0.2829  0.3329 -0.2893
 4870SOL    HW126072   0.225   1.407   1.175  1.3465  0.3735 -0.0241
 4870SOL    HW226073   0.325   1.454   1.072  0.2666 -1.7224  2.2843
 4871SOL     OW26074   3.739   1.889   6.834 -0.5250 -0.3753 -0.6096
 4871SOL    HW126075   3.820   1.930   6.805 -1.1073  2.2843  1.4815
 4871SOL    HW226076   3.754   1.890   6.929 -2.6574 -2.2983 -0.2684
 4872SOL     OW26077   3.644   3.638  10.985  0.2727 -0.1792 -0.0671
 4872SOL    HW126078   3.577   3.651  10.918  1.6062 -0.2558 -1.4226
 4872SOL    HW226079   3.632   3.723  11.027 -1.1946 -0.1852 -0.4636
 4873SOL     OW26080   4.359   3.628  11.340 -0.4135  0.2780 -0.1310
 4873SOL    HW126081   4.381   3.709  11.387 -3.1130 -0.6135  2.7067
 4873SOL    HW226082   4.376   3.559  11.404  0.3375  2.3593  1.9194
 4874SOL     OW26083   0.608   4.172   6.873  0.2575  0.2384  0.6875
 4874SOL    HW126084   0.534   4.194   6.816  1.4552 -0.8993 -1.3379
 4874SOL    HW226085   0.573   4.086   6.898  2.4802 -0.3383  1.7880
 4875SOL     OW26086   4.074   4.383  13.131 -0.2705  0.1257  0.1000
 4875SOL    HW126087   4.146   4.348  13.183 -0.3274 -1.2708 -0.7695
 4875SOL    HW226088   4.000   4.341  13.175 -0.4499  0.9413  0.6017
 4876SOL     OW26089   0.136   4.554  16.372 -0.0328  0.0443  0.0507
 4876SOL    HW126090   0.151   4.566  16.278  0.2666  0.9053  0.2033
 4876SOL    HW226091   0.208   4.606  16.408 -0.8854  2.4884 -1.7740
 4877SOL     OW26092   2.894   1.774  16.320  0.1440 -0.1108  0.2343
 4877SOL    HW126093   2.896   1.751  16.227  0.0928 -0.5665  0.3448
 4877SOL    HW226094   2.936   1.702  16.367 -0.9103 -0.0916  1.2212
 4878SOL     OW26095   4.242   2.370  10.824 -0.7318 -0.5397  0.0202
 4878SOL    HW126096   4.203   2.336  10.904  2.1156  0.5694  1.8776
 4878SOL    HW226097   4.237   2.461  10.854 -1.4514 -1.5795  3.0205
 4879SOL     OW26098   3.868   1.363   9.019  0.5918 -0.0670  0.4121
 4879SOL    HW126099   3.899   1.451   9.000 -0.2749  0.7773  2.8210
 4879SOL    HW226100   3.906   1.362   9.107  0.9982  2.4376  0.2648
 4880SOL     OW26101   2.476   4.232  11.316 -0.3775  0.3982 -0.0682
 4880SOL    HW126102   2.541   4.172  11.352  0.5499  1.5319  0.1343
 4880SOL    HW226103   2.540   4.296  11.285 -0.0705 -0.2714 -0.8398
 4881SOL     OW26104   0.700   4.252   1.985 -0.1477 -0.5416 -0.2273
 4881SOL    HW126105   0.631   4.242   1.919 -0.1077 -1.2786 -0.1526
 4881SOL    HW226106   0.681   4.183   2.049 -1.2515  0.9508  1.0753
 4882SOL     OW26107   1.953   2.961   2.551  0.0720  0.4139 -0.4100
 4882SOL    HW126108   1.899   3.040   2.556  1.4980  1.4824 -1.8654
 4882SOL    HW226109   2.041   2.998   2.555 -0.0256  0.6819 -0.7225
 4883SOL     OW26110   3.291   4.068   6.970  0.6050 -0.0570  0.3276
 4883SOL    HW126111   3.375   4.104   6.941  0.0364  2.2541  1.5287
 4883SOL    HW226112   3.330   3.996   7.020 -0.9587 -0.4556  0.9754
 4884SOL     OW26113   3.520   2.801   4.698  0.2407  0.0508 -0.1579
 4884SOL    HW126114   3.483   2.717   4.726  3.0223 -1.0248  0.3101
 4884SOL    HW226115   3.448   2.862   4.713  0.7447  0.7685 -0.6076
 4885SOL     OW26116   1.757   3.223   8.255 -0.3970  0.0958 -0.2927
 4885SOL    HW126117   1.751   3.140   8.209 -1.2698  0.7934 -1.4229
 4885SOL    HW226118   1.767   3.188   8.344 -0.1848  0.2886 -0.2390
 4886SOL     OW26119   4.447   3.733   8.980 -0.4138  0.6738  0.0534
 4886SOL    HW126120   4.439   3.828   8.991 -0.5122  0.4141  2.2631
 4886SOL    HW226121   4.450   3.710   9.073 -0.6594 -1.1609 -0.4010
 4887SOL     OW26122   3.928   3.483   7.693 -0.0860 -0.2315  0.0690
 4887SOL    HW126123   3.996   3.469   7.758 -1.2941  0.4202  1.4810
 4887SOL    HW226124   3.975   3.480   7.610  0.5053  0.6512  0.3674
 4888SOL     OW26125   0.138   0.633   5.102  0.4365 -0.5542  0.1380
 4888SOL    HW126126   0.224   0.593   5.111  1.2351  1.0091 -0.7419
 4888SOL    HW226127   0.098   0.606   5.185 -1.3722  1.3451 -0.1112
 4889SOL     OW26128   4.493   2.631   5.009 -0.2489 -0.3273  0.4977
 4889SOL    HW126129   4.469   2.567   4.942 -1.4769  1.5288 -0.8423
 4889SOL    HW226130   4.463   2.586   5.088  0.2216  1.0703  1.4823
 4890SOL     OW26131   1.821   3.953   4.860  0.5021  0.1278  0.1557
 4890SOL    HW126132   1.881   4.028   4.855 -0.3045  0.7091 -0.8443
 4890SOL    HW226133   1.878   3.885   4.823  0.6575 -0.2285  1.0405
 4891SOL     OW26134   3.087   1.641   2.063  0.5872 -0.4693  0.4305
 4891SOL    HW126135   3.092   1.545   2.069 -3.1029 -0.7598 -0.9310
 4891SOL    HW226136   3.101   1.658   1.970  0.6336  1.0055  0.7142
 4892SOL     OW26137   4.292   3.853   5.949  0.4984  0.2670 -0.3577
 4892SOL    HW126138   4.246   3.862   6.031 -1.9415 -1.6968 -1.5221
 4892SOL    HW226139   4.280   3.941   5.912 -1.7855 -0.2869 -0.9036
 4893SOL     OW26140   2.743   0.438  14.781  0.3712  0.4550  0.3051
 4893SOL    HW126141   2.809   0.507  14.773  1.7000 -0.8085  0.3325
 4893SOL    HW226142   2.667   0.494  14.772  0.1172  0.0384 -0.1365
 4894SOL     OW26143   4.118   4.195   4.832 -0.0145  0.5423 -0.8304
 4894SOL    HW126144   4.112   4.117   4.777  1.4636 -0.2986  0.2102
 4894SOL    HW226145   4.061   4.257   4.786 -1.4729 -0.2990 -0.1782
 4895SOL     OW26146   3.500   1.326  11.910  0.3780  0.1525  0.5083
 4895SOL    HW126147   3.547   1.389  11.857  0.3669 -0.9022 -0.7606
 4895SOL    HW226148   3.413   1.346  11.875  1.0363  1.1595 -0.5320
 4896SOL     OW26149   1.391   4.629   3.871  0.3909  0.1166  0.6018
 4896SOL    HW126150   1.480   4.620   3.837 -0.8600 -4.2581 -1.5457
 4896SOL    HW226151   1.368   4.537   3.856 -1.3343  0.6789 -0.1948
 4897SOL     OW26152   3.173   4.205   3.210 -0.4041 -0.3224  0.3469
 4897SOL    HW126153   3.215   4.283   3.246 -2.0361  0.3942  0.6799
 4897SOL    HW226154   3.189   4.139   3.278 -0.8741 -1.2359 -0.4275
 4898SOL     OW26155   1.558   4.570   5.441 -0.3236  0.0730 -0.0121
 4898SOL    HW126156   1.548   4.664   5.427  1.0736  0.2291  0.0789
 4898SOL    HW226157   1.613   4.561   5.518 -0.9311  2.8107  0.7346
 4899SOL     OW26158   1.608   4.612  12.690 -0.2196  0.1701  0.7345
 4899SOL    HW126159   1.550   4.584  12.761  1.0216  0.6818  1.9657
 4899SOL    HW226160   1.665   4.679  12.730 -0.4799 -0.1492  1.6534
 4900SOL     OW26161   0.771   3.908   5.724 -0.3133 -0.5662  0.3184
 4900SOL    HW126162   0.699   3.884   5.666  0.4295  0.8799 -1.2140
 4900SOL    HW226163   0.739   3.871   5.806 -2.2884  1.5791  0.4948
 4901SOL     OW26164   0.498   3.678   7.910 -0.3154  0.6013  0.3221
 4901SOL    HW126165   0.464   3.593   7.882  1.2019 -0.5553  1.9995
 4901SOL    HW226166   0.466   3.680   8.000 -1.9987 -1.9702 -0.1854
 4902SOL     OW26167   4.165   3.975   8.020 -0.0263 -0.0957 -0.2221
 4902SOL    HW126168   4.098   3.911   7.995 -0.1750 -0.5856  1.4213
 4902SOL    HW226169   4.240   3.920   8.042 -1.3058 -1.6662  0.2173
 4903SOL     OW26170   3.649   0.458   9.636 -0.3414 -0.3797  0.3835
 4903SOL    HW126171   3.598   0.526   9.593  0.7018  1.0375  1.3773
 4903SOL    HW226172   3.681   0.510   9.710 -4.1793  0.2625  1.5777
 4904SOL     OW26173   1.142   1.962   7.516 -0.4652 -0.1924 -0.1003
 4904SOL    HW126174   1.230   1.974   7.550 -0.3800 -0.5801 -0.1806
 4904SOL    HW226175   1.163   1.984   7.425 -0.1025  2.9672  0.7430
 4905SOL     OW26176   4.401   2.579   4.561  0.0776  0.2114  0.1180
 4905SOL    HW126177   4.486   2.569   4.518  0.9476 -0.4081  1.9683
 4905SOL    HW226178   4.357   2.497   4.538  1.1282 -0.7327  1.4806
 4906SOL     OW26179   0.189   3.929  12.705  0.4936 -0.2685 -0.1378
 4906SOL    HW126180   0.208   3.859  12.643  0.0526 -0.3210 -0.2154
 4906SOL    HW226181   0.183   4.004  12.647 -0.1529  2.2961  3.2411
 4907SOL     OW26182   1.372   1.661   7.330 -0.0903  0.7144 -0.8083
 4907SOL    HW126183   1.419   1.649   7.413  1.4536  0.8175 -1.6646
 4907SOL    HW226184   1.287   1.674   7.371 -0.7257  1.0503 -2.2582
 4908SOL     OW26185   1.493   4.192   7.924 -0.1378 -0.0211  0.2306
 4908SOL    HW126186   1.511   4.279   7.886  2.4137 -0.8148 -0.3766
 4908SOL    HW226187   1.569   4.178   7.979  0.0886  2.6473  0.5968
 4909SOL     OW26188   0.980   3.301   7.813  0.5431 -0.2688  0.0418
 4909SOL    HW126189   0.932   3.255   7.744  0.7990 -0.7131  0.1608
 4909SOL    HW226190   1.025   3.370   7.763  2.4896 -2.1646 -0.8331
 4910SOL     OW26191   2.043   1.021  12.519  0.1032  0.2787 -0.7452
 4910SOL    HW126192   1.977   1.082  12.550  0.6010 -0.0985  1.0636
 4910SOL    HW226193   2.129   1.050  12.547 -0.3256 -1.5638  2.4533
 4911SOL     OW26194   1.795   3.163   3.267  0.1659 -0.3703 -0.0997
 4911SOL    HW126195   1.813   3.220   3.192  0.7113  1.7651  1.6454
 4911SOL    HW226196   1.701   3.170   3.285  0.4328 -1.5529  1.7413
 4912SOL     OW26197   0.538   1.546   4.408 -0.4400  0.0187  0.0162
 4912SOL    HW126198   0.558   1.522   4.318  0.4358  0.5492  0.0663
 4912SOL    HW226199   0.564   1.476   4.467  0.8509 -0.3285 -0.9632
 4913SOL     OW26200   4.402   2.347   3.636 -0.1936  0.0617  0.6266
 4913SOL    HW126201   4.365   2.262   3.611  1.4267 -0.2966 -0.5476
 4913SOL    HW226202   4.351   2.404   3.578  2.2218  1.1945 -0.3938
 4914SOL     OW26203   0.881   3.168   1.541 -0.1778  0.3416  0.4988
 4914SOL    HW126204   0.869   3.151   1.634  0.1912  1.0892  0.6875
 4914SOL    HW226205   0.919   3.085   1.513  0.3591  0.9389 -0.5524
 4915SOL     OW26206   0.347   3.031   7.176  0.3857  0.3634 -0.0047
 4915SOL    HW126207   0.332   3.125   7.193  2.0292  0.5078  0.5913
 4915SOL    HW226208   0.429   3.022   7.128  0.3530  0.7349 -0.1387
 4916SOL     OW26209   2.586   1.942   8.922  0.2514 -0.4747  0.7910
 4916SOL    HW126210   2.520   1.900   8.866 -1.3592  1.5271  1.2074
 4916SOL    HW226211   2.592   2.033   8.895 -1.2778  0.6008  4.1299
 4917SOL     OW26212   1.930   2.616  12.922  0.2184  0.0174 -0.2438
 4917SOL    HW126213   1.886   2.531  12.919  1.4949 -0.6776  0.2577
 4917SOL    HW226214   1.921   2.646  13.013  1.1298 -2.8281  0.8202
 4918SOL     OW26215   1.417   2.350  14.178 -0.1938 -0.1247  0.1593
 4918SOL    HW126216   1.507   2.372  14.202  0.1060  0.6471 -1.7143
 4918SOL    HW226217   1.379   2.438  14.180  0.5869  0.2244 -0.2265
 4919SOL     OW26218   4.324   2.546   7.232  0.3502  0.1933 -0.0478
 4919SOL    HW126219   4.404   2.586   7.196 -0.8627  2.9706  0.3658
 4919SOL    HW226220   4.359   2.510   7.313 -0.8820  1.0328  0.8392
 4920SOL     OW26221   2.130   4.465  13.139  1.0092  0.2008 -0.3067
 4920SOL    HW126222   2.092   4.476  13.226  0.1212  3.5993 -1.1208
 4920SOL    HW226223   2.053   4.461  13.083  0.8510 -0.7102 -0.0232
 4921SOL     OW26224   0.604   2.820  11.853 -0.0129  0.1895  0.6401
 4921SOL    HW126225   0.656   2.817  11.773  0.5890  2.2195  0.9646
 4921SOL    HW226226   0.541   2.888  11.830  0.4343  0.0456 -1.0333
 4922SOL     OW26227   4.170   2.185  13.761  0.7418 -0.6492 -0.2093
 4922SOL    HW126228   4.201   2.207  13.673  0.6547 -0.1868 -0.1276
 4922SOL    HW226229   4.193   2.092  13.765  1.8112 -0.3460  0.9052
 4923SOL     OW26230   1.243   2.121  12.320 -0.1778 -0.0109  0.2978
 4923SOL    HW126231   1.316   2.142  12.379 -0.1476  2.1335 -0.5206
 4923SOL    HW226232   1.249   2.196  12.261 -2.5304 -3.1670 -3.9644
 4924SOL     OW26233   1.671   3.754   6.926  0.4089  0.3871 -0.5514
 4924SOL    HW126234   1.590   3.776   6.972 -0.2813 -1.3196 -0.9353
 4924SOL    HW226235   1.644   3.685   6.865  1.8847 -2.2460  1.8265
 4925SOL     OW26236   2.619   4.251   2.890 -0.0167 -0.1440 -0.1033
 4925SOL    HW126237   2.554   4.317   2.866  0.6532  0.9243  0.9830
 4925SOL    HW226238   2.675   4.240   2.814 -0.2117 -0.0805 -0.2552
 4926SOL     OW26239   3.381   4.450   7.925 -0.5267  0.3343  0.4315
 4926SOL    HW126240   3.440   4.457   8.000 -1.9532 -1.2213  1.7020
 4926SOL    HW226241   3.435   4.418   7.853 -2.5776 -1.4244 -0.3098
 4927SOL     OW26242   0.666   4.568   7.738 -0.1955 -0.4689 -0.3027
 4927SOL    HW126243   0.652   4.589   7.645 -0.0837  0.6929 -0.0577
 4927SOL    HW226244   0.607   4.619   7.794 -0.0834  0.5536 -1.1084
 4928SOL     OW26245   0.951   4.248  14.240  0.1994  0.1040  0.2286
 4928SOL    HW126246   0.878   4.276  14.186 -1.3777 -2.3741  1.0783
 4928SOL    HW226247   0.913   4.199  14.314  1.6332 -1.9886 -0.4041
 4929SOL     OW26248   3.304   0.097   4.178 -0.1072  0.0495  0.4888
 4929SOL    HW126249   3.396   0.081   4.201 -0.1773 -1.8631 -0.5716
 4929SOL    HW226250   3.274   0.141   4.258  1.0902 -2.7324  2.4927
 4930SOL     OW26251   1.027   0.404  13.689 -0.4013  0.3918  0.0093
 4930SOL    HW126252   1.003   0.313  13.706 -0.8592  0.6476  0.7005
 4930SOL    HW226253   1.092   0.398  13.619 -0.8419  1.0914 -0.4635
 4931SOL     OW26254   3.181   3.348   1.847 -0.5562  0.4036 -0.2593
 4931SOL    HW126255   3.170   3.362   1.941 -3.4865  0.7394 -0.6682
 4931SOL    HW226256   3.111   3.409   1.825  0.0008  1.4515  0.8891
 4932SOL     OW26257   4.079   4.511  12.497 -0.5141 -0.0959  0.0506
 4932SOL    HW126258   4.147   4.533  12.561  0.2057  1.5190 -1.2825
 4932SOL    HW226259   4.064   4.417  12.513  0.3525 -0.1802  0.3606
 4933SOL     OW26260   0.291   4.628   5.789  0.4283 -0.7780  0.5689
 4933SOL    HW126261   0.377   4.669   5.801 -0.5013  0.9080  1.5140
 4933SOL    HW226262   0.289   4.611   5.695  0.2739 -0.1962  0.4679
 4934SOL     OW26263   2.163   0.451   5.200 -0.0500  0.5589 -0.2915
 4934SOL    HW126264   2.237   0.453   5.139  0.1896 -0.7186 -0.0581
 4934SOL    HW226265   2.202   0.498   5.273  1.0112  1.7848 -1.6473
 4935SOL     OW26266   2.520   2.612   0.416  0.1546 -0.4317 -0.4438
 4935SOL    HW126267   2.533   2.543   0.481  0.4787  0.1137  0.0654
 4935SOL    HW226268   2.609   2.623   0.384 -0.1689 -0.5245 -1.3647
 4936SOL     OW26269   2.026   3.083   5.855  0.1834 -0.8436 -0.1426
 4936SOL    HW126270   1.958   3.051   5.797  1.3886  0.6979 -2.3946
 4936SOL    HW226271   2.017   3.179   5.855 -1.0310 -0.9656  2.3738
 4937SOL     OW26272   1.875   0.255  10.825  0.1567 -0.2559 -0.2290
 4937SOL    HW126273   1.780   0.242  10.816 -0.0072  0.1284  0.9345
 4937SOL    HW226274   1.888   0.187  10.891 -0.8639 -0.2058  0.0245
 4938SOL     OW26275   0.443   4.388  15.920  0.1681  0.3869  0.1474
 4938SOL    HW126276   0.421   4.350  16.005 -1.2395  2.5294  0.7618
 4938SOL    HW226277   0.354   4.418  15.902 -0.0880 -0.5324 -0.0669
 4939SOL     OW26278   0.031   2.158   4.332  0.0215  0.0521 -0.2619
 4939SOL    HW126279   4.685   2.089   4.332  1.1975 -1.1099 -0.4899
 4939SOL    HW226280   0.088   2.116   4.397  0.8624  1.4208 -0.1334
 4940SOL     OW26281   1.486   4.552  17.452  0.2021  0.0880  0.3214
 4940SOL    HW126282   1.427   4.585  17.521 -0.3688  1.1039 -0.6623
 4940SOL    HW226283   1.433   4.551  17.373  1.4544 -1.1061 -0.4900
 4941SOL     OW26284   1.033   0.241   8.024  0.4306  0.1542  0.4529
 4941SOL    HW126285   1.114   0.256   8.073 -0.2035  0.8263  1.2822
 4941SOL    HW226286   1.062   0.167   7.970  0.9510  0.2122  0.6520
 4942SOL     OW26287   1.796   1.152  17.619  0.1507 -0.3958  0.0230
 4942SOL    HW126288   1.868   1.149  17.683  3.2667 -1.1174 -3.4770
 4942SOL    HW226289   1.817   1.079  17.561  0.7260 -0.6052  0.4907
 4943SOL     OW26290   0.692   1.678   3.081 -0.4150  0.3477  0.2148
 4943SOL    HW126291   0.598   1.677   3.063 -0.1478 -0.8935 -1.0920
 4943SOL    HW226292   0.690   1.647   3.172  0.1815 -1.1809 -0.3024
 4944SOL     OW26293   1.392   3.316   7.819  0.4322  0.0150  0.1971
 4944SOL    HW126294   1.438   3.253   7.874 -0.0616  0.5142  1.1977
 4944SOL    HW226295   1.304   3.313   7.858  0.3516  0.9339  0.0964
 4945SOL     OW26296   4.686   3.920   2.582  0.4075  0.1617  0.3671
 4945SOL    HW126297   4.720   3.831   2.583  0.3057  0.0967 -1.3686
 4945SOL    HW226298   4.610   3.904   2.637  2.1644  1.6139  3.1950
 4946SOL     OW26299   3.327   2.776   8.527 -0.0036 -0.2673 -0.3795
 4946SOL    HW126300   3.303   2.762   8.619  0.6578  0.0798 -0.1494
 4946SOL    HW226301   3.407   2.722   8.520 -1.1061 -2.1149  1.1635
 4947SOL     OW26302   2.572   4.662   7.128 -0.5293  0.9948 -0.0984
 4947SOL    HW126303   2.565   0.031   7.097  1.7498  2.0462  2.5160
 4947SOL    HW226304   2.482   4.634   7.111 -0.1225  0.1040 -0.8477
 4948SOL     OW26305   2.681   1.998   5.207 -0.2466 -0.2500 -0.2791
 4948SOL    HW126306   2.651   1.966   5.122  1.2415 -0.2017 -0.8386
 4948SOL    HW226307   2.736   1.935   5.254  1.1423 -0.5750 -2.3542
 4949SOL     OW26308   1.520   4.348  15.513  0.5648 -0.2773 -0.0771
 4949SOL    HW126309   1.430   4.376  15.530 -0.1051 -3.2583  1.3795
 4949SOL    HW226310   1.503   4.276  15.453  1.6748 -1.0947  0.5758
 4950SOL     OW26311   1.720   2.972   8.199  0.0889 -0.1525 -0.1752
 4950SOL    HW126312   1.677   2.929   8.273 -0.9650  0.6173 -0.3277
 4950SOL    HW226313   1.788   2.909   8.176  0.1712 -0.1955  0.1943
 4951SOL     OW26314   1.381   0.098   6.280  0.0790 -0.2574  0.5993
 4951SOL    HW126315   1.473   0.109   6.257  0.4179 -0.9672  1.6381
 4951SOL    HW226316   1.371   0.004   6.269  0.4807 -0.4401  1.8654
 4952SOL     OW26317   3.126   0.214   8.696  0.5052  0.2886  0.0407
 4952SOL    HW126318   3.034   0.238   8.712  0.0253 -1.0917 -0.5772
 4952SOL    HW226319   3.162   0.301   8.683 -0.5112  0.6150 -0.6469
 4953SOL     OW26320   0.342   0.854  17.210  0.1854  0.3788  0.5818
 4953SOL    HW126321   0.324   0.900  17.292  1.0859 -2.4638  2.3623
 4953SOL    HW226322   0.259   0.866  17.163  0.7102 -0.2253 -0.4892
 4954SOL     OW26323   0.177   3.312  14.663  0.1020  0.2216  0.7921
 4954SOL    HW126324   0.190   3.377  14.733  0.4905 -0.3982  1.2978
 4954SOL    HW226325   0.097   3.338  14.616  0.5869 -0.0539 -0.1814
 4955SOL     OW26326   1.139   0.404   3.649 -0.0998 -0.5263  0.0385
 4955SOL    HW126327   1.235   0.407   3.646 -0.2593  3.2197 -1.0200
 4955SOL    HW226328   1.123   0.386   3.742  0.5333 -0.0818  0.2347
 4956SOL     OW26329   2.560   3.309   0.809 -0.2476 -0.2413  0.5540
 4956SOL    HW126330   2.481   3.325   0.758  0.8471  0.6875 -0.8319
 4956SOL    HW226331   2.579   3.223   0.770  1.2330  1.1238 -1.7263
 4957SOL     OW26332   2.173   1.446   6.698 -0.7101 -0.0021 -0.2776
 4957SOL    HW126333   2.232   1.371   6.705 -2.8960 -1.6635  0.1710
 4957SOL    HW226334   2.104   1.421   6.760 -0.5449 -1.6047 -0.7338
 4958SOL     OW26335   1.877   1.544  16.022 -0.0443  0.4009 -0.0867
 4958SOL    HW126336   1.809   1.492  16.065  0.8326 -0.7411 -0.0644
 4958SOL    HW226337   1.846   1.633  16.037 -1.7561 -0.6550  2.7098
 4959SOL     OW26338   0.878   1.414  17.360  0.2280  0.0042  0.3353
 4959SOL    HW126339   0.907   1.391  17.272 -0.3092 -1.2484  0.4970
 4959SOL    HW226340   0.872   1.332  17.409 -0.8890  0.1356  0.4230
 4960SOL     OW26341   0.746   3.270   4.980 -0.1779  0.5570 -0.0302
 4960SOL    HW126342   0.670   3.234   5.026 -0.6476  1.0317 -0.4435
 4960SOL    HW226343   0.702   3.347   4.945  0.5244  1.6135  1.4094
 4961SOL     OW26344   3.372   1.774   4.620 -0.4591 -0.3533 -0.4128
 4961SOL    HW126345   3.327   1.824   4.688 -0.2665  0.5527 -0.9538
 4961SOL    HW226346   3.464   1.786   4.646 -1.2079  2.0765  1.0783
 4962SOL     OW26347   1.805   2.356   2.518 -0.5512 -0.1342 -0.0177
 4962SOL    HW126348   1.763   2.357   2.603  0.8449 -0.2315  0.6735
 4962SOL    HW226349   1.803   2.449   2.494  2.5337 -0.1152 -0.2230
 4963SOL     OW26350   2.990   0.119   6.364 -0.3980 -0.0509 -0.2803
 4963SOL    HW126351   2.932   0.044   6.353  0.3839 -0.7925  0.5299
 4963SOL    HW226352   2.950   0.171   6.434  2.3059  1.3748  0.2301
 4964SOL     OW26353   0.909   2.540   8.027 -0.0389  0.0085  0.5120
 4964SOL    HW126354   0.977   2.607   8.036 -0.3099  0.0445  2.4428
 4964SOL    HW226355   0.828   2.588   8.013 -0.2656  0.3096  2.8448
 4965SOL     OW26356   3.851   3.517   8.005 -0.0098 -0.0975 -0.6982
 4965SOL    HW126357   3.808   3.452   8.061  0.6917  1.0698  1.2288
 4965SOL    HW226358   3.834   3.479   7.919  1.8794 -2.1896 -0.1447
 4966SOL     OW26359   4.576   4.161   0.360 -0.4113 -0.1599 -0.3340
 4966SOL    HW126360   4.485   4.182   0.382  0.7663  2.5531  2.0441
 4966SOL    HW226361   4.593   4.080   0.406  1.4830 -0.0175 -0.7744
 4967SOL     OW26362   4.313   1.899   2.681 -0.4332 -0.2461  0.1461
 4967SOL    HW126363   4.259   1.909   2.603 -1.4910 -2.4029  0.5959
 4967SOL    HW226364   4.267   1.819   2.706 -0.8550  0.6683  2.2820
 4968SOL     OW26365   1.503   2.084   5.054  0.3293  0.3324 -0.3514
 4968SOL    HW126366   1.443   2.013   5.030  1.3168  0.2567 -2.5625
 4968SOL    HW226367   1.573   2.028   5.088  0.2054 -0.4362 -1.3368
 4969SOL     OW26368   1.320   3.266  12.864 -0.1979 -0.1493 -0.5275
 4969SOL    HW126369   1.347   3.179  12.893 -1.5748 -0.1883  0.6512
 4969SOL    HW226370   1.264   3.231  12.794 -1.6673 -1.7824  1.4430
 4970SOL     OW26371   4.063   2.220  10.523 -0.2476  0.0307 -0.1523
 4970SOL    HW126372   4.103   2.133  10.523  1.3282  0.7184 -4.2773
 4970SOL    HW226373   4.029   2.232  10.611  0.4240 -0.3302  0.1545
 4971SOL     OW26374   2.121   1.124   2.425 -0.0659  0.0368 -0.5416
 4971SOL    HW126375   2.039   1.106   2.471  0.0735 -2.9457 -1.4843
 4971SOL    HW226376   2.134   1.219   2.430  2.2311 -0.3111 -0.0888
 4972SOL     OW26377   0.563   0.468  13.152  0.3708 -0.0819 -0.6411
 4972SOL    HW126378   0.616   0.388  13.151 -1.6771 -1.4359 -1.2130
 4972SOL    HW226379   0.628   0.538  13.145 -1.4575  1.7381  0.5168
 4973SOL     OW26380   3.503   0.855   4.557 -0.5823 -0.0679  0.7199
 4973SOL    HW126381   3.525   0.771   4.517 -0.0880  0.2255  0.3800
 4973SOL    HW226382   3.508   0.832   4.650 -0.7208 -0.4716  0.6299
 4974SOL     OW26383   4.076   1.828   8.193 -0.1471 -0.0837  0.0956
 4974SOL    HW126384   3.989   1.831   8.155 -0.2518  0.1675  0.3627
 4974SOL    HW226385   4.095   1.735   8.209 -1.9377 -0.3757  0.5302
 4975SOL     OW26386   1.867   3.063  13.395 -0.2666  0.0413 -0.2131
 4975SOL    HW126387   1.954   3.023  13.402  0.5464  2.3487  2.6858
 4975SOL    HW226388   1.892   3.155  13.393 -0.6952  0.1722  0.6865
 4976SOL     OW26389   4.609   2.069   2.649  0.4883 -0.1041 -0.5895
 4976SOL    HW126390   4.662   2.142   2.683  1.0423  0.5847 -2.9435
 4976SOL    HW226391   4.580   2.016   2.723 -1.1726 -0.4724 -1.5154
 4977SOL     OW26392   0.347   4.342   7.797 -0.0810  1.1699 -0.0894
 4977SOL    HW126393   0.422   4.332   7.738 -0.9183 -1.2424 -0.7345
 4977SOL    HW226394   0.329   4.250   7.814 -1.2338  1.5499  0.7246
 4978SOL     OW26395   4.464   1.062   5.065  0.2728  0.2667  0.4550
 4978SOL    HW126396   4.453   1.111   5.146  0.2435  0.0102  0.6058
 4978SOL    HW226397   4.511   1.129   5.016 -0.6107  1.8639  1.8138
 4979SOL     OW26398   3.241   0.591   6.903  0.4643 -0.7564 -0.7762
 4979SOL    HW126399   3.203   0.592   6.815 -0.7283  1.9019 -0.2498
 4979SOL    HW226400   3.283   0.677   6.910  3.1418 -2.1507 -0.1468
 4980SOL     OW26401   2.169   2.664  16.488  0.2343  0.8157  0.0781
 4980SOL    HW126402   2.236   2.612  16.532  0.3078  0.2092 -0.7473
 4980SOL    HW226403   2.104   2.648  16.557  0.1346  0.2158 -0.1608
 4981SOL     OW26404   2.979   4.242   9.654  0.3064  0.3851  0.7492
 4981SOL    HW126405   2.963   4.324   9.608 -0.1282  1.5237  2.9592
 4981SOL    HW226406   3.062   4.265   9.697  0.6521  0.6459 -0.0651
 4982SOL     OW26407   1.538   1.817   0.861 -0.2836 -0.4449 -0.3660
 4982SOL    HW126408   1.600   1.754   0.823 -0.3251 -0.2278 -0.7899
 4982SOL    HW226409   1.460   1.762   0.870 -0.9563  0.3398 -1.4042
 4983SOL     OW26410   0.058   1.846   9.981 -0.0700 -0.5040 -1.0581
 4983SOL    HW126411   4.700   1.818  10.027  0.1887  0.9095  0.2626
 4983SOL    HW226412   0.104   1.865  10.063 -2.4698 -1.5779  0.5626
 4984SOL     OW26413   1.558   2.859   1.280  0.2585 -0.3709  0.0943
 4984SOL    HW126414   1.643   2.851   1.323  0.8069 -3.8009 -1.6172
 4984SOL    HW226415   1.507   2.922   1.331  0.8362  0.2295 -0.0761
 4985SOL     OW26416   1.443   2.233  17.083 -0.2197 -1.0050  0.4186
 4985SOL    HW126417   1.365   2.272  17.121  0.1068  0.8943 -0.8749
 4985SOL    HW226418   1.407   2.158  17.036 -0.5149 -1.5851  1.5795
 4986SOL     OW26419   2.605   0.301   6.540  0.1123  0.3290  0.6567
 4986SOL    HW126420   2.640   0.324   6.453  0.0364  0.1344  0.5751
 4986SOL    HW226421   2.631   0.381   6.585 -1.5063  1.4130 -0.3197
 4987SOL     OW26422   0.418   4.522   2.435  0.1141 -0.1596  0.0314
 4987SOL    HW126423   0.398   4.540   2.527  2.2993  0.7204  0.3349
 4987SOL    HW226424   0.338   4.484   2.399  1.1628 -1.3102 -1.0699
 4988SOL     OW26425   3.174   0.874   3.644  0.6326  0.3882  0.6106
 4988SOL    HW126426   3.135   0.792   3.615  1.5827  0.0771  0.2393
 4988SOL    HW226427   3.268   0.861   3.630  0.2971  0.3418 -1.7042
 4989SOL     OW26428   2.571   2.697  14.993  0.9137  0.1955 -0.3425
 4989SOL    HW126429   2.654   2.742  15.011  1.9507 -1.8725  0.2013
 4989SOL    HW226430   2.598   2.611  15.025 -0.8566 -0.1150  0.2949
 4990SOL     OW26431   0.159   3.709  14.404 -0.9785  0.3293 -0.2827
 4990SOL    HW126432   0.181   3.667  14.321 -3.2648  2.0956 -1.7457
 4990SOL    HW226433   0.066   3.690  14.408 -1.1583  0.8552 -2.2276
 4991SOL     OW26434   1.865   2.264   1.080 -0.1979  0.1792  0.4381
 4991SOL    HW126435   1.958   2.256   1.058  0.0798 -1.7432  2.1944
 4991SOL    HW226436   1.823   2.280   0.996 -2.9764 -1.2593  1.5493
 4992SOL     OW26437   4.358   3.451   6.283 -0.0593  0.6478  0.2288
 4992SOL    HW126438   4.426   3.513   6.310  0.2418 -0.5429  2.1300
 4992SOL    HW226439   4.333   3.493   6.200 -0.9060 -2.3082 -1.0072
 4993SOL     OW26440   2.741   1.910   8.291  0.3368  0.4777 -0.1354
 4993SOL    HW126441   2.751   1.815   8.290  0.9415  0.5162  1.8108
 4993SOL    HW226442   2.832   1.942   8.292  1.5147 -2.8939  0.7419
 4994SOL     OW26443   2.930   4.354   1.583  0.9226 -0.5595 -0.5014
 4994SOL    HW126444   2.927   4.263   1.555 -0.5171 -0.6145 -0.1853
 4994SOL    HW226445   2.931   4.347   1.678 -1.3616  1.6630 -0.3117
 4995SOL     OW26446   2.583   3.915   4.915  0.8227 -0.3885  0.3334
 4995SOL    HW126447   2.515   3.854   4.885  0.8786 -0.5468  0.5300
 4995SOL    HW226448   2.604   3.969   4.839  1.2579 -0.8649  0.1158
 4996SOL     OW26449   2.454   0.232   7.365 -0.6321 -0.0355 -0.4978
 4996SOL    HW126450   2.381   0.212   7.306 -0.6666 -1.0291 -0.1278
 4996SOL    HW226451   2.496   0.292   7.304  0.7740  0.0642  0.5765
 4997SOL     OW26452   2.805   0.557   9.262  0.1145  0.0211  0.0016
 4997SOL    HW126453   2.859   0.636   9.267 -0.2588  0.2380  0.6579
 4997SOL    HW226454   2.874   0.496   9.289  0.4753 -1.3889 -4.1515
 4998SOL     OW26455   4.439   3.225   7.485  0.6333 -0.3606  0.2085
 4998SOL    HW126456   4.397   3.249   7.569 -2.3871 -0.5878 -1.2165
 4998SOL    HW226457   4.481   3.140   7.500  0.3326 -0.4787  0.3901
 4999SOL     OW26458   4.375   4.662   1.930 -0.1392  0.5032  0.4256
 4999SOL    HW126459   4.283   4.645   1.949 -0.2011 -1.3997 -1.5799
 4999SOL    HW226460   4.409   4.654   2.019 -1.0093  1.0641  0.8008
 5000SOL     OW26461   1.779   0.254   4.123  0.2514 -0.3370 -0.7254
 5000SOL    HW126462   1.848   0.317   4.100  0.2307  0.1229  0.4724
 5000SOL    HW226463   1.751   0.222   4.037 -0.9523 -0.5366 -0.2541
 5001SOL     OW26464   0.456   3.893   1.910  0.3124  0.1725 -0.1079
 5001SOL    HW126465   0.511   3.816   1.926 -0.5754 -0.5185 -0.4284
 5001SOL    HW226466   0.506   3.944   1.847 -0.3283  1.3575  0.3453
 5002SOL     OW26467   4.421   0.213  16.388  0.6264  0.5165 -0.3353
 5002SOL    HW126468   4.468   0.272  16.447 -0.8019 -0.1177  1.4296
 5002SOL    HW226469   4.332   0.230  16.418  0.8457  1.8399 -0.4545
 5003SOL     OW26470   2.073   4.169   3.487  0.0644 -0.1291 -0.1692
 5003SOL    HW126471   2.006   4.101   3.491 -0.0413 -0.0851 -1.1676
 5003SOL    HW226472   2.101   4.169   3.395  3.5247  2.0076  0.8862
 5004SOL     OW26473   3.655   0.818   1.066  0.5455  0.4596  0.1462
 5004SOL    HW126474   3.693   0.760   1.000  0.2265  0.8377 -0.3632
 5004SOL    HW226475   3.690   0.904   1.046 -1.0558  0.7759 -1.2119
 5005SOL     OW26476   3.776   1.600   8.392  0.8055 -0.5808  0.2940
 5005SOL    HW126477   3.718   1.555   8.454 -0.5585  0.8366  0.0312
 5005SOL    HW226478   3.721   1.622   8.317  0.3653 -0.8301  0.5419
 5006SOL     OW26479   2.386   4.716  10.060 -0.4568 -0.2457 -0.0846
 5006SOL    HW126480   2.424   0.074  10.097 -1.1146  0.0646 -0.0781
 5006SOL    HW226481   2.469   4.679  10.029 -0.6672  0.1823 -1.1438
 5007SOL     OW26482   0.080   3.453   7.239  0.1747 -0.1557 -0.3577
 5007SOL    HW126483   4.709   3.434   7.256  0.1497  1.1705  0.9184
 5007SOL    HW226484   0.128   3.371   7.252  0.8998  0.4140  0.5261
 5008SOL     OW26485   2.924   1.365   5.218  0.0999 -0.0231  0.2555
 5008SOL    HW126486   2.881   1.355   5.133 -0.2213 -0.1098  0.4313
 5008SOL    HW226487   2.869   1.313   5.276  0.6310  0.2200  0.9739
 5009SOL     OW26488   0.114   4.156   8.956 -0.0416 -0.0597 -0.3345
 5009SOL    HW126489   0.098   4.225   9.021  0.4843 -0.0463 -0.2179
 5009SOL    HW226490   0.193   4.184   8.909 -1.6413  2.1001 -1.7590
 5010SOL     OW26491   2.201   2.584  15.554 -0.1265 -0.0299 -0.1579
 5010SOL    HW126492   2.175   2.611  15.466 -0.3667  0.4415  0.0555
 5010SOL    HW226493   2.297   2.576  15.552  0.0887  1.9206  1.1428
 5011SOL     OW26494   1.029   0.413   7.809  0.8286 -0.0804  0.2980
 5011SOL    HW126495   0.976   0.464   7.870 -1.2456 -0.0764 -1.5212
 5011SOL    HW226496   1.023   0.328   7.853 -0.7164 -1.0173 -1.7401
 5012SOL     OW26497   1.597   1.710   7.181 -0.7478 -0.0946 -0.3617
 5012SOL    HW126498   1.579   1.791   7.134  0.2797 -0.3415 -1.1944
 5012SOL    HW226499   1.526   1.706   7.245  0.5060  1.5401  1.1130
 5013SOL     OW26500   4.612   4.642   3.975  0.0988 -0.2062  0.4377
 5013SOL    HW126501   4.598   4.591   3.895 -3.2257  0.2290  0.7431
 5013SOL    HW226502   4.558   4.599   4.042  0.7275 -1.9847 -0.1867
 5014SOL     OW26503   2.365   0.854   4.814  0.0514  0.7189  0.3836
 5014SOL    HW126504   2.299   0.904   4.861 -1.6269 -1.9894  0.9341
 5014SOL    HW226505   2.422   0.919   4.774  1.3203 -2.3740 -2.8118
 5015SOL     OW26506   1.085   1.245   0.583  0.2146  0.1326 -0.1890
 5015SOL    HW126507   1.068   1.256   0.489 -3.5191 -2.1227  0.2338
 5015SOL    HW226508   1.110   1.335   0.606 -0.8174  0.4086 -0.1889
 5016SOL     OW26509   1.185   1.886   2.740  0.2985  0.6950 -0.0672
 5016SOL    HW126510   1.194   1.920   2.651  1.7343  0.3991 -0.0351
 5016SOL    HW226511   1.090   1.873   2.746  0.0825  2.2562 -0.1670
 5017SOL     OW26512   4.192   0.329   1.171  0.0925  0.0693 -0.6583
 5017SOL    HW126513   4.181   0.379   1.089  1.1426  1.3023 -0.0596
 5017SOL    HW226514   4.262   0.266   1.154  0.0596 -0.0918 -0.1739
 5018SOL     OW26515   0.161   0.116   9.387  0.2009  0.2567  0.3661
 5018SOL    HW126516   0.127   0.052   9.450 -2.7475  1.7399  0.2797
 5018SOL    HW226517   0.125   0.069   9.311  1.2378  1.1648 -0.6762
 5019SOL     OW26518   0.811   1.703  11.281 -0.2536 -0.3601 -0.3977
 5019SOL    HW126519   0.849   1.778  11.234 -0.0774  0.7542  1.5137
 5019SOL    HW226520   0.824   1.641  11.209 -2.6416 -2.0770  0.6471
 5020SOL     OW26521   0.596   4.346   6.265  0.7432 -0.0669  0.6704
 5020SOL    HW126522   0.516   4.324   6.312  0.0711  1.4067  0.2278
 5020SOL    HW226523   0.630   4.416   6.321  0.1685  1.2363 -0.6067
 5021SOL     OW26524   0.259   0.710   8.990 -0.1312  0.2500 -0.2975
 5021SOL    HW126525   0.190   0.655   9.028 -0.6404 -0.0918 -1.7216
 5021SOL    HW226526   0.206   0.759   8.928  0.6445  1.5975  0.1155
 5022SOL     OW26527   0.763   3.872  10.901  0.2108  0.2705  0.2159
 5022SOL    HW126528   0.824   3.851  10.971  0.0285  0.0655  0.3095
 5022SOL    HW226529   0.766   3.965  10.925  1.2818  0.9059 -2.3298
 5023SOL     OW26530   3.128   4.191   7.203  0.2648  0.1525 -0.5359
 5023SOL    HW126531   3.185   4.181   7.126 -1.7627 -0.8195 -1.9167
 5023SOL    HW226532   3.058   4.240   7.161 -1.6833 -3.2362 -1.2524
 5024SOL     OW26533   0.435   2.617   5.638 -0.1239 -0.1859  0.2294
 5024SOL    HW126534   0.520   2.578   5.658 -0.3230 -0.4144  0.6253
 5024SOL    HW226535   0.435   2.697   5.690  2.2119  0.0367 -0.1254
 5025SOL     OW26536   2.753   4.066   4.050 -0.5065  0.3268  0.3151
 5025SOL    HW126537   2.754   4.089   3.957 -0.9853 -1.1976 -0.0609
 5025SOL    HW226538   2.802   3.985   4.038  0.0872  1.0577 -2.0687
 5026SOL     OW26539   4.320   4.310  13.234  0.5603 -0.0592 -0.2405
 5026SOL    HW126540   4.372   4.311  13.314  2.4290 -1.3896 -1.4448
 5026SOL    HW226541   4.378   4.352  13.172  0.3817  2.2758  1.1626
 5027SOL     OW26542   2.708   3.601  13.034 -0.2222 -0.5390 -0.2921
 5027SOL    HW126543   2.734   3.531  12.975 -2.7711  0.1945 -2.2461
 5027SOL    HW226544   2.791   3.641  13.062 -1.5402  1.8114  0.2790
 5028SOL     OW26545   1.502   2.212   8.564 -0.1019  0.0432  0.3007
 5028SOL    HW126546   1.551   2.163   8.631 -2.4076 -0.4713  1.6265
 5028SOL    HW226547   1.483   2.139   8.504 -0.0631 -0.9989  1.5435
 5029SOL     OW26548   3.354   4.135   4.270 -0.0917  0.3188  0.5168
 5029SOL    HW126549   3.289   4.179   4.325 -0.1253 -0.3221  0.9940
 5029SOL    HW226550   3.306   4.062   4.230 -1.2134  1.2995  0.0723
 5030SOL     OW26551   2.491   2.511   3.069 -0.2003 -0.4679 -0.2964
 5030SOL    HW126552   2.543   2.475   2.997 -1.3310  2.3610 -2.5189
 5030SOL    HW226553   2.471   2.433   3.121  0.6701 -1.0412 -0.8161
 5031SOL     OW26554   0.561   1.014  11.498  0.2276  0.0328  0.2856
 5031SOL    HW126555   0.621   1.087  11.487  1.6044 -0.7482  2.8218
 5031SOL    HW226556   0.479   1.056  11.523  0.6704  1.7749 -1.1756
 5032SOL     OW26557   3.080   2.659   2.187  0.0433  0.3019  0.0276
 5032SOL    HW126558   3.107   2.589   2.128 -0.9966  0.3254 -0.4807
 5032SOL    HW226559   2.985   2.647   2.188  0.2120 -1.0622 -1.1878
 5033SOL     OW26560   0.229   2.886  17.008 -0.4295  0.6020 -0.1734
 5033SOL    HW126561   0.246   2.979  16.995  3.1056  0.1666  1.1995
 5033SOL    HW226562   0.227   2.877  17.103  0.4339  0.3213 -0.1824
 5034SOL     OW26563   1.561   0.766   4.956 -0.0107 -0.5120  0.1216
 5034SOL    HW126564   1.586   0.776   5.048 -1.5839  0.1996  0.4669
 5034SOL    HW226565   1.550   0.856   4.927  0.8986 -0.3134  0.3788
 5035SOL     OW26566   4.275   2.380   5.156  0.2991  0.4085  0.6279
 5035SOL    HW126567   4.332   2.436   5.208  0.9566  0.5267 -0.2193
 5035SOL    HW226568   4.203   2.357   5.215  2.4291  0.7216  3.3325
 5036SOL     OW26569   1.870   3.049  17.220  0.2358 -0.8484  0.2350
 5036SOL    HW126570   1.832   3.096  17.294  2.0364  0.6093  0.2283
 5036SOL    HW226571   1.796   3.012  17.172  0.2136 -1.0337  0.4131
 5037SOL     OW26572   2.624   0.930   6.929 -0.0163  0.7900 -0.2059
 5037SOL    HW126573   2.662   0.953   6.844  0.0755 -0.5931 -0.5410
 5037SOL    HW226574   2.613   1.021   6.956  1.6856  1.4185 -1.6007
 5038SOL     OW26575   4.174   3.339  16.717 -0.4542  0.6411 -0.3347
 5038SOL    HW126576   4.115   3.412  16.735  0.7077  1.0802  1.7446
 5038SOL    HW226577   4.119   3.268  16.684  0.3667 -1.0340  1.9321
 5039SOL     OW26578   0.298   1.957   2.156  0.3062 -0.5319  0.1818
 5039SOL    HW126579   0.266   1.870   2.133 -0.2736  0.4214 -2.6092
 5039SOL    HW226580   0.380   1.956   2.107 -0.5814  0.3149 -1.3205
 5040SOL     OW26581   3.573   1.987  10.427 -1.0040  0.1412 -0.0891
 5040SOL    HW126582   3.542   1.940  10.349  0.7923 -0.2084 -0.5997
 5040SOL    HW226583   3.665   1.962  10.437 -0.7190  2.0531  1.9587
 5041SOL     OW26584   2.016   2.910  12.915 -0.2935 -0.4258  0.1682
 5041SOL    HW126585   2.004   2.823  12.879 -2.0017 -0.2181  0.2004
 5041SOL    HW226586   1.931   2.953  12.899 -0.2450  0.6171  2.6038
 5042SOL     OW26587   4.452   4.189   6.933 -0.4299  0.3261 -0.2952
 5042SOL    HW126588   4.534   4.165   6.974  1.1940  2.9179 -1.9653
 5042SOL    HW226589   4.450   4.137   6.852  1.0085  0.5883 -0.4887
 5043SOL     OW26590   4.120   1.666  16.340  0.6842 -0.0560 -0.4267
 5043SOL    HW126591   4.142   1.595  16.399 -1.4917 -0.0130  0.4612
 5043SOL    HW226592   4.198   1.661  16.285 -0.1500  0.4343 -1.6638
 5044SOL     OW26593   2.783   3.968   1.348  0.0552  0.0568  0.3840
 5044SOL    HW126594   2.780   4.016   1.265  0.2863 -0.0853  0.2912
 5044SOL    HW226595   2.860   4.004   1.392 -0.3015  1.7867 -0.4223
 5045SOL     OW26596   1.987   0.397   2.743  0.0874 -0.1825 -0.6691
 5045SOL    HW126597   1.905   0.429   2.704 -0.6067 -1.0282  0.0994
 5045SOL    HW226598   1.999   0.315   2.695 -0.4491 -0.3314 -0.5548
 5046SOL     OW26599   4.327   0.232   2.345 -0.8502  0.1877  0.3929
 5046SOL    HW126600   4.280   0.271   2.272 -0.5039 -0.7387 -0.3337
 5046SOL    HW226601   4.276   0.151   2.339  0.9631 -0.7235 -2.2149
 5047SOL     OW26602   2.209   3.068  15.582  0.2211 -0.0258 -0.4936
 5047SOL    HW126603   2.164   3.015  15.517 -0.8951  1.4169 -0.8751
 5047SOL    HW226604   2.221   3.010  15.658  0.1072  0.9369  0.2581
 5048SOL     OW26605   1.964   0.210  14.793  0.2856 -0.8463  0.2060
 5048SOL    HW126606   1.982   0.270  14.721 -0.4084 -1.3146 -0.3572
 5048SOL    HW226607   1.868   0.211  14.801  0.2234  1.3875 -0.6654
 5049SOL     OW26608   4.179   1.653   2.722  0.0771 -0.1829 -0.0772
 5049SOL    HW126609   4.110   1.588   2.716 -0.0942 -0.2619  2.4821
 5049SOL    HW226610   4.195   1.661   2.816 -1.0446  2.9412 -0.1397
 5050SOL     OW26611   0.019   2.086   6.450  0.4585 -0.2668 -0.3656
 5050SOL    HW126612   4.645   2.076   6.455  0.4919 -0.8975 -0.9083
 5050SOL    HW226613   0.046   2.004   6.492  2.6247 -0.0016 -1.2299
 5051SOL     OW26614   0.593   0.738   7.357  0.2661  0.4733 -1.1067
 5051SOL    HW126615   0.536   0.735   7.280  0.0932  0.4987 -0.9816
 5051SOL    HW226616   0.642   0.817   7.336  1.8489 -0.2550 -0.1694
 5052SOL     OW26617   3.048   4.515   4.335 -0.3100  0.2513 -0.3963
 5052SOL    HW126618   3.110   4.551   4.399 -0.1643  0.6727 -0.7716
 5052SOL    HW226619   3.093   4.431   4.330 -1.4148 -0.3206 -0.6694
 5053SOL     OW26620   3.599   2.000   7.374  0.4457  0.1844  0.4547
 5053SOL    HW126621   3.564   2.044   7.451  1.3357  0.9415  0.4142
 5053SOL    HW226622   3.672   2.059   7.356 -1.6040  2.1456 -1.4753
 5054SOL     OW26623   3.081   1.190   3.677 -0.0285 -0.0683 -0.5247
 5054SOL    HW126624   3.172   1.190   3.648  0.7225  2.5596  1.9102
 5054SOL    HW226625   3.048   1.108   3.641  0.3438  0.9270 -3.1164
 5055SOL     OW26626   1.908   3.914   6.445 -0.0946  0.0806 -0.1357
 5055SOL    HW126627   1.847   3.877   6.509  1.1591  0.8521  1.4925
 5055SOL    HW226628   1.991   3.890   6.486  0.1825  1.7913  0.3126
 5056SOL     OW26629   3.027   3.517   8.176  0.0753  0.3012  0.0981
 5056SOL    HW126630   2.983   3.538   8.259 -0.6417  1.8898 -0.6961
 5056SOL    HW226631   3.104   3.570   8.196 -0.1180  0.5499  0.1811
 5057SOL     OW26632   3.534   3.827   5.515  0.3389  0.0732 -0.1806
 5057SOL    HW126633   3.466   3.875   5.562  0.7412  1.3510 -0.9103
 5057SOL    HW226634   3.601   3.896   5.517  1.8099 -1.3800  1.1905
 5058SOL     OW26635   3.764   3.420  10.388  0.2793 -0.1844  0.1096
 5058SOL    HW126636   3.730   3.342  10.345 -1.0204 -0.7459  2.1565
 5058SOL    HW226637   3.757   3.485  10.318 -0.8810 -0.6796 -0.2406
 5059SOL     OW26638   3.634   4.636   1.432 -0.1640 -0.1862 -0.5483
 5059SOL    HW126639   3.673   4.651   1.345  0.8446  0.6366  0.0473
 5059SOL    HW226640   3.692   4.568   1.466 -0.0596  1.2135  2.0578
 5060SOL     OW26641   3.157   2.744   9.434  0.0398 -0.3099 -0.4384
 5060SOL    HW126642   3.207   2.689   9.375 -0.7880  0.5097 -1.9005
 5060SOL    HW226643   3.144   2.824   9.383 -2.3243  0.5721  1.5221
 5061SOL     OW26644   1.812   2.866   1.440  0.1192  0.3893  0.1846
 5061SOL    HW126645   1.746   2.811   1.482  1.0228 -1.0098 -0.1916
 5061SOL    HW226646   1.829   2.936   1.503  1.8014 -1.3471  1.6653
 5062SOL     OW26647   3.885   0.183   6.569  0.6508 -0.4619  0.2903
 5062SOL    HW126648   3.921   0.095   6.581  1.4689 -0.1342  0.2390
 5062SOL    HW226649   3.915   0.230   6.647  1.3296 -1.5674  0.6971
 5063SOL     OW26650   2.483   2.046   9.502 -0.1847  0.6560 -0.3261
 5063SOL    HW126651   2.433   2.088   9.572  0.1216 -0.3633  0.5082
 5063SOL    HW226652   2.482   1.956   9.533  0.3760  0.6047 -0.4594
 5064SOL     OW26653   0.260   1.953   6.852  0.2163  0.1464  0.1048
 5064SOL    HW126654   0.226   1.870   6.817  2.0186 -0.7322  0.3948
 5064SOL    HW226655   0.352   1.926   6.852  0.2874  0.3960 -0.7893
 5065SOL     OW26656   3.269   1.331  15.437  0.3765 -0.1625 -0.1002
 5065SOL    HW126657   3.284   1.285  15.520 -0.3046 -0.1498  0.0338
 5065SOL    HW226658   3.307   1.273  15.372 -0.8839  2.2146 -2.9692
 5066SOL     OW26659   3.562   1.921   8.536 -0.4652 -0.1378 -0.5559
 5066SOL    HW126660   3.567   1.875   8.619  1.5051 -0.3401 -0.7850
 5066SOL    HW226661   3.651   1.907   8.503  0.4494 -1.0974  2.3667
 5067SOL     OW26662   0.146   4.605   2.680 -0.3077 -0.0491 -0.0970
 5067SOL    HW126663   0.144   4.509   2.680 -2.7858  0.0129  0.4991
 5067SOL    HW226664   0.241   4.619   2.680 -0.4231  0.7591 -0.4815
 5068SOL     OW26665   4.685   2.580   1.986  0.0035 -0.1347 -0.3193
 5068SOL    HW126666   4.616   2.570   2.052 -1.0898  0.7500 -1.3262
 5068SOL    HW226667   0.037   2.546   2.037  0.7564  1.7417 -0.1575
 5069SOL     OW26668   0.454   2.024  14.521 -0.6720 -0.4429  0.7078
 5069SOL    HW126669   0.483   1.959  14.585  1.7868 -0.4018 -0.3560
 5069SOL    HW226670   0.368   1.995  14.492 -1.2721  0.2187  1.8738
 5070SOL     OW26671   3.706   0.938   6.296 -0.3293  0.0677 -0.3876
 5070SOL    HW126672   3.645   0.874   6.331  0.7521 -0.7705 -0.0495
 5070SOL    HW226673   3.703   0.995   6.373 -0.4921  1.3516 -1.3445
 5071SOL     OW26674   3.149   2.526   4.482 -0.0517  0.8202 -0.6684
 5071SOL    HW126675   3.128   2.448   4.429  3.2014 -1.3524  1.2635
 5071SOL    HW226676   3.243   2.524   4.500  0.4147  1.9311 -2.9099
 5072SOL     OW26677   4.150   0.436   8.921 -0.1979 -0.7316  0.0286
 5072SOL    HW126678   4.064   0.471   8.896 -0.5708 -0.4204  1.7676
 5072SOL    HW226679   4.196   0.490   8.857  0.8467 -1.5237  0.1143
 5073SOL     OW26680   1.364   1.188   4.842  0.0014  0.6158  0.1141
 5073SOL    HW126681   1.312   1.181   4.763  2.2693 -0.6077 -1.2798
 5073SOL    HW226682   1.300   1.176   4.912 -0.1112 -0.1670 -0.1291
 5074SOL     OW26683   0.560   0.339   3.651 -0.5354  0.0509  0.3535
 5074SOL    HW126684   0.517   0.388   3.582 -0.6269  0.4234  0.6755
 5074SOL    HW226685   0.631   0.298   3.602 -1.2051  1.5158 -1.8142
 5075SOL     OW26686   3.449   4.266   6.335 -0.1755 -0.3263  0.7082
 5075SOL    HW126687   3.530   4.285   6.288  0.4711  0.4862  2.1572
 5075SOL    HW226688   3.467   4.176   6.362 -3.4901 -1.4693 -0.8743
 5076SOL     OW26689   1.148   2.581   4.777 -0.8851  0.2756 -0.3025
 5076SOL    HW126690   1.078   2.621   4.828  0.1850  0.7533  0.8048
 5076SOL    HW226691   1.226   2.623   4.813 -0.7101  0.1085 -0.4850
 5077SOL     OW26692   0.580   2.076   1.301 -0.0033  0.3257  0.1968
 5077SOL    HW126693   0.564   1.995   1.349  0.2877 -0.2293 -0.6583
 5077SOL    HW226694   0.568   2.046   1.211  0.9968 -1.7669  0.7608
 5078SOL     OW26695   2.987   2.086   3.449  0.6686  0.4326 -0.5544
 5078SOL    HW126696   2.970   2.108   3.541  0.6168  0.3701 -0.5494
 5078SOL    HW226697   3.081   2.074   3.461  0.9749  2.8254 -0.5434
 5079SOL     OW26698   3.297   4.021   8.420  0.1627 -0.5467  0.3344
 5079SOL    HW126699   3.339   4.088   8.475  0.3244  1.7825 -2.6092
 5079SOL    HW226700   3.363   3.956   8.395 -1.5392 -1.1301 -2.6206
 5080SOL     OW26701   2.562   1.673  11.477 -0.0676  0.3944 -0.4635
 5080SOL    HW126702   2.498   1.740  11.505 -0.1172  1.0533 -2.1673
 5080SOL    HW226703   2.580   1.697  11.387 -2.8349  0.5537 -0.9861
 5081SOL     OW26704   2.047   1.492   0.511  0.4681  0.2217 -0.0538
 5081SOL    HW126705   1.979   1.496   0.444 -1.4241 -0.6283  1.7995
 5081SOL    HW226706   2.012   1.456   0.593  1.6824  2.0686  1.2681
 5082SOL     OW26707   0.818   2.451   3.742  0.5148 -0.2075  0.1522
 5082SOL    HW126708   0.828   2.372   3.688 -0.1455 -0.2396  0.0811
 5082SOL    HW226709   0.724   2.463   3.730  0.4833 -0.7554 -0.1605
 5083SOL     OW26710   3.820   4.558   2.314  0.1863 -0.4913 -0.0914
 5083SOL    HW126711   3.851   4.597   2.395  0.0895  3.8579 -2.1421
 5083SOL    HW226712   3.891   4.494   2.305 -0.2727 -0.8641 -1.1823
 5084SOL     OW26713   2.624   2.819   3.089  0.7074 -0.2634  0.3017
 5084SOL    HW126714   2.603   2.750   3.027 -2.1465  2.5154 -1.8344
 5084SOL    HW226715   2.704   2.855   3.051  1.1764 -1.4364  0.1704
 5085SOL     OW26716   4.603   2.918   3.974 -0.4991  0.2746 -0.1361
 5085SOL    HW126717   4.534   2.984   3.978 -0.2214  0.6501 -1.4017
 5085SOL    HW226718   4.682   2.972   3.967 -0.7754  0.4784 -1.6555
 5086SOL     OW26719   2.008   2.324   5.001  0.2449  0.0160 -0.7598
 5086SOL    HW126720   1.913   2.330   4.990  0.0335 -0.0422  1.0110
 5086SOL    HW226721   2.014   2.291   5.091  1.6490 -0.9492 -1.2067
 5087SOL     OW26722   4.193   2.974   6.263 -0.0981  0.2883 -0.2635
 5087SOL    HW126723   4.225   3.063   6.273  1.3838 -0.4865  1.9806
 5087SOL    HW226724   4.132   2.984   6.190 -1.3616  1.3992  0.9593
 5088SOL     OW26725   4.577   1.418   2.185  0.3100 -0.1028  0.4520
 5088SOL    HW126726   4.527   1.383   2.259 -0.5465  2.7064  1.1921
 5088SOL    HW226727   4.535   1.501   2.164 -1.3606 -1.7080 -2.5527
 5089SOL     OW26728   3.720   3.378   6.365 -0.1459 -0.0023 -0.1167
 5089SOL    HW126729   3.662   3.394   6.290  0.5275 -2.6698 -1.2022
 5089SOL    HW226730   3.759   3.295   6.340  0.8378  0.4836 -0.2219
 5090SOL     OW26731   3.910   0.644   2.774 -0.9323 -0.0017  0.4887
 5090SOL    HW126732   3.893   0.718   2.716 -0.9129  0.6656  1.3243
 5090SOL    HW226733   3.889   0.570   2.717  1.1404  1.5135 -2.1858
 5091SOL     OW26734   2.691   0.956   8.339  0.0519 -0.3215 -0.0028
 5091SOL    HW126735   2.609   1.001   8.359 -0.3133 -0.3316 -1.5311
 5091SOL    HW226736   2.757   0.989   8.401  0.5870  0.4740 -0.9981
 5092SOL     OW26737   2.122   3.510   4.477  0.3495  0.1757 -0.2110
 5092SOL    HW126738   2.178   3.550   4.410  0.5620  0.1027 -0.0776
 5092SOL    HW226739   2.109   3.420   4.451  0.5770  0.1118 -0.1069
 5093SOL     OW26740   2.378   0.422   3.309  0.6404  0.0239  0.1995
 5093SOL    HW126741   2.372   0.327   3.297  1.9093  0.0839 -0.8730
 5093SOL    HW226742   2.466   0.440   3.275 -0.3332  0.5420 -1.9940
 5094SOL     OW26743   1.598   0.465  10.638  0.1403 -0.0034 -0.1115
 5094SOL    HW126744   1.536   0.413  10.588  0.4495  0.1349 -0.6392
 5094SOL    HW226745   1.597   0.420  10.723 -0.0837  1.0559  0.4592
 5095SOL     OW26746   0.840   4.071   1.675 -0.2027  0.0724  0.3913
 5095SOL    HW126747   0.747   4.054   1.690 -0.0673 -0.2413  0.9009
 5095SOL    HW226748   0.840   4.078   1.579 -1.5896 -2.3918  0.2193
 5096SOL     OW26749   3.608   2.652   3.724 -0.0187 -0.5231  0.0142
 5096SOL    HW126750   3.618   2.673   3.631 -1.2329  3.3377  0.7709
 5096SOL    HW226751   3.516   2.665   3.745  0.1848  1.3521 -0.2526
 5097SOL     OW26752   0.446   4.421   4.518 -0.0236 -0.2759 -0.2428
 5097SOL    HW126753   0.491   4.454   4.595  1.5874  0.9172 -1.7060
 5097SOL    HW226754   0.370   4.378   4.558  0.4389 -0.7958  0.0764
 5098SOL     OW26755   3.655   2.707   0.528  0.2015 -0.1503  0.2021
 5098SOL    HW126756   3.636   2.618   0.498  0.1992 -1.1234  3.0335
 5098SOL    HW226757   3.738   2.692   0.573  0.3032  0.9788  0.4033
 5099SOL     OW26758   2.284   0.610  13.852 -0.0961  0.3766  0.1498
 5099SOL    HW126759   2.263   0.604  13.945  0.7068 -1.0851  0.2331
 5099SOL    HW226760   2.374   0.578  13.864 -0.6766 -0.5433  2.0179
 5100SOL     OW26761   4.028   4.695  17.157 -0.3440 -0.0004  0.1696
 5100SOL    HW126762   4.107   4.689  17.210  0.6655 -0.9712 -1.4627
 5100SOL    HW226763   4.006   0.067  17.161  1.6360  0.3591  2.0689
 5101SOL     OW26764   4.291   4.485   1.647 -0.5328  0.1205  0.0421
 5101SOL    HW126765   4.217   4.545   1.657  1.1037  2.2307 -0.6183
 5101SOL    HW226766   4.265   4.450   1.562  0.4572 -0.4586 -0.0187
 5102SOL     OW26767   0.010   0.451   4.351  0.1265  0.1974  0.5033
 5102SOL    HW126768   0.102   0.464   4.329  0.4073  0.1322  1.6492
 5102SOL    HW226769   0.023   0.415   4.439  2.0864  2.0271  0.9339
 5103SOL     OW26770   4.152   1.450   4.319 -0.0882  0.5318  0.6190
 5103SOL    HW126771   4.194   1.522   4.366 -0.1300  0.8566  0.1562
 5103SOL    HW226772   4.108   1.507   4.256  2.1729  2.8415  1.1175
 5104SOL     OW26773   2.166   3.121   6.835  0.0159 -0.6039 -0.4016
 5104SOL    HW126774   2.165   3.182   6.761  0.8481  1.7663  1.5606
 5104SOL    HW226775   2.163   3.035   6.793  0.7936 -1.3663  1.1107
 5105SOL     OW26776   1.166   2.067   2.946  0.7713 -0.1476 -0.9370
 5105SOL    HW126777   1.075   2.060   2.974  0.5863  2.2694 -0.9333
 5105SOL    HW226778   1.187   1.982   2.908  3.2970 -1.4732  3.3751
 5106SOL     OW26779   2.230   0.268   0.352 -0.1897 -0.1377 -0.3287
 5106SOL    HW126780   2.237   0.203   0.282  3.2514  0.1217 -0.2098
 5106SOL    HW226781   2.156   0.321   0.322 -0.9462  0.2420  2.1277
 5107SOL     OW26782   2.399   2.221   7.468  0.4506  0.7477 -0.1970
 5107SOL    HW126783   2.473   2.201   7.525 -0.4226 -2.5209 -0.1742
 5107SOL    HW226784   2.400   2.161   7.393 -0.8190 -0.4999  0.7658
 5108SOL     OW26785   0.175   2.222   2.687 -0.7342 -0.6745  0.7040
 5108SOL    HW126786   0.189   2.248   2.596  0.6154 -2.0493  0.5161
 5108SOL    HW226787   0.249   2.162   2.699  0.1845  0.5400  1.0635
 5109SOL     OW26788   4.341   1.565   3.654  0.3237  0.1537 -0.0043
 5109SOL    HW126789   4.253   1.527   3.652  0.1164  0.5942  0.6630
 5109SOL    HW226790   4.378   1.505   3.718  1.8331  1.7309  0.6038
 5110SOL     OW26791   3.484   0.850   7.837  0.0066  0.0798  0.0854
 5110SOL    HW126792   3.522   0.881   7.755  2.2705 -1.2848  0.6258
 5110SOL    HW226793   3.464   0.928   7.889 -1.5770  0.5688 -1.2660
 5111SOL     OW26794   0.519   3.211   8.285 -0.4944  0.0717 -0.2071
 5111SOL    HW126795   0.479   3.201   8.371  2.2817 -1.6770  0.8629
 5111SOL    HW226796   0.597   3.265   8.298 -0.7652  0.8562 -1.7376
 5112SOL     OW26797   2.052   1.174  10.057  0.0706 -0.1416  0.4843
 5112SOL    HW126798   1.956   1.172  10.057  0.0708 -0.8754 -1.6659
 5112SOL    HW226799   2.056   1.102   9.994  1.8466 -0.1555  0.6131
 5113SOL     OW26800   0.934   2.225   3.408 -0.3090 -0.1181  0.6480
 5113SOL    HW126801   0.998   2.294   3.390  0.4611 -0.4839  2.0337
 5113SOL    HW226802   0.996   2.162   3.443  0.4100  1.0841  1.5436
 5114SOL     OW26803   3.183   2.575  11.618  0.7356  0.3887  0.2066
 5114SOL    HW126804   3.155   2.554  11.707 -1.6076 -0.3509 -0.7010
 5114SOL    HW226805   3.229   2.658  11.630  1.2616 -0.2056  2.1540
 5115SOL     OW26806   1.131   0.070   7.838 -0.3752  0.2093  0.3300
 5115SOL    HW126807   1.133   4.708   7.885  0.3113  1.0272  1.7502
 5115SOL    HW226808   1.089   0.035   7.759 -2.0222  0.1608  1.2430
 5116SOL     OW26809   2.238   1.860  14.807  0.0273 -0.0285 -0.4657
 5116SOL    HW126810   2.246   1.765  14.806  3.0798  0.2513 -2.3236
 5116SOL    HW226811   2.322   1.881  14.849 -0.6555  3.2712 -0.7126
 5117SOL     OW26812   2.247   2.237  11.616 -0.1547  0.4005  0.1043
 5117SOL    HW126813   2.262   2.241  11.522 -0.1881  0.9888  0.1213
 5117SOL    HW226814   2.322   2.283  11.653 -1.7962  4.0669 -1.1498
 5118SOL     OW26815   1.525   3.158   3.328 -0.1438 -0.3143  0.6102
 5118SOL    HW126816   1.452   3.220   3.331  0.5918  0.5759  0.3762
 5118SOL    HW226817   1.477   3.076   3.335 -1.8126  0.5332 -1.0830
 5119SOL     OW26818   4.086   3.522   1.604  0.1143 -0.2993 -0.0398
 5119SOL    HW126819   4.107   3.570   1.684  0.6858 -1.3134  0.4291
 5119SOL    HW226820   4.020   3.579   1.565  1.2195  0.9662 -0.0751
 5120SOL     OW26821   4.640   3.528   0.848 -0.1371 -0.4567  0.7764
 5120SOL    HW126822   4.625   3.444   0.804  0.0106 -0.5653  0.9315
 5120SOL    HW226823   4.595   3.592   0.794 -0.2203 -0.8531  0.3752
 5121SOL     OW26824   3.577   4.415   2.336 -0.2235 -0.1018  0.0399
 5121SOL    HW126825   3.616   4.483   2.392  2.5848  1.2154 -3.4806
 5121SOL    HW226826   3.531   4.364   2.403 -0.4927  0.0999  0.0097
 5122SOL     OW26827   0.368   3.058   4.029  0.2031 -0.2468 -0.0923
 5122SOL    HW126828   0.379   3.154   4.028 -0.0723 -0.2327 -1.5810
 5122SOL    HW226829   0.354   3.034   3.938  0.1511 -1.0217  0.1224
 5123SOL     OW26830   3.846   1.410   7.097 -0.7128  0.0305 -0.2199
 5123SOL    HW126831   3.753   1.415   7.078 -0.8284  1.1298  0.6617
 5123SOL    HW226832   3.858   1.494   7.140 -2.2013  0.1168  0.0299
 5124SOL     OW26833   0.739   3.513   5.582  0.5050  0.2282  0.1791
 5124SOL    HW126834   0.715   3.466   5.661 -0.6158 -0.7391 -0.7508
 5124SOL    HW226835   0.657   3.560   5.568 -0.4174 -0.9328  1.7387
 5125SOL     OW26836   1.926   4.716   1.786  0.1587  0.2134  0.1440
 5125SOL    HW126837   1.902   4.670   1.706  1.0200 -0.0853  0.0523
 5125SOL    HW226838   2.001   4.663   1.813 -0.0345 -0.1439 -0.0220
 5126SOL     OW26839   1.131   4.652  15.189  0.4046 -0.5295  0.2956
 5126SOL    HW126840   1.208   4.655  15.133  0.5566  0.3163  0.5444
 5126SOL    HW226841   1.075   4.590  15.142  0.4435 -0.2172 -0.1600
 5127SOL     OW26842   3.947   4.392   8.147  0.4010  0.1105 -0.1806
 5127SOL    HW126843   4.034   4.421   8.119  0.6644 -0.0910  0.4161
 5127SOL    HW226844   3.893   4.447   8.091  0.7453  1.4522  0.8121
 5128SOL     OW26845   3.591   3.064   5.991 -0.7200  0.3075  0.4106
 5128SOL    HW126846   3.526   3.114   6.040 -1.0286 -0.7166  1.0457
 5128SOL    HW226847   3.549   3.067   5.905 -2.8878  1.1032  1.5132
 5129SOL     OW26848   2.423   3.859   3.015  0.3623  0.3217 -0.0528
 5129SOL    HW126849   2.469   3.924   3.070 -2.3284  0.4477  2.0361
 5129SOL    HW226850   2.341   3.908   3.010 -0.4329 -1.1639 -1.3139
 5130SOL     OW26851   3.473   4.368  11.904 -0.3549 -0.5802  0.4257
 5130SOL    HW126852   3.468   4.430  11.831 -0.9388  0.1983  1.1237
 5130SOL    HW226853   3.489   4.288  11.855  2.0855 -0.0897  0.4395
 5131SOL     OW26854   2.596   2.662   1.909 -0.4282  0.8526 -0.4085
 5131SOL    HW126855   2.646   2.598   1.857  3.0307  1.7404  1.8017
 5131SOL    HW226856   2.564   2.595   1.968  2.4712  1.4130  1.7978
 5132SOL     OW26857   0.111   4.411   7.896 -0.0949 -0.2647 -0.0393
 5132SOL    HW126858   0.205   4.410   7.876 -0.0417 -0.0667  0.2056
 5132SOL    HW226859   0.098   4.504   7.878 -1.3374 -0.5235 -0.4803
 5133SOL     OW26860   2.477   3.307   5.513 -0.2965 -0.2361  0.1627
 5133SOL    HW126861   2.533   3.237   5.547 -0.5809 -0.4405  0.2126
 5133SOL    HW226862   2.446   3.271   5.430  0.6102 -1.7914  0.5189
 5134SOL     OW26863   0.147   2.204   1.963 -0.7507  0.5981  0.2359
 5134SOL    HW126864   0.142   2.120   1.917 -2.5801 -0.7983  3.0012
 5134SOL    HW226865   0.166   2.268   1.895  2.1768 -2.1815 -1.5817
 5135SOL     OW26866   0.379   3.894   3.855 -0.5783  0.1788  0.1424
 5135SOL    HW126867   0.299   3.844   3.871 -1.5903  2.3249  1.7043
 5135SOL    HW226868   0.444   3.830   3.826  0.5174  0.3253  2.2949
 5136SOL     OW26869   2.958   0.833   9.285  1.3224  0.1129 -0.6076
 5136SOL    HW126870   3.052   0.825   9.301  1.5281 -1.0868 -2.3642
 5136SOL    HW226871   2.930   0.813   9.374  0.8092 -2.5864 -1.3595
 5137SOL     OW26872   2.824   0.989  12.517 -0.1260  0.0882 -0.2436
 5137SOL    HW126873   2.838   0.927  12.588  2.0276 -0.9173 -1.5647
 5137SOL    HW226874   2.805   1.069  12.567  1.2018 -0.4739  1.1752
 5138SOL     OW26875   1.429   0.901   8.267 -0.3570  0.1988 -0.4189
 5138SOL    HW126876   1.346   0.902   8.220 -2.9167  0.0142  4.1770
 5138SOL    HW226877   1.407   0.866   8.353  3.5007  0.1292  0.5400
 5139SOL     OW26878   2.781   0.971  11.324  0.3963  0.3724 -0.0999
 5139SOL    HW126879   2.749   1.061  11.329 -2.0311 -0.3443 -2.4493
 5139SOL    HW226880   2.855   0.971  11.384 -0.6003  0.0378  1.1219
 5140SOL     OW26881   0.939   0.711   4.267  0.3540 -0.2687 -0.1036
 5140SOL    HW126882   0.932   0.720   4.362  0.1318 -1.0811 -0.0444
 5140SOL    HW226883   0.942   0.615   4.271 -0.1020 -0.2133  1.5202
 5141SOL     OW26884   3.875   3.939   4.275  0.5493  0.3478  0.1887
 5141SOL    HW126885   3.797   3.957   4.222  0.0694  3.3022  1.8567
 5141SOL    HW226886   3.847   3.860   4.320 -1.8713  1.6084  0.8918
 5142SOL     OW26887   1.774   1.975   3.591  0.0882  0.1736 -0.3738
 5142SOL    HW126888   1.705   2.002   3.651 -0.8684 -0.4337 -1.2164
 5142SOL    HW226889   1.752   1.886   3.564  0.3656 -0.2119  0.6566
 5143SOL     OW26890   2.433   1.499   4.189  0.1655 -0.4811 -0.0243
 5143SOL    HW126891   2.400   1.415   4.156 -2.2135  1.1493 -1.7621
 5143SOL    HW226892   2.525   1.472   4.198  0.5286  0.1519 -1.8850
 5144SOL     OW26893   0.873   1.295   2.315 -0.3142 -0.0422  0.0287
 5144SOL    HW126894   0.879   1.203   2.290 -0.4885 -0.3535  1.1500
 5144SOL    HW226895   0.900   1.330   2.230  0.8574 -0.2612  0.3139
 5145SOL     OW26896   1.360   0.626   8.970  0.2296  0.2717  0.3289
 5145SOL    HW126897   1.364   0.722   8.977  0.8728  0.4564 -2.4616
 5145SOL    HW226898   1.371   0.614   8.875  1.7126  0.9034  0.4268
 5146SOL     OW26899   0.653   0.194   4.523 -0.0687 -0.5278  0.1711
 5146SOL    HW126900   0.718   0.185   4.454 -1.7658  0.0118 -1.5128
 5146SOL    HW226901   0.603   0.114   4.506 -1.1897 -0.0443  1.1626
 5147SOL     OW26902   3.769   2.842   8.697  0.2482 -1.3221 -0.1695
 5147SOL    HW126903   3.811   2.834   8.611 -2.3564  0.2219 -1.5759
 5147SOL    HW226904   3.847   2.814   8.746  1.2321 -0.7449 -1.4001
 5148SOL     OW26905   1.037   3.787   2.426  0.1680 -0.2226  0.2748
 5148SOL    HW126906   1.068   3.809   2.338 -0.0594 -0.0724  0.2310
 5148SOL    HW226907   0.957   3.737   2.414  1.0850 -1.6856  0.3309
 5149SOL     OW26908   2.336   0.424   8.063  0.3390  0.6040 -0.0487
 5149SOL    HW126909   2.263   0.420   8.124  1.2708  0.7013  1.0787
 5149SOL    HW226910   2.304   0.371   7.990  1.0211 -0.0082  0.0917
 5150SOL     OW26911   2.743   2.401   4.016  0.0867 -0.1137  0.0585
 5150SOL    HW126912   2.817   2.341   4.006 -0.5673 -1.1597  1.3939
 5150SOL    HW226913   2.688   2.365   3.947  1.5363 -0.9379 -0.6683
 5151SOL     OW26914   2.114   1.493   5.606 -0.4709  0.1986 -0.1686
 5151SOL    HW126915   2.121   1.486   5.510  2.1777 -2.1739  0.2107
 5151SOL    HW226916   2.207   1.498   5.625 -0.6521 -0.5733  0.8708
 5152SOL     OW26917   3.287   2.458   8.609  0.1992  0.1193  0.0424
 5152SOL    HW126918   3.196   2.444   8.584 -0.1774 -2.2108  2.6965
 5152SOL    HW226919   3.289   2.395   8.681 -0.6482  2.2262  1.8857
 5153SOL     OW26920   4.040   4.404  12.846  0.2629 -0.4172  0.1484
 5153SOL    HW126921   4.003   4.380  12.931  2.0553  0.0549  1.0585
 5153SOL    HW226922   4.131   4.373  12.855  0.2251 -1.0331 -1.4137
 5154SOL     OW26923   2.402   3.273   8.917 -0.4077  0.3778 -0.6617
 5154SOL    HW126924   2.376   3.198   8.970  2.4856 -0.9672 -1.1035
 5154SOL    HW226925   2.395   3.231   8.831 -1.0256  0.2412 -0.5394
 5155SOL     OW26926   0.402   1.126  14.507 -0.1852  0.1771  0.1013
 5155SOL    HW126927   0.487   1.138  14.550  0.9997 -0.0614 -2.1703
 5155SOL    HW226928   0.423   1.063  14.438  0.7614  0.2984  0.2840
 5156SOL     OW26929   1.569   1.547   0.480  0.0115 -0.4626  0.3307
 5156SOL    HW126930   1.538   1.629   0.442  0.2676 -0.4928  0.0566
 5156SOL    HW226931   1.622   1.522   0.405  2.1614 -1.9318  2.3366
 5157SOL     OW26932   0.339   2.480   0.265  0.0812  0.6806 -0.1839
 5157SOL    HW126933   0.433   2.484   0.253  0.7245 -1.3802  3.7931
 5157SOL    HW226934   0.329   2.506   0.357  0.1811 -0.1751  0.0708
 5158SOL     OW26935   4.552   2.589   5.988  0.0272 -0.0800 -0.2445
 5158SOL    HW126936   4.467   2.548   6.001 -0.2837  0.5321 -0.3961
 5158SOL    HW226937   4.595   2.570   6.071  0.9948  3.1820 -0.0242
 5159SOL     OW26938   2.009   0.604   9.034  0.4589 -0.9200  0.3286
 5159SOL    HW126939   1.924   0.570   9.061  0.9392 -2.0901  0.3858
 5159SOL    HW226940   2.036   0.671   9.096 -2.2607  0.5124 -0.0538
 5160SOL     OW26941   0.779   3.194  10.569 -0.3678  0.8513  0.1701
 5160SOL    HW126942   0.789   3.100  10.583 -0.1934  1.0408  1.2634
 5160SOL    HW226943   0.692   3.220  10.598 -0.7174 -0.2370  0.1087
 5161SOL     OW26944   0.442   2.684  11.477  0.7253  0.4394  0.1659
 5161SOL    HW126945   0.405   2.751  11.533 -0.6432  1.5895 -2.1394
 5161SOL    HW226946   0.477   2.739  11.407  0.0719 -2.6765 -2.6451
 5162SOL     OW26947   1.888   0.809   8.295  0.4099 -0.1379  0.3978
 5162SOL    HW126948   1.932   0.724   8.287 -0.1597 -0.3075 -0.8728
 5162SOL    HW226949   1.846   0.809   8.381 -1.2697  1.5793 -0.4370
 5163SOL     OW26950   2.219   1.987   6.935  0.0053  0.1369  0.6279
 5163SOL    HW126951   2.194   2.029   7.017 -0.1296  0.5797  0.3547
 5163SOL    HW226952   2.161   1.911   6.940 -0.7983  0.7134  0.0722
 5164SOL     OW26953   1.395   0.337   7.491  0.3342 -0.4378  0.1250
 5164SOL    HW126954   1.469   0.282   7.463  0.3921  0.5740 -1.6992
 5164SOL    HW226955   1.336   0.278   7.540  0.6662 -1.2587 -0.4549
 5165SOL     OW26956   3.851   2.978   5.125  0.9446 -0.3896 -0.3755
 5165SOL    HW126957   3.882   2.917   5.191 -1.2686  0.4222  1.4419
 5165SOL    HW226958   3.758   2.983   5.148  1.3623  3.0745  0.6225
 5166SOL     OW26959   1.636   0.819   6.236 -0.6306  0.1927 -0.0827
 5166SOL    HW126960   1.624   0.898   6.183  2.5402 -0.7301 -2.2176
 5166SOL    HW226961   1.711   0.841   6.291 -2.8714 -1.7792  3.7921
 5167SOL     OW26962   1.536   4.678   1.934  0.1561 -0.4794  0.5740
 5167SOL    HW126963   1.492   0.009   2.000  0.9931 -0.0316  0.7675
 5167SOL    HW226964   1.542   0.022   1.864  0.4809 -0.2083  0.8540
 5168SOL     OW26965   4.470   0.337  15.870 -0.0667 -0.2031 -0.8202
 5168SOL    HW126966   4.516   0.257  15.844  0.5564  0.2419 -1.0540
 5168SOL    HW226967   4.481   0.338  15.965  2.3254  0.7436 -1.1204
 5169SOL     OW26968   2.991   2.003   4.355 -0.7096 -0.2075 -0.6000
 5169SOL    HW126969   3.066   1.954   4.319 -0.3056  0.0522 -0.1248
 5169SOL    HW226970   2.977   1.970   4.444 -0.8601  1.9212  0.1661
 5170SOL     OW26971   3.885   3.686   1.527 -0.2825  0.1079  0.3022
 5170SOL    HW126972   3.792   3.700   1.508 -0.9652 -1.8894  2.0287
 5170SOL    HW226973   3.885   3.743   1.604  0.5807 -1.3993  1.4301
 5171SOL     OW26974   1.550   0.276   3.237 -0.0052  0.1604  0.1900
 5171SOL    HW126975   1.528   0.241   3.151  0.1263  0.3848  0.0641
 5171SOL    HW226976   1.628   0.229   3.265 -2.3276 -3.3796  0.6567
 5172SOL     OW26977   0.825   2.807   7.183  0.2513  0.0127 -0.3655
 5172SOL    HW126978   0.866   2.891   7.164  0.3882  0.0546  0.1079
 5172SOL    HW226979   0.893   2.743   7.161  1.0069  0.4623  0.6501
 5173SOL     OW26980   3.991   4.388   3.584  0.1440 -0.8165 -0.3985
 5173SOL    HW126981   3.899   4.376   3.561  1.1288 -2.3251 -3.5945
 5173SOL    HW226982   4.019   4.330   3.513  1.8669 -1.1186  0.5233
 5174SOL     OW26983   1.992   3.848   2.838  0.3879  0.1462  0.4663
 5174SOL    HW126984   1.902   3.827   2.863 -0.1923  2.3556  0.2328
 5174SOL    HW226985   2.001   3.817   2.748 -0.0756 -0.2406  0.5569
 5175SOL     OW26986   1.250   1.871  12.656 -0.0360  0.4172  0.1842
 5175SOL    HW126987   1.167   1.829  12.677 -0.5476  0.4846 -1.7103
 5175SOL    HW226988   1.287   1.817  12.586 -2.3484  0.6121 -1.1942
 5176SOL     OW26989   3.721   3.151   2.293 -0.5079 -0.1195 -0.3652
 5176SOL    HW126990   3.712   3.207   2.371 -0.6112  0.2128 -0.6175
 5176SOL    HW226991   3.749   3.069   2.333  0.4089 -0.1254 -1.0338
 5177SOL     OW26992   3.336   3.601   0.523 -0.0067 -0.3613 -0.0552
 5177SOL    HW126993   3.386   3.568   0.598  0.4402  1.9171  0.6267
 5177SOL    HW226994   3.310   3.522   0.474  0.0584 -0.4029 -0.0225
 5178SOL     OW26995   2.902   0.537  14.389 -0.2115 -0.3065 -0.2414
 5178SOL    HW126996   2.870   0.507  14.304  0.5925  0.7518 -0.9226
 5178SOL    HW226997   2.825   0.587  14.417  2.1238  1.3073  3.2677
 5179SOL     OW26998   0.074   1.690   5.920 -0.4139 -0.2678  0.1663
 5179SOL    HW126999   0.015   1.701   5.845 -0.0082  0.6069 -0.0270
 5179SOL    HW227000   0.048   1.608   5.961 -2.1942  0.7151  1.0167
 5180SOL     OW27001   1.222   2.930   7.317 -0.1130 -0.4799 -0.3607
 5180SOL    HW127002   1.284   2.881   7.263 -0.8885 -0.4158 -1.3210
 5180SOL    HW227003   1.273   3.010   7.326 -0.9183 -0.1456  1.2888
 5181SOL     OW27004   0.615   2.266   1.547 -0.2549 -0.0685 -0.0846
 5181SOL    HW127005   0.620   2.236   1.456 -0.2056  0.1092 -0.1395
 5181SOL    HW227006   0.523   2.252   1.568  0.4098 -1.7409  1.8630
 5182SOL     OW27007   3.293   0.775   5.038 -0.1701 -0.0164  0.2865
 5182SOL    HW127008   3.236   0.781   4.961  1.3871 -2.4271 -1.0460
 5182SOL    HW227009   3.307   0.683   5.061  0.1485 -0.1056 -0.2573
 5183SOL     OW27010   4.100   0.477   0.947  0.0414  0.6817 -0.4498
 5183SOL    HW127011   4.166   0.546   0.944  0.8158 -0.0626 -0.3588
 5183SOL    HW227012   4.036   0.528   0.897  0.2441  1.9443  0.6034
 5184SOL     OW27013   1.737   4.177  12.193  0.3114  0.8701 -0.1879
 5184SOL    HW127014   1.679   4.204  12.264  1.7333 -0.9804  1.6822
 5184SOL    HW227015   1.692   4.201  12.112 -0.0832  0.6381 -0.0365
 5185SOL     OW27016   0.136   1.399   5.588 -0.1284 -0.0614  0.0656
 5185SOL    HW127017   0.075   1.411   5.661  0.6378  1.6757  0.4207
 5185SOL    HW227018   0.210   1.353   5.627 -1.7161 -3.0778 -0.4299
 5186SOL     OW27019   4.472   4.402   4.073  0.0613 -0.7131  0.1611
 5186SOL    HW127020   4.444   4.311   4.082  0.9368 -0.9288  0.6618
 5186SOL    HW227021   4.527   4.407   4.151  1.4017  1.6003 -0.9053
 5187SOL     OW27022   2.722   3.063  12.510  0.0181 -0.1640 -0.0851
 5187SOL    HW127023   2.651   3.070  12.574  1.3763 -2.7068  1.6858
 5187SOL    HW227024   2.677   3.038  12.429  0.3302 -1.9262  0.2925
 5188SOL     OW27025   4.361   3.428   5.746 -0.1148  0.2497  0.9081
 5188SOL    HW127026   4.326   3.353   5.795 -0.5418 -0.1829 -0.0508
 5188SOL    HW227027   4.343   3.391   5.660 -0.7549  0.1299  1.0936
 5189SOL     OW27028   2.599   3.046   0.735  0.2414 -0.1397  0.1262
 5189SOL    HW127029   2.686   3.053   0.696  0.1640  2.0871  0.3619
 5189SOL    HW227030   2.550   3.031   0.654  0.8098 -1.1434 -0.0311
 5190SOL     OW27031   3.996   4.435   6.639  0.1372  0.0693 -0.5078
 5190SOL    HW127032   3.940   4.392   6.574 -1.5532 -1.9219  2.3057
 5190SOL    HW227033   4.085   4.404   6.622 -0.5174 -0.4037 -3.0323
 5191SOL     OW27034   1.046   3.436   0.336  0.1527 -0.2275 -0.5991
 5191SOL    HW127035   1.132   3.475   0.322  1.1167 -2.0339  0.3094
 5191SOL    HW227036   1.052   3.410   0.428  2.1116  4.5912  0.6121
 5192SOL     OW27037   1.160   1.440   4.151 -0.7437  0.4879 -0.5417
 5192SOL    HW127038   1.199   1.467   4.234  1.0155  0.7980 -1.4579
 5192SOL    HW227039   1.201   1.514   4.105 -2.9651  0.5091 -2.5054
 5193SOL     OW27040   3.824   3.395   1.492  0.5605 -0.0319 -0.2584
 5193SOL    HW127041   3.732   3.421   1.494  0.5800  0.1956 -2.1135
 5193SOL    HW227042   3.858   3.436   1.571  1.2241 -0.7724 -0.1634
 5194SOL     OW27043   3.698   2.543  13.223  0.0589 -0.3655  0.6683
 5194SOL    HW127044   3.619   2.595  13.239 -0.9357 -1.2359 -1.3729
 5194SOL    HW227045   3.685   2.485  13.298 -0.3663  0.4769  1.2376
 5195SOL     OW27046   1.612   3.838   1.990 -0.2120 -0.3900 -0.4416
 5195SOL    HW127047   1.635   3.899   1.920 -0.2498 -1.5689 -1.4813
 5195SOL    HW227048   1.670   3.762   1.981 -0.0705 -0.1294 -1.6791
 5196SOL     OW27049   1.747   0.923   4.463  0.6230  0.0635 -0.0274
 5196SOL    HW127050   1.677   0.947   4.523 -0.3909 -2.5970 -0.1245
 5196SOL    HW227051   1.710   0.842   4.428  1.5066 -0.8808  1.2738
 5197SOL     OW27052   4.633   4.619  15.802  0.4679  0.3628  0.2244
 5197SOL    HW127053   4.613   4.702  15.844 -0.5701 -0.9571  2.2919
 5197SOL    HW227054   4.589   4.558  15.861  1.0904  0.3675  0.6885
 5198SOL     OW27055   4.236   1.803   0.654 -0.6788  0.1118 -0.0804
 5198SOL    HW127056   4.150   1.779   0.621 -1.1086  0.3870  0.8494
 5198SOL    HW227057   4.207   1.860   0.726 -0.7277  0.2308 -0.1939
 5199SOL     OW27058   0.234   1.410   6.395  0.0688  0.0705 -0.1923
 5199SOL    HW127059   0.185   1.352   6.338 -0.7729 -0.0413  0.6390
 5199SOL    HW227060   0.319   1.413   6.351  0.7459 -3.6814  0.8756
 5200SOL     OW27061   2.501   1.123   4.739 -0.4875  0.2328  0.0413
 5200SOL    HW127062   2.584   1.101   4.697  0.7331  3.1094  0.9513
 5200SOL    HW227063   2.510   1.096   4.830 -2.0779  0.3821  0.2504
 5201SOL     OW27064   2.095   1.917   3.344  0.0974 -0.2264 -0.2259
 5201SOL    HW127065   2.118   1.936   3.253 -0.6863  0.4838 -0.2731
 5201SOL    HW227066   2.176   1.931   3.392  0.6959  0.8889 -1.5717
 5202SOL     OW27067   2.510   2.207   6.344 -0.0737 -0.1177  0.4619
 5202SOL    HW127068   2.512   2.138   6.278 -0.4518  0.8001 -0.5163
 5202SOL    HW227069   2.600   2.216   6.376  0.5931  0.6498 -1.6376
 5203SOL     OW27070   1.999   0.185   2.595  0.0016 -0.1772 -0.2856
 5203SOL    HW127071   2.092   0.165   2.587  0.1412  0.6213 -0.6395
 5203SOL    HW227072   1.964   0.098   2.614  1.3936 -0.6881 -0.0620
 5204SOL     OW27073   4.065   4.627   1.711 -0.4885 -0.2434  0.3126
 5204SOL    HW127074   4.022   4.705   1.746  1.4150  1.8935 -2.0756
 5204SOL    HW227075   4.095   4.598   1.797 -1.3311 -1.0524  0.3314
 5205SOL     OW27076   0.802   2.119  11.416 -0.6297 -0.3567  0.6595
 5205SOL    HW127077   0.830   2.134  11.506  0.9744  1.4983 -0.1427
 5205SOL    HW227078   0.745   2.043  11.432 -0.8380 -0.3238  0.0633
 5206SOL     OW27079   3.131   4.583   6.270  0.2849  0.2092 -0.1546
 5206SOL    HW127080   3.058   4.523   6.289  1.0159 -0.9067 -0.8537
 5206SOL    HW227081   3.191   4.567   6.342 -0.3779  0.9475  0.5620
 5207SOL     OW27082   0.245   4.554   4.346  0.4080 -0.0054 -0.1366
 5207SOL    HW127083   0.237   4.635   4.397 -1.2518 -0.5500  0.4898
 5207SOL    HW227084   0.267   4.486   4.410  2.0183  0.3115 -0.3668
 5208SOL     OW27085   1.240   4.103   8.430 -0.6589  0.3430 -0.3047
 5208SOL    HW127086   1.336   4.105   8.428 -0.5739 -2.4541  0.3199
 5208SOL    HW227087   1.231   4.159   8.507 -1.7060 -1.2511  0.7499
 5209SOL     OW27088   2.059   0.614   7.192 -0.4218 -0.1169  0.0696
 5209SOL    HW127089   2.021   0.537   7.235 -0.5554  0.0135  0.1837
 5209SOL    HW227090   2.154   0.607   7.196 -0.5864 -1.4731  1.6529
 5210SOL     OW27091   1.238   1.702   6.078  0.9283 -0.4938  0.1059
 5210SOL    HW127092   1.157   1.698   6.128 -0.8623  1.5607 -2.6129
 5210SOL    HW227093   1.269   1.791   6.098 -0.6166 -0.1018  0.7003
 5211SOL     OW27094   3.655   1.904   1.334 -0.2154  0.2212  0.0525
 5211SOL    HW127095   3.669   1.949   1.417  1.2412  1.2698 -0.7747
 5211SOL    HW227096   3.720   1.944   1.277 -1.3315 -0.1825 -1.4938
 5212SOL     OW27097   1.179   3.096   1.804  0.1473 -0.3806  0.2987
 5212SOL    HW127098   1.093   3.138   1.802  0.1063 -0.4277  0.9005
 5212SOL    HW227099   1.165   3.034   1.876  0.6383 -1.3636 -0.4532
 5213SOL     OW27100   2.166   3.655   7.435  0.1483  0.6672  0.1955
 5213SOL    HW127101   2.108   3.659   7.359  0.7063 -1.7588 -0.3519
 5213SOL    HW227102   2.103   3.643   7.505  0.5078 -1.0467  0.2168
 5214SOL     OW27103   2.682   1.278   7.661 -0.1116 -0.2386  0.7018
 5214SOL    HW127104   2.630   1.350   7.697 -2.8020  0.0870 -3.8170
 5214SOL    HW227105   2.774   1.304   7.660  0.2170 -1.5893 -2.2409
 5215SOL     OW27106   0.192   2.669  10.472 -0.3095 -0.7777  0.1602
 5215SOL    HW127107   0.265   2.672  10.410 -1.4945 -2.6611 -1.3352
 5215SOL    HW227108   0.121   2.657  10.408 -0.4741  2.0391 -0.1706
 5216SOL     OW27109   0.945   4.384   1.985 -0.4876 -0.4142 -0.2649
 5216SOL    HW127110   0.869   4.326   1.990  0.5185 -1.3661  3.7777
 5216SOL    HW227111   0.911   4.450   1.924 -1.6632 -0.8821 -0.1153
 5217SOL     OW27112   1.549   2.393   0.426  0.0087  0.1783  0.1253
 5217SOL    HW127113   1.576   2.482   0.403 -2.3268  1.1604  1.1917
 5217SOL    HW227114   1.480   2.421   0.486  0.5275  0.8150  0.4322
 5218SOL     OW27115   3.449   0.985   5.151  0.3283  0.5410 -0.9501
 5218SOL    HW127116   3.371   0.939   5.122  1.2923 -1.9271  0.3390
 5218SOL    HW227117   3.455   1.064   5.098 -1.4852  1.1497 -0.2477
 5219SOL     OW27118   1.753   2.961   6.716 -0.2166 -0.1441  0.9361
 5219SOL    HW127119   1.847   2.956   6.701 -0.2192  2.4655  0.0809
 5219SOL    HW227120   1.722   2.981   6.627  1.5796  1.3461  0.6463
 5220SOL     OW27121   3.783   1.101  13.364 -0.2957 -0.2019  0.5918
 5220SOL    HW127122   3.702   1.152  13.374 -0.3024  0.1000 -1.0219
 5220SOL    HW227123   3.783   1.068  13.454 -1.3970 -0.0814  0.6365
 5221SOL     OW27124   2.618   1.206   7.984 -0.1375  0.4159  0.0065
 5221SOL    HW127125   2.565   1.152   7.925 -0.8613  0.9322  0.1856
 5221SOL    HW227126   2.570   1.287   7.969  2.1303  2.1106  1.9444
 5222SOL     OW27127   4.337   1.010   4.608  0.4063 -0.5590 -0.2702
 5222SOL    HW127128   4.432   1.026   4.605  0.6190 -1.6014  0.8223
 5222SOL    HW227129   4.314   1.086   4.554  2.3830 -0.0804 -0.4282
 5223SOL     OW27130   1.874   2.193   4.434 -0.2577 -0.2811  0.1342
 5223SOL    HW127131   1.884   2.188   4.338 -1.0166 -0.7724  0.0788
 5223SOL    HW227132   1.868   2.288   4.439 -0.0773 -0.2270 -0.6519
 5224SOL     OW27133   4.069   3.572  15.940  0.1388 -0.5370  0.5720
 5224SOL    HW127134   4.076   3.488  15.986 -0.2879 -0.6738  0.3795
 5224SOL    HW227135   4.054   3.544  15.850  1.0087 -1.1430  0.6078
 5225SOL     OW27136   4.564   0.667   2.782 -0.7965  0.3571 -0.5272
 5225SOL    HW127137   4.582   0.655   2.689 -0.2453 -2.8826 -0.0049
 5225SOL    HW227138   4.632   0.611   2.820  0.8926  0.4509 -3.3952
 5226SOL     OW27139   0.697   2.535   5.696  0.3681 -0.2357  0.1087
 5226SOL    HW127140   0.748   2.598   5.748 -0.1130 -1.1925  1.7411
 5226SOL    HW227141   0.761   2.477   5.655  0.8034 -0.4808  1.1379
 5227SOL     OW27142   2.205   0.261   4.383 -0.7249  0.3695 -0.0650
 5227SOL    HW127143   2.260   0.326   4.339  1.5605  0.6078  3.1039
 5227SOL    HW227144   2.206   0.303   4.469 -1.4273 -1.6179  0.9276
 5228SOL     OW27145   2.580   0.954   5.569  0.0419  0.1621 -0.2019
 5228SOL    HW127146   2.625   0.908   5.639  0.0288  1.7470  0.8400
 5228SOL    HW227147   2.607   0.906   5.490  0.7308  1.2539 -0.6377
 5229SOL     OW27148   3.335   3.477   2.827 -0.3040  0.3291  0.7121
 5229SOL    HW127149   3.318   3.382   2.826 -2.1889  0.6773  0.8248
 5229SOL    HW227150   3.431   3.482   2.834  0.0152  0.2473 -3.5002
 5230SOL     OW27151   1.615   2.442   6.916 -0.2260 -0.5001 -0.1563
 5230SOL    HW127152   1.666   2.498   6.857 -3.2143  0.3891 -1.9055
 5230SOL    HW227153   1.684   2.389   6.956 -0.7797 -2.1336 -1.3888
 5231SOL     OW27154   4.526   1.983   4.344 -0.3447 -0.0505  0.2120
 5231SOL    HW127155   4.454   2.046   4.356  1.2108  1.5666  0.9775
 5231SOL    HW227156   4.484   1.941   4.268 -0.4407 -0.1818  0.3389
 5232SOL     OW27157   0.025   1.608   8.050  0.6566 -0.4715  0.4024
 5232SOL    HW127158   4.666   1.588   8.098  1.5310 -0.6502  1.8014
 5232SOL    HW227159   0.078   1.534   8.078 -0.8570 -0.6127  2.8802
 5233SOL     OW27160   3.088   2.348  15.332 -0.2508 -0.3138  0.3364
 5233SOL    HW127161   3.178   2.366  15.305 -0.4985  0.3652 -0.0271
 5233SOL    HW227162   3.036   2.368  15.255  0.7604  1.3332  0.0674
 5234SOL     OW27163   1.968   3.794   6.193 -0.7129 -0.0884  0.2452
 5234SOL    HW127164   1.948   3.834   6.277 -0.4515  0.3053  0.1256
 5234SOL    HW227165   1.956   3.864   6.129  0.3009 -0.9429 -0.8724
 5235SOL     OW27166   4.359   1.097   6.987  0.4932 -0.1974 -0.1346
 5235SOL    HW127167   4.390   1.008   6.967 -1.2754 -0.9177  0.2711
 5235SOL    HW227168   4.419   1.129   7.054 -0.4717  0.8006  0.2374
 5236SOL     OW27169   2.643   4.376   7.745 -0.0779 -0.1014 -0.6636
 5236SOL    HW127170   2.568   4.348   7.797  3.9647 -2.9108  3.6481
 5236SOL    HW227171   2.603   4.449   7.698  2.4613  1.3123 -0.6397
 5237SOL     OW27172   0.958   2.905   3.679  0.3247 -0.1830  0.1796
 5237SOL    HW127173   1.015   2.966   3.632  0.3666  0.8294  1.5629
 5237SOL    HW227174   0.879   2.957   3.690  2.1804  2.2257  2.0976
 5238SOL     OW27175   4.332   3.571   4.289  0.2482 -0.0761  0.8652
 5238SOL    HW127176   4.372   3.566   4.202 -1.3001 -0.2666  0.1730
 5238SOL    HW227177   4.264   3.503   4.290 -1.4262  1.5803 -0.2543
 5239SOL     OW27178   1.068   1.935   3.268  0.0847  0.0392  0.6036
 5239SOL    HW127179   0.974   1.925   3.256  0.3532 -2.3458  0.5146
 5239SOL    HW227180   1.082   2.023   3.232  0.4583  0.0802  0.8391
 5240SOL     OW27181   0.873   0.999   7.665  0.4259 -0.0776  0.2964
 5240SOL    HW127182   0.894   0.908   7.644 -2.5365 -0.9547  1.1551
 5240SOL    HW227183   0.947   1.034   7.714  0.0264  0.7763  0.2902
 5241SOL     OW27184   4.609   1.190   5.851  0.3508 -0.3272  0.1408
 5241SOL    HW127185   4.619   1.102   5.815 -0.4354 -0.5445  0.4578
 5241SOL    HW227186   4.596   1.160   5.941 -1.4508 -0.8683 -0.3004
 5242SOL     OW27187   3.976   3.452  11.225  0.1478  0.5522 -0.0483
 5242SOL    HW127188   3.977   3.368  11.272  0.8113  0.8695  0.5133
 5242SOL    HW227189   3.900   3.491  11.269 -0.0305  3.3209 -2.8232
 5243SOL     OW27190   1.892   3.858   5.229 -0.1505  0.0948 -0.0283
 5243SOL    HW127191   1.849   3.773   5.236  1.3856 -0.5874  1.1517
 5243SOL    HW227192   1.834   3.909   5.173 -1.0930 -0.0778  0.7927
 5244SOL     OW27193   4.271   0.002  12.072  0.4783 -0.2857 -0.2428
 5244SOL    HW127194   4.209   4.701  12.142 -0.8289 -2.2759 -2.0621
 5244SOL    HW227195   4.245   0.092  12.054 -1.4457 -0.6976  0.5350
 5245SOL     OW27196   3.861   2.739  12.904  0.4270 -0.2931 -0.0407
 5245SOL    HW127197   3.772   2.776  12.906  0.8465  0.7527 -0.7659
 5245SOL    HW227198   3.912   2.816  12.876 -0.7396  0.7247  0.6171
 5246SOL     OW27199   1.900   2.276   8.550 -0.4957 -0.7393 -0.1691
 5246SOL    HW127200   1.969   2.209   8.551 -0.1253 -0.3384  1.6606
 5246SOL    HW227201   1.858   2.258   8.466  0.2833 -1.7020 -0.3555
 5247SOL     OW27202   1.758   0.084  12.798  0.0345 -0.3922  0.1082
 5247SOL    HW127203   1.762   0.176  12.773 -0.2499 -0.3538  0.2002
 5247SOL    HW227204   1.762   0.093  12.893  1.3840 -0.1920  0.0293
 5248SOL     OW27205   0.879   1.831   3.735 -0.1676  0.4305 -0.6501
 5248SOL    HW127206   0.795   1.805   3.698  0.0024 -0.9743 -0.0618
 5248SOL    HW227207   0.868   1.895   3.805 -1.3488 -0.0436 -0.3933
 5249SOL     OW27208   0.879   3.029  11.426 -0.5113  0.0720 -0.6984
 5249SOL    HW127209   0.856   2.949  11.379  0.7499  0.9530 -2.8156
 5249SOL    HW227210   0.917   3.082  11.356 -1.1163  1.0873 -0.2569
 5250SOL     OW27211   0.070   1.579   3.687 -0.2517  0.0875 -0.0210
 5250SOL    HW127212   0.132   1.652   3.680  1.8228 -1.7441 -0.6796
 5250SOL    HW227213   0.011   1.616   3.621 -1.8565  0.2617  1.5276
 5251SOL     OW27214   1.488   3.160   5.542  0.0951  0.6557  0.4434
 5251SOL    HW127215   1.476   3.178   5.448  0.6955  0.5106  0.3363
 5251SOL    HW227216   1.562   3.099   5.537 -0.4758 -0.0625  0.7023
 5252SOL     OW27217   1.452   4.646   7.092 -0.1330  0.6787  1.0019
 5252SOL    HW127218   1.463   0.020   7.085  0.2101  0.6447  1.0936
 5252SOL    HW227219   1.538   4.616   7.061 -0.9172  1.7377 -2.2038
 5253SOL     OW27220   1.649   1.891   2.303 -0.2305  0.2796 -0.6766
 5253SOL    HW127221   1.708   1.875   2.229  0.1772  1.6794 -0.6582
 5253SOL    HW227222   1.693   1.840   2.372 -1.9764  0.6277  0.7004
 5254SOL     OW27223   1.230   2.468   3.805  0.0540 -0.9959  0.7464
 5254SOL    HW127224   1.227   2.374   3.783  0.9150 -0.1633 -2.9135
 5254SOL    HW227225   1.144   2.507   3.789  0.2205 -1.2924 -0.9265
 5255SOL     OW27226   4.706   1.110  10.870  0.2088 -0.1212  0.1097
 5255SOL    HW127227   0.054   1.148  10.925  0.4360 -0.9287  0.3719
 5255SOL    HW227228   4.719   1.017  10.885  0.9169  0.0572  0.6425
 5256SOL     OW27229   0.153   1.358   5.109  0.4386  0.9569 -0.4245
 5256SOL    HW127230   0.160   1.284   5.169 -1.3392  1.5694  0.5495
 5256SOL    HW227231   0.147   1.434   5.168 -4.0416 -0.3389  0.7732
 5257SOL     OW27232   0.355   1.044   7.920 -0.6813 -0.0840  0.1889
 5257SOL    HW127233   0.278   1.049   7.976 -0.8841  0.4690 -0.1367
 5257SOL    HW227234   0.424   1.078   7.976  1.7035  1.0879 -3.4158
 5258SOL     OW27235   3.094   1.075  15.619  0.1929  0.4891 -0.0795
 5258SOL    HW127236   3.096   1.032  15.533  0.4867  0.5752 -0.1168
 5258SOL    HW227237   3.041   1.151  15.594  0.0996 -0.0532 -1.5249
 5259SOL     OW27238   4.658   0.697  14.012 -0.3384  0.3555 -0.8281
 5259SOL    HW127239   4.603   0.619  14.018 -1.4645  1.0757 -1.8442
 5259SOL    HW227240   4.708   0.671  13.935  0.5942  0.9226 -0.4175
 5260SOL     OW27241   3.474   2.797   7.062  0.3706 -0.1447 -0.7647
 5260SOL    HW127242   3.482   2.743   6.983  1.1607 -2.6221  1.0022
 5260SOL    HW227243   3.393   2.838   7.032 -0.5281 -2.1888 -1.1536
 5261SOL     OW27244   0.523   4.212   8.555 -0.5305 -0.5413 -0.4574
 5261SOL    HW127245   0.596   4.176   8.605  1.2646  2.1922 -1.1270
 5261SOL    HW227246   0.528   4.306   8.573  1.6709 -0.6099 -0.8130
 5262SOL     OW27247   0.251   1.050   9.506  0.6427  0.2803  0.6917
 5262SOL    HW127248   0.173   0.995   9.502  0.0373  1.1146  1.1524
 5262SOL    HW227249   0.263   1.055   9.411 -0.5236 -0.6211  0.4974
 5263SOL     OW27250   2.287   2.710   4.452  0.3786  0.4255  0.0653
 5263SOL    HW127251   2.381   2.692   4.454  0.0084 -1.5819 -1.3380
 5263SOL    HW227252   2.266   2.709   4.359  2.3479 -2.5208 -0.3446
 5264SOL     OW27253   3.197   1.892   7.200  0.0438  0.1593 -0.0268
 5264SOL    HW127254   3.235   1.887   7.112 -0.3373 -0.8518 -0.1235
 5264SOL    HW227255   3.108   1.865   7.178  0.1459 -2.3399  2.6290
 5265SOL     OW27256   1.868   2.845   8.599  0.0094 -0.4628 -0.4292
 5265SOL    HW127257   1.810   2.769   8.593  0.7261 -0.8533 -2.7272
 5265SOL    HW227258   1.888   2.844   8.692  0.4554  1.8261 -0.5184
 5266SOL     OW27259   1.259   1.131   8.733 -0.1992  0.1088  0.4340
 5266SOL    HW127260   1.221   1.174   8.655  0.1482  0.1790  0.3053
 5266SOL    HW227261   1.248   1.202   8.797 -0.1718 -2.7188  3.5467
 5267SOL     OW27262   3.278   0.423   2.711  0.1061 -0.1841 -0.4390
 5267SOL    HW127263   3.306   0.513   2.728  2.3015 -1.1229  0.9152
 5267SOL    HW227264   3.218   0.406   2.784  2.4101 -0.1513  1.4863
 5268SOL     OW27265   4.446   0.756   3.444 -0.0409 -0.6918  0.1450
 5268SOL    HW127266   4.369   0.754   3.501 -0.9121 -2.3710 -1.1034
 5268SOL    HW227267   4.517   0.729   3.503  0.2193  1.3482  0.7638
 5269SOL     OW27268   0.181   2.114   9.210  0.4855 -0.2036 -0.3767
 5269SOL    HW127269   0.087   2.125   9.197  0.8666  1.7404 -1.4730
 5269SOL    HW227270   0.199   2.036   9.158 -1.0528 -0.0665 -1.1092
 5270SOL     OW27271   1.173   3.450   1.927 -0.2281 -0.1131 -0.2389
 5270SOL    HW127272   1.260   3.488   1.915  0.1531 -1.1172 -0.6544
 5270SOL    HW227273   1.177   3.401   2.009  1.6513  0.5257  0.0627
 5271SOL     OW27274   1.024   3.399   1.705  0.5366 -0.1821  0.0473
 5271SOL    HW127275   1.084   3.432   1.773  1.2013  1.2349 -1.2360
 5271SOL    HW227276   0.939   3.399   1.749  0.0243  2.1499 -0.9241
 5272SOL     OW27277   3.499   1.459   3.876 -0.3347 -0.0414 -0.2488
 5272SOL    HW127278   3.481   1.378   3.925  2.1983 -1.3033 -1.3959
 5272SOL    HW227279   3.591   1.432   3.866  0.1948  1.7349 -0.0095
 5273SOL     OW27280   0.780   3.341  16.503 -0.2890  0.2089  0.0628
 5273SOL    HW127281   0.836   3.280  16.454 -1.3558 -0.0351 -0.8443
 5273SOL    HW227282   0.779   3.410  16.436  0.4686 -0.6653 -0.8647
 5274SOL     OW27283   0.683   1.798   6.720  0.2104  0.2779  0.0127
 5274SOL    HW127284   0.737   1.843   6.656  2.3237 -2.0528  0.1340
 5274SOL    HW227285   0.692   1.854   6.797 -1.1541 -0.0754  0.4432
 5275SOL     OW27286   2.928   3.779   2.283 -0.2688  0.0671 -0.2082
 5275SOL    HW127287   3.005   3.835   2.294 -1.4007  1.1409  2.2590
 5275SOL    HW227288   2.893   3.826   2.207  0.3815  4.6433  2.3314
 5276SOL     OW27289   4.232   0.904   7.230 -0.1649  0.0148  0.5445
 5276SOL    HW127290   4.320   0.888   7.195 -1.0907  0.3121 -1.9257
 5276SOL    HW227291   4.220   0.831   7.291 -0.2757 -0.0092  0.4946
 5277SOL     OW27292   1.904   3.321   3.070 -0.4530 -0.3862  0.0876
 5277SOL    HW127293   1.984   3.281   3.036  1.0178  2.7432 -0.0869
 5277SOL    HW227294   1.870   3.366   2.993 -0.8282 -0.4252  0.2302
 5278SOL     OW27295   3.296   3.231   6.781 -0.2503 -0.4970 -0.3537
 5278SOL    HW127296   3.386   3.226   6.813 -0.3218  0.0198 -0.0723
 5278SOL    HW227297   3.299   3.175   6.703  1.1627 -0.9193  0.0086
 5279SOL     OW27298   3.792   2.599  10.548  0.6947 -0.0924 -0.3015
 5279SOL    HW127299   3.777   2.518  10.597 -1.3297  0.6861  0.3704
 5279SOL    HW227300   3.858   2.637  10.607  1.0053 -1.4055  0.1992
 5280SOL     OW27301   1.941   1.719   3.445 -0.3811 -0.0945  0.4411
 5280SOL    HW127302   1.885   1.746   3.373 -0.9196 -0.8819  0.5670
 5280SOL    HW227303   2.010   1.780   3.418 -2.3237  3.0146  2.5667
 5281SOL     OW27304   4.060   1.534   7.436 -0.4942  0.4085 -0.0712
 5281SOL    HW127305   3.996   1.499   7.498  0.0676  0.6159  0.6265
 5281SOL    HW227306   4.054   1.622   7.473 -2.3056  0.3262 -0.1396
 5282SOL     OW27307   0.684   1.222   5.482  0.4197  0.0161  0.1105
 5282SOL    HW127308   0.635   1.146   5.513 -0.7849  0.8607  0.3197
 5282SOL    HW227309   0.624   1.277   5.430 -0.8510  0.1688  1.7282
 5283SOL     OW27310   2.675   1.430   9.451 -0.0638  0.1848 -0.5724
 5283SOL    HW127311   2.645   1.401   9.365 -1.6148 -0.0868  0.0623
 5283SOL    HW227312   2.602   1.409   9.508  0.1193 -0.5668 -0.6148
 5284SOL     OW27313   2.721   3.428  17.213  0.1813 -0.0308  0.0564
 5284SOL    HW127314   2.740   3.416  17.120  1.7521 -0.7805  0.4831
 5284SOL    HW227315   2.695   3.340  17.241  0.0528  0.0813  0.2839
 5285SOL     OW27316   3.341   0.094   8.639  0.1472 -0.2189 -0.4081
 5285SOL    HW127317   3.347   0.086   8.544 -1.6004  1.6603 -0.6855
 5285SOL    HW227318   3.258   0.142   8.647  0.2886 -0.0750  0.1986
 5286SOL     OW27319   0.999   2.798   7.424  0.5511  0.2358  0.2880
 5286SOL    HW127320   0.938   2.821   7.354 -1.7614 -4.7731  0.6474
 5286SOL    HW227321   1.077   2.830   7.379  0.7774 -1.1617 -0.3438
 5287SOL     OW27322   1.341   1.246   4.005 -0.5023  0.1208 -0.1425
 5287SOL    HW127323   1.254   1.286   4.002 -1.0798 -1.4255 -4.3981
 5287SOL    HW227324   1.391   1.327   4.011 -1.2876  0.7460 -1.9115
 5288SOL     OW27325   1.906   2.125   3.052  0.0719 -0.2734  0.6561
 5288SOL    HW127326   1.892   2.030   3.056  0.1278 -0.2822  0.6329
 5288SOL    HW227327   1.853   2.151   3.128 -1.1558 -1.6865  0.3052
 5289SOL     OW27328   2.222   3.072   9.953 -0.1328 -0.5095 -0.3309
 5289SOL    HW127329   2.182   3.148   9.995  1.2032  0.9846 -1.7507
 5289SOL    HW227330   2.271   3.123   9.888  0.1285  0.2120  0.4319
 5290SOL     OW27331   4.546   2.474   1.046  0.9575 -0.2040  0.1302
 5290SOL    HW127332   4.565   2.454   1.137 -1.6927  1.4472  1.0728
 5290SOL    HW227333   4.478   2.413   1.017  0.1913  0.7894 -0.2175
 5291SOL     OW27334   0.087   1.240   9.864  0.4756  0.6575 -0.5142
 5291SOL    HW127335   0.158   1.178   9.878 -1.2327 -0.5965  2.4849
 5291SOL    HW227336   0.035   1.233   9.944  1.1815 -0.1768 -0.1373
 5292SOL     OW27337   1.984   0.379   3.974 -0.5601 -0.3920 -0.1661
 5292SOL    HW127338   2.064   0.374   4.026 -0.7143  0.9124  0.2055
 5292SOL    HW227339   2.026   0.409   3.894 -1.4428  2.0886  0.2907
 5293SOL     OW27340   0.201   3.652  15.244 -0.0423 -0.3053 -0.3899
 5293SOL    HW127341   0.133   3.719  15.255 -0.4170 -0.8968  0.8915
 5293SOL    HW227342   0.229   3.667  15.154  0.3111 -2.9240 -0.7068
 5294SOL     OW27343   1.679   1.733   3.251  0.4558 -0.0123 -1.0079
 5294SOL    HW127344   1.626   1.808   3.276 -0.1008 -0.8542  0.3482
 5294SOL    HW227345   1.621   1.672   3.204  0.0410  0.1735 -0.7364
 5295SOL     OW27346   0.389   2.810   7.342  0.5000 -0.0917 -0.6059
 5295SOL    HW127347   0.397   2.858   7.424  1.1951 -0.3101 -0.5460
 5295SOL    HW227348   0.376   2.879   7.277  1.8957  1.4514  0.7661
 5296SOL     OW27349   3.883   0.011   2.059  0.0842  0.0724 -0.0461
 5296SOL    HW127350   3.877   4.709   2.152 -0.5895 -1.6462 -0.5170
 5296SOL    HW227351   3.798   4.709   2.020  0.3734  1.1379 -1.2961
 5297SOL     OW27352   1.833   2.323   8.301  0.0360  0.3612  0.2340
 5297SOL    HW127353   1.891   2.394   8.328  0.7444  0.4729 -1.6161
 5297SOL    HW227354   1.824   2.334   8.207 -0.9956 -0.3005  0.2490
 5298SOL     OW27355   2.675   3.071   6.260 -0.1781 -0.9735  0.2658
 5298SOL    HW127356   2.608   3.124   6.216  0.9275 -0.3685 -0.6803
 5298SOL    HW227357   2.629   3.073   6.344 -0.3747 -0.3325  0.1472
 5299SOL     OW27358   0.435   1.257   8.074  0.0393 -0.0590  0.1412
 5299SOL    HW127359   0.473   1.340   8.045  2.7348 -1.7401 -1.1787
 5299SOL    HW227360   0.411   1.276   8.165  0.9670 -1.2564  0.6294
 5300SOL     OW27361   2.243   4.437  11.023 -0.1088 -0.0438  0.0882
 5300SOL    HW127362   2.239   4.373  11.095  0.1863  0.0329  0.1726
 5300SOL    HW227363   2.334   4.466  11.035  0.0859  0.0699 -1.6875
 5301SOL     OW27364   2.896   3.655  13.351  0.0084 -0.3671  0.1381
 5301SOL    HW127365   2.830   3.720  13.376  2.3116  0.6555  3.4999
 5301SOL    HW227366   2.925   3.687  13.266  3.2472 -1.1107  0.9637
 5302SOL     OW27367   3.827   4.142   8.088  0.0573  0.2483  0.5215
 5302SOL    HW127368   3.880   4.210   8.129 -2.3392  1.9196  0.8253
 5302SOL    HW227369   3.841   4.065   8.144  0.5416 -0.4635 -0.5871
 5303SOL     OW27370   1.527   3.510   7.625 -0.1504 -0.3944 -0.0652
 5303SOL    HW127371   1.471   3.509   7.702  1.3170 -0.3210  1.0050
 5303SOL    HW227372   1.549   3.601   7.607 -0.2745 -0.1216  1.1280
 5304SOL     OW27373   1.750   0.485   4.832  0.2962 -0.0118  0.4909
 5304SOL    HW127374   1.697   0.553   4.792 -1.2551 -1.1510  0.5886
 5304SOL    HW227375   1.759   0.523   4.920  1.8473  1.9012 -0.5068
 5305SOL     OW27376   0.473   1.734   6.505  0.6892 -0.0444  0.4529
 5305SOL    HW127377   0.523   1.704   6.581  0.5892  0.0439  0.5532
 5305SOL    HW227378   0.527   1.689   6.440  1.1529 -0.8132  1.3670
 5306SOL     OW27379   1.487   3.660   1.707  0.2630  0.1033  0.3936
 5306SOL    HW127380   1.501   3.753   1.689 -0.7175  0.3964  1.1439
 5306SOL    HW227381   1.434   3.625   1.635  0.5575  0.0243  0.2141
 5307SOL     OW27382   1.676   2.390   4.237  0.7348  0.3110  0.4020
 5307SOL    HW127383   1.768   2.366   4.222  0.3636 -1.3274  0.8346
 5307SOL    HW227384   1.687   2.449   4.312  0.4738  2.6736 -1.4033
 5308SOL     OW27385   4.485   3.732   0.702 -0.2473  0.0969  0.1624
 5308SOL    HW127386   4.459   3.820   0.674 -0.9879  0.4379  1.9288
 5308SOL    HW227387   4.407   3.684   0.674 -1.6431  2.3935  0.0153
 5309SOL     OW27388   2.924   3.851   3.996  0.5079 -0.5844  0.0515
 5309SOL    HW127389   2.983   3.781   3.968  1.7324  1.2719 -2.0611
 5309SOL    HW227390   2.932   3.842   4.091 -1.0605  1.4891  0.3785
 5310SOL     OW27391   0.081   3.112   3.791  0.1463 -0.1177 -0.6248
 5310SOL    HW127392   0.139   3.165   3.845  0.5556 -3.7907  2.5121
 5310SOL    HW227393   0.135   3.033   3.785  0.0272  0.0795 -4.4116
 5311SOL     OW27394   1.281   3.551   0.326 -0.0838 -0.0571  0.1735
 5311SOL    HW127395   1.334   3.576   0.251  0.2554 -1.0651  0.0795
 5311SOL    HW227396   1.285   3.634   0.373 -0.6931 -1.2032  2.2486
 5312SOL     OW27397   1.166   3.020   4.636 -0.7598 -0.3375 -0.0577
 5312SOL    HW127398   1.081   3.017   4.594 -1.2694  3.1915  0.7463
 5312SOL    HW227399   1.180   2.925   4.633  0.5610 -0.1658  0.5489
 5313SOL     OW27400   1.522   0.178   8.224 -0.0367 -0.1913  0.2114
 5313SOL    HW127401   1.575   0.103   8.252 -0.9486 -1.0469 -0.3610
 5313SOL    HW227402   1.564   0.249   8.273  1.5959 -0.6018 -0.5884
 5314SOL     OW27403   2.757   3.083   7.364  0.1786 -0.0902 -0.9973
 5314SOL    HW127404   2.781   3.175   7.354 -0.8475  0.4259  1.4452
 5314SOL    HW227405   2.793   3.048   7.282  0.0662  0.9978 -1.5209
 5315SOL     OW27406   3.586   1.872  16.090  0.5409  0.3545 -0.7181
 5315SOL    HW127407   3.657   1.935  16.100  0.3341  0.4765  0.0084
 5315SOL    HW227408   3.605   1.811  16.162  0.7002  0.7187 -0.4527
 5316SOL     OW27409   3.634   0.679   7.970 -0.1529  0.5573 -0.1008
 5316SOL    HW127410   3.569   0.726   7.917  0.4976  1.1650 -0.3488
 5316SOL    HW227411   3.611   0.724   8.051  2.1117  2.6096 -0.6152
 5317SOL     OW27412   1.693   4.379  10.154 -0.3353 -0.4690 -0.0893
 5317SOL    HW127413   1.777   4.421  10.173 -1.2170  0.4681  1.6650
 5317SOL    HW227414   1.724   4.295  10.122  0.1554 -0.5277  0.5385
 5318SOL     OW27415   2.671   3.519   2.174  0.4451  0.1885  0.1403
 5318SOL    HW127416   2.710   3.459   2.238 -0.9934 -1.0975 -0.1896
 5318SOL    HW227417   2.583   3.521   2.213 -0.2494  1.4968 -1.5098
 5319SOL     OW27418   2.585   2.342   3.790 -0.2373  0.1007 -0.2299
 5319SOL    HW127419   2.611   2.252   3.769 -0.0050 -0.1129  1.0212
 5319SOL    HW227420   2.507   2.353   3.736 -0.4748 -1.6628 -0.2626
 5320SOL     OW27421   2.067   3.788   3.803  0.0009 -0.6011  0.0532
 5320SOL    HW127422   2.116   3.763   3.725 -0.3051 -1.1126  0.0237
 5320SOL    HW227423   2.071   3.699   3.837  0.9860 -0.7312 -0.4119
 5321SOL     OW27424   2.874   2.817  12.669 -0.3161 -0.4015 -0.0953
 5321SOL    HW127425   2.840   2.906  12.678 -1.0742 -0.6420 -0.5864
 5321SOL    HW227426   2.803   2.757  12.691 -0.0791 -0.1429  1.3919
 5322SOL     OW27427   1.155   1.127   5.688  0.0367  0.2775  0.4208
 5322SOL    HW127428   1.102   1.048   5.698  2.8742 -2.0897 -3.1317
 5322SOL    HW227429   1.103   1.194   5.732 -1.6662 -1.5087  1.1080
 5323SOL     OW27430   0.839   4.591   7.096 -0.0040 -0.0710  0.2962
 5323SOL    HW127431   0.762   4.610   7.150  1.2435 -2.0138  2.7811
 5323SOL    HW227432   0.812   4.504   7.069  0.4248 -0.8343  2.3584
 5324SOL     OW27433   3.060   3.021  16.481  0.3235 -0.2664  0.4949
 5324SOL    HW127434   3.099   3.092  16.430 -0.5896 -0.0634  0.0768
 5324SOL    HW227435   3.103   2.949  16.434  0.4922  1.7892 -2.4846
 5325SOL     OW27436   0.697   2.390  17.239 -0.1272 -0.0794  0.9496
 5325SOL    HW127437   0.701   2.306  17.194  1.1869 -0.4659  1.7897
 5325SOL    HW227438   0.653   2.438  17.169  2.3445  2.4308  1.1003
 5326SOL     OW27439   2.727   4.281   2.644  0.7106 -0.3969  0.5002
 5326SOL    HW127440   2.811   4.327   2.643  0.9288 -0.7935  0.6592
 5326SOL    HW227441   2.732   4.248   2.554 -0.6927  1.9217 -0.4226
 5327SOL     OW27442   2.072   2.257   2.869 -0.4073 -0.2781  0.1797
 5327SOL    HW127443   2.024   2.226   2.945 -2.1952 -2.5021 -1.8644
 5327SOL    HW227444   2.136   2.186   2.870 -0.4955 -0.3677 -0.5023
 5328SOL     OW27445   4.647   1.200  10.080 -0.1691 -0.1439  0.1395
 5328SOL    HW127446   4.697   1.131  10.124  0.1625 -0.5401 -0.8475
 5328SOL    HW227447   4.571   1.207  10.137  0.2605 -0.5840  0.7742
 5329SOL     OW27448   0.504   1.018   3.990 -0.2636 -0.0447  0.1888
 5329SOL    HW127449   0.481   0.926   4.000 -0.0200 -0.1182  0.0617
 5329SOL    HW227450   0.423   1.055   4.025 -0.3725 -0.5129  0.4237
 5330SOL     OW27451   1.202   4.016   4.797 -0.1781 -0.3311 -0.5994
 5330SOL    HW127452   1.270   3.974   4.744  0.1930  0.0165 -0.4002
 5330SOL    HW227453   1.200   3.967   4.879 -3.7423  1.5177  0.3740
 5331SOL     OW27454   4.250   1.004  14.434 -0.2536 -0.1143 -0.2909
 5331SOL    HW127455   4.190   1.076  14.413 -0.5290 -0.3809 -0.4144
 5331SOL    HW227456   4.192   0.949  14.486  0.8658 -0.0664  0.9915
 5332SOL     OW27457   2.250   1.541  14.487  0.3418  0.1004 -0.4141
 5332SOL    HW127458   2.330   1.589  14.467 -0.6744  2.7298  1.8349
 5332SOL    HW227459   2.222   1.520  14.398  1.4137 -1.7762 -0.3072
 5333SOL     OW27460   1.054   4.383   0.938 -0.3373  0.9692 -0.5944
 5333SOL    HW127461   0.981   4.443   0.952  0.2058  1.1973  1.2738
 5333SOL    HW227462   1.028   4.343   0.855 -1.1964 -1.5319  0.8600
 5334SOL     OW27463   2.032   2.119   4.650  0.2143  0.5479  0.1411
 5334SOL    HW127464   1.985   2.150   4.573 -3.1630  0.3287  2.1543
 5334SOL    HW227465   2.119   2.142   4.617 -0.5746  0.0087 -2.3423
 5335SOL     OW27466   3.103   3.960  14.913 -0.6145  0.2950 -0.2373
 5335SOL    HW127467   3.147   4.027  14.860 -0.2933  0.5767  0.3802
 5335SOL    HW227468   3.059   3.911  14.844 -2.9581  2.4516 -0.2741
 5336SOL     OW27469   1.916   0.930  15.163 -0.1939  0.3786  0.7177
 5336SOL    HW127470   1.873   0.935  15.249  0.2020 -0.5205  0.9666
 5336SOL    HW227471   1.888   0.843  15.133  1.8347  0.5817 -1.6869
 5337SOL     OW27472   3.894   3.523   2.052  0.5600  0.6192  0.4143
 5337SOL    HW127473   3.986   3.521   2.025  1.6527  0.8199  4.0860
 5337SOL    HW227474   3.873   3.610   2.017  0.7376  1.1770  1.6653
 5338SOL     OW27475   3.806   1.032   1.015 -0.0245 -0.3559  0.0011
 5338SOL    HW127476   3.823   1.007   0.924 -2.4223  0.6726 -0.7478
 5338SOL    HW227477   3.889   1.013   1.059  1.2858  1.0562 -1.8200
 5339SOL     OW27478   1.468   2.277   4.865 -0.2159 -0.0152 -0.1913
 5339SOL    HW127479   1.419   2.346   4.911 -2.2581 -1.3093 -0.3951
 5339SOL    HW227480   1.473   2.206   4.928  3.8825  0.6248  0.1769
 5340SOL     OW27481   4.137   0.625   4.497 -1.1595 -0.1865  0.2642
 5340SOL    HW127482   4.216   0.579   4.471 -1.5488 -2.1647  2.6091
 5340SOL    HW227483   4.180   0.669   4.571 -3.1721 -0.5919  1.6877
 5341SOL     OW27484   2.997   3.639   7.607 -0.3536  0.2173  0.0201
 5341SOL    HW127485   2.964   3.708   7.549 -1.8911 -0.9190 -0.4589
 5341SOL    HW227486   2.916   3.606   7.645 -0.7662 -0.3641 -1.3596
 5342SOL     OW27487   0.153   0.884   3.091 -0.6421  0.1883  0.1347
 5342SOL    HW127488   0.225   0.886   3.028  0.0582 -1.7327  0.8814
 5342SOL    HW227489   0.080   0.889   3.029 -0.1503 -0.2874 -0.4880
 5343SOL     OW27490   3.246   2.866  16.271  0.4076 -0.0907  0.7582
 5343SOL    HW127491   3.158   2.894  16.246  0.7285 -0.6017 -1.0067
 5343SOL    HW227492   3.278   2.834  16.186  1.2855  1.8876  0.3331
 5344SOL     OW27493   3.062   2.331   8.551  0.6022  0.0946  0.3992
 5344SOL    HW127494   3.014   2.343   8.633  2.3905 -0.0342  1.4517
 5344SOL    HW227495   3.054   2.235   8.553  1.1920  0.0293 -0.4598
 5345SOL     OW27496   3.668   3.053   7.922  0.2084  0.7194  0.1430
 5345SOL    HW127497   3.606   3.103   7.974  2.7757  2.4561  1.5370
 5345SOL    HW227498   3.623   3.059   7.838 -0.6848  2.1524  0.7188
 5346SOL     OW27499   1.125   2.096   3.514  0.2538 -0.0061 -0.4166
 5346SOL    HW127500   1.132   2.022   3.454  0.0977 -1.4828  1.3799
 5346SOL    HW227501   1.208   2.085   3.560  0.3502 -1.0065 -0.8267
 5347SOL     OW27502   1.063   3.897   5.394 -0.6184 -0.4389  0.7648
 5347SOL    HW127503   1.093   3.806   5.403  1.7083  0.2616 -0.2064
 5347SOL    HW227504   1.031   3.896   5.304  0.0058 -1.1127  0.5477
 5348SOL     OW27505   4.437   0.485   4.718 -0.0314 -0.2853 -0.3235
 5348SOL    HW127506   4.430   0.563   4.661 -1.7101 -0.3441 -0.2188
 5348SOL    HW227507   4.442   0.526   4.804 -0.4629  1.1634 -0.9681
 5349SOL     OW27508   1.958   3.732   4.484  0.4269  0.1124  0.2681
 5349SOL    HW127509   1.867   3.708   4.469  0.2894  1.6865 -1.4226
 5349SOL    HW227510   2.001   3.647   4.494  1.5554  0.6533  0.0526
 5350SOL     OW27511   1.445   1.962   0.462 -0.0571 -0.2862  0.5760
 5350SOL    HW127512   1.375   1.993   0.520  0.2915 -1.4905  1.6272
 5350SOL    HW227513   1.458   2.035   0.402  3.1943 -2.8773 -1.9047
 5351SOL     OW27514   0.495   3.173  17.621  0.5789  0.4077 -0.4792
 5351SOL    HW127515   0.551   3.111  17.574 -0.4721 -1.3303  0.5530
 5351SOL    HW227516   0.441   3.198  17.546 -1.2346  0.0359  0.7236
 5352SOL     OW27517   3.769   2.695   9.618  0.7003  0.4759 -0.3486
 5352SOL    HW127518   3.680   2.696   9.586  0.9059 -1.0109 -0.9385
 5352SOL    HW227519   3.794   2.785   9.596  1.0445  0.6850  0.8956
 5353SOL     OW27520   2.500   2.728   8.345 -0.2851 -0.3121 -0.3199
 5353SOL    HW127521   2.547   2.749   8.264  2.2937  0.3777  1.3526
 5353SOL    HW227522   2.542   2.643   8.358 -0.7463 -0.3301  1.0412
 5354SOL     OW27523   2.727   4.537  11.250 -0.0210  0.0763 -0.0300
 5354SOL    HW127524   2.699   4.588  11.174 -1.3020 -0.2387  0.2363
 5354SOL    HW227525   2.821   4.530  11.232 -0.0772 -2.7179  0.8327
 5355SOL     OW27526   3.333   4.412   5.287  0.2305 -0.2503 -0.7309
 5355SOL    HW127527   3.293   4.328   5.310 -0.0715  0.0022 -0.3457
 5355SOL    HW227528   3.417   4.412   5.333  0.3869 -1.8905 -0.9856
 5356SOL     OW27529   2.888   1.408  16.602  0.3004  0.1927 -0.1116
 5356SOL    HW127530   2.891   1.349  16.527 -2.0405  0.9094 -0.7878
 5356SOL    HW227531   2.944   1.475  16.563  0.2611 -1.0080 -2.2125
 5357SOL     OW27532   2.893   0.887   6.050  0.2834 -0.7092 -0.0176
 5357SOL    HW127533   2.832   0.951   6.015 -2.6110 -2.8525  1.1299
 5357SOL    HW227534   2.975   0.936   6.057  1.3504 -2.2076 -2.0399
 5358SOL     OW27535   1.204   0.142  16.669  0.0062  1.0240  0.3632
 5358SOL    HW127536   1.144   0.069  16.678  0.8541 -0.1541 -3.6830
 5358SOL    HW227537   1.150   0.221  16.657  0.3904  1.2252 -0.0426
 5359SOL     OW27538   1.212   1.903   6.354  0.5855  0.4742 -0.2459
 5359SOL    HW127539   1.183   1.812   6.346 -2.5930  1.3364  1.1212
 5359SOL    HW227540   1.296   1.895   6.398  0.1476 -0.0232  0.5062
 5360SOL     OW27541   0.790   0.352   7.969  0.6531 -0.0456  0.1170
 5360SOL    HW127542   0.749   0.318   7.889  1.3906 -1.0790  0.1793
 5360SOL    HW227543   0.866   0.298   7.990  1.9895  1.5591 -0.5929
 5361SOL     OW27544   2.707   2.893   1.791 -0.8089  0.0944  0.2524
 5361SOL    HW127545   2.788   2.904   1.841 -1.1519 -2.5075  1.3698
 5361SOL    HW227546   2.660   2.838   1.853 -0.6816  0.9871  1.1456
 5362SOL     OW27547   4.173   3.171   2.977  0.1106 -0.6351 -0.2765
 5362SOL    HW127548   4.183   3.076   2.987  1.5043 -0.3356  1.2907
 5362SOL    HW227549   4.078   3.177   2.985  0.2239  0.2744  0.3452
 5363SOL     OW27550   3.099   4.499  15.101 -0.0439 -0.0700  0.4310
 5363SOL    HW127551   3.186   4.478  15.133 -0.3822 -2.1761 -0.0596
 5363SOL    HW227552   3.071   4.409  15.088  1.1899 -0.5115  0.8110
 5364SOL     OW27553   2.806   4.577   7.991  0.4761 -0.1529  0.0032
 5364SOL    HW127554   2.848   4.618   8.067 -1.0081  1.6398 -0.1294
 5364SOL    HW227555   2.814   4.645   7.924 -3.2238  0.6296  0.3391
 5365SOL     OW27556   0.188   3.996  13.437  0.5107 -0.9638 -0.5692
 5365SOL    HW127557   0.146   3.952  13.511  2.6407  0.9654  1.7589
 5365SOL    HW227558   0.119   3.978  13.373  0.1531 -1.7829  0.0496
 5366SOL     OW27559   4.510   1.015   3.650 -0.1984 -0.2860 -0.3094
 5366SOL    HW127560   4.580   1.064   3.606  0.3334 -0.1544  0.6853
 5366SOL    HW227561   4.565   0.952   3.698  1.4496  0.5159 -1.1362
 5367SOL     OW27562   4.097   2.558   3.909 -0.1605  0.8306 -0.2546
 5367SOL    HW127563   4.027   2.552   3.845 -0.4102 -0.1991  0.1070
 5367SOL    HW227564   4.168   2.575   3.848  1.1846  0.8989  1.3075
 5368SOL     OW27565   1.195   3.802   2.828 -0.1953  0.3027 -0.2905
 5368SOL    HW127566   1.154   3.729   2.875 -0.3053 -0.4995 -1.6187
 5368SOL    HW227567   1.123   3.822   2.768 -0.6311 -0.1250  0.0959
 5369SOL     OW27568   0.746   0.120  16.828  0.1756 -0.2728 -0.2613
 5369SOL    HW127569   0.695   0.141  16.906 -2.4669  0.2957 -2.1709
 5369SOL    HW227570   0.830   0.103  16.872  0.7524  0.1789 -1.1853
 5370SOL     OW27571   0.465   0.588   4.812 -0.0230 -0.4133 -0.0096
 5370SOL    HW127572   0.437   0.675   4.842 -2.3157 -2.2798  3.2289
 5370SOL    HW227573   0.387   0.534   4.824  1.0911 -1.9967  0.0603
 5371SOL     OW27574   0.978   1.958  13.725 -0.1250 -0.3759  0.2566
 5371SOL    HW127575   1.008   1.967  13.635  2.1007 -0.2988  1.0186
 5371SOL    HW227576   0.917   1.885  13.709 -0.9385  0.3059  0.2317
 5372SOL     OW27577   1.134   1.313   8.547  0.0543  0.0692  0.0122
 5372SOL    HW127578   1.107   1.403   8.529 -1.1659 -0.3396 -0.2458
 5372SOL    HW227579   1.079   1.268   8.483 -0.1867 -2.0484  1.6697
 5373SOL     OW27580   2.609   2.407  13.548 -0.6181 -0.0064  0.6136
 5373SOL    HW127581   2.606   2.406  13.643 -0.3232  0.7288  0.6355
 5373SOL    HW227582   2.572   2.494  13.531  0.3209  0.4537  0.9030
 5374SOL     OW27583   2.060   0.632   8.599  0.3715  0.1037 -0.6370
 5374SOL    HW127584   2.121   0.651   8.527  2.6663 -0.6484  1.1230
 5374SOL    HW227585   1.979   0.637   8.547  0.8578 -1.4302 -1.5268
 5375SOL     OW27586   2.746   2.072   0.629 -0.4654  0.1553  0.6097
 5375SOL    HW127587   2.667   2.065   0.574  0.4272 -0.3106 -0.6055
 5375SOL    HW227588   2.757   1.979   0.651 -0.0857  0.0568  0.0054
 5376SOL     OW27589   4.596   1.639  16.769  0.3357 -0.4132  0.1106
 5376SOL    HW127590   4.543   1.560  16.769 -1.5006  0.8176  0.6594
 5376SOL    HW227591   4.567   1.677  16.686  0.4840 -0.6873 -0.0659
 5377SOL     OW27592   0.864   0.132   8.449  0.0787  0.1836 -0.0624
 5377SOL    HW127593   0.939   0.126   8.390  0.1909 -1.1323  0.2179
 5377SOL    HW227594   0.816   0.204   8.409  0.4979 -0.4479 -1.7259
 5378SOL     OW27595   2.531   0.642   3.104  0.1237 -0.2955 -0.1641
 5378SOL    HW127596   2.531   0.676   3.015  0.8386 -1.0686 -0.4579
 5378SOL    HW227597   2.437   0.624   3.115 -0.0183  0.4060 -0.2649
 5379SOL     OW27598   3.034   4.518   2.154  0.1158 -0.3700  0.6183
 5379SOL    HW127599   3.064   4.574   2.083 -1.0979  0.0725  0.4569
 5379SOL    HW227600   2.939   4.530   2.153 -0.0154 -1.3362  1.2208
 5380SOL     OW27601   3.113   0.384  14.534  0.1533  0.0876 -0.3692
 5380SOL    HW127602   3.125   0.338  14.450  0.7522  0.4128 -0.4667
 5380SOL    HW227603   3.050   0.330  14.580 -0.4947  1.3471  0.2037
 5381SOL     OW27604   0.568   0.441   1.965 -0.4906 -0.2198 -0.3249
 5381SOL    HW127605   0.476   0.423   1.983 -0.4804 -2.0920 -2.1167
 5381SOL    HW227606   0.568   0.382   1.890  1.9066  2.4207 -2.4110
 5382SOL     OW27607   0.415   3.030  10.894  0.3623 -0.5906 -0.1380
 5382SOL    HW127608   0.389   2.953  10.945  1.9840  0.4209  2.2516
 5382SOL    HW227609   0.331   3.056  10.857  0.7107 -1.8891 -1.8203
 5383SOL     OW27610   0.077   0.222   7.068 -0.0444 -0.2564  0.0723
 5383SOL    HW127611   0.151   0.162   7.078 -0.0313 -0.1889  0.3966
 5383SOL    HW227612   0.026   0.208   7.148 -3.4248  2.5269 -1.5717
 5384SOL     OW27613   1.608   1.763   9.695  0.2339  0.2792  0.1920
 5384SOL    HW127614   1.654   1.835   9.737  0.7197 -0.0381  0.2064
 5384SOL    HW227615   1.554   1.736   9.769  0.8108  2.3004  1.3306
 5385SOL     OW27616   2.134   3.524   3.863 -0.2549 -0.4875 -0.2949
 5385SOL    HW127617   2.191   3.509   3.788 -0.0539 -1.5485  0.0624
 5385SOL    HW227618   2.058   3.469   3.842  0.0949 -1.2353  0.3806
 5386SOL     OW27619   1.872   2.614   7.120 -0.0756 -0.5527 -0.3039
 5386SOL    HW127620   1.848   2.524   7.095 -2.5438 -0.0487  0.3530
 5386SOL    HW227621   1.945   2.640   7.063 -0.6168  2.5070  0.4266
 5387SOL     OW27622   2.284   4.227  13.137 -0.0544  0.5111 -0.3845
 5387SOL    HW127623   2.238   4.308  13.159 -1.8392 -0.9837  1.3914
 5387SOL    HW227624   2.264   4.210  13.045  0.8190  0.5859 -0.5865
 5388SOL     OW27625   4.270   2.345   2.316 -0.2904  0.3501  0.0030
 5388SOL    HW127626   4.248   2.392   2.236 -0.1818  1.2227  0.4882
 5388SOL    HW227627   4.325   2.277   2.278 -1.4459 -1.7379  2.0542
 5389SOL     OW27628   2.813   4.637   6.407 -0.6574 -0.1371  0.4207
 5389SOL    HW127629   2.719   4.644   6.427 -1.4924 -2.0571 -2.8313
 5389SOL    HW227630   2.822   4.547   6.376 -1.7428 -0.4909  1.0984
 5390SOL     OW27631   3.165   3.802   2.884  0.1433  0.8128 -0.8006
 5390SOL    HW127632   3.157   3.889   2.924 -1.3269 -0.4857  1.7023
 5390SOL    HW227633   3.241   3.813   2.826  0.9492  2.2531  0.5455
 5391SOL     OW27634   4.123   3.884   6.919 -0.0226  0.3287  0.2941
 5391SOL    HW127635   4.124   3.789   6.933  0.3532  0.2677 -0.1379
 5391SOL    HW227636   4.033   3.905   6.942 -0.7407 -0.2892 -1.9639
 5392SOL     OW27637   1.081   0.163   7.359  0.9250 -0.2265  0.2705
 5392SOL    HW127638   1.003   0.213   7.383  0.7248  0.2485 -1.3947
 5392SOL    HW227639   1.074   0.150   7.265 -1.5560 -0.7607  0.5278
 5393SOL     OW27640   4.484   1.861   7.137  0.8491 -0.1228  0.1925
 5393SOL    HW127641   4.414   1.863   7.203 -1.1478  1.0767 -1.9554
 5393SOL    HW227642   4.435   1.880   7.057 -2.1351 -0.3770  1.9670
 5394SOL     OW27643   2.051   4.494   4.131  0.1127  0.0177 -0.0902
 5394SOL    HW127644   2.049   4.515   4.038  1.4068 -3.2960 -0.8830
 5394SOL    HW227645   2.072   4.582   4.161 -2.5482  0.2004  1.2726
 5395SOL     OW27646   3.024   4.533   3.038  0.6237  0.0561 -0.5047
 5395SOL    HW127647   3.016   4.514   3.132  0.7869  0.6949 -0.3564
 5395SOL    HW227648   3.015   4.445   3.002 -1.2594  0.3366 -0.7318
 5396SOL     OW27649   2.656   2.398   2.880 -0.3190 -0.5881  0.2488
 5396SOL    HW127650   2.603   2.331   2.837 -0.3699 -1.2507  1.3627
 5396SOL    HW227651   2.742   2.358   2.871 -0.7059 -0.7978 -2.5626
 5397SOL     OW27652   4.646   0.778   3.674  0.3655  0.5294  0.6944
 5397SOL    HW127653   4.678   0.733   3.752  2.8577  1.0516 -0.0415
 5397SOL    HW227654   0.007   0.789   3.627  0.5589  3.1516  1.6476
 5398SOL     OW27655   3.730   0.209  11.593 -0.0526 -0.8223  0.2983
 5398SOL    HW127656   3.823   0.189  11.597 -0.0947 -0.7072  1.7600
 5398SOL    HW227657   3.726   0.277  11.660  0.6536  0.4143 -0.9192
 5399SOL     OW27658   2.908   2.705   9.213  0.0793  0.1846 -0.4363
 5399SOL    HW127659   2.838   2.736   9.271 -1.3933 -1.8916 -1.1442
 5399SOL    HW227660   2.858   2.670   9.140 -2.0674  0.3026  0.9759
 5400SOL     OW27661   2.832   1.754  15.051  0.3265  0.3790  0.7061
 5400SOL    HW127662   2.881   1.687  15.003 -2.8075 -2.0073  0.8141
 5400SOL    HW227663   2.775   1.790  14.983  0.5928 -2.3149 -0.9709
 5401SOL     OW27664   3.007   3.797   3.525  0.0994 -0.4694  0.1382
 5401SOL    HW127665   3.100   3.780   3.506  0.0728 -1.1850  0.6625
 5401SOL    HW227666   2.983   3.820   3.435  2.2688  1.1360 -0.0311
 5402SOL     OW27667   4.627   2.323   8.377 -0.6582 -0.0328  0.4885
 5402SOL    HW127668   4.617   2.329   8.472  1.4719 -0.9501  0.7900
 5402SOL    HW227669   4.683   2.245   8.370 -0.4628  0.1662 -0.1380
 5403SOL     OW27670   4.157   3.061  16.593 -0.5339  0.0536 -0.4730
 5403SOL    HW127671   4.101   3.076  16.669  1.3012  0.8722  0.6917
 5403SOL    HW227672   4.110   3.097  16.517  0.1294 -0.2678 -1.0393
 5404SOL     OW27673   0.705   1.898  12.474 -0.2206 -0.6034 -0.1865
 5404SOL    HW127674   0.766   1.947  12.530 -1.1137  1.3231 -0.8919
 5404SOL    HW227675   0.750   1.888  12.390  1.4863 -1.1257  0.7798
 5405SOL     OW27676   0.655   1.485   1.604  0.5120 -0.2211 -0.1364
 5405SOL    HW127677   0.723   1.498   1.670  1.6682 -0.5141 -1.2574
 5405SOL    HW227678   0.675   1.560   1.548 -0.6486 -0.2012 -0.5102
 5406SOL     OW27679   1.435   2.986   8.644 -0.0763 -0.3065  0.3487
 5406SOL    HW127680   1.442   3.081   8.648  1.1549 -0.3968  0.2362
 5406SOL    HW227681   1.504   2.957   8.704 -1.0987 -1.2335  1.0875
 5407SOL     OW27682   3.657   1.549   4.428  0.5014  0.0054  0.1402
 5407SOL    HW127683   3.731   1.494   4.456  0.3077  0.0070  0.6373
 5407SOL    HW227684   3.656   1.537   4.333 -0.8441 -1.9183  0.4018
 5408SOL     OW27685   0.585   4.678   2.304  0.2591  0.0524 -0.4245
 5408SOL    HW127686   0.533   4.625   2.363 -0.9918  1.4783 -0.2501
 5408SOL    HW227687   0.607   4.607   2.244  0.0457 -0.2152 -0.1834
 5409SOL     OW27688   0.654   4.085   9.997  0.1475 -0.3430 -0.7014
 5409SOL    HW127689   0.624   4.003   9.956  1.2358 -0.8832 -0.4088
 5409SOL    HW227690   0.678   4.129   9.916 -0.6116  0.1799 -0.6375
 5410SOL     OW27691   1.929   3.713   7.967  0.0881  0.4465 -0.6999
 5410SOL    HW127692   1.958   3.799   7.998 -2.4682  0.9559  0.2969
 5410SOL    HW227693   1.836   3.727   7.988  0.0905  0.8386 -0.9553
 5411SOL     OW27694   2.312   3.147  16.465  0.0144 -0.0016  0.6113
 5411SOL    HW127695   2.387   3.198  16.496 -0.6319  2.0622 -1.2407
 5411SOL    HW227696   2.306   3.175  16.373  1.3215  0.8988  0.7868
 5412SOL     OW27697   3.505   1.068  14.411  0.1198  0.3703 -0.3599
 5412SOL    HW127698   3.588   1.083  14.455  0.5082 -2.9191  0.0017
 5412SOL    HW227699   3.521   1.085  14.318 -0.3568 -0.8839 -0.6684
 5413SOL     OW27700   2.616   3.662  17.186 -0.5306 -0.6622  0.0292
 5413SOL    HW127701   2.683   3.705  17.133 -2.8462  1.4340 -1.2137
 5413SOL    HW227702   2.645   3.571  17.191 -1.1723 -0.7512  1.9347
 5414SOL     OW27703   2.580   0.719   8.470 -0.4270  0.0570 -0.6006
 5414SOL    HW127704   2.552   0.763   8.389  3.5623  1.0749 -1.3954
 5414SOL    HW227705   2.519   0.743   8.540  1.0329 -0.0473  0.6822
 5415SOL     OW27706   1.650   3.011  15.831 -0.2019 -0.4145 -0.3898
 5415SOL    HW127707   1.579   2.957  15.866  0.5036  0.6348  2.7189
 5415SOL    HW227708   1.611   3.043  15.750  1.3329 -0.7209 -1.2611
 5416SOL     OW27709   0.740   2.887   6.304 -0.3308 -0.0494 -0.0708
 5416SOL    HW127710   0.743   2.978   6.334  0.1265 -0.1465  0.1855
 5416SOL    HW227711   0.771   2.841   6.382  0.3447 -1.8234 -1.3913
 5417SOL     OW27712   4.212   4.618   5.335 -0.0263 -0.1449 -0.1044
 5417SOL    HW127713   4.272   4.595   5.406 -0.4365  0.0764  0.3108
 5417SOL    HW227714   4.241   4.710   5.333  0.5657 -0.3350 -0.2217
 5418SOL     OW27715   3.621   4.365   1.835 -0.2484  0.1394 -0.3869
 5418SOL    HW127716   3.529   4.374   1.813 -0.5039 -1.2706  0.1525
 5418SOL    HW227717   3.627   4.425   1.910 -2.0375  0.9589 -0.8955
 5419SOL     OW27718   2.973   4.111   4.483 -0.1223 -0.4697 -0.0538
 5419SOL    HW127719   2.969   4.020   4.513 -1.2197 -0.6550 -0.7821
 5419SOL    HW227720   2.884   4.122   4.449 -0.5387  0.2720  1.2987
 5420SOL     OW27721   1.271   4.667   8.103  0.3842 -0.1116  0.1785
 5420SOL    HW127722   1.335   0.006   8.065 -0.0895  1.3733  1.7064
 5420SOL    HW227723   1.329   4.605   8.147  0.8615 -1.3139 -2.1275
 5421SOL     OW27724   1.807   3.634   2.635  0.0070 -0.1660  0.6659
 5421SOL    HW127725   1.884   3.686   2.614 -0.4512  0.8050  1.3775
 5421SOL    HW227726   1.819   3.557   2.579  2.3450  0.0084  0.9414
 5422SOL     OW27727   2.251   2.088   8.827  0.4722  0.3544  0.2117
 5422SOL    HW127728   2.268   2.178   8.800 -1.5221  1.4840  2.6902
 5422SOL    HW227729   2.260   2.097   8.922  0.8832  1.8961  0.0190
 5423SOL     OW27730   4.553   2.421   1.743 -0.4094  0.2571 -0.0361
 5423SOL    HW127731   4.487   2.388   1.804 -0.7088 -0.5071 -0.7688
 5423SOL    HW227732   4.603   2.469   1.809  2.9200 -0.1984 -2.2517
 5424SOL     OW27733   4.436   1.092   6.679  0.4851  0.5213 -0.0581
 5424SOL    HW127734   4.462   1.013   6.726  0.7517  0.8439  0.3366
 5424SOL    HW227735   4.346   1.114   6.701  0.6387  0.3502  0.7359
 5425SOL     OW27736   3.453   3.080   7.747 -0.3796 -0.1059  0.2420
 5425SOL    HW127737   3.406   2.997   7.739 -0.0437 -0.4919  2.3050
 5425SOL    HW227738   3.505   3.089   7.667 -0.4288  0.6236  0.2900
 5426SOL     OW27739   1.665   1.353   2.381  0.2603  0.1776  0.7168
 5426SOL    HW127740   1.619   1.269   2.390  0.8438 -0.1035  1.0501
 5426SOL    HW227741   1.737   1.349   2.443  1.4817  0.3725 -0.6952
 5427SOL     OW27742   1.343   1.090   2.723 -0.5220 -0.3510 -0.3763
 5427SOL    HW127743   1.331   1.063   2.814 -0.4795 -2.8471 -1.1106
 5427SOL    HW227744   1.390   1.173   2.727  1.4909 -1.4955 -0.8276
 5428SOL     OW27745   4.572   1.820   4.554 -0.3661 -0.0943 -0.0451
 5428SOL    HW127746   4.559   1.881   4.482  0.7264 -0.1228 -0.2666
 5428SOL    HW227747   4.638   1.767   4.509 -0.8370 -1.2791  0.6510
 5429SOL     OW27748   3.844   0.175   5.869 -0.0232  0.0302  0.1249
 5429SOL    HW127749   3.879   0.205   5.953 -2.1464 -1.2845  1.4721
 5429SOL    HW227750   3.894   0.096   5.851  0.0924  0.3865 -1.0766
 5430SOL     OW27751   0.431   1.249   6.965  0.0183 -0.3865  0.6517
 5430SOL    HW127752   0.460   1.184   6.902  0.3769 -0.4403  0.8700
 5430SOL    HW227753   0.338   1.231   6.974  0.2589 -1.5577  0.7349
 5431SOL     OW27754   3.312   4.593   5.695  0.7527  0.1960  0.5985
 5431SOL    HW127755   3.394   4.631   5.664 -0.2109  1.6548 -0.2184
 5431SOL    HW227756   3.319   4.626   5.784 -1.5503 -0.8572  1.1783
 5432SOL     OW27757   0.795   0.334   3.880 -0.3993 -0.2305 -0.0986
 5432SOL    HW127758   0.776   0.296   3.794  1.6018 -0.6950 -0.3350
 5432SOL    HW227759   0.714   0.309   3.924  0.3223  1.8820  2.3852
 5433SOL     OW27760   0.471   2.413  12.784 -0.1569 -0.1975  0.1418
 5433SOL    HW127761   0.475   2.458  12.700  2.0729  0.3618  0.5344
 5433SOL    HW227762   0.486   2.488  12.842  2.0836 -1.4390  1.1766
 5434SOL     OW27763   3.819   2.534   8.720  0.1655 -0.3641 -0.2773
 5434SOL    HW127764   3.757   2.480   8.671  0.4014 -0.0997 -0.8648
 5434SOL    HW227765   3.838   2.466   8.785 -2.8472  0.2095  1.1986
 5435SOL     OW27766   1.403   3.513   6.109  0.5589  0.2909 -0.1971
 5435SOL    HW127767   1.400   3.519   6.013  0.8719 -0.1633 -0.2339
 5435SOL    HW227768   1.417   3.419   6.117  0.6636  0.4628  1.6371
 5436SOL     OW27769   2.224   0.689   8.413 -0.3445  0.2314 -0.1899
 5436SOL    HW127770   2.185   0.708   8.328 -0.4420  3.5176  0.5862
 5436SOL    HW227771   2.285   0.764   8.409 -0.7316  0.6748  2.2855
 5437SOL     OW27772   4.452   1.586   9.267  0.5800 -0.7501 -0.3837
 5437SOL    HW127773   4.380   1.594   9.204  1.1646  3.6990 -0.5317
 5437SOL    HW227774   4.411   1.529   9.332 -0.4981  1.3463  0.8033
 5438SOL     OW27775   2.119   0.664   4.114 -0.0200  0.0430 -0.9431
 5438SOL    HW127776   2.162   0.638   4.032 -1.9918  0.1709 -2.0305
 5438SOL    HW227777   2.188   0.666   4.180 -0.0931 -0.2683 -0.8611
 5439SOL     OW27778   0.324   1.319  17.175  0.1285 -0.1485  0.0716
 5439SOL    HW127779   0.278   1.326  17.092  4.0393  1.4051 -1.9635
 5439SOL    HW227780   0.338   1.413  17.191  1.3402 -0.3469  0.1811
 5440SOL     OW27781   4.080   0.785   1.250  0.3475  0.6395  0.0162
 5440SOL    HW127782   3.992   0.753   1.230  1.5565 -1.7275 -1.4472
 5440SOL    HW227783   4.082   0.876   1.222 -0.7836  0.6833  0.0969
 5441SOL     OW27784   0.626   3.946   6.415 -0.4454 -0.1707 -0.0271
 5441SOL    HW127785   0.540   3.978   6.440 -0.8320 -0.1796 -1.3173
 5441SOL    HW227786   0.642   3.865   6.463  1.4662 -0.0389 -0.4455
 5442SOL     OW27787   1.056   3.891   1.788 -0.1218 -0.0653 -0.7482
 5442SOL    HW127788   0.980   3.948   1.772  0.8458  2.1705  2.6600
 5442SOL    HW227789   1.016   3.826   1.846 -0.2700 -1.9664 -2.9891
 5443SOL     OW27790   2.322   1.987   3.088  0.5123 -0.2083  0.3004
 5443SOL    HW127791   2.307   1.894   3.107 -1.6362  0.3235  1.1662
 5443SOL    HW227792   2.276   1.999   3.005  0.2696  2.2586  0.8119
 5444SOL     OW27793   3.559   1.391  15.144  0.0656 -0.3339  0.3698
 5444SOL    HW127794   3.477   1.441  15.145  0.2990  0.0556  0.1194
 5444SOL    HW227795   3.605   1.466  15.105  3.0952 -2.1018  0.5230
 5445SOL     OW27796   2.568   3.535   5.615  0.4094  0.0760 -0.1439
 5445SOL    HW127797   2.514   3.459   5.594 -0.8049  1.2873 -1.4527
 5445SOL    HW227798   2.601   3.560   5.529  0.9342  2.1793  0.6741
 5446SOL     OW27799   1.715   3.785   4.355 -0.0655 -0.0672 -0.0088
 5446SOL    HW127800   1.700   3.850   4.423 -0.7685  0.4329 -0.6417
 5446SOL    HW227801   1.705   3.839   4.277 -1.2254 -1.2102 -0.6547
 5447SOL     OW27802   2.107   4.534  16.864 -0.0860 -0.0334  0.3016
 5447SOL    HW127803   2.106   4.531  16.768 -2.6483 -2.7560  0.4054
 5447SOL    HW227804   2.151   4.618  16.877  1.6470 -0.6513 -1.5328
 5448SOL     OW27805   2.903   4.159   2.409 -0.0517  0.0349  0.7728
 5448SOL    HW127806   2.914   4.113   2.492 -0.6585 -0.5188  0.5427
 5448SOL    HW227807   2.991   4.195   2.397 -0.0235 -0.6337 -1.0788
 5449SOL     OW27808   3.245   0.404   7.833  0.4332 -0.3450  0.1500
 5449SOL    HW127809   3.229   0.372   7.744  1.1402 -2.8097  0.9077
 5449SOL    HW227810   3.191   0.483   7.841  1.3400  0.1729  1.0999
 5450SOL     OW27811   3.660   4.534   2.577 -0.3258 -0.2547 -0.3834
 5450SOL    HW127812   3.729   4.599   2.565 -1.3865  1.4160  2.6597
 5450SOL    HW227813   3.702   4.464   2.627  1.8777  1.0490 -0.3848
 5451SOL     OW27814   2.147   0.022   4.599 -0.2280 -0.0968 -0.0350
 5451SOL    HW127815   2.152   0.102   4.547 -0.7117  0.8269  1.3376
 5451SOL    HW227816   2.205   0.033   4.675  2.1154 -1.8849 -1.5742
 5452SOL     OW27817   1.353   2.849  17.057  0.0372  0.2394 -0.0955
 5452SOL    HW127818   1.284   2.812  17.112 -0.8932 -1.7750 -2.6421
 5452SOL    HW227819   1.350   2.937  17.094 -0.3663 -0.7238  2.1757
 5453SOL     OW27820   2.714   3.078   5.484 -0.1618 -0.8640  0.0519
 5453SOL    HW127821   2.770   3.044   5.414 -0.2602 -1.1340  0.1065
 5453SOL    HW227822   2.661   3.001   5.504 -0.4368 -0.8574 -0.6472
 5454SOL     OW27823   2.175   2.458   4.827  0.2681  0.1838  0.0882
 5454SOL    HW127824   2.120   2.408   4.888  0.2316  0.1821  0.0536
 5454SOL    HW227825   2.114   2.526   4.797  0.7042 -0.1656 -1.5530
 5455SOL     OW27826   2.981   1.467   6.068 -0.4569  0.1585  0.5987
 5455SOL    HW127827   2.992   1.375   6.046 -1.7499  0.6784 -2.2096
 5455SOL    HW227828   2.932   1.466   6.151  0.4929 -0.3291  1.1518
 5456SOL     OW27829   0.978   2.631   5.367 -0.9440  0.3098 -0.9352
 5456SOL    HW127830   0.967   2.689   5.441 -2.4114 -0.0917 -0.8469
 5456SOL    HW227831   0.890   2.644   5.334 -1.8849  0.6876  1.7977
 5457SOL     OW27832   0.268   2.827   8.116  0.3926  0.2783  0.1024
 5457SOL    HW127833   0.343   2.885   8.131  1.2472 -0.4339 -1.3473
 5457SOL    HW227834   0.307   2.742   8.136  1.3939  0.3091 -1.6899
 5458SOL     OW27835   3.961   1.381   2.811  0.4265  0.0470 -0.2625
 5458SOL    HW127836   4.002   1.320   2.873 -1.2745 -0.0349  0.7565
 5458SOL    HW227837   4.012   1.374   2.730  1.2640  1.8413  0.1167
 5459SOL     OW27838   1.717   1.026   3.770  0.3409  0.0339  0.1295
 5459SOL    HW127839   1.731   0.970   3.693  1.9791  1.3376 -0.5212
 5459SOL    HW227840   1.775   0.985   3.834  0.5000  1.5498  0.9389
 5460SOL     OW27841   2.122   2.362   9.867  0.6797 -0.0470 -0.2132
 5460SOL    HW127842   2.068   2.286   9.843 -1.0670  0.8414  0.9457
 5460SOL    HW227843   2.056   2.404   9.921  0.0455 -0.0426 -0.9805
 5461SOL     OW27844   2.826   2.817   8.340 -0.1443  0.2947 -0.1634
 5461SOL    HW127845   2.797   2.753   8.405  1.8635 -1.7025 -1.2475
 5461SOL    HW227846   2.775   2.809   8.259  2.1797 -1.6490 -1.3944
 5462SOL     OW27847   1.272   4.219   9.074  0.3942 -0.6923  0.4377
 5462SOL    HW127848   1.365   4.217   9.097  0.8261 -1.5074 -1.3629
 5462SOL    HW227849   1.249   4.127   9.084  0.6304 -0.4826  2.8418
 5463SOL     OW27850   2.912   3.456  12.481 -0.1081  0.0151  0.3091
 5463SOL    HW127851   2.983   3.492  12.534  0.6694  0.1695 -0.8310
 5463SOL    HW227852   2.957   3.460  12.396 -0.0915  0.4440  0.3394
 5464SOL     OW27853   0.821   0.090   3.034  0.5060  0.9121  0.1385
 5464SOL    HW127854   0.738   0.096   2.987  0.7006  3.9882  0.2314
 5464SOL    HW227855   0.876   0.150   2.982  0.3944 -0.6474 -1.8016
 5465SOL     OW27856   0.936   0.734   5.171 -0.6019  0.8637 -0.1011
 5465SOL    HW127857   0.903   0.777   5.093  0.1237 -0.1789 -0.9721
 5465SOL    HW227858   0.972   0.808   5.221  2.2766 -0.4532 -0.2324
 5466SOL     OW27859   4.607   1.505   9.544  0.0674  0.0624 -0.4773
 5466SOL    HW127860   4.664   1.436   9.509 -0.4017 -0.5720  0.0108
 5466SOL    HW227861   4.525   1.484   9.500  0.7011 -2.2067 -0.6121
 5467SOL     OW27862   3.098   0.342   2.917 -0.9077  0.0289 -0.0330
 5467SOL    HW127863   3.055   0.397   2.850  2.4571  0.0878 -2.1188
 5467SOL    HW227864   3.039   0.266   2.921 -2.5449  1.3311  0.7549
 5468SOL     OW27865   2.556   3.255   6.104  0.2182  0.1162 -0.3448
 5468SOL    HW127866   2.602   3.327   6.148  0.7965  1.7630 -3.6323
 5468SOL    HW227867   2.478   3.299   6.069  0.1259  1.0420  1.0393
 5469SOL     OW27868   1.351   0.002   5.097  0.1361 -0.3484  0.0977
 5469SOL    HW127869   1.319   0.040   5.179 -1.2077  0.2306 -0.6871
 5469SOL    HW227870   1.407   4.650   5.123  1.0817  0.0519 -0.8262
 5470SOL     OW27871   0.609   4.478   8.549  0.2912  0.2618  0.6453
 5470SOL    HW127872   0.570   4.565   8.545  0.0315  0.1453  0.6372
 5470SOL    HW227873   0.664   4.495   8.625  1.6802 -0.7101 -0.1446
 5471SOL     OW27874   0.895   2.878   4.939 -0.7867  0.2678 -0.5540
 5471SOL    HW127875   0.866   2.790   4.913 -0.9587  0.2814 -0.4074
 5471SOL    HW227876   0.990   2.868   4.937 -0.7685  0.2620  0.4276
 5472SOL     OW27877   3.561   4.651   8.607  0.0707 -0.4306  0.1391
 5472SOL    HW127878   3.647   4.656   8.650 -0.2339 -0.5937  0.7741
 5472SOL    HW227879   3.499   4.681   8.673 -1.7895 -1.2524 -1.2384
 5473SOL     OW27880   2.077   1.037   7.492  0.5639  0.0330 -0.7832
 5473SOL    HW127881   2.085   0.994   7.406  1.5309 -1.6810  0.1645
 5473SOL    HW227882   1.981   1.040   7.490  0.4865 -1.5317  1.0854
 5474SOL     OW27883   4.208   3.079   3.299  0.3678  0.3807 -0.2860
 5474SOL    HW127884   4.269   3.133   3.249  0.6246 -1.0398 -1.4731
 5474SOL    HW227885   4.157   3.034   3.232 -0.2998  0.5038  0.1298
 5475SOL     OW27886   1.735   3.107   2.952  0.0530 -0.3113  0.6112
 5475SOL    HW127887   1.748   3.117   2.858  1.4267 -0.2221  0.8118
 5475SOL    HW227888   1.793   3.169   2.996 -1.8571 -0.6794  3.5866
 5476SOL     OW27889   2.552   2.539   7.988 -0.4459 -0.7868 -0.5149
 5476SOL    HW127890   2.608   2.563   7.915 -0.2813  0.5531  0.0379
 5476SOL    HW227891   2.512   2.623   8.012 -0.9841 -1.6524  1.6515
 5477SOL     OW27892   4.238   3.024   7.946  0.1326 -0.1777  0.1172
 5477SOL    HW127893   4.151   3.055   7.921  0.6440  1.9293  0.8807
 5477SOL    HW227894   4.282   3.086   8.005  1.8183 -0.3731 -0.9363
 5478SOL     OW27895   3.585   1.040   7.109 -0.0082  0.8765  0.1448
 5478SOL    HW127896   3.538   0.958   7.124 -0.4212  0.7210 -1.9481
 5478SOL    HW227897   3.590   1.046   7.014 -0.9223  2.0724  0.1729
 5479SOL     OW27898   2.740   2.375   4.291  0.0543  0.7149 -0.1745
 5479SOL    HW127899   2.719   2.397   4.201 -0.4815  0.0462 -0.2125
 5479SOL    HW227900   2.725   2.462   4.328 -0.2599  1.1315 -1.2954
 5480SOL     OW27901   1.358   1.112   0.413 -0.1627  0.0388  0.2931
 5480SOL    HW127902   1.405   1.185   0.452  1.2484 -1.2424  1.0046
 5480SOL    HW227903   1.304   1.081   0.486 -1.4031  2.6841  0.4882
 5481SOL     OW27904   1.173   0.266   9.046  0.3487 -0.4385  0.4427
 5481SOL    HW127905   1.124   0.218   8.980  1.7110  1.1159 -1.6742
 5481SOL    HW227906   1.131   0.352   9.053  2.8674  0.8755 -0.4099
 5482SOL     OW27907   0.576   1.586   8.522  0.1952 -0.0177  0.0550
 5482SOL    HW127908   0.499   1.583   8.579  0.7994  0.3189  0.8936
 5482SOL    HW227909   0.605   1.677   8.514  0.7889 -0.0994  1.2746
 5483SOL     OW27910   3.863   2.535   3.437  0.1415  0.7339 -0.0324
 5483SOL    HW127911   3.781   2.512   3.395  0.9197 -2.3921  0.1860
 5483SOL    HW227912   3.923   2.460   3.438 -1.2640 -0.3617  0.9140
 5484SOL     OW27913   1.980   4.161   3.771  0.2303 -0.4358 -1.0429
 5484SOL    HW127914   1.996   4.250   3.803 -1.1475 -0.4545 -0.3086
 5484SOL    HW227915   2.038   4.168   3.695  0.9369 -1.8963 -0.6401
 5485SOL     OW27916   3.891   2.480  10.948 -0.8719 -1.0003  0.2211
 5485SOL    HW127917   3.965   2.492  11.008 -0.0796 -0.4215 -0.8762
 5485SOL    HW227918   3.836   2.549  10.985 -0.1516  0.4965 -1.5013
 5486SOL     OW27919   3.497   1.805   5.077 -0.2555  0.1900  0.0932
 5486SOL    HW127920   3.544   1.819   5.159  0.3944  1.0359 -0.4288
 5486SOL    HW227921   3.509   1.889   5.033  0.7196 -0.1258 -0.2313
 5487SOL     OW27922   2.929   1.508  14.928 -0.0124  0.2641 -0.1206
 5487SOL    HW127923   3.019   1.514  14.894 -0.4080  1.7929 -0.8995
 5487SOL    HW227924   2.889   1.504  14.841  1.8576  0.7752 -1.0195
 5488SOL     OW27925   0.909   2.682   2.442  0.5709 -0.3464  0.0880
 5488SOL    HW127926   0.828   2.649   2.401  0.3970  2.0756 -1.4792
 5488SOL    HW227927   0.884   2.696   2.534 -2.2540  0.1585 -0.7376
 5489SOL     OW27928   3.837   2.440   8.018 -0.3784  0.7079 -0.4885
 5489SOL    HW127929   3.883   2.475   8.095 -0.7488  0.6996 -0.2649
 5489SOL    HW227930   3.776   2.382   8.063  0.3991 -0.4170 -0.9022
 5490SOL     OW27931   3.475   2.908  16.418  0.4575 -0.2467  0.5539
 5490SOL    HW127932   3.481   2.996  16.455  1.3492  0.3495 -0.9965
 5490SOL    HW227933   3.412   2.928  16.349  1.9575 -0.2599 -0.8325
 5491SOL     OW27934   0.488   0.818  15.833 -0.2693 -0.4185 -0.2580
 5491SOL    HW127935   0.533   0.881  15.776  2.6152  1.7760  4.4602
 5491SOL    HW227936   0.445   0.877  15.895  1.9489  0.5917  0.3344
 5492SOL     OW27937   4.340   4.259  10.584  0.1698 -0.1482  0.4626
 5492SOL    HW127938   4.351   4.292  10.494  1.8171  1.2479  1.1613
 5492SOL    HW227939   4.412   4.306  10.626  1.1834  0.4808 -1.9806
 5493SOL     OW27940   2.033   2.360   2.121 -0.5813  0.3872 -0.5392
 5493SOL    HW127941   2.048   2.449   2.091  2.7675  0.3918  1.0589
 5493SOL    HW227942   2.022   2.315   2.037  0.0426  0.0673 -0.4512
 5494SOL     OW27943   0.530   3.155   5.087 -0.7835 -0.2940  0.9102
 5494SOL    HW127944   0.452   3.197   5.051  0.2196  0.5187 -0.2943
 5494SOL    HW227945   0.517   3.152   5.182  0.1906 -0.6175  1.0328
 5495SOL     OW27946   0.899   4.078   4.919  0.0859 -0.6823 -0.1723
 5495SOL    HW127947   0.966   4.133   4.878 -1.4542  2.6727  1.7525
 5495SOL    HW227948   0.883   4.007   4.857  1.2806  0.5716 -1.9510
 5496SOL     OW27949   2.041   1.401   9.063  0.5572  0.0555  0.3312
 5496SOL    HW127950   2.008   1.490   9.057 -0.0985 -0.3738 -2.3921
 5496SOL    HW227951   2.073   1.399   9.153 -0.2192  2.2541  0.6392
 5497SOL     OW27952   3.805   2.757   2.974  0.1147 -0.1124  0.4658
 5497SOL    HW127953   3.865   2.752   3.048 -2.1222 -1.5534  2.1833
 5497SOL    HW227954   3.805   2.850   2.952 -0.5410  0.6858  3.9637
 5498SOL     OW27955   1.600   3.286   7.475  0.4377  0.6156  0.2077
 5498SOL    HW127956   1.599   3.349   7.546 -1.9871  1.1076 -0.2393
 5498SOL    HW227957   1.570   3.344   7.405 -1.4935  0.4839  0.9266
 5499SOL     OW27958   2.907   0.256   6.583 -0.2695 -0.4935 -0.0701
 5499SOL    HW127959   2.848   0.212   6.644 -0.7773 -0.1515 -0.3213
 5499SOL    HW227960   2.869   0.343   6.576  1.2696  0.3835  2.2824
 5500SOL     OW27961   2.870   0.726   6.691  0.5295 -0.3748  0.5602
 5500SOL    HW127962   2.949   0.765   6.654 -0.0264  0.3974  0.1804
 5500SOL    HW227963   2.801   0.783   6.657 -0.1634 -0.4961  1.7418
 5501SOL     OW27964   2.071   0.695   5.534  0.3273  0.0768 -0.7746
 5501SOL    HW127965   2.153   0.677   5.487  0.5516  0.0756 -0.3760
 5501SOL    HW227966   2.072   0.625   5.599  1.1084  0.1044 -0.7548
 5502SOL     OW27967   1.214   2.777  15.391  0.0350  0.2631 -0.3321
 5502SOL    HW127968   1.150   2.800  15.459 -0.4039  0.7327 -0.9069
 5502SOL    HW227969   1.249   2.695  15.425  0.8790  0.7601 -0.0163
 5503SOL     OW27970   4.688   1.408  13.276  0.0616  0.9140 -0.2196
 5503SOL    HW127971   0.060   1.405  13.252  0.2290 -0.7449  0.6521
 5503SOL    HW227972   4.654   1.473  13.214  1.7863  1.8568 -0.2002
 5504SOL     OW27973   4.487   4.501  12.784  0.0672  0.2973  0.1228
 5504SOL    HW127974   4.577   4.515  12.754  0.0805  0.4937  0.2574
 5504SOL    HW227975   4.501   4.489  12.878  2.8238 -0.0294 -0.3371
 5505SOL     OW27976   4.041   2.784   8.787 -0.1132 -0.0508  0.2067
 5505SOL    HW127977   4.085   2.705   8.819  0.0667  0.1477  0.4541
 5505SOL    HW227978   4.059   2.788   8.694 -1.1564 -0.1204 -0.0031
 5506SOL     OW27979   3.509   1.485   8.811  0.4064 -0.0032 -0.0488
 5506SOL    HW127980   3.497   1.564   8.864 -3.4996  0.4158 -1.5593
 5506SOL    HW227981   3.537   1.416   8.871 -1.4132 -0.2996  0.4619
 5507SOL     OW27982   4.490   0.516   8.310 -0.7068 -0.9280 -0.4031
 5507SOL    HW127983   4.442   0.597   8.298  2.1860  0.4344 -2.7286
 5507SOL    HW227984   4.419   0.471   8.357  0.9382 -3.3649 -0.2336
 5508SOL     OW27985   3.538   0.460   8.188 -0.0225 -0.3896 -0.6880
 5508SOL    HW127986   3.472   0.490   8.126  0.4673  0.8668 -0.6195
 5508SOL    HW227987   3.478   0.450   8.261  0.4186 -0.4733 -0.3360
 5509SOL     OW27988   0.023   2.466  15.629 -0.4485 -0.1314  0.6452
 5509SOL    HW127989   0.013   2.419  15.547 -0.2100  0.3909  0.3167
 5509SOL    HW227990   4.654   2.470  15.662  0.5407 -0.0959  3.3559
 5510SOL     OW27991   1.173   0.424   2.360  0.7026  0.4995 -0.8028
 5510SOL    HW127992   1.124   0.350   2.325  1.3863  0.5777 -1.9396
 5510SOL    HW227993   1.098   0.466   2.400  0.5873 -3.4491  3.1016
 5511SOL     OW27994   2.035   2.765   9.477 -0.4649 -0.5124 -0.3587
 5511SOL    HW127995   2.046   2.680   9.520 -0.1883 -1.0492 -1.5068
 5511SOL    HW227996   2.123   2.802   9.482 -1.6871  2.4101 -0.7920
 5512SOL     OW27997   0.899   3.506  17.473 -0.3732  0.0601 -0.5087
 5512SOL    HW127998   0.842   3.515  17.397 -1.6426 -1.3044  0.2563
 5512SOL    HW227999   0.832   3.487  17.539 -0.7558  1.5944 -0.4524
 5513SOL     OW28000   3.718   1.005   0.523  0.7112 -0.0429  0.1985
 5513SOL    HW128001   3.804   1.045   0.538 -0.3940  1.6357  2.1023
 5513SOL    HW228002   3.676   1.070   0.466  2.3290  1.4000  0.6423
 5514SOL     OW28003   3.105   0.733   5.975 -0.1694  0.3433  0.1105
 5514SOL    HW128004   3.078   0.661   6.031 -0.6385  1.1382  0.8969
 5514SOL    HW228005   3.016   0.762   5.956  0.0964  0.5228 -0.8641
 5515SOL     OW28006   3.497   4.288  15.063 -0.4413  0.5891  0.1059
 5515SOL    HW128007   3.472   4.199  15.040 -1.7629  0.8962  0.3688
 5515SOL    HW228008   3.550   4.290  14.983 -0.2266  0.3768  0.2406
 5516SOL     OW28009   0.157   3.785   8.126  0.0727  0.2854 -0.2954
 5516SOL    HW128010   0.249   3.798   8.151  0.2897 -0.0016 -0.9320
 5516SOL    HW228011   0.177   3.703   8.081  1.0163  0.2749  0.1353
 5517SOL     OW28012   2.379   1.405   2.654  0.1597  0.0989  0.1487
 5517SOL    HW128013   2.290   1.380   2.630 -0.2676  1.4226  0.3918
 5517SOL    HW228014   2.403   1.330   2.710  1.1231 -0.3491 -0.8702
 5518SOL     OW28015   1.077   0.039   7.104  0.2420 -0.3378  0.3565
 5518SOL    HW128016   1.140   4.706   7.151  1.5908  0.3617 -0.6445
 5518SOL    HW228017   0.996   4.710   7.106 -0.9035  1.5416  0.7820
 5519SOL     OW28018   3.683   3.885   8.172 -0.2631 -0.4728  0.2986
 5519SOL    HW128019   3.591   3.860   8.187 -0.7077  2.1697  2.0360
 5519SOL    HW228020   3.726   3.802   8.193 -0.0917 -0.1052  1.3560
 5520SOL     OW28021   0.182   2.819  13.226  0.0880  0.0636 -0.4121
 5520SOL    HW128022   0.261   2.813  13.280 -1.3041 -0.3977  1.5742
 5520SOL    HW228023   0.111   2.817  13.290  0.5139  1.4637  0.0872
 5521SOL     OW28024   0.518   1.949   1.590 -0.2867  0.3608  0.4814
 5521SOL    HW128025   0.444   2.009   1.599 -1.2211 -0.5934 -0.8711
 5521SOL    HW228026   0.513   1.896   1.670  1.4084 -0.5534 -0.0254
 5522SOL     OW28027   2.168   2.039   6.336 -0.5410 -0.1669 -0.6378
 5522SOL    HW128028   2.194   2.076   6.420  1.1513  0.1194 -1.2942
 5522SOL    HW228029   2.201   1.950   6.345 -3.5257 -0.9418  2.6621
 5523SOL     OW28030   4.136   3.652  15.481 -0.3985 -0.0134 -0.0872
 5523SOL    HW128031   4.068   3.617  15.539  0.2610  0.1625  0.7909
 5523SOL    HW228032   4.196   3.578  15.474  1.1978  1.3705 -1.0245
 5524SOL     OW28033   0.238   1.477   9.812  0.1424  0.3259 -0.1848
 5524SOL    HW128034   0.177   1.403   9.806 -1.0795  1.1408  2.0327
 5524SOL    HW228035   0.218   1.502   9.902 -0.7864 -0.8414 -0.0732
 5525SOL     OW28036   0.478   1.355   6.014  0.6066 -0.2069 -0.5241
 5525SOL    HW128037   0.503   1.368   5.922  1.2849 -0.5127 -0.3834
 5525SOL    HW228038   0.406   1.292   6.010  0.1946  0.1597  1.3288
 5526SOL     OW28039   0.220   2.229  15.729 -0.6821  0.0085 -0.1461
 5526SOL    HW128040   0.188   2.201  15.643 -2.8747 -4.1556  2.0342
 5526SOL    HW228041   0.207   2.324  15.729  1.1221  0.2583  0.0572
 5527SOL     OW28042   3.457   0.611   7.635 -0.0100  0.2922  0.2990
 5527SOL    HW128043   3.527   0.638   7.575  0.4670 -1.8227 -0.0855
 5527SOL    HW228044   3.393   0.671   7.599 -2.2016 -1.2701  1.6063
 5528SOL     OW28045   4.678   3.393  14.549  0.0730  0.5946 -0.4364
 5528SOL    HW128046   4.587   3.365  14.554  0.9648 -2.4736 -1.5316
 5528SOL    HW228047   4.680   3.462  14.484  1.1287 -1.0475 -2.1468
 5529SOL     OW28048   4.076   4.249   3.953  0.3791  0.1382 -0.9238
 5529SOL    HW128049   3.989   4.288   3.961  0.7776  1.0990 -1.2425
 5529SOL    HW228050   4.132   4.327   3.958 -2.7165  2.2647  0.5371
 5530SOL     OW28051   3.254   3.069   8.226  0.1099 -0.1751  0.1379
 5530SOL    HW128052   3.202   3.147   8.206 -1.0989 -1.4419 -1.6443
 5530SOL    HW228053   3.250   3.080   8.321  0.8868 -1.0854  0.2743
 5531SOL     OW28054   3.975   3.177  10.473  0.5336 -0.1361  0.0685
 5531SOL    HW128055   3.929   3.219  10.547  1.8742 -1.8043  1.8421
 5531SOL    HW228056   3.981   3.255  10.418 -0.4175 -0.5606 -0.6313
 5532SOL     OW28057   2.788   4.325   4.134 -0.6268 -0.5398  0.7883
 5532SOL    HW128058   2.768   4.233   4.113  1.0893 -0.8271  0.4188
 5532SOL    HW228059   2.865   4.324   4.192 -0.6307  1.3071  0.8065
 5533SOL     OW28060   2.519   3.739   6.712  0.1579  0.1014  0.0932
 5533SOL    HW128061   2.504   3.807   6.646  2.3247 -1.3674 -1.8863
 5533SOL    HW228062   2.444   3.745   6.772  0.2343 -0.1710  0.2159
 5534SOL     OW28063   3.704   1.241   8.647  0.2483  0.3660  0.6628
 5534SOL    HW128064   3.661   1.234   8.562  0.7714  1.9000  0.2782
 5534SOL    HW228065   3.637   1.209   8.708  0.2914 -0.5467  0.2349
 5535SOL     OW28066   0.872   4.480   7.505 -0.1279  0.5594  0.5934
 5535SOL    HW128067   0.900   4.571   7.500 -0.0476  0.3713 -2.2262
 5535SOL    HW228068   0.955   4.444   7.538 -0.7307  1.1897  2.7702
 5536SOL     OW28069   1.605   0.148  11.134 -0.2181  0.0073 -0.0617
 5536SOL    HW128070   1.510   0.143  11.147 -0.1213  1.1793  1.0632
 5536SOL    HW228071   1.626   0.111  11.220 -0.9522 -0.8085 -0.2250
 5537SOL     OW28072   1.110   3.988  15.112 -0.2382  0.2243 -0.1984
 5537SOL    HW128073   1.056   4.008  15.188  0.9308  0.8739  0.4652
 5537SOL    HW228074   1.048   3.925  15.076  1.0400 -0.9697 -0.3264
 5538SOL     OW28075   0.418   2.341  11.059  0.9659  0.1276  0.2292
 5538SOL    HW128076   0.464   2.290  10.993 -2.1481 -2.0552 -0.2423
 5538SOL    HW228077   0.411   2.267  11.120 -1.9978 -0.4764 -0.8470
 5539SOL     OW28078   3.504   3.204  17.370  0.6911  0.0850  0.5006
 5539SOL    HW128079   3.413   3.211  17.341  0.6824 -0.0369  0.4971
 5539SOL    HW228080   3.502   3.211  17.466 -2.2103 -0.4748  0.4704
 5540SOL     OW28081   3.990   0.228   8.692  0.0869 -0.8176  0.4706
 5540SOL    HW128082   3.953   0.141   8.673  1.4095 -1.5740  1.3169
 5540SOL    HW228083   3.987   0.231   8.788  2.8978  0.2192  0.5147
 5541SOL     OW28084   4.104   4.585   1.984 -0.9448 -0.5488  0.8822
 5541SOL    HW128085   4.019   4.623   2.004 -0.2784  0.3262  2.0754
 5541SOL    HW228086   4.113   4.533   2.064  1.3277 -0.9653  0.3491
 5542SOL     OW28087   0.896   1.415   2.070  0.0059 -0.4529 -0.3286
 5542SOL    HW128088   0.808   1.390   2.042  0.4770  0.0597 -2.2992
 5542SOL    HW228089   0.896   1.509   2.084  1.3929 -0.6632  1.1106
 5543SOL     OW28090   2.406   4.243   2.499  0.6525  0.7993  0.4213
 5543SOL    HW128091   2.450   4.318   2.460  0.9623  1.2225  1.5985
 5543SOL    HW228092   2.378   4.209   2.413 -0.3278 -0.8479  1.3913
 5544SOL     OW28093   1.432   1.039   3.834 -0.1618  0.3190 -0.0666
 5544SOL    HW128094   1.405   1.093   3.908  0.3802  1.0054 -0.3606
 5544SOL    HW228095   1.525   1.017   3.841  0.1034  1.9359  1.3920
 5545SOL     OW28096   3.437   3.672   3.087 -0.5106 -0.4101  0.3872
 5545SOL    HW128097   3.360   3.654   3.032  0.8503  0.3596 -1.7418
 5545SOL    HW228098   3.479   3.731   3.026  1.4767 -1.1619  1.0292
 5546SOL     OW28099   4.012   3.774   2.092 -0.5712 -0.3016  0.2081
 5546SOL    HW128100   3.931   3.826   2.097 -0.1003  0.3570  1.0763
 5546SOL    HW228101   4.075   3.836   2.129 -1.7549  1.0479 -0.0056
 5547SOL     OW28102   0.904   0.495   0.472 -0.2272 -0.0211 -0.4587
 5547SOL    HW128103   0.822   0.456   0.442 -0.1577 -0.1446 -0.4854
 5547SOL    HW228104   0.898   0.468   0.564 -0.8343  1.4269 -0.0693
 5548SOL     OW28105   2.847   3.204  14.200  0.5783  0.0952  0.3078
 5548SOL    HW128106   2.898   3.223  14.279  2.2223 -1.3910 -0.3835
 5548SOL    HW228107   2.920   3.173  14.147 -1.4763 -2.1539 -1.2172
 5549SOL     OW28108   0.621   3.286   5.673  0.5783 -0.1329  0.2079
 5549SOL    HW128109   0.623   3.231   5.752 -1.3946  0.7553  0.8787
 5549SOL    HW228110   0.548   3.250   5.624  0.3573 -1.1597  1.2876
 5550SOL     OW28111   3.671   0.579   7.429  0.5066 -0.2941 -0.1914
 5550SOL    HW128112   3.717   0.504   7.466 -1.1149 -1.1618  0.0783
 5550SOL    HW228113   3.742   0.640   7.409  0.0732  0.0603 -0.6612
 5551SOL     OW28114   3.615   3.270   6.884  0.6400  0.1533 -0.1649
 5551SOL    HW128115   3.670   3.194   6.864  2.4951  1.1358  1.2669
 5551SOL    HW228116   3.631   3.290   6.976 -1.3592  0.4208  0.1314
 5552SOL     OW28117   3.565   3.019  15.433  0.0086 -0.2451  0.3972
 5552SOL    HW128118   3.482   3.038  15.389 -0.9705 -2.3279  1.3853
 5552SOL    HW228119   3.628   3.052  15.368  0.4939 -0.4396  0.7689
 5553SOL     OW28120   0.665   0.934   3.296 -0.4036 -0.1490  0.4939
 5553SOL    HW128121   0.740   0.915   3.351  0.5465 -0.2998 -0.8587
 5553SOL    HW228122   0.683   1.027   3.282  0.3042  0.0504  2.7030
 5554SOL     OW28123   0.979   3.835   4.539  0.2969 -0.1794  0.2888
 5554SOL    HW128124   0.929   3.911   4.509  1.2973  0.3105 -0.1453
 5554SOL    HW228125   0.930   3.797   4.612  0.3586 -1.6146 -0.3991
 5555SOL     OW28126   0.597   3.610   6.323 -0.5651  0.5669 -0.1412
 5555SOL    HW128127   0.631   3.529   6.363 -1.7077  0.3643  0.4289
 5555SOL    HW228128   0.677   3.655   6.298 -1.4416  2.2061  0.0459
 5556SOL     OW28129   2.684   2.142   5.887  0.2679  0.2307  0.4054
 5556SOL    HW128130   2.597   2.179   5.870 -0.4483 -1.6953 -0.1166
 5556SOL    HW228131   2.672   2.063   5.941  0.0968  1.9769  2.9558
 5557SOL     OW28132   1.361   0.415   1.820  0.2694  0.0315  0.3612
 5557SOL    HW128133   1.304   0.340   1.836 -0.1455 -0.2884 -2.6778
 5557SOL    HW228134   1.411   0.420   1.902 -0.3170 -0.1466  0.7263
 5558SOL     OW28135   4.517   2.928   4.952  0.5765 -0.4389 -0.1587
 5558SOL    HW128136   4.501   2.834   4.955  2.4389 -0.7613 -0.3566
 5558SOL    HW228137   4.569   2.939   4.873  0.9835 -2.3537 -0.1479
 5559SOL     OW28138   1.190   4.074   1.933  0.7504  0.2192 -0.0194
 5559SOL    HW128139   1.139   4.141   1.889 -1.0097 -1.0536  0.1007
 5559SOL    HW228140   1.162   3.997   1.883  1.8479  0.1952 -0.5998
 5560SOL     OW28141   2.590   0.312   9.232  0.4761  0.1608  0.1750
 5560SOL    HW128142   2.545   0.395   9.219 -0.3613 -0.2536  0.4561
 5560SOL    HW228143   2.680   0.345   9.230  1.3742 -2.1806  2.1080
 5561SOL     OW28144   2.764   3.918   0.438  0.2317  0.1668 -0.1395
 5561SOL    HW128145   2.803   3.964   0.512 -0.9824 -0.0511  0.6385
 5561SOL    HW228146   2.835   3.881   0.385  1.4909  2.6765 -0.1843
 5562SOL     OW28147   0.916   4.391  15.720 -0.0193  0.3005 -0.8750
 5562SOL    HW128148   0.925   4.431  15.634  0.5013  1.3387 -0.3347
 5562SOL    HW228149   0.820   4.389  15.723  0.0007  2.1625  0.6822
 5563SOL     OW28150   3.308   2.695   5.144 -0.3020 -0.2244  0.4194
 5563SOL    HW128151   3.397   2.731   5.143 -0.2846 -0.2806 -0.0192
 5563SOL    HW228152   3.275   2.719   5.231 -1.1284 -0.3568  0.1438
 5564SOL     OW28153   1.218   0.122   6.674 -0.4432 -0.0592 -0.3068
 5564SOL    HW128154   1.164   0.191   6.713 -1.7455 -1.2723  0.0381
 5564SOL    HW228155   1.205   0.053   6.738 -0.6165 -0.9033 -1.2599
 5565SOL     OW28156   1.653   2.810   5.344  0.1103 -0.4403  0.2455
 5565SOL    HW128157   1.654   2.801   5.249  0.4281  0.4393  0.1641
 5565SOL    HW228158   1.573   2.760   5.360 -0.7134  0.6869 -0.3299
 5566SOL     OW28159   2.308   0.767  12.803 -0.3694  0.1359 -0.0754
 5566SOL    HW128160   2.376   0.736  12.742  0.6732 -2.1031  2.2088
 5566SOL    HW228161   2.358   0.818  12.867 -0.9239  0.1560  0.3419
 5567SOL     OW28162   2.460   2.900   0.945  0.2865 -0.4329 -0.1488
 5567SOL    HW128163   2.430   2.831   0.887 -0.0666  0.2793 -0.8104
 5567SOL    HW228164   2.517   2.950   0.887 -0.3793  0.5452  0.0272
 5568SOL     OW28165   1.234   4.631   4.257 -0.2082 -0.2212  0.8569
 5568SOL    HW128166   1.182   4.702   4.293 -0.1061  0.8040 -1.0016
 5568SOL    HW228167   1.177   4.554   4.254 -2.7327  1.6673  0.7906
 5569SOL     OW28168   4.627   3.537   8.013 -0.6629 -0.1531 -0.6638
 5569SOL    HW128169   4.660   3.623   7.987  1.5122 -1.3444 -1.8253
 5569SOL    HW228170   4.683   3.478   7.963  0.3296  0.1826  0.0393
 5570SOL     OW28171   2.853   4.064   6.374  0.5441 -0.2530 -0.4553
 5570SOL    HW128172   2.772   4.098   6.337 -0.0518 -0.3148  0.7718
 5570SOL    HW228173   2.862   4.114   6.455  1.0970 -2.5569  0.9034
 5571SOL     OW28174   1.903   1.749   7.039 -0.0250  0.6559  0.8553
 5571SOL    HW128175   1.935   1.771   7.127 -1.4773  2.7394  0.8586
 5571SOL    HW228176   1.819   1.710   7.063  0.5931 -0.0000  1.9872
 5572SOL     OW28177   3.920   0.361   4.548 -0.8811 -0.1604  0.0778
 5572SOL    HW128178   3.996   0.377   4.604 -1.2438  1.2628  0.1761
 5572SOL    HW228179   3.896   0.442   4.502 -1.6353  0.3412  1.3515
 5573SOL     OW28180   2.513   1.909   2.828 -0.1685  0.5315  0.1673
 5573SOL    HW128181   2.543   1.896   2.918 -2.2377 -1.4379  0.5922
 5573SOL    HW228182   2.481   1.820   2.812 -1.7722  1.3414 -1.1035
 5574SOL     OW28183   2.631   1.070  13.535  0.4273 -0.1198 -0.2659
 5574SOL    HW128184   2.537   1.054  13.530  0.2179  0.0838  3.0094
 5574SOL    HW228185   2.657   1.081  13.443 -1.6187  0.0956 -0.8217
 5575SOL     OW28186   2.031   3.946   8.080  0.6500 -0.0582  0.0949
 5575SOL    HW128187   2.079   3.976   8.002 -0.7184  0.2977 -0.6028
 5575SOL    HW228188   2.041   4.019   8.141 -0.0024  0.3187 -0.2474
 5576SOL     OW28189   1.269   4.112  17.376 -0.1223 -0.1368  0.1164
 5576SOL    HW128190   1.364   4.106  17.388  0.0108  2.4744  0.2654
 5576SOL    HW228191   1.253   4.034  17.322 -1.8983  0.0050  0.4163
 5577SOL     OW28192   0.998   3.166  11.237  0.0830  0.3198 -0.2085
 5577SOL    HW128193   1.085   3.198  11.211 -0.4116  0.4983 -1.6610
 5577SOL    HW228194   0.982   3.088  11.184 -0.6476  2.1555 -2.6572
 5578SOL     OW28195   3.895   0.664   6.223  0.0602 -0.7306  0.2365
 5578SOL    HW128196   3.970   0.663   6.283  0.2929  0.1148 -0.0397
 5578SOL    HW228197   3.847   0.742   6.251  1.0555 -0.5659  1.4861
 5579SOL     OW28198   3.680   2.330   7.176 -0.0755  0.1681  0.3989
 5579SOL    HW128199   3.607   2.359   7.121 -2.1790 -1.4488  2.3346
 5579SOL    HW228200   3.678   2.407   7.233 -1.1531  1.5745 -1.5661
 5580SOL     OW28201   0.649   1.385   2.654 -0.0630  0.2639  0.2360
 5580SOL    HW128202   0.715   1.317   2.666 -0.6018 -0.1410  0.9077
 5580SOL    HW228203   0.697   1.448   2.600  0.2680 -0.1376  0.0678
 5581SOL     OW28204   0.285   2.682   1.703 -0.3274  0.1051  0.0583
 5581SOL    HW128205   0.358   2.686   1.764 -1.4190 -1.0790  1.4363
 5581SOL    HW228206   0.328   2.709   1.622 -0.3803 -0.2692 -0.0934
 5582SOL     OW28207   1.367   4.228   2.895 -0.3043  0.4220  0.6108
 5582SOL    HW128208   1.440   4.182   2.852  0.1682  2.1314 -0.3981
 5582SOL    HW228209   1.302   4.201   2.831 -1.1245  1.6901  0.9256
 5583SOL     OW28210   0.043   0.521   5.329  0.2507  0.3507 -0.4681
 5583SOL    HW128211   4.710   0.454   5.287  0.5622 -0.9276  1.1784
 5583SOL    HW228212   4.709   0.550   5.400 -0.7558 -1.8053 -0.3586
 5584SOL     OW28213   1.182   0.951   8.173 -0.0975  0.0875 -0.1404
 5584SOL    HW128214   1.186   1.034   8.125  1.0624  0.7515  1.0926
 5584SOL    HW228215   1.089   0.934   8.184 -0.3306  0.5615 -1.3905
 5585SOL     OW28216   1.649   2.237   6.160  0.2951 -0.4724  0.2216
 5585SOL    HW128217   1.716   2.236   6.228 -0.2784 -1.0593  0.7676
 5585SOL    HW228218   1.569   2.273   6.199  0.7286  0.7246  0.0035
 5586SOL     OW28219   2.532   2.567   3.476  0.0023  0.1405  0.1934
 5586SOL    HW128220   2.582   2.486   3.479 -0.2970 -0.1561 -2.5011
 5586SOL    HW228221   2.594   2.622   3.427 -1.2071  0.5467 -0.8764
 5587SOL     OW28222   4.492   3.261   5.432 -0.5483 -0.0454  0.4477
 5587SOL    HW128223   4.498   3.175   5.390  4.4980 -0.2141  1.5537
 5587SOL    HW228224   4.474   3.320   5.359 -0.2502  1.8590  1.9272
 5588SOL     OW28225   1.047   2.453  16.295  0.4660  0.1344  0.0073
 5588SOL    HW128226   1.077   2.435  16.385  1.2658  0.3990 -0.2013
 5588SOL    HW228227   1.132   2.447  16.250  0.7762 -1.3581  0.7728
 5589SOL     OW28228   0.530   2.512  15.039 -0.0630 -0.4530 -0.1340
 5589SOL    HW128229   0.543   2.451  15.112  1.7745 -1.5048 -1.3443
 5589SOL    HW228230   0.611   2.562  15.033 -1.8468  2.4415 -0.2844
 5590SOL     OW28231   0.492   0.998  14.303 -0.1700 -0.5268 -0.1437
 5590SOL    HW128232   0.580   0.993  14.267  0.1534 -0.5557  0.6377
 5590SOL    HW228233   0.440   1.003  14.223  0.4997  1.1488 -0.4656
 5591SOL     OW28234   3.653   1.146   6.498  0.1486 -0.0028  0.1822
 5591SOL    HW128235   3.724   1.208   6.515 -0.4623  0.4744  0.9648
 5591SOL    HW228236   3.602   1.144   6.579  0.6723  0.5613  0.5253
 5592SOL     OW28237   2.764   0.861   4.403 -0.6154 -0.2789 -0.2842
 5592SOL    HW128238   2.798   0.776   4.374 -0.6409 -0.2558 -0.3827
 5592SOL    HW228239   2.724   0.897   4.323 -0.4430 -0.5273 -0.4817
 5593SOL     OW28240   2.620   4.202   7.220  0.3202 -0.5366  0.4751
 5593SOL    HW128241   2.641   4.252   7.141  4.4113  0.9154  2.5133
 5593SOL    HW228242   2.593   4.122   7.175 -1.4809  0.0522  0.5194
 5594SOL     OW28243   0.456   0.357   6.286 -0.5954 -0.2115 -0.4457
 5594SOL    HW128244   0.479   0.449   6.269 -0.2840 -0.5004 -1.5548
 5594SOL    HW228245   0.532   0.321   6.332 -2.1874 -0.5991  1.9107
 5595SOL     OW28246   4.471   4.181   4.451 -0.1311  0.2291  0.0277
 5595SOL    HW128247   4.398   4.139   4.404  1.4138 -1.5984 -0.7155
 5595SOL    HW228248   4.527   4.109   4.479  1.3326  1.2369 -0.3380
 5596SOL     OW28249   3.393   2.110  13.360  0.6495  0.0046 -0.2392
 5596SOL    HW128250   3.333   2.184  13.346  0.5255 -0.2406 -0.9950
 5596SOL    HW228251   3.479   2.148  13.378  0.4251  0.2923  0.2283
 5597SOL     OW28252   3.673   0.568   5.194 -0.3536  0.4936 -0.7496
 5597SOL    HW128253   3.767   0.564   5.176 -0.3867 -1.4128 -0.4973
 5597SOL    HW228254   3.639   0.550   5.107  1.3232  0.3464 -1.3756
 5598SOL     OW28255   4.715   3.033   7.403 -0.8006  0.3225 -0.5314
 5598SOL    HW128256   0.011   3.114   7.453 -0.4494  0.3659 -0.7243
 5598SOL    HW228257   4.629   3.008   7.437  1.1695 -3.3014  1.8249
 5599SOL     OW28258   2.670   1.549   0.589  0.4557 -0.0236  0.0209
 5599SOL    HW128259   2.698   1.479   0.648  2.6454 -2.0056 -3.3007
 5599SOL    HW228260   2.636   1.493   0.518  0.6235  1.7002 -1.4105
 5600SOL     OW28261   4.714   3.573   4.110  0.0272  0.1897 -0.7814
 5600SOL    HW128262   0.012   3.506   4.176 -0.0723 -0.4616 -1.4011
 5600SOL    HW228263   4.618   3.570   4.112  0.0507  0.2263  0.1748
 5601SOL     OW28264   0.931   1.788  17.615 -0.3492 -0.4166 -0.5499
 5601SOL    HW128265   1.001   1.853  17.612 -0.4511 -0.2792  0.1572
 5601SOL    HW228266   0.855   1.839  17.586 -0.8430 -2.1265 -2.2472
 5602SOL     OW28267   0.432   2.788  13.338  0.0830  0.3877  0.1348
 5602SOL    HW128268   0.419   2.720  13.404  0.9477 -0.4079 -0.5177
 5602SOL    HW228269   0.502   2.743  13.292 -0.2490  0.5124 -0.4864
 5603SOL     OW28270   2.789   4.066  15.735  0.1754 -0.3351  0.5632
 5603SOL    HW128271   2.791   4.161  15.725 -1.1268 -0.5800 -2.0003
 5603SOL    HW228272   2.768   4.054  15.828  0.3467 -0.9235  0.5238
 5604SOL     OW28273   3.623   1.133   4.857 -0.2615 -0.0930  0.0775
 5604SOL    HW128274   3.592   1.164   4.772 -1.6353 -2.9465 -0.4556
 5604SOL    HW228275   3.715   1.129   4.829 -0.5146 -0.7795 -0.6371
 5605SOL     OW28276   0.828   4.253  17.440  0.1390  0.6739  0.3906
 5605SOL    HW128277   0.819   4.222  17.529  1.0085  2.5342  1.1298
 5605SOL    HW228278   0.745   4.301  17.434  0.5511  1.7081  3.0416
 5606SOL     OW28279   3.677   3.957   4.917  0.2465  0.5929 -0.2773
 5606SOL    HW128280   3.606   4.021   4.907 -1.2914 -0.9613  0.7823
 5606SOL    HW228281   3.705   3.966   5.008 -2.1080  0.9160  0.4008
 5607SOL     OW28282   4.709   3.261  16.923  0.0037 -0.1052 -0.5464
 5607SOL    HW128283   0.082   3.245  16.920  0.1298  0.2500  1.8874
 5607SOL    HW228284   4.692   3.235  17.013  4.2062  0.1625  0.3225
 5608SOL     OW28285   1.824   4.212  15.575 -0.1347 -0.4029  0.2433
 5608SOL    HW128286   1.778   4.135  15.609 -1.2472  1.4499  2.8897
 5608SOL    HW228287   1.810   4.210  15.480 -0.0128  1.5314  0.1931
 5609SOL     OW28288   3.490   0.293   3.258 -0.1813  0.1560  0.0098
 5609SOL    HW128289   3.422   0.297   3.190  0.4187 -1.5324 -0.6910
 5609SOL    HW228290   3.564   0.270   3.202  1.6663  1.1858  2.0743
 5610SOL     OW28291   3.718   0.967   3.359 -0.2243  0.2413  0.0362
 5610SOL    HW128292   3.661   1.043   3.349  0.3938  0.8855  1.5192
 5610SOL    HW228293   3.781   0.968   3.287 -0.9568  0.5356 -0.5967
 5611SOL     OW28294   4.059   3.080   3.924 -0.2841  0.5915  0.3665
 5611SOL    HW128295   3.988   3.016   3.922 -1.5892  2.0314  0.7079
 5611SOL    HW228296   4.050   3.103   4.017 -0.4348 -1.1090  0.7659
 5612SOL     OW28297   0.993   0.647   8.020 -0.1587 -0.9119  0.1548
 5612SOL    HW128298   1.030   0.590   8.088 -1.5124 -0.1118  1.5578
 5612SOL    HW228299   0.977   0.727   8.069  0.4181 -0.4001 -0.4936
 5613SOL     OW28300   2.462   2.763   7.641 -0.3352 -0.5074 -0.0474
 5613SOL    HW128301   2.497   2.829   7.582  1.8324 -1.7289 -0.1290
 5613SOL    HW228302   2.368   2.775   7.626 -0.3789  1.1815  1.5494
 5614SOL     OW28303   2.419   4.209   5.990 -0.2005  0.0239 -0.8367
 5614SOL    HW128304   2.416   4.218   5.894  1.4723 -1.6415 -1.0592
 5614SOL    HW228305   2.482   4.277   6.014  0.6008 -1.1944  0.5049
 5615SOL     OW28306   1.783   3.906   0.368  0.4175 -0.3884 -0.1803
 5615SOL    HW128307   1.709   3.956   0.333  1.4858  0.3157 -1.4326
 5615SOL    HW228308   1.791   3.934   0.459  0.6397  0.0726 -0.3423
 5616SOL     OW28309   0.227   3.737  12.525 -0.1589  0.5906  0.3371
 5616SOL    HW128310   0.276   3.659  12.503 -1.4538 -0.7682  2.2459
 5616SOL    HW228311   0.137   3.704  12.528  0.3122 -0.5848  1.3411
 5617SOL     OW28312   0.005   2.553   8.255 -0.5162 -1.0758  0.4329
 5617SOL    HW128313   0.054   2.571   8.336  0.3202 -1.2279 -0.0352
 5617SOL    HW228314   4.696   2.463   8.264  0.6645 -1.5260 -0.0850
 5618SOL     OW28315   2.242   4.358   4.747 -0.1462 -0.5818  0.1852
 5618SOL    HW128316   2.322   4.391   4.707 -1.1011  0.9400 -0.4764
 5618SOL    HW228317   2.212   4.288   4.688 -2.1802 -0.0484  0.5635
 5619SOL     OW28318   4.716   3.215   6.584  0.3755 -0.5232 -0.1507
 5619SOL    HW128319   4.646   3.162   6.621  1.6131 -2.5847 -0.7451
 5619SOL    HW228320   0.069   3.196   6.641 -0.4278 -0.8432  0.7763
 5620SOL     OW28321   4.142   3.818   6.182  0.2635  0.4428 -0.0159
 5620SOL    HW128322   4.152   3.907   6.214  0.7510  0.3460  0.0938
 5620SOL    HW228323   4.081   3.777   6.243  2.0874  0.7106  1.9732
 5621SOL     OW28324   2.819   1.955  15.513  0.1923 -0.3455  0.2549
 5621SOL    HW128325   2.818   2.048  15.490  0.3454 -0.1467  1.0685
 5621SOL    HW228326   2.857   1.915  15.435  1.5108 -2.9878  2.2470
 5622SOL     OW28327   1.094   1.195   2.589 -0.1822 -0.4874  0.2604
 5622SOL    HW128328   1.136   1.276   2.560 -1.5678  0.4370  0.8191
 5622SOL    HW228329   1.137   1.132   2.531 -0.0339 -0.6292  0.5256
 5623SOL     OW28330   2.316   0.216   8.978 -0.1105 -0.6074 -0.4358
 5623SOL    HW128331   2.262   0.159   8.924 -1.5059  1.8097 -1.5496
 5623SOL    HW228332   2.392   0.228   8.921 -0.6305  1.6341 -0.6459
 5624SOL     OW28333   1.801   0.544   9.320  0.3803  0.1090 -0.1170
 5624SOL    HW128334   1.733   0.488   9.359 -0.6550 -0.1941 -2.3431
 5624SOL    HW228335   1.788   0.524   9.228 -3.3164 -1.6712  0.7635
 5625SOL     OW28336   3.330   2.369  10.212  0.6652  0.4601 -0.5760
 5625SOL    HW128337   3.374   2.297  10.166 -0.4554  0.1439 -1.1277
 5625SOL    HW228338   3.410   2.420  10.227  0.0401  1.5442 -0.9676
 5626SOL     OW28339   1.153   3.532   5.538  0.5733  0.7872  0.4693
 5626SOL    HW128340   1.099   3.555   5.462  0.8218  1.6351  0.5539
 5626SOL    HW228341   1.232   3.580   5.512  1.8556 -1.4128  0.3209
 5627SOL     OW28342   4.246   0.956   3.628 -0.0686  0.3097 -0.1187
 5627SOL    HW128343   4.174   1.011   3.599 -0.7768 -0.6242 -0.1052
 5627SOL    HW228344   4.326   1.007   3.616 -0.2689 -0.1975 -3.4738
 5628SOL     OW28345   0.342   0.387   2.779  0.8379  0.0084 -0.0249
 5628SOL    HW128346   0.366   0.407   2.870  1.0872  3.1165 -0.7887
 5628SOL    HW228347   0.249   0.396   2.796  0.6166  0.4403 -1.4755
 5629SOL     OW28348   0.511   1.288  11.924 -0.5028 -0.1143  0.6181
 5629SOL    HW128349   0.428   1.240  11.917 -0.6921  0.0045  1.8739
 5629SOL    HW228350   0.562   1.224  11.973  0.7481  0.4418  0.0206
 5630SOL     OW28351   4.364   3.346   8.729  0.9393 -0.3299  0.1616
 5630SOL    HW128352   4.448   3.365   8.687  0.5778 -1.5562 -1.1213
 5630SOL    HW228353   4.367   3.364   8.823 -2.3918 -0.6630  0.3475
 5631SOL     OW28354   0.538   0.558  15.134  0.2032  0.1129 -0.4511
 5631SOL    HW128355   0.613   0.603  15.095 -0.4136  0.1924 -1.5467
 5631SOL    HW228356   0.556   0.474  15.092 -0.3591  0.8247 -2.1432
 5632SOL     OW28357   0.424   4.657   2.718  0.0138  0.4285  0.2878
 5632SOL    HW128358   0.464   4.663   2.805 -0.3370  1.2173  0.3973
 5632SOL    HW228359   0.408   0.027   2.692  0.1233  0.9812  2.1812
 5633SOL     OW28360   0.788   2.341   8.319  0.2686 -0.2588 -0.1558
 5633SOL    HW128361   0.870   2.381   8.291 -0.6189  1.5627 -0.1469
 5633SOL    HW228362   0.725   2.338   8.248  1.1354  0.9971 -0.9747
 5634SOL     OW28363   0.526   2.153   6.961 -0.9087  0.2396 -0.2286
 5634SOL    HW128364   0.472   2.136   7.038 -1.2320 -0.5583 -0.6290
 5634SOL    HW228365   0.474   2.224   6.923  1.0560  2.1387  0.6628
 5635SOL     OW28366   2.525   2.372  15.168 -0.9956  0.2938  0.3857
 5635SOL    HW128367   2.573   2.402  15.091 -0.3390  3.3009  1.9595
 5635SOL    HW228368   2.468   2.308  15.125  0.7508 -1.4323  0.5853
 5636SOL     OW28369   0.832   3.756   6.334 -0.0624  0.0923 -0.2452
 5636SOL    HW128370   0.923   3.731   6.317  0.6905  1.6947  1.4394
 5636SOL    HW228371   0.832   3.838   6.284  0.2075 -0.0113 -0.4202
 5637SOL     OW28372   0.446   4.153   4.107 -0.4410  0.4426 -0.1891
 5637SOL    HW128373   0.469   4.230   4.158  1.6299 -0.9414  0.9748
 5637SOL    HW228374   0.411   4.110   4.185  3.0572  1.2344  1.8265
 5638SOL     OW28375   1.218   2.604   2.884  0.3687  0.1278  0.2752
 5638SOL    HW128376   1.229   2.623   2.791 -4.0318 -0.0305 -0.2946
 5638SOL    HW228377   1.304   2.617   2.924 -0.1516  0.3365  1.3392
 5639SOL     OW28378   3.802   2.308  11.133  0.1812  0.4342 -0.3409
 5639SOL    HW128379   3.753   2.271  11.060  2.0769  0.6921 -1.7240
 5639SOL    HW228380   3.861   2.372  11.094  1.3877  1.0429  2.4727
 5640SOL     OW28381   2.623   3.943   5.964  0.2824  0.3503  0.3998
 5640SOL    HW128382   2.547   3.950   6.021 -0.0773 -1.7289  0.1971
 5640SOL    HW228383   2.682   3.884   6.012 -2.5853 -2.6597  0.1751
 5641SOL     OW28384   2.079   0.562   9.389  0.1925  0.6415 -0.0953
 5641SOL    HW128385   2.084   0.483   9.443  0.6031  1.4550  1.0550
 5641SOL    HW228386   1.986   0.579   9.379  0.3673  1.3403 -0.5046
 5642SOL     OW28387   1.428   3.248   3.656  0.6055 -0.7937  0.2488
 5642SOL    HW128388   1.339   3.218   3.670  0.6127 -0.1759  1.6298
 5642SOL    HW228389   1.414   3.342   3.668 -0.4430 -0.9036 -0.1495
 5643SOL     OW28390   0.868   1.884   6.072 -0.2077  0.0543 -0.0022
 5643SOL    HW128391   0.805   1.897   6.144  0.1377  0.1010  0.2944
 5643SOL    HW228392   0.933   1.954   6.079 -1.3656  1.2038 -0.7737
 5644SOL     OW28393   3.259   1.609   3.820  0.2768 -0.2172  0.2251
 5644SOL    HW128394   3.323   1.591   3.888 -0.3015 -1.6387  0.3984
 5644SOL    HW228395   3.175   1.599   3.865 -0.0862  1.5730 -0.0417
 5645SOL     OW28396   1.074   1.068   8.990 -0.1108 -0.1275 -0.5058
 5645SOL    HW128397   1.021   0.995   8.958  0.5721 -1.1272  0.6312
 5645SOL    HW228398   1.130   1.098   8.919 -0.1601 -2.4575 -1.5294
 5646SOL     OW28399   0.648   0.197   5.299 -0.0178  0.0297  0.7063
 5646SOL    HW128400   0.698   0.116   5.301 -1.7362 -1.0304  0.1545
 5646SOL    HW228401   0.709   0.260   5.339 -0.8546  2.2025 -1.4081
 5647SOL     OW28402   4.066   2.986  15.394  0.0187 -0.2611  0.0120
 5647SOL    HW128403   3.997   3.029  15.345  0.1440 -1.6766 -1.4071
 5647SOL    HW228404   4.146   3.013  15.351  1.6484 -1.3824  2.3086
 5648SOL     OW28405   0.274   4.570   7.180  0.0232  0.6342  0.5295
 5648SOL    HW128406   0.362   4.609   7.174 -0.0623  0.7782  0.2087
 5648SOL    HW228407   0.224   4.648   7.157 -0.7275  0.1785  0.6334
 5649SOL     OW28408   4.000   1.022   4.565  0.5159 -0.2453 -0.3975
 5649SOL    HW128409   4.096   1.026   4.566  0.5007 -0.6487  1.6083
 5649SOL    HW228410   3.992   0.982   4.478 -0.7505  0.1728 -0.4719
 5650SOL     OW28411   1.225   1.964  11.147  0.8452  0.0033  0.1569
 5650SOL    HW128412   1.227   1.899  11.218 -0.8828  1.1467  1.2599
 5650SOL    HW228413   1.274   2.036  11.186  1.2356 -0.0674 -0.2027
 5651SOL     OW28414   0.195   2.220   5.377 -0.7814  0.2946 -0.3343
 5651SOL    HW128415   0.159   2.308   5.389 -1.5907 -0.0881  0.0681
 5651SOL    HW228416   0.160   2.177   5.455 -0.5249  1.5639  0.4913
 5652SOL     OW28417   1.238   1.613   2.762  0.2944  0.0695  0.1987
 5652SOL    HW128418   1.222   1.703   2.733 -0.8458 -0.8455 -1.9810
 5652SOL    HW228419   1.187   1.566   2.696 -1.2696  0.8184  0.8887
 5653SOL     OW28420   0.560   2.121   5.021  0.0832  0.5191 -0.3200
 5653SOL    HW128421   0.581   2.086   5.108  0.9020  0.8025 -0.4030
 5653SOL    HW228422   0.642   2.103   4.975  1.1395 -0.0767  1.7590
 5654SOL     OW28423   3.459   3.082  10.761  0.5776  0.0479 -0.1693
 5654SOL    HW128424   3.432   3.006  10.709  2.3659  0.8392 -2.3028
 5654SOL    HW228425   3.554   3.087  10.749  0.6452 -0.6388  0.0681
 5655SOL     OW28426   1.077   0.228   5.883 -0.3189  0.2742  0.7864
 5655SOL    HW128427   1.119   0.254   5.801  0.3215  1.9080  1.6199
 5655SOL    HW228428   1.096   0.134   5.889  1.3637  0.5786  0.1613
 5656SOL     OW28429   2.935   4.505  17.002  0.0420  0.3921  0.4981
 5656SOL    HW128430   2.977   4.425  17.034 -0.6834  0.3941  1.4449
 5656SOL    HW228431   2.864   4.515  17.066  0.9411  0.3029  1.5033
 5657SOL     OW28432   1.302   3.652   7.474 -0.5447  0.1015 -0.6322
 5657SOL    HW128433   1.313   3.615   7.562  0.8644  0.1565 -0.7915
 5657SOL    HW228434   1.258   3.577   7.435 -0.1545 -0.7004  0.4799
 5658SOL     OW28435   0.921   0.796   9.363 -0.1662  0.3646  0.1556
 5658SOL    HW128436   0.835   0.755   9.352 -0.1167 -0.0530  1.2789
 5658SOL    HW228437   0.925   0.848   9.283 -0.0750 -1.8027 -1.2641
 5659SOL     OW28438   3.417   0.620   6.341 -0.2995 -0.0306 -0.4921
 5659SOL    HW128439   3.475   0.638   6.414  1.2078 -1.2504 -1.3867
 5659SOL    HW228440   3.405   0.526   6.351 -1.3432  0.1792  0.1849
 5660SOL     OW28441   1.404   2.456   1.834 -1.0237 -0.4427  0.2838
 5660SOL    HW128442   1.369   2.522   1.894  1.3362 -0.1428  1.3459
 5660SOL    HW228443   1.476   2.502   1.791  0.3274 -1.0692  1.8459
 5661SOL     OW28444   2.262   0.854   6.746  0.3307  0.3602  0.3430
 5661SOL    HW128445   2.248   0.873   6.839  0.9637 -1.6079  0.8537
 5661SOL    HW228446   2.346   0.809   6.749 -0.2962 -0.9107 -1.0231
 5662SOL     OW28447   0.767   2.557   3.006 -0.3484 -0.0993  0.4088
 5662SOL    HW128448   0.738   2.592   3.090  2.7147  0.6643  1.1332
 5662SOL    HW228449   0.861   2.576   3.008 -0.0479 -1.3833 -1.5617
 5663SOL     OW28450   4.496   0.383  16.579  0.7232 -0.3495  0.0114
 5663SOL    HW128451   4.404   0.408  16.581  0.4679 -1.3304  0.6604
 5663SOL    HW228452   4.532   0.448  16.520 -1.0722 -0.4163 -1.1454
 5664SOL     OW28453   0.420   0.363   0.657  0.4595  0.0069 -0.4275
 5664SOL    HW128454   0.485   0.396   0.719  2.4443 -1.2976 -1.8230
 5664SOL    HW228455   0.482   0.323   0.596  0.4466  1.0554 -1.1202
 5665SOL     OW28456   4.165   1.192   1.457 -0.1080 -0.4895 -1.0878
 5665SOL    HW128457   4.130   1.281   1.454 -0.6050 -0.6758 -0.7775
 5665SOL    HW228458   4.241   1.207   1.513  0.3324 -3.8126 -0.8212
 5666SOL     OW28459   2.175   1.559   7.419  0.8758  0.3051  0.4602
 5666SOL    HW128460   2.264   1.524   7.425  1.2323  1.3690  1.4131
 5666SOL    HW228461   2.131   1.491   7.468 -0.7580  1.3242  0.4057
 5667SOL     OW28462   0.974   3.883   7.740 -0.5880  0.6744  0.5374
 5667SOL    HW128463   0.924   3.921   7.668  2.3990 -0.9120 -2.3833
 5667SOL    HW228464   0.894   3.876   7.793 -1.0523  1.1506 -0.0956
 5668SOL     OW28465   4.336   1.697   4.687  0.2180 -0.2429 -0.0089
 5668SOL    HW128466   4.345   1.616   4.738 -0.1707  0.8420  1.7752
 5668SOL    HW228467   4.423   1.730   4.663 -0.4979  0.6823 -1.2721
 5669SOL     OW28468   4.392   3.423  16.909  0.1136  0.6928  0.2364
 5669SOL    HW128469   4.363   3.380  16.829 -0.6858 -1.7591  1.8381
 5669SOL    HW228470   4.309   3.466  16.929  0.4211  0.2136  2.5060
 5670SOL     OW28471   3.205   2.537   3.956  0.0452 -0.3910  0.1203
 5670SOL    HW128472   3.137   2.527   4.022 -0.8605 -1.1942 -0.9327
 5670SOL    HW228473   3.247   2.451   3.958 -0.5056 -0.7145 -1.5979
 5671SOL     OW28474   3.406   1.223   3.113  0.5897 -0.6887  0.7700
 5671SOL    HW128475   3.377   1.182   3.031  0.7938  0.3619  0.1725
 5671SOL    HW228476   3.326   1.232   3.166  0.5222  4.0624 -0.2094
 5672SOL     OW28477   1.969   0.363  13.506  0.6150  0.3569  0.1792
 5672SOL    HW128478   1.988   0.444  13.553  3.5190  0.6709 -1.5478
 5672SOL    HW228479   1.947   0.305  13.579 -0.8627 -1.4516 -1.7019
 5673SOL     OW28480   3.244   2.538   7.619 -0.5611 -0.6680 -0.1807
 5673SOL    HW128481   3.167   2.589   7.595 -1.1639 -0.7599  1.6110
 5673SOL    HW228482   3.228   2.450   7.586 -1.1428 -0.2286 -1.0798
 5674SOL     OW28483   1.381   3.711  14.115  0.0784 -0.3743  0.3141
 5674SOL    HW128484   1.383   3.650  14.041 -0.9729  1.2542 -1.0508
 5674SOL    HW228485   1.416   3.792  14.078 -0.2900  0.1736  1.1706
 5675SOL     OW28486   2.720   1.280  10.295  0.0555 -0.2628  0.1062
 5675SOL    HW128487   2.785   1.304  10.229 -0.8623  1.0832 -0.3212
 5675SOL    HW228488   2.756   1.199  10.329  1.3995  1.3651  2.5469
 5676SOL     OW28489   4.479   3.762   6.273  0.2394 -0.0269  0.4510
 5676SOL    HW128490   4.460   3.855   6.287 -1.5820 -0.3190 -0.2124
 5676SOL    HW228491   4.390   3.740   6.247  0.2305  0.7040 -0.1246
 5677SOL     OW28492   1.000   4.607   6.623 -0.5557 -0.4187 -0.1086
 5677SOL    HW128493   1.017   4.518   6.592 -0.1202 -0.8160  1.2384
 5677SOL    HW228494   1.056   4.605   6.701 -1.6538 -1.1982  0.6476
 5678SOL     OW28495   4.163   3.526   4.573 -0.1174 -0.1088 -0.3252
 5678SOL    HW128496   4.195   3.570   4.651  1.3507  1.0495 -1.5644
 5678SOL    HW228497   4.240   3.495   4.524  0.2226  1.5543 -0.8309
 5679SOL     OW28498   2.728   2.650   9.034  0.5215 -0.5087  0.7020
 5679SOL    HW128499   2.735   2.595   8.956 -0.4485 -2.2724  1.8716
 5679SOL    HW228500   2.633   2.652   9.046  0.1148  1.3538 -2.7520
 5680SOL     OW28501   1.528   3.471   4.953 -0.1679 -0.1135  0.4108
 5680SOL    HW128502   1.471   3.394   4.955  1.7499 -1.5734 -0.3584
 5680SOL    HW228503   1.613   3.448   4.992 -0.5336  2.4586  2.7395
 5681SOL     OW28504   1.394   1.054   3.252  0.0841  0.1471  0.0009
 5681SOL    HW128505   1.352   0.970   3.268 -0.5556  0.2682 -0.9719
 5681SOL    HW228506   1.324   1.098   3.203  0.9571  0.0509 -1.3502
 5682SOL     OW28507   1.144   2.692   4.208 -0.4114 -0.0449  0.3616
 5682SOL    HW128508   1.151   2.667   4.300  2.2381 -1.3493 -0.2086
 5682SOL    HW228509   1.200   2.631   4.160 -0.8824  1.4586 -2.1077
 5683SOL     OW28510   1.882   2.305   6.612 -0.3258  0.4662  0.2457
 5683SOL    HW128511   1.917   2.260   6.689 -0.6311 -0.5626 -0.2206
 5683SOL    HW228512   1.878   2.396   6.642 -0.9743  0.0030  1.5832
 5684SOL     OW28513   3.760   1.243  12.744 -0.2351 -0.0554 -0.0825
 5684SOL    HW128514   3.733   1.301  12.814  0.4388 -1.6086  1.4602
 5684SOL    HW228515   3.705   1.282  12.676 -0.9018 -1.7585 -0.5377
 5685SOL     OW28516   2.517   1.582   5.175  0.3134 -0.6474 -0.1225
 5685SOL    HW128517   2.507   1.573   5.269  0.3059 -0.8981 -0.1473
 5685SOL    HW228518   2.574   1.658   5.165  0.0070 -0.2954  0.8537
 5686SOL     OW28519   1.608   2.704   4.355 -0.2894  0.3003 -0.1276
 5686SOL    HW128520   1.666   2.770   4.317  0.9242 -0.6113  0.1565
 5686SOL    HW228521   1.539   2.710   4.289  1.0373 -1.2912 -1.6431
 5687SOL     OW28522   4.501   2.044   1.734 -0.2795 -0.3554 -0.5930
 5687SOL    HW128523   4.541   2.131   1.723  0.7077 -0.7208  0.1561
 5687SOL    HW228524   4.426   2.063   1.790 -0.2914 -2.2642  0.0246
 5688SOL     OW28525   1.186   1.926  17.643  0.7390  0.2703  0.1773
 5688SOL    HW128526   1.219   2.017  17.641  2.1145 -0.2460 -1.0132
 5688SOL    HW228527   1.244   1.874  17.587  1.6447  3.7647 -2.1445
 5689SOL     OW28528   3.921   4.512   4.258 -0.5069 -0.9756  0.0712
 5689SOL    HW128529   3.988   4.546   4.199 -0.6191  1.1958  1.1870
 5689SOL    HW228530   3.878   4.597   4.253 -0.8497 -1.0380  2.1211
 5690SOL     OW28531   0.361   3.248   4.884 -0.5327  0.0970  0.1333
 5690SOL    HW128532   0.276   3.291   4.870 -0.2012  0.4010 -0.9794
 5690SOL    HW228533   0.369   3.186   4.812 -2.0977 -0.4248  0.4065
 5691SOL     OW28534   2.677   0.953   6.621 -0.0592  1.1515  0.8989
 5691SOL    HW128535   2.617   0.945   6.547  0.9516 -0.1204  0.2149
 5691SOL    HW228536   2.709   1.043   6.628  0.1227  1.1770 -0.2061
 5692SOL     OW28537   3.330   2.218  16.556  0.3776  0.1369 -0.1716
 5692SOL    HW128538   3.371   2.134  16.572 -1.7820 -0.9966 -0.5970
 5692SOL    HW228539   3.241   2.199  16.526  1.3978 -1.0033 -2.4489
 5693SOL     OW28540   4.285   3.373   9.723 -0.1054 -0.5123 -0.0798
 5693SOL    HW128541   4.350   3.305   9.707  1.7547  1.6690 -1.9143
 5693SOL    HW228542   4.208   3.325   9.752 -0.7595 -0.1025 -1.1045
 5694SOL     OW28543   0.464   1.237   7.278 -0.0025 -0.0804  0.5109
 5694SOL    HW128544   0.457   1.328   7.306  0.0923 -0.1521  0.7666
 5694SOL    HW228545   0.495   1.249   7.188 -1.7844  0.1117 -0.0812
 5695SOL     OW28546   3.638   0.201   5.705  0.6160  0.0969  0.1576
 5695SOL    HW128547   3.712   0.174   5.760 -0.9513 -1.9204  1.2705
 5695SOL    HW228548   3.673   0.265   5.644  0.9547 -0.2034  0.0352
 5696SOL     OW28549   0.573   0.696   3.953 -0.1744 -0.0844 -0.3744
 5696SOL    HW128550   0.639   0.656   3.896  0.5795 -0.2365  0.6121
 5696SOL    HW228551   0.625   0.751   4.011 -2.1626 -0.0049  1.3360
 5697SOL     OW28552   3.550   0.278   8.676 -0.0194 -0.0196  0.0530
 5697SOL    HW128553   3.583   0.280   8.586  2.5526 -1.0593  0.9763
 5697SOL    HW228554   3.490   0.208   8.653 -2.2131  1.2547  2.0051
 5698SOL     OW28555   4.410   1.848  11.277  0.0184  0.4622  0.4992
 5698SOL    HW128556   4.460   1.903  11.337  0.0943  2.6850 -1.6205
 5698SOL    HW228557   4.445   1.764  11.310 -1.6807 -0.2228  0.5584
 5699SOL     OW28558   2.944   1.926   3.234  0.3355 -0.8141  0.8864
 5699SOL    HW128559   2.979   1.966   3.314 -1.9434  0.5135  1.2128
 5699SOL    HW228560   2.880   1.992   3.207  1.5456  0.0830  0.1710
 5700SOL     OW28561   0.819   1.339  11.781  0.0519  0.2721  0.4410
 5700SOL    HW128562   0.724   1.335  11.774  0.3056 -2.1342 -1.3768
 5700SOL    HW228563   0.833   1.423  11.825  0.7081  1.0752 -1.3128
 5701SOL     OW28564   1.769   2.241   9.787  0.3410  0.0833  0.1665
 5701SOL    HW128565   1.789   2.227   9.879  0.1113 -0.7416  0.0891
 5701SOL    HW228566   1.741   2.332   9.798 -1.8903 -0.9563  3.2431
 5702SOL     OW28567   2.209   0.456   1.293 -0.2070 -0.1393  0.8694
 5702SOL    HW128568   2.130   0.502   1.321  0.6206  0.5846  1.9961
 5702SOL    HW228569   2.276   0.469   1.361  0.6797 -2.5691  0.4676
 5703SOL     OW28570   0.983   4.093   4.167  0.2458 -0.3785  0.4347
 5703SOL    HW128571   1.050   4.097   4.098  0.6515 -0.4288  0.8269
 5703SOL    HW228572   0.904   4.125   4.124 -0.4715 -0.1818  1.9173
 5704SOL     OW28573   1.974   1.288   5.119  0.6006  0.4660  0.6363
 5704SOL    HW128574   1.909   1.278   5.050 -0.3556  0.3878  1.5388
 5704SOL    HW228575   1.955   1.381   5.133  0.1048  0.4481  0.0941
 5705SOL     OW28576   2.305   1.920  10.293 -0.3892  0.2815  0.6549
 5705SOL    HW128577   2.276   1.960  10.210 -2.8625  0.9810  1.8417
 5705SOL    HW228578   2.387   1.883  10.260 -1.9445  0.2676 -3.2823
 5706SOL     OW28579   2.396   1.191  14.071 -0.5930 -0.1914  0.4931
 5706SOL    HW128580   2.457   1.241  14.016  0.4711 -2.0632 -0.0370
 5706SOL    HW228581   2.458   1.123  14.098  0.9266  0.8859 -0.2228
 5707SOL     OW28582   2.162   4.072   4.185  0.4040  0.5338 -0.3278
 5707SOL    HW128583   2.112   4.019   4.247  0.5320  1.3184  0.4404
 5707SOL    HW228584   2.136   4.162   4.203 -3.2109 -0.8083  1.1071
 5708SOL     OW28585   2.646   3.210   1.846  0.5135 -0.0889  0.0521
 5708SOL    HW128586   2.696   3.267   1.787  0.0754 -0.4359 -0.6501
 5708SOL    HW228587   2.681   3.124   1.825 -0.9416  0.2034 -3.6416
 5709SOL     OW28588   3.285   1.345  17.225  0.0566 -0.0408 -0.0957
 5709SOL    HW128589   3.192   1.370  17.223  0.5244  1.7979  0.7030
 5709SOL    HW228590   3.280   1.253  17.198 -1.3799  0.4637 -1.5342
 5710SOL     OW28591   4.678   4.378   8.830 -0.2320 -0.0785 -0.7032
 5710SOL    HW128592   0.003   4.295   8.832 -0.9632 -0.5505 -3.2177
 5710SOL    HW228593   4.621   4.354   8.903  2.9365  0.2009  1.8544
 5711SOL     OW28594   3.857   4.465   7.159 -0.4127  0.6380  0.3564
 5711SOL    HW128595   3.863   4.412   7.079 -2.2374  1.9215 -0.6428
 5711SOL    HW228596   3.912   4.536   7.127 -2.4324  1.9574 -0.2097
 5712SOL     OW28597   0.892   0.059   5.196  0.1291  0.1376  0.1643
 5712SOL    HW128598   0.844   4.702   5.169  1.9013 -0.5664 -0.9278
 5712SOL    HW228599   0.959   0.024   5.255  0.8590 -0.6845 -1.1435
 5713SOL     OW28600   0.154   0.541  13.497  0.1698 -0.2010 -0.0934
 5713SOL    HW128601   0.247   0.537  13.517 -0.3227 -4.1834  1.4019
 5713SOL    HW228602   0.150   0.605  13.426  2.2372 -1.3573 -1.2375
 5714SOL     OW28603   2.457   4.031  12.426 -0.2770 -0.5157 -0.1085
 5714SOL    HW128604   2.434   3.988  12.508  0.2683  0.1805  0.4071
 5714SOL    HW228605   2.377   4.023  12.375 -0.0159 -0.6448 -0.5024
 5715SOL     OW28606   3.558   0.811  11.712 -0.0132  0.1008  0.0315
 5715SOL    HW128607   3.576   0.896  11.751  0.4084  0.0931 -0.1468
 5715SOL    HW228608   3.606   0.821  11.630 -0.7942 -3.2272 -0.8670
 5716SOL     OW28609   0.291   3.485   1.051 -0.0452  0.0574  0.5305
 5716SOL    HW128610   0.277   3.392   1.033  1.6307  0.0184 -0.5858
 5716SOL    HW228611   0.374   3.472   1.096 -0.4348  0.4641  1.3802
 5717SOL     OW28612   3.539   2.543  10.271 -0.1781  0.1295 -0.3299
 5717SOL    HW128613   3.495   2.624  10.295 -0.3192 -0.1353  0.2940
 5717SOL    HW228614   3.614   2.576  10.221 -2.6794  1.2666 -3.3165
 5718SOL     OW28615   2.045   1.503  10.969 -0.1024  0.7147  0.3909
 5718SOL    HW128616   2.136   1.483  10.991 -0.2116  0.9723  1.1020
 5718SOL    HW228617   1.985   1.441  11.010 -0.4641 -1.1842 -3.0331
 5719SOL     OW28618   3.398   3.268   8.500 -0.2659 -0.0048  0.9183
 5719SOL    HW128619   3.377   3.211   8.574 -2.2040 -0.6706 -0.1262
 5719SOL    HW228620   3.484   3.237   8.473 -0.0253  0.3774  1.2557
 5720SOL     OW28621   0.616   3.523   7.145  0.4868 -0.2412 -0.4039
 5720SOL    HW128622   0.578   3.506   7.059  1.1339 -0.4320 -0.6458
 5720SOL    HW228623   0.692   3.465   7.144 -1.0354 -2.1960 -2.5077
 5721SOL     OW28624   0.664   2.663   8.995 -0.1518  0.2580  0.4450
 5721SOL    HW128625   0.643   2.663   8.902 -0.4409  1.6640  0.5080
 5721SOL    HW228626   0.654   2.753   9.024 -1.4654  0.1146  0.4117
 5722SOL     OW28627   2.627   3.297   4.484  0.4485  0.0547 -0.2765
 5722SOL    HW128628   2.534   3.283   4.497  0.2152  0.9396 -0.9514
 5722SOL    HW228629   2.634   3.384   4.443 -0.4007  0.9934  1.5969
 5723SOL     OW28630   0.457   4.667  13.547 -0.2328 -0.3215  0.2802
 5723SOL    HW128631   0.388   4.605  13.520 -0.1500 -0.4329  0.3230
 5723SOL    HW228632   0.467   4.639  13.639 -2.1173  0.8642  0.8448
 5724SOL     OW28633   4.188   2.218   5.616 -0.1021 -0.1827 -0.0878
 5724SOL    HW128634   4.265   2.171   5.648  1.4464  2.7864  0.5404
 5724SOL    HW228635   4.117   2.187   5.672  0.0205  0.8899  0.6615
 5725SOL     OW28636   1.047   1.178   3.290  0.3006  0.1545  0.2863
 5725SOL    HW128637   1.094   1.137   3.362  0.9035  0.7773  0.2391
 5725SOL    HW228638   1.109   1.191   3.218 -0.0486  3.9638  0.6619
 5726SOL     OW28639   2.857   1.146   8.689  0.0724 -0.0247 -0.1267
 5726SOL    HW128640   2.899   1.204   8.751 -0.5500 -0.3609  0.6151
 5726SOL    HW228641   2.777   1.198   8.679 -0.2708 -1.0428 -2.6887
 5727SOL     OW28642   4.548   3.939   7.341 -0.4361  0.1213 -0.0911
 5727SOL    HW128643   4.460   3.943   7.378 -0.5057  0.6631 -0.3229
 5727SOL    HW228644   4.609   3.985   7.400  0.4616 -3.0448  1.4851
 5728SOL     OW28645   0.095   1.724   6.745 -0.0242  0.2663  0.4065
 5728SOL    HW128646   0.125   1.692   6.660  1.9667  2.2519  0.3750
 5728SOL    HW228647   0.158   1.681   6.803 -0.2726  0.0727  0.5349
 5729SOL     OW28648   1.550   4.157  13.848  0.2310  0.4439  0.0068
 5729SOL    HW128649   1.469   4.199  13.876 -0.6249 -2.1949  1.4935
 5729SOL    HW228650   1.602   4.234  13.826 -2.0317  1.4689 -1.8623
 5730SOL     OW28651   3.402   0.391   6.773 -0.2267  0.0574  0.4406
 5730SOL    HW128652   3.472   0.413   6.712 -0.3446 -1.8309 -0.3792
 5730SOL    HW228653   3.365   0.469   6.814  1.5097  0.2163  1.6564
 5731SOL     OW28654   3.883   4.460  17.122  0.0084  0.2480  0.5384
 5731SOL    HW128655   3.935   4.537  17.146  1.9581 -1.7578  2.7359
 5731SOL    HW228656   3.814   4.489  17.063  1.2432 -2.8001 -2.3465
 5732SOL     OW28657   0.680   1.003   8.059  0.0196  0.1957 -0.2375
 5732SOL    HW128658   0.660   1.080   8.112  0.0483 -0.6372  0.9832
 5732SOL    HW228659   0.719   1.054   7.987 -0.2604  1.8579  0.7969
 5733SOL     OW28660   1.624   3.042  16.877  0.5538 -0.0842  0.5570
 5733SOL    HW128661   1.638   3.115  16.936 -2.5644  1.0116 -0.0317
 5733SOL    HW228662   1.675   2.979  16.927 -0.1360 -2.4848 -1.7823
 5734SOL     OW28663   2.039   3.709   0.511 -0.1400 -0.0030 -0.2538
 5734SOL    HW128664   2.119   3.738   0.466  0.9631 -1.0142  1.0596
 5734SOL    HW228665   1.985   3.786   0.494  1.0168  1.3698  2.2306
 5735SOL     OW28666   1.230   0.659   7.402 -0.5366  0.5221  0.0234
 5735SOL    HW128667   1.258   0.633   7.315 -0.0226 -0.5124  0.5002
 5735SOL    HW228668   1.152   0.606   7.419  1.0013 -1.1739  1.8153
 5736SOL     OW28669   2.520   3.677   7.045  0.3734 -0.5147  0.2158
 5736SOL    HW128670   2.485   3.676   7.134 -0.3396  2.7438 -0.0426
 5736SOL    HW228671   2.434   3.669   7.004  0.1884  0.1393  0.4794
 5737SOL     OW28672   1.403   0.750  14.434  0.3745 -0.3103 -0.3899
 5737SOL    HW128673   1.337   0.760  14.365  0.9739 -2.3457 -1.2633
 5737SOL    HW228674   1.481   0.771  14.383  0.5504 -1.5835 -0.6503
 5738SOL     OW28675   2.238   1.045  10.380 -0.4123  0.4067 -0.9537
 5738SOL    HW128676   2.294   0.968  10.388 -1.1457 -0.0329 -0.1075
 5738SOL    HW228677   2.214   1.050  10.472 -1.5401  1.5855 -1.3077
 5739SOL     OW28678   0.595   2.207   9.155  0.2952  0.5169 -0.3039
 5739SOL    HW128679   0.624   2.129   9.202 -1.1037  0.1528 -0.0435
 5739SOL    HW228680   0.641   2.200   9.072 -0.3179  0.8971 -0.6829
 5740SOL     OW28681   1.189   4.256  13.276  0.0752  0.3378  0.0771
 5740SOL    HW128682   1.207   4.284  13.366  1.4112 -1.9664  0.5310
 5740SOL    HW228683   1.094   4.248  13.289 -0.0702 -0.5583 -1.5568
 5741SOL     OW28684   1.151   0.690  15.130  0.0586 -0.4487  0.4200
 5741SOL    HW128685   1.212   0.682  15.203  1.0227  1.9514 -0.0966
 5741SOL    HW228686   1.178   0.612  15.081 -0.6217 -0.0667 -0.5736
 5742SOL     OW28687   4.085   0.788   3.222 -0.2230  0.2979  0.4581
 5742SOL    HW128688   4.013   0.832   3.178 -0.2643  0.0452  0.2716
 5742SOL    HW228689   4.101   0.837   3.302  0.7161  0.7225  0.0042
 5743SOL     OW28690   1.070   0.592   5.671 -0.4793 -0.4553  0.3196
 5743SOL    HW128691   1.025   0.593   5.587 -0.5541  0.7865  0.3718
 5743SOL    HW228692   1.056   0.677   5.714  0.6904  0.4085 -1.0204
 5744SOL     OW28693   3.004   4.288   0.386 -0.4958  0.0503 -0.1655
 5744SOL    HW128694   3.030   4.196   0.385 -0.0556  0.2199 -3.8659
 5744SOL    HW228695   2.908   4.283   0.390 -0.4422  0.6931  1.8603
 5745SOL     OW28696   3.479   4.479   9.022  0.2938  0.5740  0.5521
 5745SOL    HW128697   3.460   4.521   8.938  3.4466  0.1444 -0.3935
 5745SOL    HW228698   3.568   4.507   9.043  1.4216 -2.3469 -0.2880
 5746SOL     OW28699   4.293   2.734   5.546  0.2721  0.1970  0.0819
 5746SOL    HW128700   4.229   2.728   5.475  0.4662  1.3503 -0.1945
 5746SOL    HW228701   4.293   2.647   5.586 -2.2285  1.0979  1.9962
 5747SOL     OW28702   3.769   4.480   7.975 -0.1062 -0.0435  0.0336
 5747SOL    HW128703   3.730   4.451   7.893 -1.9073  0.0928  0.8337
 5747SOL    HW228704   3.689   4.501   8.023 -0.8666  2.4426 -2.3548
 5748SOL     OW28705   3.246   4.492   7.360 -0.1607 -0.7964 -0.3744
 5748SOL    HW128706   3.165   4.442   7.346  0.9015 -2.5986 -0.0535
 5748SOL    HW228707   3.216   4.583   7.358  4.0221  0.5871 -0.2930
 5749SOL     OW28708   3.961   2.752   4.028  0.0886 -0.3119 -0.2283
 5749SOL    HW128709   4.025   2.705   3.975 -0.1599 -1.3701  0.4135
 5749SOL    HW228710   3.895   2.685   4.044 -0.9454  0.5895 -0.6980
 5750SOL     OW28711   3.517   2.150  10.117  0.2815  0.0023  0.4289
 5750SOL    HW128712   3.584   2.150  10.185  1.2555 -1.5331 -0.5295
 5750SOL    HW228713   3.575   2.136  10.042 -0.3574  0.0273 -0.0711
 5751SOL     OW28714   2.007   2.528   7.700 -0.1419 -0.0585 -0.8793
 5751SOL    HW128715   2.085   2.489   7.660  2.0762  2.5266  0.8923
 5751SOL    HW228716   2.004   2.603   7.641  2.5110  0.7658  0.0132
 5752SOL     OW28717   1.845   2.746  15.563  0.6722  0.4412  0.1682
 5752SOL    HW128718   1.765   2.794  15.585  0.8383  1.2132 -0.9243
 5752SOL    HW228719   1.830   2.723  15.471  2.2218  1.1980 -0.2614
 5753SOL     OW28720   0.251   1.460   3.303 -0.3888  0.1921 -0.7492
 5753SOL    HW128721   0.260   1.435   3.395 -1.0446  1.2478 -0.3966
 5753SOL    HW228722   0.334   1.432   3.264 -0.9573 -1.3765 -0.8503
 5754SOL     OW28723   4.462   0.688  10.470  0.1770 -0.2040 -0.3419
 5754SOL    HW128724   4.458   0.678  10.375 -0.5418  0.2044 -0.3534
 5754SOL    HW228725   4.368   0.669  10.474  0.4357 -1.7666 -1.7193
 5755SOL     OW28726   1.307   3.609   8.419  0.1381 -0.5932  0.2509
 5755SOL    HW128727   1.402   3.609   8.421  0.1862  2.7542 -1.6252
 5755SOL    HW228728   1.283   3.551   8.492  2.7481 -1.1804  0.6236
 5756SOL     OW28729   3.843   2.600   6.328 -0.0108  0.5374 -0.5224
 5756SOL    HW128730   3.930   2.632   6.353  0.0269  1.6016 -1.9898
 5756SOL    HW228731   3.806   2.586   6.415 -1.1636 -1.8147 -1.3800
 5757SOL     OW28732   1.199   3.099  11.892 -0.2351  0.0259  0.2644
 5757SOL    HW128733   1.242   3.074  11.811  0.9228  0.5628  0.7206
 5757SOL    HW228734   1.112   3.125  11.860 -0.3602 -0.8514 -0.1119
 5758SOL     OW28735   1.165   2.764  15.049  0.2948 -0.4851 -0.2191
 5758SOL    HW128736   1.192   2.684  15.002  2.1614  0.9244 -1.5544
 5758SOL    HW228737   1.164   2.731  15.139  2.5654  0.7741  0.2532
 5759SOL     OW28738   1.589   1.923  15.218 -0.3612 -0.0027 -0.3395
 5759SOL    HW128739   1.614   2.012  15.192  1.9559 -0.8862 -1.1831
 5759SOL    HW228740   1.589   1.885  15.130  2.0602  1.5940 -1.0596
 5760SOL     OW28741   1.062   1.168  11.755 -0.5632 -0.1844  0.2439
 5760SOL    HW128742   1.004   1.238  11.726 -1.4370  0.0564  2.5830
 5760SOL    HW228743   1.003   1.093  11.757  0.8702 -1.3451 -0.3299
 5761SOL     OW28744   4.128   3.026   8.846 -0.2465 -0.3527  0.1398
 5761SOL    HW128745   4.102   2.956   8.786 -2.3746 -0.6336  1.3838
 5761SOL    HW228746   4.082   3.001   8.927 -0.2476 -1.4825 -0.2111
 5762SOL     OW28747   4.355   2.255   2.581 -0.3776  0.5191  0.1693
 5762SOL    HW128748   4.322   2.292   2.500 -2.4225 -0.0830  0.7371
 5762SOL    HW228749   4.425   2.193   2.558 -0.3551  1.7071 -2.8843
 5763SOL     OW28750   0.166   1.963  10.702 -0.8606 -0.2151 -0.0281
 5763SOL    HW128751   0.106   1.893  10.727 -2.5105  1.6334  1.2473
 5763SOL    HW228752   0.112   2.032  10.661 -0.6764 -0.5588 -0.8422
 5764SOL     OW28753   2.371   3.213  15.420  0.2532  0.4927 -0.0750
 5764SOL    HW128754   2.453   3.242  15.460 -0.2156  0.9265  0.5673
 5764SOL    HW228755   2.349   3.137  15.473 -2.4764  1.0768 -0.3842
 5765SOL     OW28756   3.717   0.872   9.654  0.1234 -0.0269  0.4475
 5765SOL    HW128757   3.656   0.870   9.581 -0.4740  0.0120  0.9527
 5765SOL    HW228758   3.729   0.967   9.666  0.8191  0.0880 -1.1632
 5766SOL     OW28759   0.758   3.983   3.464  0.5078 -0.3458 -0.1218
 5766SOL    HW128760   0.676   4.015   3.504  0.9251  2.2820 -1.3479
 5766SOL    HW228761   0.757   4.038   3.386  0.6425  1.2808  1.0025
 5767SOL     OW28762   2.758   0.535   8.368 -0.4820  0.5594 -0.1824
 5767SOL    HW128763   2.716   0.500   8.290 -0.9603 -2.0931  1.2579
 5767SOL    HW228764   2.689   0.591   8.403  0.8001  1.9081  0.2214
 5768SOL     OW28765   0.061   4.000  11.363  0.2011 -0.0603  0.7650
 5768SOL    HW128766   0.053   4.035  11.274  2.2915 -1.2678  0.1066
 5768SOL    HW228767   4.693   3.985  11.393 -1.5272  0.4850 -4.0808
 5769SOL     OW28768   0.881   4.623  17.049  0.0274  0.1232  0.0010
 5769SOL    HW128769   0.927   4.657  17.126 -0.8912  0.8646  0.2262
 5769SOL    HW228770   0.863   4.536  17.085  2.4603 -0.0199  0.8434
 5770SOL     OW28771   0.905   4.305  11.931  0.1913  0.1266 -0.3377
 5770SOL    HW128772   0.906   4.401  11.926 -3.0766  0.1269 -1.0892
 5770SOL    HW228773   0.959   4.291  12.008 -2.4546 -0.1650  1.4764
 5771SOL     OW28774   1.657   2.128   6.636 -0.6112 -0.0903  0.2325
 5771SOL    HW128775   1.598   2.204   6.635 -0.9924 -0.3962 -0.0372
 5771SOL    HW228776   1.740   2.176   6.634 -1.3968  1.3418  1.3938
 5772SOL     OW28777   4.365   3.046   4.011 -0.3699  0.0721  0.4390
 5772SOL    HW128778   4.283   3.024   3.966 -0.6562  2.3391 -0.1530
 5772SOL    HW228779   4.359   3.012   4.101  2.7263  0.0322  0.6238
 5773SOL     OW28780   0.286   1.845   5.364  0.0098  0.4264 -0.1564
 5773SOL    HW128781   0.237   1.903   5.307  1.1295  0.9240 -0.6158
 5773SOL    HW228782   0.267   1.875   5.453 -0.6407  1.0068 -0.5004
 5774SOL     OW28783   0.354   4.217  15.204 -0.0135 -0.1531  0.0525
 5774SOL    HW128784   0.314   4.239  15.288 -2.0638  0.0425 -0.9867
 5774SOL    HW228785   0.364   4.123  15.216 -1.1125 -0.1932  0.5710
 5775SOL     OW28786   0.040   0.872   3.988 -0.0343  0.3556  0.2436
 5775SOL    HW128787   0.078   0.801   3.936  2.3289  0.8552  1.2645
 5775SOL    HW228788   0.025   0.829   4.072 -1.2982 -1.4942 -0.9341
 5776SOL     OW28789   3.113   4.071  13.978 -0.4663  0.0926  0.0461
 5776SOL    HW128790   3.177   4.127  13.935  0.9302 -2.3542 -1.0442
 5776SOL    HW228791   3.163   3.993  14.000 -0.6730 -0.6260 -2.0497
 5777SOL     OW28792   3.770   3.748  14.493 -0.0455  0.1912  0.0277
 5777SOL    HW128793   3.853   3.795  14.504 -0.3407  0.2107  2.1574
 5777SOL    HW228794   3.707   3.812  14.462  2.5670  2.1060 -1.3352
 5778SOL     OW28795   4.323   1.075   6.158 -0.7220 -0.4548  0.2451
 5778SOL    HW128796   4.409   1.092   6.119  0.5403 -0.8959  2.8108
 5778SOL    HW228797   4.330   1.117   6.243  0.2922  3.0309 -1.5587
 5779SOL     OW28798   2.630   1.872   8.549  0.7230  0.3170  0.3362
 5779SOL    HW128799   2.625   1.886   8.454  1.4678  2.9212  0.6761
 5779SOL    HW228800   2.559   1.932   8.574  0.0229 -0.5823  0.4864
 5780SOL     OW28801   4.483   0.400  16.131 -0.3681 -0.3277  0.5094
 5780SOL    HW128802   4.454   0.323  16.179 -0.9276 -0.0246  0.6667
 5780SOL    HW228803   4.495   0.463  16.202 -1.3812 -1.0489  1.3070
 5781SOL     OW28804   3.106   3.700  16.624  0.7454  0.0109  0.0432
 5781SOL    HW128805   3.179   3.649  16.661  1.9133  2.1947  0.7258
 5781SOL    HW228806   3.133   3.700  16.532  0.7560 -2.6829  0.0401
 5782SOL     OW28807   3.896   2.598   7.410 -0.0293  0.3902  0.3401
 5782SOL    HW128808   3.935   2.664   7.354  0.4513 -1.5727 -1.6292
 5782SOL    HW228809   3.930   2.512   7.385  0.6997  1.1376 -1.1908
 5783SOL     OW28810   4.603   1.289   1.479 -0.0368  0.1301  0.0270
 5783SOL    HW128811   4.578   1.219   1.419 -0.8173  0.2833  0.1706
 5783SOL    HW228812   4.523   1.324   1.520  0.7812  1.3089  0.6241
 5784SOL     OW28813   3.336   2.678   8.843  0.7290  0.6109  0.2408
 5784SOL    HW128814   3.355   2.771   8.853 -1.9626  1.1991 -0.1922
 5784SOL    HW228815   3.283   2.667   8.922 -3.2991  0.3246 -2.5099
 5785SOL     OW28816   1.155   2.877   8.195 -0.7343  0.5545  0.1851
 5785SOL    HW128817   1.092   2.879   8.268 -1.2050 -1.8037 -0.1710
 5785SOL    HW228818   1.225   2.844   8.252 -0.9989  0.8681  0.6998
 5786SOL     OW28819   3.986   0.530   4.860  0.2773 -0.1364 -0.0645
 5786SOL    HW128820   4.045   0.599   4.893  0.5757 -0.4710  0.1003
 5786SOL    HW228821   4.032   0.513   4.777  1.6217  2.8091  0.0790
 5787SOL     OW28822   3.409   1.448   9.139 -0.1422 -0.2069 -0.1099
 5787SOL    HW128823   3.413   1.354   9.122 -2.6667 -0.9349  3.2462
 5787SOL    HW228824   3.474   1.455   9.209 -0.2797  1.5771 -0.1738
 5788SOL     OW28825   0.875   4.078  14.458  0.0590  0.0330 -0.0413
 5788SOL    HW128826   0.899   3.996  14.415 -0.2147  0.5956 -1.2642
 5788SOL    HW228827   0.786   4.057  14.489 -0.5165  0.8272 -1.1379
 5789SOL     OW28828   1.226   1.944   8.675  0.0326 -0.3647 -0.1246
 5789SOL    HW128829   1.145   1.993   8.689 -1.5089 -2.5945 -1.2451
 5789SOL    HW228830   1.287   1.992   8.731 -1.3872  0.2666  0.8905
 5790SOL     OW28831   4.022   0.005   3.254  0.5076  0.4547 -0.2230
 5790SOL    HW128832   4.040   4.633   3.253  1.0580  0.5833 -1.9179
 5790SOL    HW228833   4.104   0.043   3.222  1.3175 -0.0498  1.2892
 5791SOL     OW28834   2.935   2.756   4.395 -0.4252  0.0541 -0.2447
 5791SOL    HW128835   2.957   2.807   4.473 -0.4675  1.5790 -1.2238
 5791SOL    HW228836   2.971   2.809   4.324  2.7867  1.3229  2.3398
 5792SOL     OW28837   2.979   2.308   6.227  0.2245  0.2290 -0.4045
 5792SOL    HW128838   3.061   2.315   6.178 -0.0387  2.6222 -0.5035
 5792SOL    HW228839   2.914   2.357   6.178 -0.2064 -0.9645 -1.0086
 5793SOL     OW28840   2.435   4.557  11.254  0.3032 -0.6203  0.2597
 5793SOL    HW128841   2.490   4.556  11.175  2.2067  0.0410  1.5964
 5793SOL    HW228842   2.435   4.652  11.264 -2.0645 -0.4106 -1.7265
 5794SOL     OW28843   4.360   1.749   0.259 -0.5176  0.6257  0.1682
 5794SOL    HW128844   4.366   1.694   0.337 -2.0659 -0.2188 -0.3107
 5794SOL    HW228845   4.275   1.792   0.263  0.7084  3.1203 -0.5295
 5795SOL     OW28846   0.789   3.566   3.489 -0.4747 -0.3465 -0.2805
 5795SOL    HW128847   0.830   3.627   3.428 -0.6984  1.1706  1.1245
 5795SOL    HW228848   0.746   3.507   3.427  1.4168 -0.9584 -1.0159
 5796SOL     OW28849   4.652   0.427   3.589  0.1397 -0.2912  0.3211
 5796SOL    HW128850   4.631   0.401   3.500 -0.7448  2.3253 -0.2420
 5796SOL    HW228851   4.593   0.371   3.639 -0.0792 -1.1772 -0.9202
 5797SOL     OW28852   2.148   4.279   7.646  0.5895 -0.1865 -0.2266
 5797SOL    HW128853   2.205   4.346   7.609 -0.4214  0.9634  0.2956
 5797SOL    HW228854   2.148   4.213   7.577 -1.5052  0.9321 -1.3182
 5798SOL     OW28855   0.375   1.717   7.251  0.4576 -0.1586  0.6000
 5798SOL    HW128856   0.387   1.635   7.299 -1.2006  0.3197  1.8508
 5798SOL    HW228857   0.449   1.771   7.278  0.5301 -0.6156  1.3127
 5799SOL     OW28858   3.505   1.363   3.570  0.2558 -0.5690  0.1975
 5799SOL    HW128859   3.501   1.388   3.663  2.0590  2.3932 -0.5182
 5799SOL    HW228860   3.418   1.325   3.564  0.1937 -0.4094  0.0813
 5800SOL     OW28861   1.560   0.969   5.916  0.1161  0.0119 -0.7854
 5800SOL    HW128862   1.520   1.046   5.957  1.2871  0.2670 -0.1300
 5800SOL    HW228863   1.488   0.943   5.859 -0.5741 -0.3500  0.2404
 5801SOL     OW28864   0.947   1.183   8.401 -0.2455  0.1545  0.0623
 5801SOL    HW128865   0.930   1.089   8.412  0.0602 -0.0864 -1.4403
 5801SOL    HW228866   0.862   1.225   8.401 -0.7366 -0.8237  0.8608
 5802SOL     OW28867   0.846   2.228   7.520 -0.0000 -0.3438 -0.0440
 5802SOL    HW128868   0.835   2.172   7.597  0.9244 -0.9451 -0.3481
 5802SOL    HW228869   0.903   2.300   7.546 -2.0666  1.2708  0.0248
 5803SOL     OW28870   0.488   4.594   5.211  0.1280 -0.3297  0.1355
 5803SOL    HW128871   0.405   4.619   5.252 -0.2315  1.9420 -2.0121
 5803SOL    HW228872   0.538   4.571   5.289  2.5461  1.2991 -0.9610
 5804SOL     OW28873   2.777   0.953  14.282  0.6486 -0.2193 -0.0825
 5804SOL    HW128874   2.710   0.962  14.214  0.0693  0.7981  0.6195
 5804SOL    HW228875   2.852   0.989  14.234 -0.1403  3.1342  1.1585
 5805SOL     OW28876   0.335   4.631   6.213 -0.0897  0.2192  0.0233
 5805SOL    HW128877   0.358   4.566   6.147  0.0832 -0.7168  0.9890
 5805SOL    HW228878   0.418   4.677   6.223  1.0088 -1.8253  0.3710
 5806SOL     OW28879   3.034   2.696  17.289  0.5412  0.0773  0.5216
 5806SOL    HW128880   3.029   2.612  17.333  1.7994  0.8500  2.1628
 5806SOL    HW228881   2.947   2.733  17.303 -1.1679 -3.0440 -1.7854
 5807SOL     OW28882   3.363   0.596   1.838  0.3140 -0.2905  0.3487
 5807SOL    HW128883   3.425   0.588   1.765  2.3489  0.6808  1.9893
 5807SOL    HW228884   3.278   0.575   1.797 -0.3035  1.8283  0.5562
 5808SOL     OW28885   2.285   2.899   5.676  0.4297  0.7359  0.6924
 5808SOL    HW128886   2.240   2.858   5.601 -0.3359  0.5265  1.2629
 5808SOL    HW228887   2.215   2.948   5.720 -0.2759  2.3101 -2.2007
 5809SOL     OW28888   2.728   3.847   6.906 -0.8667  0.4927 -0.1025
 5809SOL    HW128889   2.788   3.782   6.869 -0.0409  2.5289 -2.3750
 5809SOL    HW228890   2.654   3.791   6.928  1.5323 -2.0014  1.6498
 5810SOL     OW28891   4.473   2.947   7.470 -0.5177 -0.3431 -0.3812
 5810SOL    HW128892   4.404   2.964   7.405  0.4829  0.2353 -1.2894
 5810SOL    HW228893   4.417   2.922   7.544 -0.3724 -0.1972 -0.2214
 5811SOL     OW28894   2.398   1.183   8.882  0.4644  0.0872  0.0497
 5811SOL    HW128895   2.345   1.170   8.961  0.2465  0.3547 -0.0496
 5811SOL    HW228896   2.345   1.134   8.819  0.1523  0.7117 -0.1794
 5812SOL     OW28897   1.575   3.269   1.535  0.0766 -0.0036  0.6322
 5812SOL    HW128898   1.531   3.213   1.470 -1.3493 -1.4160  2.7955
 5812SOL    HW228899   1.599   3.346   1.485  0.4699 -0.2089  0.5023
 5813SOL     OW28900   1.733   4.644   9.737  0.1448 -0.0834 -0.2642
 5813SOL    HW128901   1.696   4.620   9.652 -0.6337 -1.6818  0.5349
 5813SOL    HW228902   1.726   0.018   9.730  0.7268 -0.1528 -1.7797
 5814SOL     OW28903   2.644   2.108  12.046  0.0399  0.3144 -1.1481
 5814SOL    HW128904   2.637   2.183  11.987  0.6796  1.9433  0.8255
 5814SOL    HW228905   2.580   2.047  12.010 -0.7336 -1.0145  2.4433
 5815SOL     OW28906   0.599   1.667  11.038 -0.5215 -1.0163  0.3950
 5815SOL    HW128907   0.525   1.615  11.007 -0.7112 -0.9041  0.6654
 5815SOL    HW228908   0.671   1.603  11.036  1.4928  1.2091  1.6851
 5816SOL     OW28909   1.062   3.157  10.501  1.2437 -0.2645  0.0851
 5816SOL    HW128910   0.968   3.177  10.508  1.2977 -0.3154  1.0458
 5816SOL    HW228911   1.097   3.232  10.454  0.9425 -1.0334 -1.3695
 5817SOL     OW28912   4.234   4.578  12.722  1.1089  0.3133  0.2761
 5817SOL    HW128913   4.328   4.566  12.706  1.1776  1.4593 -0.2086
 5817SOL    HW228914   4.239   4.582  12.817  0.1114 -0.0047  0.3392
 5818SOL     OW28915   0.728   3.965   4.308 -0.0676  0.2104 -0.9827
 5818SOL    HW128916   0.766   3.879   4.291  0.0709  0.4127 -1.6934
 5818SOL    HW228917   0.803   4.020   4.284 -0.9794  1.0117 -2.0138
 5819SOL     OW28918   1.581   3.489  14.733 -0.0533  0.3314 -0.5544
 5819SOL    HW128919   1.490   3.459  14.727 -0.3201  1.3978 -1.8641
 5819SOL    HW228920   1.612   3.441  14.810 -0.9476  0.0345 -0.3701
 5820SOL     OW28921   0.172   1.511  16.508  0.3748  0.0567  0.7114
 5820SOL    HW128922   0.105   1.550  16.451  2.3817  0.5067 -1.3942
 5820SOL    HW228923   0.133   1.428  16.533 -1.1194 -0.7372 -4.1687
 5821SOL     OW28924   2.497   0.623   5.565  0.2765  0.9156  0.6990
 5821SOL    HW128925   2.513   0.716   5.553 -2.3077  1.3050  0.2871
 5821SOL    HW228926   2.481   0.615   5.659 -0.6990 -1.1864  0.3710
 5822SOL     OW28927   1.431   1.937   2.841  0.4835  0.8451 -0.3966
 5822SOL    HW128928   1.415   1.928   2.935  2.5690  1.6818  0.0322
 5822SOL    HW228929   1.346   1.913   2.803  0.4372  0.7075 -0.2029
 5823SOL     OW28930   1.378   3.563   2.456 -0.5500 -0.3043  0.1477
 5823SOL    HW128931   1.456   3.583   2.507 -1.3494  1.9205  0.4990
 5823SOL    HW228932   1.416   3.487   2.412 -0.5002 -0.4107  0.3755
 5824SOL     OW28933   3.445   0.902   3.152 -0.4886 -0.4536  0.3596
 5824SOL    HW128934   3.497   0.824   3.174 -0.2868  0.0380  1.6327
 5824SOL    HW228935   3.382   0.857   3.095 -0.1761 -0.0103 -0.3385
 5825SOL     OW28936   0.547   4.306   5.541  0.0156 -0.2643  0.4634
 5825SOL    HW128937   0.625   4.253   5.526  1.7440  2.2062  0.8260
 5825SOL    HW228938   0.534   4.292   5.635  0.9163 -0.2535  0.5844
 5826SOL     OW28939   2.447   0.380   8.796 -0.1945 -0.0694 -0.0036
 5826SOL    HW128940   2.495   0.462   8.779 -0.8582  0.4144  0.4505
 5826SOL    HW228941   2.372   0.420   8.840  1.3001  0.5217  2.0298
 5827SOL     OW28942   0.902   3.567   6.975  0.3670  0.2287 -0.2414
 5827SOL    HW128943   0.975   3.584   7.034  0.5256 -1.7438  0.1424
 5827SOL    HW228944   0.878   3.481   7.010  0.7581  0.4319  0.5295
 5828SOL     OW28945   1.714   3.026   6.462 -0.0101 -0.1914  0.1413
 5828SOL    HW128946   1.709   3.122   6.466  0.0692 -0.2911  2.5208
 5828SOL    HW228947   1.708   3.006   6.369 -0.0988 -0.1964  0.1480
 5829SOL     OW28948   3.489   0.884   9.504 -0.1155 -0.1642  0.1419
 5829SOL    HW128949   3.494   0.944   9.578 -0.4276  1.6397 -1.2745
 5829SOL    HW228950   3.462   0.946   9.435 -1.9887 -2.2931 -1.0241
 5830SOL     OW28951   4.397   4.561   6.308 -0.3512  0.5408  0.2558
 5830SOL    HW128952   4.442   4.480   6.330 -2.6700 -0.3091  1.9390
 5830SOL    HW228953   4.470   4.622   6.302 -0.1120  0.1588 -0.6227
 5831SOL     OW28954   1.216   1.620   0.408  0.0923  0.7236 -0.4196
 5831SOL    HW128955   1.165   1.627   0.327  0.5968 -1.1758 -0.9161
 5831SOL    HW228956   1.296   1.666   0.385  0.9285 -0.0152  1.0462
 5832SOL     OW28957   3.784   1.413   3.928  0.1554  0.2380  0.3670
 5832SOL    HW128958   3.784   1.322   3.898  2.9841  0.4232 -0.1732
 5832SOL    HW228959   3.876   1.440   3.921  0.5418 -1.5074 -1.2761
 5833SOL     OW28960   3.399   0.278   0.227 -0.0051 -0.1050 -0.0555
 5833SOL    HW128961   3.362   0.301   0.313  2.0073 -0.9925  1.0410
 5833SOL    HW228962   3.327   0.225   0.193 -0.9744  1.1512  0.0221
 5834SOL     OW28963   2.305   4.104   5.485 -0.2518 -0.1500  0.1746
 5834SOL    HW128964   2.281   4.020   5.448  1.7681  0.7336 -3.1761
 5834SOL    HW228965   2.311   4.155   5.404 -0.0105  1.1702  1.0104
 5835SOL     OW28966   2.890   0.718   0.565  0.3387 -0.0855 -0.0446
 5835SOL    HW128967   2.902   0.728   0.659  0.3793  0.7629 -0.1394
 5835SOL    HW228968   2.811   0.771   0.557 -1.3159 -2.4950  0.3119
 5836SOL     OW28969   1.548   1.736  10.204  0.3649 -0.1675  0.1998
 5836SOL    HW128970   1.634   1.771  10.179  0.4729 -1.0264 -0.6377
 5836SOL    HW228971   1.566   1.669  10.270 -0.0952 -1.1302 -0.6487
 5837SOL     OW28972   0.661   4.582   6.383  0.4058  0.2372  0.0783
 5837SOL    HW128973   0.622   4.638   6.315  0.7541  1.2548  0.7154
 5837SOL    HW228974   0.720   4.643   6.427  0.4576  0.7501 -0.7039
 5838SOL     OW28975   0.280   3.264   7.336  0.4886 -0.2422 -0.0771
 5838SOL    HW128976   0.231   3.252   7.417  0.1481  0.9470 -0.1063
 5838SOL    HW228977   0.338   3.335   7.365  0.0983 -0.4917  1.3554
 5839SOL     OW28978   3.567   2.536  17.159 -0.4561 -0.3551  0.2694
 5839SOL    HW128979   3.647   2.521  17.109 -0.2731  1.4175  0.0534
 5839SOL    HW228980   3.532   2.600  17.097 -0.6290 -0.6270  0.0888
 5840SOL     OW28981   4.602   0.179   6.843  0.5509  0.1002  0.1135
 5840SOL    HW128982   4.619   0.148   6.932  2.2077 -1.1502 -0.6365
 5840SOL    HW228983   4.511   0.154   6.828  1.0670 -1.2497 -0.8135
 5841SOL     OW28984   3.999   1.260   9.491  0.1497 -1.0527 -0.6561
 5841SOL    HW128985   4.093   1.253   9.511  0.5380 -1.7895 -2.8121
 5841SOL    HW228986   3.971   1.195   9.555  0.1824 -1.9889 -1.6019
 5842SOL     OW28987   4.685   1.521   5.405 -0.1776 -0.2715  0.0795
 5842SOL    HW128988   0.027   1.464   5.449  0.6632 -0.1905 -1.0072
 5842SOL    HW228989   0.014   1.602   5.404 -0.2780 -0.2324 -1.5172
 5843SOL     OW28990   4.397   2.032   9.981  0.8476 -0.4001  0.4363
 5843SOL    HW128991   4.435   1.947   9.958 -0.5045 -1.0659  0.6569
 5843SOL    HW228992   4.342   2.007  10.055  2.2546 -1.8753  0.9763
 5844SOL     OW28993   1.599   0.660   0.780 -0.3018 -0.1293 -0.1545
 5844SOL    HW128994   1.613   0.753   0.763  0.4819 -0.3561 -0.7323
 5844SOL    HW228995   1.565   0.636   0.694 -1.4383 -0.6467  0.4440
 5845SOL     OW28996   0.249   3.087   8.796  0.2671 -0.4485  0.0352
 5845SOL    HW128997   0.175   3.064   8.739  1.1063 -1.1424 -0.7687
 5845SOL    HW228998   0.216   3.074   8.885 -0.3846  0.7076 -0.0456
 5846SOL     OW28999   3.811   1.604   7.286  0.3142 -0.0107 -0.0121
 5846SOL    HW129000   3.768   1.567   7.363  1.5312  1.3023  1.2721
 5846SOL    HW229001   3.821   1.696   7.310  3.3654 -0.5523  0.7953
 5847SOL     OW29002   3.631   3.672   2.227 -0.1154 -0.8343 -0.5254
 5847SOL    HW129003   3.598   3.591   2.189 -1.2044 -0.0776 -1.1723
 5847SOL    HW229004   3.645   3.646   2.318  2.7260  1.0237 -0.4477
 5848SOL     OW29005   4.095   3.615   6.956  0.2904 -0.8534  0.2468
 5848SOL    HW129006   4.107   3.611   7.051  3.2599 -1.0155 -0.1449
 5848SOL    HW229007   4.012   3.568   6.942 -1.6257  2.6350 -0.1442
 5849SOL     OW29008   0.737   0.304   8.257  0.4032  0.6537  0.6433
 5849SOL    HW129009   0.720   0.377   8.316  3.3353  1.7859  0.1066
 5849SOL    HW229010   0.783   0.344   8.183 -0.7357  0.1904 -0.2983
 5850SOL     OW29011   2.885   1.605   1.271 -1.0078 -0.5477 -0.0646
 5850SOL    HW129012   2.809   1.567   1.226 -0.0516 -0.4606 -1.7307
 5850SOL    HW229013   2.960   1.561   1.232 -0.6724 -0.5050  0.5252
 5851SOL     OW29014   1.516   1.804   4.975 -0.1715 -0.1131  0.3552
 5851SOL    HW129015   1.597   1.800   5.027 -0.3189 -1.9719  0.4335
 5851SOL    HW229016   1.466   1.731   5.010 -0.3735  0.7764  1.9236
 5852SOL     OW29017   3.758   3.714   4.789  0.3364 -0.1242 -0.0382
 5852SOL    HW129018   3.822   3.734   4.858  0.5665  0.6590 -0.4848
 5852SOL    HW229019   3.687   3.772   4.819  0.2682 -0.7240  0.9841
 5853SOL     OW29020   2.570   1.804   9.163 -0.1248 -0.4597 -0.1786
 5853SOL    HW129021   2.585   1.845   9.078 -1.7287 -0.5502 -0.5172
 5853SOL    HW229022   2.517   1.728   9.136  2.3521 -2.0936 -0.4357
 5854SOL     OW29023   2.969   3.319  14.420 -0.3412  0.9598 -0.1943
 5854SOL    HW129024   2.946   3.228  14.439 -0.0564  0.7036 -1.1092
 5854SOL    HW229025   2.974   3.355  14.509  1.5371 -1.2758  0.6050
 5855SOL     OW29026   2.038   3.403   4.125 -0.1606 -0.1740  0.5005
 5855SOL    HW129027   2.071   3.332   4.070  0.6614 -0.1705  0.9788
 5855SOL    HW229028   2.097   3.467   4.085  0.2780  1.4180  3.6614
 5856SOL     OW29029   2.378   0.973   3.125  0.4078  0.1307 -0.1187
 5856SOL    HW129030   2.402   0.914   3.196  4.0128  0.5776 -0.9404
 5856SOL    HW229031   2.453   1.033   3.119 -0.0300  1.0789  4.2900
 5857SOL     OW29032   1.453   0.462   5.101  0.9824  0.3974 -0.2931
 5857SOL    HW129033   1.398   0.385   5.112  0.7441  0.5575 -0.3561
 5857SOL    HW229034   1.535   0.425   5.070  1.7980  0.9559  1.1850
 5858SOL     OW29035   3.983   0.227  11.557  0.5845 -0.0749  0.2513
 5858SOL    HW129036   4.075   0.241  11.577  0.2938 -2.8905  3.6921
 5858SOL    HW229037   3.984   0.228  11.462 -1.4635  0.5009  0.2390
 5859SOL     OW29038   0.839   4.681   3.274  0.4252 -0.0725 -0.1960
 5859SOL    HW129039   0.796   0.017   3.338 -1.9847  0.0510 -1.9346
 5859SOL    HW229040   0.822   0.006   3.192  1.4889 -1.1113 -0.9986
 5860SOL     OW29041   0.814   4.603   6.004  0.2451 -0.8410 -0.3314
 5860SOL    HW129042   0.863   4.659   5.944  0.2472  0.7735  1.1754
 5860SOL    HW229043   0.885   4.558   6.051 -0.5708  0.0029  1.7010
 5861SOL     OW29044   3.625   2.112   8.168 -0.0602 -0.2519  0.9444
 5861SOL    HW129045   3.593   2.203   8.171  1.1954  0.2276 -0.1430
 5861SOL    HW229046   3.561   2.081   8.104 -1.7861  2.5956  1.2918
 5862SOL     OW29047   0.424   4.215   7.565 -0.2660 -0.2569 -0.3597
 5862SOL    HW129048   0.515   4.244   7.571  0.3095 -1.6448 -2.3754
 5862SOL    HW229049   0.401   4.224   7.472 -0.2112 -0.7848 -0.4277
 5863SOL     OW29050   2.405   3.883  12.090 -0.3502  0.7836  0.8298
 5863SOL    HW129051   2.317   3.916  12.072  0.1940  1.8218  0.0572
 5863SOL    HW229052   2.394   3.861  12.182 -0.9265  0.4644  0.6818
 5864SOL     OW29053   1.608   0.216   6.020  0.0335 -0.1981 -0.3349
 5864SOL    HW129054   1.640   0.140   5.972 -0.1008 -0.2695 -0.3117
 5864SOL    HW229055   1.602   0.176   6.106  0.8931  0.1033 -0.1389
 5865SOL     OW29056   3.064   4.116   6.783  0.1639 -0.0416 -0.2913
 5865SOL    HW129057   3.152   4.118   6.821 -0.2347  2.7364  0.4823
 5865SOL    HW229058   3.006   4.106   6.858  0.9736 -2.7902 -0.0377
 5866SOL     OW29059   2.047   1.190   4.777 -0.3222 -0.1628  0.4498
 5866SOL    HW129060   2.035   1.284   4.786 -1.3406 -0.3302  0.8838
 5866SOL    HW229061   2.122   1.175   4.836  0.7565 -1.5217 -1.2754
 5867SOL     OW29062   1.587   0.306  10.883  0.0767  0.2806  0.2658
 5867SOL    HW129063   1.582   0.234  10.946  1.3711 -0.2389 -0.2208
 5867SOL    HW229064   1.548   0.378  10.932 -0.1358 -0.3792  1.0719
 5868SOL     OW29065   0.399   0.797   4.269  0.1544  0.0225  0.0865
 5868SOL    HW129066   0.353   0.880   4.283 -0.7816 -0.5398  0.3564
 5868SOL    HW229067   0.358   0.747   4.340 -0.1041  1.2040  0.7744
 5869SOL     OW29068   2.713   3.050   3.464  0.1366 -0.0543  0.6924
 5869SOL    HW129069   2.626   3.031   3.499 -1.0090  1.9522 -1.0632
 5869SOL    HW229070   2.762   3.085   3.538  0.2094  0.4293  0.4160
 5870SOL     OW29071   2.307   0.347   5.785  0.1795 -0.5620  0.0710
 5870SOL    HW129072   2.376   0.292   5.822  1.4181 -0.2650 -1.7991
 5870SOL    HW229073   2.260   0.357   5.868  0.6869  4.0749 -0.1929
 5871SOL     OW29074   3.184   2.454   0.564 -0.1467  0.0433 -0.9217
 5871SOL    HW129075   3.115   2.391   0.541  2.2394 -2.0467 -2.3393
 5871SOL    HW229076   3.157   2.475   0.653  1.8507 -1.1194 -0.0471
 5872SOL     OW29077   4.660   2.835   8.920 -0.4165 -0.6767 -0.0674
 5872SOL    HW129078   0.032   2.837   8.938 -0.7584 -1.2765  1.7077
 5872SOL    HW229079   4.653   2.767   8.853 -1.7854  1.0600 -1.6946
 5873SOL     OW29080   0.478   0.688   7.109  0.1249 -0.1694  0.5909
 5873SOL    HW129081   0.410   0.749   7.137  0.3552  0.8562 -1.0919
 5873SOL    HW229082   0.499   0.725   7.023  0.6486 -0.4590  0.5926
 5874SOL     OW29083   4.287   2.048   3.839 -0.2038 -0.2904  0.1614
 5874SOL    HW129084   4.202   2.048   3.794 -0.5332 -0.4386  0.7835
 5874SOL    HW229085   4.354   2.019   3.777  1.1316  1.5654  0.7613
 5875SOL     OW29086   3.003   3.343  14.686  0.1486 -0.1392  0.6433
 5875SOL    HW129087   3.089   3.332  14.726  1.2640  1.7602 -1.2836
 5875SOL    HW229088   2.953   3.331  14.767  0.0042  0.0610  0.5819
 5876SOL     OW29089   3.567   2.736   6.243  0.0561  0.2714 -0.1574
 5876SOL    HW129090   3.509   2.672   6.285 -2.6029  2.1394 -1.0739
 5876SOL    HW229091   3.654   2.703   6.266  0.7349  2.0631 -0.2244
 5877SOL     OW29092   1.902   1.660   9.327  0.1095 -0.4914 -0.0368
 5877SOL    HW129093   1.812   1.629   9.334 -0.1114  0.7430  2.5335
 5877SOL    HW229094   1.947   1.576   9.338  0.9284 -0.2085 -1.1804
 5878SOL     OW29095   1.593   1.463   6.764  0.6218 -0.3638 -0.0937
 5878SOL    HW129096   1.675   1.458   6.715  0.9812  0.1268  0.4621
 5878SOL    HW229097   1.594   1.550   6.802 -0.6666 -0.3283 -0.1266
 5879SOL     OW29098   3.831   3.719  16.346 -0.3589  0.1278 -0.7565
 5879SOL    HW129099   3.884   3.726  16.266 -3.6350  0.4117 -2.9129
 5879SOL    HW229100   3.884   3.754  16.417 -2.8473  0.2932  1.0279
 5880SOL     OW29101   3.566   2.012   6.638 -0.1645  0.7821 -0.4512
 5880SOL    HW129102   3.609   1.945   6.692 -0.9696  1.7840  1.4591
 5880SOL    HW229103   3.623   2.085   6.660 -2.5766  2.4413  0.3136
 5881SOL     OW29104   0.076   0.483   9.935  0.3007  0.3427 -0.1716
 5881SOL    HW129105   0.127   0.564   9.946 -0.7346  1.2361 -2.0372
 5881SOL    HW229106   0.067   0.481   9.840 -0.2221  1.3771 -0.1417
 5882SOL     OW29107   0.661   1.035   7.324 -0.3001  0.5490 -0.1330
 5882SOL    HW129108   0.639   1.103   7.388 -1.0979 -0.1222  0.3137
 5882SOL    HW229109   0.662   1.087   7.243 -0.7034  1.4580  0.4468
 5883SOL     OW29110   3.731   3.141   7.303 -0.4301 -0.4026  0.6112
 5883SOL    HW129111   3.743   3.060   7.253 -0.0998  0.8464 -1.3024
 5883SOL    HW229112   3.806   3.144   7.363  0.7064  0.7345 -0.8898
 5884SOL     OW29113   0.040   0.843   3.339  0.0871  0.5513  0.4121
 5884SOL    HW129114   0.075   0.919   3.385  0.3651  1.3945 -1.2062
 5884SOL    HW229115   0.097   0.841   3.262  0.2366  0.1353  0.5296
 5885SOL     OW29116   0.222   0.504   2.428  0.6179 -0.1511  0.4145
 5885SOL    HW129117   0.218   0.523   2.521 -1.9901 -0.0147  0.2637
 5885SOL    HW229118   0.211   0.592   2.391  0.0327 -0.2771  0.2937
 5886SOL     OW29119   0.771   4.362   3.582  0.4247  0.3806 -0.3322
 5886SOL    HW129120   0.858   4.334   3.555  0.5442  2.1289 -1.7720
 5886SOL    HW229121   0.769   4.313   3.664  3.3797  0.2770 -0.3417
 5887SOL     OW29122   3.084   0.491   2.002  0.4352  0.9742  0.3076
 5887SOL    HW129123   3.178   0.482   2.020  0.2689  1.3244  1.3045
 5887SOL    HW229124   3.070   0.449   1.917  1.7855 -0.5567  0.8460
 5888SOL     OW29125   0.050   1.409   2.512  0.5663 -0.1660  0.9070
 5888SOL    HW129126   4.719   1.486   2.491  1.2156 -0.6653 -2.6302
 5888SOL    HW229127   0.096   1.402   2.428 -2.4939 -0.0930 -0.7622
 5889SOL     OW29128   1.038   2.000   3.976 -0.1678  0.4051 -0.2476
 5889SOL    HW129129   0.998   1.960   4.053  0.4387  0.0547 -0.1082
 5889SOL    HW229130   1.067   2.086   4.005  0.0369  1.1832 -2.7355
 5890SOL     OW29131   1.890   3.725  10.735  0.3555 -0.4637 -0.2846
 5890SOL    HW129132   1.879   3.767  10.820 -1.0794 -2.5178  0.5471
 5890SOL    HW229133   1.822   3.657  10.735 -2.3111  2.2263 -0.1533
 5891SOL     OW29134   2.878   1.081   4.818  0.4270  0.5097 -0.2838
 5891SOL    HW129135   2.959   1.041   4.786 -0.2078 -0.8441 -0.2034
 5891SOL    HW229136   2.819   1.069   4.743 -0.6586 -0.9965  0.8015
 5892SOL     OW29137   2.396   0.821   9.195  0.0053  0.0613  0.0293
 5892SOL    HW129138   2.479   0.849   9.233  0.8437 -1.8139 -0.4272
 5892SOL    HW229139   2.418   0.728   9.188  0.3770  0.0390  1.4737
 5893SOL     OW29140   0.472   2.753   2.136  0.4432 -0.0980 -0.1397
 5893SOL    HW129141   0.478   2.735   2.230 -1.3316  1.1799  0.2280
 5893SOL    HW229142   0.392   2.805   2.133  1.3088  1.1013 -2.4945
 5894SOL     OW29143   4.682   2.445   3.286 -0.0574  0.3959  0.3134
 5894SOL    HW129144   4.600   2.478   3.323 -0.7384  0.0961 -0.9664
 5894SOL    HW229145   0.013   2.524   3.280  0.2512  0.1211 -0.5213
 5895SOL     OW29146   3.869   4.123   2.252 -0.0674  0.1800 -0.3156
 5895SOL    HW129147   3.856   4.209   2.211  1.7908  0.7408  0.2633
 5895SOL    HW229148   3.823   4.063   2.192 -0.7556 -0.2852  0.6866
 5896SOL     OW29149   3.709   4.627   4.467 -0.7169 -0.1472 -0.1872
 5896SOL    HW129150   3.803   4.629   4.479 -0.5139  0.5053 -1.8566
 5896SOL    HW229151   3.693   4.584   4.551 -0.3233 -0.5442 -0.3192
 5897SOL     OW29152   4.049   3.320  16.451  0.1227  0.1640 -0.1445
 5897SOL    HW129153   4.064   3.401  16.499  0.7402 -0.2890  0.4340
 5897SOL    HW229154   4.114   3.332  16.381 -0.7042 -0.0822 -0.9472
 5898SOL     OW29155   2.167   2.603  12.815 -0.0812  0.4699 -0.3599
 5898SOL    HW129156   2.089   2.629  12.865  0.0624  0.4933 -0.1468
 5898SOL    HW229157   2.198   2.533  12.873 -2.1543 -0.5647 -0.4923
 5899SOL     OW29158   1.462   3.805  13.490 -0.1862  0.0315 -0.3588
 5899SOL    HW129159   1.400   3.807  13.417  1.8510 -1.1829 -2.1242
 5899SOL    HW229160   1.536   3.854  13.455 -0.2135  0.7063  0.5183
 5900SOL     OW29161   1.529   3.636  14.478 -0.4888  0.2358  0.9171
 5900SOL    HW129162   1.593   3.588  14.530 -0.3621  1.5007  1.9397
 5900SOL    HW229163   1.514   3.713  14.533  0.2814  0.2546  1.0962
 5901SOL     OW29164   0.412   2.615   4.702  0.1600  0.4732  0.2396
 5901SOL    HW129165   0.430   2.703   4.668  1.5285 -0.5788 -1.7972
 5901SOL    HW229166   0.376   2.632   4.789  0.7222  0.4202  0.4830
 5902SOL     OW29167   1.933   0.509  12.008  0.1360 -0.0248  0.0077
 5902SOL    HW129168   1.940   0.599  12.040  0.0488  0.0706 -0.2409
 5902SOL    HW229169   1.839   0.507  11.992  0.5667 -0.4736 -2.4859
 5903SOL     OW29170   2.969   0.696  16.130 -0.3753 -0.4990 -0.2354
 5903SOL    HW129171   2.998   0.610  16.100 -1.0767 -0.6439 -0.4822
 5903SOL    HW229172   3.003   0.685  16.219  0.8696 -0.6830 -0.7329
 5904SOL     OW29173   2.768   3.459   3.905  0.0822  0.3094  0.4141
 5904SOL    HW129174   2.757   3.379   3.855  1.5001 -0.6648  1.6499
 5904SOL    HW229175   2.861   3.455   3.927 -0.1462 -0.3076  1.2239
 5905SOL     OW29176   3.112   2.929   2.898 -0.0062 -0.3309  0.4065
 5905SOL    HW129177   3.147   2.849   2.939  0.8236  0.5614  1.4414
 5905SOL    HW229178   3.177   2.953   2.832 -0.1653 -1.1459 -0.0483
 5906SOL     OW29179   0.156   2.526   6.907  0.1669  0.2448 -0.0017
 5906SOL    HW129180   0.137   2.468   6.981 -1.6632  1.1167  0.1990
 5906SOL    HW229181   0.090   2.595   6.915  0.2241  0.2226  0.6955
 5907SOL     OW29182   1.458   0.551  12.175 -0.1698  0.4436 -0.4070
 5907SOL    HW129183   1.383   0.609  12.178  0.6784  1.6336 -2.2864
 5907SOL    HW229184   1.467   0.535  12.269  0.5889 -0.8083 -0.6774
 5908SOL     OW29185   4.290   1.338   4.110  0.8846  0.2149 -0.3873
 5908SOL    HW129186   4.262   1.379   4.191  0.3838 -0.2366 -0.3316
 5908SOL    HW229187   4.382   1.313   4.122  0.8482  1.0686  1.5687
 5909SOL     OW29188   4.289   2.483   5.630  0.2481  0.1328  0.0780
 5909SOL    HW129189   4.371   2.456   5.670  0.5257  2.7583  1.2781
 5909SOL    HW229190   4.237   2.402   5.627 -1.3471  1.1567 -0.0282
 5910SOL     OW29191   0.218   0.561  12.025 -0.2725  0.2839  0.1320
 5910SOL    HW129192   0.266   0.529  11.949 -2.4634 -0.5715 -0.8718
 5910SOL    HW229193   0.276   0.561  12.102  1.4495 -2.3266 -1.1451
 5911SOL     OW29194   1.727   3.185   3.626 -0.7123 -0.2088  0.0691
 5911SOL    HW129195   1.638   3.173   3.659 -1.4674  0.8639 -1.5765
 5911SOL    HW229196   1.746   3.114   3.565  1.4365  1.7146 -1.5087
 5912SOL     OW29197   0.237   1.007   6.320  0.0070  0.3643 -0.3431
 5912SOL    HW129198   0.297   0.974   6.387  0.3010  2.1059  0.2356
 5912SOL    HW229199   0.154   0.994   6.366  0.5172 -0.6700  0.2924
 5913SOL     OW29200   2.171   4.120   8.266 -0.3292  0.1290  0.7240
 5913SOL    HW129201   2.197   4.049   8.325 -2.0413 -1.0432  0.0574
 5913SOL    HW229202   2.252   4.135   8.217 -0.0901 -0.1160  1.0410
 5914SOL     OW29203   2.957   2.237   6.671  0.4478  0.2035  0.5840
 5914SOL    HW129204   2.985   2.214   6.759 -0.6205 -3.8177 -0.1060
 5914SOL    HW229205   2.976   2.330   6.662  2.7796 -0.4883 -1.5967
 5915SOL     OW29206   3.619   2.075   9.872  0.3317 -0.3288  0.1699
 5915SOL    HW129207   3.643   1.985   9.852  1.7850 -0.7746  3.8713
 5915SOL    HW229208   3.529   2.060   9.844  0.9155 -2.0840 -0.7628
 5916SOL     OW29209   3.111   2.208   6.907  0.3650 -0.3954 -0.1376
 5916SOL    HW129210   3.123   2.236   6.998 -0.6321 -0.0746 -0.1110
 5916SOL    HW229211   3.164   2.277   6.868  0.1294  0.5070  1.1297
 5917SOL     OW29212   1.760   3.943   9.209 -0.0380  0.1444  0.3517
 5917SOL    HW129213   1.748   4.036   9.190 -1.3225  0.1373  1.0834
 5917SOL    HW229214   1.741   3.894   9.129  0.1253 -0.3412  0.6078
 5918SOL     OW29215   1.554   1.339   5.021  0.3519 -0.0276  0.5467
 5918SOL    HW129216   1.497   1.307   4.951  1.0447  0.4261 -0.2178
 5918SOL    HW229217   1.608   1.398   4.968 -0.0367 -0.4824 -0.3548
 5919SOL     OW29218   3.863   3.108   2.805  0.3792 -0.3460 -0.1996
 5919SOL    HW129219   3.872   3.149   2.891 -0.6206 -1.2162  0.3150
 5919SOL    HW229220   3.787   3.154   2.770  0.2996 -0.7888 -0.6097
 5920SOL     OW29221   4.504   1.269   5.245  0.2718  0.2461 -0.7534
 5920SOL    HW129222   4.565   1.232   5.309  2.0899  2.1765 -1.3530
 5920SOL    HW229223   4.463   1.342   5.292 -0.4207  1.6781 -3.5845
 5921SOL     OW29224   0.746   1.965   6.297  0.2479 -0.0658 -0.8013
 5921SOL    HW129225   0.683   1.998   6.362  2.1097 -1.7889  1.8398
 5921SOL    HW229226   0.833   1.985   6.331  0.1414 -1.9991  0.5710
 5922SOL     OW29227   3.931   1.738   5.071  0.2335  0.0367  0.0952
 5922SOL    HW129228   3.967   1.822   5.041 -0.5518 -0.8020 -3.2799
 5922SOL    HW229229   3.895   1.756   5.157  1.6872 -0.9109  0.9030
 5923SOL     OW29230   4.571   0.207   4.721  0.4814 -0.7883  0.0411
 5923SOL    HW129231   4.508   0.155   4.671  1.6510 -1.3356 -0.8816
 5923SOL    HW229232   4.523   0.290   4.723  3.3713  0.9024 -0.6520
 5924SOL     OW29233   0.928   0.501   9.691 -0.8902 -0.2609 -1.0314
 5924SOL    HW129234   0.928   0.474   9.599  0.9177  2.7519 -1.9151
 5924SOL    HW229235   0.869   0.576   9.686  0.2586  0.6583 -0.6042
 5925SOL     OW29236   4.016   4.246   3.326 -0.1192 -0.3709  0.2130
 5925SOL    HW129237   4.077   4.184   3.286 -0.2573 -1.5942  1.9008
 5925SOL    HW229238   3.933   4.204   3.306 -0.8060  0.1640  1.9484
 5926SOL     OW29239   3.483   0.032   1.657 -0.4563 -0.0448 -0.7190
 5926SOL    HW129240   3.561   0.047   1.604  1.6221 -0.4403  2.2309
 5926SOL    HW229241   3.439   4.688   1.603  0.5288 -1.4467  0.1689
 5927SOL     OW29242   4.690   0.194   6.520 -0.6604 -0.4233  0.2885
 5927SOL    HW129243   4.659   0.275   6.562 -1.9963 -1.3149  1.0330
 5927SOL    HW229244   0.049   0.222   6.477 -1.3147 -0.4580 -0.9637
 5928SOL     OW29245   0.572   1.068   3.018  0.1586 -0.6156  0.1226
 5928SOL    HW129246   0.638   1.071   2.949  3.0143 -0.7038  2.8048
 5928SOL    HW229247   0.565   0.976   3.046 -1.0496 -0.8185 -0.8578
 5929SOL     OW29248   1.948   4.309  13.803 -0.6671 -0.6946 -0.4347
 5929SOL    HW129249   1.993   4.231  13.833  1.0729  0.5232  0.1462
 5929SOL    HW229250   2.017   4.376  13.811  0.7307 -1.8973 -2.5450
 5930SOL     OW29251   1.294   1.650   7.952  0.1072 -0.3280  0.4002
 5930SOL    HW129252   1.326   1.571   7.908 -1.3354 -0.1241 -1.0037
 5930SOL    HW229253   1.364   1.715   7.954  0.2661 -0.5670  2.3608
 5931SOL     OW29254   2.763   3.459   4.725 -0.0632  0.7732  0.0141
 5931SOL    HW129255   2.828   3.446   4.656 -0.2692 -3.5484  0.6283
 5931SOL    HW229256   2.688   3.415   4.686 -0.9607  1.2464  1.2142
 5932SOL     OW29257   2.492   1.145   3.547  0.3877 -0.1980  0.3410
 5932SOL    HW129258   2.429   1.216   3.559  1.7958  1.2598 -1.0028
 5932SOL    HW229259   2.538   1.169   3.467 -0.3816 -1.0870 -0.3829
 5933SOL     OW29260   4.525   4.391   2.535  0.0092 -0.4694 -0.4986
 5933SOL    HW129261   4.437   4.419   2.513 -0.6059 -3.7448 -2.1299
 5933SOL    HW229262   4.561   4.370   2.449 -0.2153  1.7831 -1.1318
 5934SOL     OW29263   0.007   3.584   4.868 -0.1149  0.1609 -0.2159
 5934SOL    HW129264   0.044   3.667   4.835  0.6864 -0.2851 -0.4439
 5934SOL    HW229265   4.643   3.596   4.826 -1.4736  1.0172  2.8473
 5935SOL     OW29266   2.831   2.126   2.522  0.1519 -0.5814 -0.2131
 5935SOL    HW129267   2.909   2.180   2.533  0.2064 -0.3469 -1.7409
 5935SOL    HW229268   2.762   2.191   2.521  0.4054 -0.3395 -2.0240
 5936SOL     OW29269   1.085   4.116   7.210 -0.6875  0.0167 -0.1183
 5936SOL    HW129270   1.008   4.078   7.251  0.9372 -0.2282  2.6650
 5936SOL    HW229271   1.157   4.083   7.262 -0.7121  1.4104  0.8118
 5937SOL     OW29272   4.353   4.648  16.321  0.2257 -0.2046 -1.0155
 5937SOL    HW129273   4.382   0.014  16.347 -0.3212  0.2184 -1.8143
 5937SOL    HW229274   4.427   4.616  16.270  1.4162 -1.0004  1.2256
 5938SOL     OW29275   4.098   0.038   1.119 -0.1532 -0.2360  0.7958
 5938SOL    HW129276   4.054   0.047   1.034  0.5084 -0.0767  0.4703
 5938SOL    HW229277   4.077   0.123   1.158 -0.4134  0.8844 -1.7584
 5939SOL     OW29278   1.352   0.913   2.158 -0.2186  0.1525 -0.2982
 5939SOL    HW129279   1.313   0.838   2.203 -2.3871  1.7457  0.4905
 5939SOL    HW229280   1.280   0.973   2.178  1.0074  1.5557 -0.0593
 5940SOL     OW29281   3.979   0.852  12.403 -0.0361 -0.0300 -0.1368
 5940SOL    HW129282   4.048   0.809  12.455  0.8374 -1.3976 -2.4329
 5940SOL    HW229283   4.023   0.872  12.321 -1.5191 -0.1818 -0.9636
 5941SOL     OW29284   2.255   0.221   2.945  0.5608 -0.0001 -0.1740
 5941SOL    HW129285   2.283   0.223   2.854  0.9054  2.3615  0.0031
 5941SOL    HW229286   2.273   0.129   2.966 -1.3483 -0.4850 -0.5913
 5942SOL     OW29287   2.796   2.499   4.983  0.0730  0.5987 -0.4698
 5942SOL    HW129288   2.889   2.491   4.962  0.2327  1.5938 -0.1388
 5942SOL    HW229289   2.791   2.511   5.078 -0.4664 -2.3683 -0.1392
 5943SOL     OW29290   1.229   1.036   0.647  0.3300  0.3745  0.6212
 5943SOL    HW129291   1.226   1.029   0.742 -1.7412  2.3501  0.7151
 5943SOL    HW229292   1.193   1.125   0.641 -0.0467  0.1500 -0.4813
 5944SOL     OW29293   0.097   2.231  13.623  0.2581  0.3017  0.1957
 5944SOL    HW129294   0.084   2.148  13.578  2.5187  0.0307  0.0030
 5944SOL    HW229295   0.055   2.211  13.706 -1.9739 -2.2800 -1.5600
 5945SOL     OW29296   3.137   0.106   6.118  0.2071  0.2942  0.6983
 5945SOL    HW129297   3.123   0.028   6.171 -1.5751  0.5241  0.5867
 5945SOL    HW229298   3.084   0.167   6.170  0.7479  1.9339 -0.6681
 5946SOL     OW29299   4.418   2.576   5.282 -0.4343  0.0582  0.0852
 5946SOL    HW129300   4.468   2.554   5.360  2.5259  2.2821 -1.1680
 5946SOL    HW229301   4.351   2.636   5.315 -0.2321  0.7115 -0.6698
 5947SOL     OW29302   2.079   1.971  10.428 -0.5000  0.1775  0.1665
 5947SOL    HW129303   2.051   1.891  10.472  0.0274  0.2078  0.5434
 5947SOL    HW229304   2.162   1.944  10.390 -0.7191 -0.9355  0.4641
 5948SOL     OW29305   3.319   2.185  17.410  0.3511 -0.2138  0.0688
 5948SOL    HW129306   3.350   2.125  17.342  0.6422  0.0478 -0.0308
 5948SOL    HW229307   3.341   2.273  17.381  2.9259 -0.2438  1.9076
 5949SOL     OW29308   1.792   0.972  16.619 -0.4594  0.6408  0.3372
 5949SOL    HW129309   1.757   0.884  16.631  1.0778 -0.4283 -3.2263
 5949SOL    HW229310   1.838   0.963  16.536 -2.1123  2.0007 -0.7225
 5950SOL     OW29311   1.294   3.267   3.935  0.0637  0.0955 -0.1558
 5950SOL    HW129312   1.308   3.177   3.905  0.3206  0.2854 -0.6040
 5950SOL    HW229313   1.304   3.265   4.030 -1.3896  1.0737  0.0205
 5951SOL     OW29314   1.216   4.292   9.971  0.5788  0.1567 -0.3293
 5951SOL    HW129315   1.305   4.326   9.985  1.1569 -1.0815 -1.0738
 5951SOL    HW229316   1.161   4.350  10.024  0.0567 -1.2618  0.6802
 5952SOL     OW29317   1.310   2.651  14.732  0.5207 -0.2865 -0.0020
 5952SOL    HW129318   1.273   2.570  14.697  1.3954 -2.0200  3.0978
 5952SOL    HW229319   1.365   2.601  14.792  2.8935  0.5528 -1.5046
 5953SOL     OW29320   2.201   4.063  11.559 -0.5206  0.0749 -0.0795
 5953SOL    HW129321   2.206   4.007  11.481  0.4355  0.8108 -0.5419
 5953SOL    HW229322   2.207   4.152  11.524  0.0449 -0.3777 -1.1379
 5954SOL     OW29323   1.811   1.015   9.165  0.3087 -0.1124  0.1673
 5954SOL    HW129324   1.820   1.085   9.229  0.0103  0.5729 -0.5384
 5954SOL    HW229325   1.742   0.965   9.209  0.8249  0.6698  1.8684
 5955SOL     OW29326   0.114   4.508   3.789  0.1681  0.0970 -0.3821
 5955SOL    HW129327   0.147   4.597   3.801 -1.2365  0.3183  1.8130
 5955SOL    HW229328   0.183   4.464   3.739  0.9575  1.4314 -0.4961
 5956SOL     OW29329   1.713   4.021   4.474  0.2456 -0.1534  0.3056
 5956SOL    HW129330   1.716   4.106   4.429  1.7501  0.4670  1.5889
 5956SOL    HW229331   1.664   4.047   4.552 -1.4233 -0.2220 -0.6979
 5957SOL     OW29332   0.731   1.146   3.990 -0.1262 -0.0387 -0.1671
 5957SOL    HW129333   0.639   1.122   4.001 -0.0372  0.7558  2.1049
 5957SOL    HW229334   0.753   1.104   3.907  1.3567 -0.6828  0.5504
 5958SOL     OW29335   2.964   2.834  12.007  0.3909 -0.0357 -0.5603
 5958SOL    HW129336   3.022   2.778  12.058  1.5425 -0.0186 -1.8340
 5958SOL    HW229337   2.935   2.889  12.079  0.2892  0.1627 -0.7523
 5959SOL     OW29338   1.663   3.240  17.098 -0.8861 -0.3746  0.0874
 5959SOL    HW129339   1.756   3.264  17.106 -1.1984  1.5531 -1.9418
 5959SOL    HW229340   1.619   3.325  17.087  0.9294  0.5512 -0.1385
 5960SOL     OW29341   0.605   0.564   4.520  0.0243 -0.0076 -0.4465
 5960SOL    HW129342   0.623   0.521   4.603  1.1632  2.1234  0.4083
 5960SOL    HW229343   0.614   0.496   4.453 -0.2999  0.0113 -0.5132
 5961SOL     OW29344   2.117   1.622   2.169  0.4243 -0.9358 -0.9141
 5961SOL    HW129345   2.078   1.551   2.118  1.7106 -1.3874 -1.2757
 5961SOL    HW229346   2.213   1.614   2.166  0.2338 -3.4350 -0.9226
 5962SOL     OW29347   3.410   3.802  12.842 -0.1220  0.5101  0.0606
 5962SOL    HW129348   3.464   3.771  12.915  1.4245 -3.5643 -2.7923
 5962SOL    HW229349   3.462   3.768  12.770 -0.2827  0.6819 -0.1355
 5963SOL     OW29350   3.374   2.396  12.732 -0.2068 -0.5458  0.5632
 5963SOL    HW129351   3.390   2.331  12.801  0.1896  0.2054  1.1797
 5963SOL    HW229352   3.465   2.415  12.708 -0.1030 -0.2846  1.1604
 5964SOL     OW29353   2.926   0.609  14.659  0.0686  0.0956 -0.1099
 5964SOL    HW129354   2.884   0.689  14.629  1.5132  0.1858 -1.8919
 5964SOL    HW229355   2.919   0.562  14.575  0.7183 -0.6929  0.2844
 5965SOL     OW29356   4.596   3.254   3.676  0.5031 -0.0315  0.4242
 5965SOL    HW129357   4.645   3.331   3.648  0.0785 -0.2042 -0.8030
 5965SOL    HW229358   4.665   3.200   3.713  1.0830  0.4266  0.0028
 5966SOL     OW29359   4.291   2.640  11.047 -0.0626  0.0541 -0.4188
 5966SOL    HW129360   4.245   2.676  10.971  0.9746  2.6612  0.1992
 5966SOL    HW229361   4.216   2.609  11.097  1.7928 -3.0524  0.4464
 5967SOL     OW29362   2.754   3.628  12.084  0.3183 -0.0703 -0.8273
 5967SOL    HW129363   2.747   3.723  12.087 -1.5058 -0.1586 -2.0186
 5967SOL    HW229364   2.692   3.604  12.015 -0.7671 -0.4842  0.3056
 5968SOL     OW29365   3.252   0.692   3.073 -0.1462 -0.1903 -0.2268
 5968SOL    HW129366   3.304   0.612   3.069  0.4952  0.0213  3.4658
 5968SOL    HW229367   3.217   0.697   2.985 -1.5716  1.4915  0.4395
 5969SOL     OW29368   0.771   1.845  10.367 -0.5990 -0.0641 -0.2599
 5969SOL    HW129369   0.797   1.758  10.337 -0.5020 -0.7596  1.7930
 5969SOL    HW229370   0.694   1.823  10.420 -0.3813 -0.9407 -0.3095
 5970SOL     OW29371   4.133   2.308  17.037  0.0635  0.3001 -0.0128
 5970SOL    HW129372   4.135   2.244  17.108 -0.2871 -1.8660 -1.9253
 5970SOL    HW229373   4.051   2.284  16.994  0.1976  1.1918 -0.7763
 5971SOL     OW29374   2.121   0.279   4.932 -0.3176 -0.1337 -0.1926
 5971SOL    HW129375   2.103   0.318   4.846 -0.8621 -2.1612 -0.9992
 5971SOL    HW229376   2.047   0.220   4.921 -1.0520  0.6724  0.4355
 5972SOL     OW29377   0.380   4.557   1.387  0.6436  0.0202 -0.3308
 5972SOL    HW129378   0.284   4.557   1.379  0.4879  0.3626  1.6858
 5972SOL    HW229379   0.399   4.463   1.383  0.3848 -0.0313 -0.4013
 5973SOL     OW29380   1.448   2.498  14.947  0.5633 -0.2124 -0.3343
 5973SOL    HW129381   1.408   2.490  15.033 -0.8701 -0.7895 -1.0600
 5973SOL    HW229382   1.500   2.418  14.947 -1.2518 -1.4077 -1.6849
 5974SOL     OW29383   1.286   3.657   9.557  0.3655 -0.2496  0.1981
 5974SOL    HW129384   1.372   3.617   9.569  0.0034 -0.9243  0.5497
 5974SOL    HW229385   1.283   3.723   9.626  0.6747  2.7246 -2.6657
 5975SOL     OW29386   4.646   3.948   6.503 -0.3473  0.2647 -0.5546
 5975SOL    HW129387   4.633   3.860   6.539 -0.6431  0.3985 -0.3418
 5975SOL    HW229388   4.699   3.933   6.424 -0.2020  3.4003 -1.0578
 5976SOL     OW29389   2.070   4.324  13.377 -0.5960  0.7030 -0.4382
 5976SOL    HW129390   2.136   4.364  13.433  1.1278 -0.7743 -1.4305
 5976SOL    HW229391   1.997   4.328  13.439  0.9287  1.9358  1.2712
 5977SOL     OW29392   1.730   1.498   0.285  0.0873 -0.6470 -0.4168
 5977SOL    HW129393   1.760   1.407   0.287  3.1715  0.3904  0.7120
 5977SOL    HW229394   1.806   1.557   0.280 -0.8688  0.3048 -3.7806
 5978SOL     OW29395   0.685   0.005   1.626 -0.2744 -0.0177 -0.2391
 5978SOL    HW129396   0.646   4.716   1.539 -2.6161  0.6220  0.7483
 5978SOL    HW229397   0.745   0.080   1.623 -0.4215  0.0622 -1.3115
 5979SOL     OW29398   2.550   2.899   5.612 -0.3920 -0.0241  0.1084
 5979SOL    HW129399   2.462   2.926   5.639 -1.2696 -1.0698 -1.6510
 5979SOL    HW229400   2.584   2.838   5.677  1.6968  1.1659  0.1248
 5980SOL     OW29401   0.282   4.261   8.777  0.1768 -0.6541 -0.6959
 5980SOL    HW129402   0.296   4.219   8.692 -0.9768 -0.1795 -1.1200
 5980SOL    HW229403   0.275   4.354   8.756 -1.5552 -0.5796  0.1661
 5981SOL     OW29404   1.219   3.429   3.641 -0.5680  0.0887 -0.0214
 5981SOL    HW129405   1.238   3.518   3.611  0.0647 -0.8363 -2.3597
 5981SOL    HW229406   1.175   3.458   3.721 -0.2733  0.0577  0.1498
 5982SOL     OW29407   4.313   0.404   7.764  0.0774 -0.2318 -0.0461
 5982SOL    HW129408   4.363   0.357   7.831 -0.5320 -0.9344 -0.0816
 5982SOL    HW229409   4.247   0.448   7.817 -0.1416 -1.9398  1.1106
 5983SOL     OW29410   0.059   1.510   3.938 -0.2254  0.0796 -0.5330
 5983SOL    HW129411   0.067   1.526   3.844 -0.9719  2.8926 -0.0970
 5983SOL    HW229412   0.120   1.437   3.949  0.0095  0.4276  0.4642
 5984SOL     OW29413   1.386   3.775  16.357  0.0088 -0.0500  0.3568
 5984SOL    HW129414   1.314   3.732  16.403 -0.7573  2.3890  1.4058
 5984SOL    HW229415   1.348   3.861  16.342  2.1360  0.7728 -0.3892
 5985SOL     OW29416   1.279   2.989  14.171 -0.1526 -0.0177 -0.1364
 5985SOL    HW129417   1.293   2.936  14.249  1.9967 -2.8675 -2.4566
 5985SOL    HW229418   1.326   3.068  14.199  0.4570 -1.4346  2.8141
 5986SOL     OW29419   4.047   3.718  10.192  0.2038  0.6201  0.2573
 5986SOL    HW129420   4.116   3.785  10.187  0.2081  0.3943 -2.5031
 5986SOL    HW229421   4.015   3.735  10.281  1.5164  0.4098  0.7699
 5987SOL     OW29422   3.884   4.234  11.357 -0.1096 -0.3366 -0.4664
 5987SOL    HW129423   3.922   4.219  11.270 -1.1184  0.2827 -1.0008
 5987SOL    HW229424   3.941   4.310  11.371 -1.1431  0.4839 -0.7555
 5988SOL     OW29425   3.349   0.518   5.085  0.4577  0.3347 -0.1242
 5988SOL    HW129426   3.362   0.484   5.173 -0.3220  1.1538  0.3064
 5988SOL    HW229427   3.262   0.478   5.076 -0.2313  2.1479 -1.4851
 5989SOL     OW29428   2.499   4.689   9.557 -0.5421  0.2978  0.0808
 5989SOL    HW129429   2.495   4.619   9.622 -1.9440  0.1530 -0.1516
 5989SOL    HW229430   2.453   0.042   9.598 -0.9538  1.4941 -2.5589
 5990SOL     OW29431   0.005   3.749  10.515  0.2314  0.4841 -0.4214
 5990SOL    HW129432   0.078   3.734  10.455  0.3070 -1.9278  0.2896
 5990SOL    HW229433   0.016   3.843  10.530 -0.4813  0.7787 -1.7861
 5991SOL     OW29434   0.569   2.356   4.004 -0.0762 -0.5291  0.6093
 5991SOL    HW129435   0.489   2.319   4.041 -0.5955  0.4416  0.4488
 5991SOL    HW229436   0.602   2.283   3.952 -0.8863 -1.8556  1.9449
 5992SOL     OW29437   2.116   1.536   8.275 -0.0115 -0.0798  0.2562
 5992SOL    HW129438   2.024   1.511   8.263  0.4143 -1.7218  0.4152
 5992SOL    HW229439   2.115   1.629   8.298 -0.8621 -0.3271  1.2461
 5993SOL     OW29440   4.180   3.668   2.840 -0.4355 -0.2543 -0.2017
 5993SOL    HW129441   4.155   3.679   2.932 -1.4944  0.1434 -0.5331
 5993SOL    HW229442   4.203   3.576   2.850 -0.1780 -0.2065 -0.3727
 5994SOL     OW29443   0.419   3.346   8.063  0.2441 -0.2493 -0.2700
 5994SOL    HW129444   0.413   3.302   8.148  0.9415  0.5286  0.1791
 5994SOL    HW229445   0.510   3.346   8.033  0.1656 -2.7174 -0.5495
 5995SOL     OW29446   2.444   3.292  12.488  0.0617  0.3895  0.1287
 5995SOL    HW129447   2.361   3.267  12.528  0.6833 -0.3043  0.9807
 5995SOL    HW229448   2.509   3.241  12.537  0.8330 -0.6449 -1.9477
 5996SOL     OW29449   0.330   0.613   3.716 -0.1763 -0.3370 -0.3675
 5996SOL    HW129450   0.282   0.539   3.678 -2.1271 -0.9208  3.2157
 5996SOL    HW229451   0.340   0.587   3.808  1.6745 -2.1090 -1.0733
 5997SOL     OW29452   2.700   4.472   6.773 -0.0720 -0.1277  0.3509
 5997SOL    HW129453   2.692   4.430   6.687 -0.7019 -2.3024  1.4447
 5997SOL    HW229454   2.787   4.507   6.756 -1.1257  2.8917  1.1744
 5998SOL     OW29455   1.536   2.916   3.915 -0.4980 -0.0020 -0.1299
 5998SOL    HW129456   1.596   2.874   3.853 -0.4029  0.0877 -0.0992
 5998SOL    HW229457   1.566   3.004   3.889  0.2720 -0.4737 -0.8536
 5999SOL     OW29458   3.545   2.378   4.286 -0.1537 -0.3061 -0.5090
 5999SOL    HW129459   3.538   2.390   4.381  1.2876 -0.1654 -0.4336
 5999SOL    HW229460   3.490   2.446   4.247 -2.0685 -1.5031  0.0938
 6000SOL     OW29461   3.954   0.560   3.272 -0.7077 -0.0626  0.4715
 6000SOL    HW129462   3.890   0.590   3.336  0.2843  1.8453  0.5681
 6000SOL    HW229463   3.965   0.638   3.218  5.4971  0.2312  2.2047
 6001SOL     OW29464   3.167   0.159   0.179  0.0076  0.4847  0.0407
 6001SOL    HW129465   3.119   0.143   0.260 -1.0392 -0.9228 -0.8412
 6001SOL    HW229466   3.122   0.240   0.158 -0.9304 -0.2459 -0.7885
 6002SOL     OW29467   3.831   0.824   2.600  0.2349 -0.1837  0.0917
 6002SOL    HW129468   3.836   0.807   2.506 -1.1263 -2.5683  0.4662
 6002SOL    HW229469   3.744   0.864   2.608 -1.1024 -3.1048  0.2672
 6003SOL     OW29470   3.951   0.175   2.664  0.0298 -0.2957  0.2455
 6003SOL    HW129471   3.858   0.197   2.670 -0.1962 -0.8888 -1.0680
 6003SOL    HW229472   3.985   0.197   2.751 -1.5492  0.3757  0.6988
 6004SOL     OW29473   2.811   2.857   6.413  0.2668  0.1477 -0.1149
 6004SOL    HW129474   2.774   2.902   6.338 -2.5572 -1.9095  0.0509
 6004SOL    HW229475   2.838   2.776   6.370  0.4306  0.6035 -0.8617
 6005SOL     OW29476   3.437   0.867   0.758 -0.2455  0.3619 -0.0805
 6005SOL    HW129477   3.407   0.914   0.836 -1.4239 -2.6427  1.2824
 6005SOL    HW229478   3.376   0.794   0.749  0.6437 -0.6355  1.7534
 6006SOL     OW29479   1.649   1.920   4.740 -0.0828  0.2459 -0.4583
 6006SOL    HW129480   1.723   1.860   4.726  2.1869  2.8546  0.3210
 6006SOL    HW229481   1.623   1.885   4.825  1.7095  0.4036  0.1552
 6007SOL     OW29482   3.667   3.429   7.641  0.1283 -0.2531  0.4046
 6007SOL    HW129483   3.622   3.497   7.692  0.2864 -1.2320  1.8451
 6007SOL    HW229484   3.757   3.432   7.676  1.3277 -2.2520 -2.5627
 6008SOL     OW29485   0.423   0.754   2.524 -0.6353 -0.2857  0.2537
 6008SOL    HW129486   0.387   0.810   2.455  0.8534 -0.8582 -1.0033
 6008SOL    HW229487   0.399   0.816   2.593  1.3532 -0.8990  1.4992
 6009SOL     OW29488   3.792   2.870   2.681 -0.3679 -0.3080 -0.4996
 6009SOL    HW129489   3.794   2.801   2.747 -0.2124 -0.1872 -0.3789
 6009SOL    HW229490   3.836   2.947   2.717 -0.8301 -0.7459  1.0111
 6010SOL     OW29491   0.240   1.720   8.332  0.4546  0.5572  0.2468
 6010SOL    HW129492   0.243   1.754   8.242 -1.2617  0.3706  0.1238
 6010SOL    HW229493   0.221   1.806   8.369  1.1351  0.9304 -0.2577
 6011SOL     OW29494   1.077   0.978  12.507 -0.0264 -0.4628  0.4143
 6011SOL    HW129495   1.077   1.036  12.431 -2.2127 -0.5728  0.3181
 6011SOL    HW229496   1.170   0.961  12.518  0.1756  0.2129 -0.2258
 6012SOL     OW29497   1.564   0.405   2.554  0.1849  0.1736 -0.0280
 6012SOL    HW129498   1.491   0.358   2.514 -0.8492  2.3493 -0.7129
 6012SOL    HW229499   1.548   0.493   2.519  1.2354  0.8692  1.2595
 6013SOL     OW29500   2.953   0.055   1.166  1.2351 -0.1524 -0.3958
 6013SOL    HW129501   2.865   0.053   1.129  1.1030  1.7584 -0.1880
 6013SOL    HW229502   3.011   0.047   1.090  2.0915  0.0448  0.2339
 6014SOL     OW29503   1.410   1.944  14.661 -0.4815  0.2730 -0.5750
 6014SOL    HW129504   1.377   1.992  14.736 -1.0880  1.2006 -1.4351
 6014SOL    HW229505   1.344   1.875  14.649 -1.4854  1.1051  0.2378
 6015SOL     OW29506   1.778   0.141   5.505 -0.1060 -0.5538  0.0559
 6015SOL    HW129507   1.809   0.230   5.520  1.9782 -1.0530 -1.3309
 6015SOL    HW229508   1.830   0.089   5.567 -0.5893 -1.2479 -0.1254
 6016SOL     OW29509   3.443   3.024   0.133  0.4439  0.1029  0.3434
 6016SOL    HW129510   3.466   2.969   0.058  0.4954  0.1268  0.3412
 6016SOL    HW229511   3.348   3.014   0.132  0.3662  0.9080  0.0030
 6017SOL     OW29512   4.301   1.160  14.650 -0.1413  0.1140 -0.3757
 6017SOL    HW129513   4.305   1.105  14.572 -0.6776  0.2911 -0.5299
 6017SOL    HW229514   4.262   1.241  14.618  0.3570  0.4246 -0.1903
 6018SOL     OW29515   1.263   3.291   8.843  0.2917  0.3847 -0.0144
 6018SOL    HW129516   1.337   3.279   8.784  0.5843 -0.9968  0.6229
 6018SOL    HW229517   1.208   3.358   8.802  0.2372 -0.0980 -0.7300
 6019SOL     OW29518   2.942   1.610  11.767  0.8503 -0.7673 -0.0358
 6019SOL    HW129519   2.909   1.530  11.808 -0.7950  0.4104  0.9151
 6019SOL    HW229520   2.935   1.592  11.673 -0.4752  1.4687 -0.3620
 6020SOL     OW29521   0.395   3.924  15.186 -0.6545 -0.2643 -0.3182
 6020SOL    HW129522   0.382   3.927  15.091  0.3269  0.9204 -0.4209
 6020SOL    HW229523   0.350   3.841  15.201  0.3517 -0.9211 -0.8551
 6021SOL     OW29524   4.643   2.512   5.424  0.5271  0.0836 -0.6690
 6021SOL    HW129525   4.649   2.490   5.517  0.6333  2.1002 -0.1938
 6021SOL    HW229526   4.712   2.574   5.402  1.1412 -1.1082 -2.0608
 6022SOL     OW29527   1.621   3.739  17.326  0.1066  0.0997 -0.5371
 6022SOL    HW129528   1.714   3.758  17.334  0.1492 -0.6721  0.7926
 6022SOL    HW229529   1.594   3.815  17.274 -1.6662 -0.0595  0.1476
 6023SOL     OW29530   3.108   2.730  12.502  0.2881  0.3048 -0.1285
 6023SOL    HW129531   3.037   2.776  12.548 -0.1571 -1.4192  0.9079
 6023SOL    HW229532   3.154   2.705  12.582  0.8039 -1.2520 -0.9133
 6024SOL     OW29533   3.895   4.356   2.939 -0.1431  0.3886 -0.0151
 6024SOL    HW129534   3.973   4.400   2.975  0.5800 -1.3683  0.5930
 6024SOL    HW229535   3.830   4.361   3.009 -1.3197  2.7148 -1.2635
 6025SOL     OW29536   2.109   0.132   8.780 -0.1649 -0.1233 -0.5993
 6025SOL    HW129537   2.074   0.102   8.697  1.4036 -1.0333 -0.9198
 6025SOL    HW229538   2.104   0.228   8.783 -2.9776 -0.1917 -3.5661
 6026SOL     OW29539   0.444   1.763  15.871 -0.2024 -0.2280  0.8772
 6026SOL    HW129540   0.422   1.853  15.850  1.5610 -0.0690 -0.3087
 6026SOL    HW229541   0.524   1.755  15.819 -0.9676 -2.9772  0.0722
 6027SOL     OW29542   2.206   0.460  14.805 -0.4864 -0.3880 -0.1965
 6027SOL    HW129543   2.295   0.493  14.799  0.5909 -3.4618 -1.0077
 6027SOL    HW229544   2.221   0.408  14.884  2.6066 -1.8318 -1.7276
 6028SOL     OW29545   1.799   2.312   0.502 -0.1666  0.1605 -1.2010
 6028SOL    HW129546   1.767   2.252   0.570 -0.0020  0.6128 -0.7259
 6028SOL    HW229547   1.717   2.354   0.479 -0.5183  0.9692  1.4964
 6029SOL     OW29548   3.508   1.687   3.743 -0.6333 -1.0022 -0.5063
 6029SOL    HW129549   3.415   1.682   3.720 -0.0409 -2.7242 -2.4995
 6029SOL    HW229550   3.507   1.625   3.816  2.7566  1.0991  1.3240
 6030SOL     OW29551   3.866   2.038  10.259 -0.2245 -0.0884  0.3578
 6030SOL    HW129552   3.894   2.021  10.169 -0.1084 -1.6256  0.6844
 6030SOL    HW229553   3.840   2.129  10.247 -0.8787 -0.4049 -0.5767
 6031SOL     OW29554   0.539   2.832   3.652 -0.0311  0.2535 -0.2005
 6031SOL    HW129555   0.531   2.747   3.609  1.1808  0.6655 -1.2431
 6031SOL    HW229556   0.532   2.801   3.742  0.3337  0.7024 -0.0170
 6032SOL     OW29557   1.686   3.189  16.048  0.7714  0.6998  0.5314
 6032SOL    HW129558   1.709   3.156  15.961  0.1736  0.7994  0.3394
 6032SOL    HW229559   1.594   3.164  16.059  0.1551  1.5024 -2.8110
 6033SOL     OW29560   1.308   0.533   3.960 -0.5071  0.0713  0.4147
 6033SOL    HW129561   1.363   0.463   3.924 -1.5435 -0.1518 -0.7321
 6033SOL    HW229562   1.223   0.516   3.920  0.0892 -0.1411 -0.7768
 6034SOL     OW29563   2.979   4.200   8.245  0.1235  0.2700  0.2911
 6034SOL    HW129564   3.054   4.196   8.186  0.6221 -1.3540  1.0453
 6034SOL    HW229565   2.953   4.108   8.242  1.5189 -0.0580 -1.9281
 6035SOL     OW29566   2.345   2.680   5.858 -0.1476 -0.2165 -0.2386
 6035SOL    HW129567   2.277   2.627   5.816  0.1254 -0.5496 -0.2578
 6035SOL    HW229568   2.338   2.755   5.799  0.5853 -0.0613 -0.1313
 6036SOL     OW29569   3.255   0.073   7.173 -0.1669 -0.2188  0.5194
 6036SOL    HW129570   3.315   0.123   7.228  0.9495 -0.6441 -0.2991
 6036SOL    HW229571   3.294   0.097   7.089  0.5336  1.0479  1.2075
 6037SOL     OW29572   0.336   3.106  11.404  0.0167  0.4233 -0.1617
 6037SOL    HW129573   0.359   3.069  11.319  0.2537 -0.2886  0.2131
 6037SOL    HW229574   0.254   3.058  11.410 -1.2100  2.4957 -0.4601
 6038SOL     OW29575   2.001   0.026   7.659 -0.2692 -0.1942 -0.1363
 6038SOL    HW129576   2.003   0.113   7.620  1.9962 -0.3660 -0.4140
 6038SOL    HW229577   1.989   0.048   7.751 -0.3046 -0.6944 -0.0165
 6039SOL     OW29578   3.159   1.455   1.344 -0.1734  0.5557 -0.9050
 6039SOL    HW129579   3.142   1.419   1.257  0.1444 -2.6644  0.3808
 6039SOL    HW229580   3.147   1.380   1.402  0.2485  0.7062 -0.6262
 6040SOL     OW29581   3.817   1.235  11.456  0.0274 -0.1161 -0.5184
 6040SOL    HW129582   3.768   1.262  11.533 -2.1579 -0.4800 -1.7921
 6040SOL    HW229583   3.775   1.294  11.393  0.0493 -0.2598 -0.6654
 6041SOL     OW29584   3.303   2.103   4.260 -0.7127 -0.1109 -0.3228
 6041SOL    HW129585   3.303   2.015   4.297 -0.8038  0.0225 -0.0018
 6041SOL    HW229586   3.369   2.099   4.190 -0.2485  1.3416  0.0280
 6042SOL     OW29587   3.266   4.045   3.425 -0.2310 -0.4680  0.7774
 6042SOL    HW129588   3.353   4.060   3.462  0.9423 -1.5339 -1.4628
 6042SOL    HW229589   3.215   4.054   3.505  1.3704  3.3565  1.3401
 6043SOL     OW29590   0.606   1.762   4.204  0.0624  0.3016 -0.5376
 6043SOL    HW129591   0.560   1.749   4.287 -0.2577 -1.4351 -0.9744
 6043SOL    HW229592   0.592   1.856   4.211 -0.2549  0.1470  0.9078
 6044SOL     OW29593   0.396   4.343   8.160  0.4446 -0.2944  0.2218
 6044SOL    HW129594   0.478   4.356   8.209  0.3010  3.2384 -0.4417
 6044SOL    HW229595   0.426   4.312   8.075 -0.9152  1.3684 -0.8687
 6045SOL     OW29596   1.506   0.050   7.943 -0.0635  0.3791  0.0758
 6045SOL    HW129597   1.538   0.104   8.016  1.3343 -0.5026  0.1212
 6045SOL    HW229598   1.546   0.082   7.862  0.4494 -0.3685  0.0315
 6046SOL     OW29599   1.946   1.341   6.020 -0.1670  0.6995  0.3781
 6046SOL    HW129600   1.918   1.427   6.053 -0.5719  1.3655 -1.7095
 6046SOL    HW229601   1.954   1.362   5.927 -1.0446 -0.1790  0.1129
 6047SOL     OW29602   2.715   0.083   1.049  0.1087 -0.0919  0.8337
 6047SOL    HW129603   2.634   0.035   1.065 -0.3987  0.8034  0.9370
 6047SOL    HW229604   2.701   0.112   0.959 -0.8430 -2.8317  0.0968
 6048SOL     OW29605   3.883   2.907   7.542  0.4350  0.1979  0.4190
 6048SOL    HW129606   3.929   2.827   7.565  2.3296  1.4338  0.9608
 6048SOL    HW229607   3.944   2.976   7.570  0.2446  0.2673  0.6648
 6049SOL     OW29608   0.499   0.190   2.114  0.4685  0.2346  0.2113
 6049SOL    HW129609   0.540   0.135   2.181  0.5742 -1.0382 -0.8910
 6049SOL    HW229610   0.511   0.275   2.156  0.6806 -0.6439  1.9230
 6050SOL     OW29611   3.879   2.310   2.216  0.1985  0.1518  0.6462
 6050SOL    HW129612   3.847   2.351   2.136 -0.7398  0.2499  1.0762
 6050SOL    HW229613   3.812   2.244   2.202 -0.7298  1.4954 -1.3460
 6051SOL     OW29614   2.028   4.560   2.743 -0.4007 -0.0208  0.2802
 6051SOL    HW129615   2.059   4.546   2.654  1.0049 -1.2840  0.9528
 6051SOL    HW229616   2.104   4.571   2.800  0.5617 -2.2388 -0.5758
 6052SOL     OW29617   3.536   1.072   1.769  0.4803 -0.1855 -0.3128
 6052SOL    HW129618   3.462   1.112   1.815 -0.4746 -0.8318 -1.2806
 6052SOL    HW229619   3.601   1.141   1.758  0.3335  0.0804  0.5049
 6053SOL     OW29620   1.167   3.750  10.391  0.4427 -0.2045  0.0652
 6053SOL    HW129621   1.262   3.736  10.392  0.4868  0.0788 -0.3806
 6053SOL    HW229622   1.154   3.809  10.465 -0.1734  0.8734 -0.9064
 6054SOL     OW29623   3.447   4.189   8.628 -0.0498  0.1848 -0.3874
 6054SOL    HW129624   3.449   4.122   8.697 -1.0680 -0.1068 -0.6337
 6054SOL    HW229625   3.529   4.158   8.591  0.5634 -0.9684  1.9425
 6055SOL     OW29626   3.956   2.593   4.780  0.1114  0.2635 -0.7110
 6055SOL    HW129627   4.022   2.528   4.804 -0.2104  1.4719  3.4273
 6055SOL    HW229628   3.928   2.636   4.861 -3.1325  0.7788 -2.0959
 6056SOL     OW29629   2.879   1.845   1.393  1.0464  0.1197  0.0415
 6056SOL    HW129630   2.878   1.757   1.355  0.2797 -0.7343  2.0124
 6056SOL    HW229631   2.972   1.848   1.415  0.1610 -0.9187  3.8559
 6057SOL     OW29632   1.041   0.595  16.664  0.1942  0.2994  0.3915
 6057SOL    HW129633   1.002   0.580  16.750  0.8463  1.6734  0.9292
 6057SOL    HW229634   1.008   0.513  16.627  1.7894 -0.6609  1.1137
 6058SOL     OW29635   3.331   1.869   3.325 -0.5509 -0.4962 -0.1204
 6058SOL    HW129636   3.295   1.781   3.316 -0.8255 -0.2434 -1.4509
 6058SOL    HW229637   3.425   1.854   3.327 -0.2113  1.4709 -2.1342
 6059SOL     OW29638   0.232   3.134  10.151 -0.2700  0.2397 -0.2252
 6059SOL    HW129639   0.167   3.194  10.115 -1.9920 -0.7651  1.2355
 6059SOL    HW229640   0.301   3.197  10.174 -1.8131  1.8229  0.0514
 6060SOL     OW29641   3.198   3.976   4.094 -0.4257  0.4836  0.2985
 6060SOL    HW129642   3.223   3.884   4.108  1.7706  0.8412 -1.1606
 6060SOL    HW229643   3.218   3.987   4.000  4.0512 -1.1671  1.0232
 6061SOL     OW29644   0.305   1.346   6.689  0.2513  0.3880 -0.0249
 6061SOL    HW129645   0.263   1.376   6.608 -2.1266 -1.2296  0.5925
 6061SOL    HW229646   0.230   1.341   6.749  0.7620  1.0220  0.6639
 6062SOL     OW29647   3.667   3.189  10.194 -0.0841 -0.0131  0.6152
 6062SOL    HW129648   3.690   3.098  10.213 -0.5542 -0.3274 -0.3707
 6062SOL    HW229649   3.612   3.184  10.116  0.0606 -0.3687  0.5395
 6063SOL     OW29650   1.170   0.562   2.721 -0.5301 -0.1795  0.3240
 6063SOL    HW129651   1.195   0.479   2.763 -1.3573 -0.5036  0.1645
 6063SOL    HW229652   1.199   0.621   2.790 -0.4972  0.3266 -0.1206
 6064SOL     OW29653   3.482   0.236   6.154 -0.3907  0.1096 -0.3035
 6064SOL    HW129654   3.559   0.293   6.147  2.2781 -3.5685 -0.4895
 6064SOL    HW229655   3.433   0.278   6.224 -1.4040 -1.2955 -0.1757
 6065SOL     OW29656   1.911   3.081   3.918  0.5633 -0.0294 -0.0852
 6065SOL    HW129657   1.818   3.091   3.941  0.0296 -1.0885 -1.7314
 6065SOL    HW229658   1.932   3.169   3.889 -0.0042  0.0194 -0.3609
 6066SOL     OW29659   1.065   4.033  17.582  0.3938 -0.0772  0.0053
 6066SOL    HW129660   1.031   4.083  17.657 -0.7579  0.4844 -0.9014
 6066SOL    HW229661   0.992   3.974  17.561 -1.6432  2.4665  0.0342
 6067SOL     OW29662   1.969   2.651   6.491 -0.1435 -0.0068 -0.2220
 6067SOL    HW129663   1.991   2.706   6.415 -0.8993  0.3956 -0.1486
 6067SOL    HW229664   2.040   2.587   6.487 -1.1153 -1.0860 -0.1152
 6068SOL     OW29665   3.408   0.341   6.418 -0.2153  0.4014 -0.7817
 6068SOL    HW129666   3.490   0.315   6.460 -1.0950 -1.2568 -0.0667
 6068SOL    HW229667   3.361   0.257   6.424  0.7283 -0.0591  0.0373
 6069SOL     OW29668   1.479   1.464  13.707 -0.4989  0.0155 -0.4813
 6069SOL    HW129669   1.562   1.463  13.756  1.0408 -3.1591 -3.1008
 6069SOL    HW229670   1.461   1.557  13.712 -1.7085 -0.2608  0.1151
 6070SOL     OW29671   2.188   2.278   3.497  0.4144 -0.2248 -0.5770
 6070SOL    HW129672   2.179   2.291   3.403 -1.3396  1.4191 -0.1793
 6070SOL    HW229673   2.107   2.228   3.507 -0.5038  1.4252  0.1431
 6071SOL     OW29674   2.659   1.194   8.972 -0.5560  0.5940  0.2135
 6071SOL    HW129675   2.570   1.200   8.937 -0.2827  0.3786 -0.5155
 6071SOL    HW229676   2.687   1.111   8.935 -1.1408  1.2032 -1.5944
 6072SOL     OW29677   2.208   0.536   0.007  0.2465 -0.3801  0.2044
 6072SOL    HW129678   2.209   0.573   0.095  0.3817  0.3082 -0.0908
 6072SOL    HW229679   2.289   0.485   0.005  0.3527 -0.2048  0.0179
 6073SOL     OW29680   1.541   2.227  14.921 -0.4011  0.0885 -0.2009
 6073SOL    HW129681   1.456   2.187  14.905  0.3571 -1.4784 -0.2670
 6073SOL    HW229682   1.599   2.174  14.867 -0.2879 -0.9854  0.9799
 6074SOL     OW29683   2.097   4.320   9.966 -0.2252 -0.4298 -0.4531
 6074SOL    HW129684   2.191   4.329   9.984 -0.1770  0.4616 -1.1436
 6074SOL    HW229685   2.104   4.240   9.915 -1.0606 -1.3168  0.8206
 6075SOL     OW29686   3.310   2.854   0.507  0.3411  0.3705  0.1246
 6075SOL    HW129687   3.387   2.908   0.491  0.7294 -0.5677 -1.1424
 6075SOL    HW229688   3.307   2.869   0.601  1.9070  2.0732 -0.1039
 6076SOL     OW29689   2.172   2.694   2.332  0.2256 -0.4712 -0.3672
 6076SOL    HW129690   2.233   2.726   2.265 -1.8268  2.8444 -0.6243
 6076SOL    HW229691   2.099   2.663   2.279  0.1876  0.0842 -0.6363
 6077SOL     OW29692   1.054   4.123   6.241 -0.0641 -0.0714 -0.4773
 6077SOL    HW129693   1.021   4.165   6.162  0.7785 -0.2578 -0.9395
 6077SOL    HW229694   0.996   4.163   6.305 -2.4370 -2.7023 -0.9853
 6078SOL     OW29695   3.579   0.854  10.665 -0.5587  0.1899  0.1490
 6078SOL    HW129696   3.490   0.832  10.639 -0.3562 -1.3783  0.7210
 6078SOL    HW229697   3.617   0.768  10.687 -1.0333 -0.7680 -2.7757
 6079SOL     OW29698   1.327   0.491   1.371 -0.1354  0.0898  0.5569
 6079SOL    HW129699   1.358   0.434   1.442  1.2558 -1.2330 -1.1223
 6079SOL    HW229700   1.412   0.531   1.354  0.8980 -1.1731  2.7245
 6080SOL     OW29701   3.612   3.152   8.358 -0.2317  0.5257 -0.1462
 6080SOL    HW129702   3.701   3.126   8.382  0.0035 -0.0384 -1.6621
 6080SOL    HW229703   3.585   3.077   8.305 -0.5860 -0.0624  0.8507
 6081SOL     OW29704   0.599   1.063   8.414  0.0217  0.3326 -0.3019
 6081SOL    HW129705   0.579   1.128   8.481 -0.0791  0.1917 -0.1950
 6081SOL    HW229706   0.561   1.110   8.339  0.1906  0.8273 -0.0726
 6082SOL     OW29707   2.539   1.009  14.435  0.5024 -0.1391  0.0759
 6082SOL    HW129708   2.488   0.947  14.382  0.3753 -0.8008  0.9838
 6082SOL    HW229709   2.624   0.998  14.393  0.3440 -0.7703 -0.0846
 6083SOL     OW29710   4.452   0.082   1.494 -0.5232 -0.0664 -0.0634
 6083SOL    HW129711   4.359   0.083   1.519 -0.9680 -0.2818 -1.6705
 6083SOL    HW229712   4.501   0.099   1.574  0.3321  0.1671 -0.6422
 6084SOL     OW29713   3.574   2.238   6.413  0.5066 -1.0109  0.1156
 6084SOL    HW129714   3.661   2.277   6.419 -0.1339  0.4268 -0.0007
 6084SOL    HW229715   3.603   2.149   6.391  0.5656 -0.4287 -2.2170
 6085SOL     OW29716   1.673   1.428   0.810 -0.4253  0.3975 -0.0720
 6085SOL    HW129717   1.612   1.414   0.883  1.0888  0.0622  1.1271
 6085SOL    HW229718   1.758   1.396   0.841 -0.7286 -0.0631  0.2830
 6086SOL     OW29719   3.990   1.047   3.585 -0.2993  0.0356 -0.4010
 6086SOL    HW129720   3.914   0.993   3.609 -1.1933  1.2747 -0.4425
 6086SOL    HW229721   3.944   1.131   3.584 -0.4234  0.0195  2.9980
 6087SOL     OW29722   4.381   0.993  14.155 -0.2646 -0.1222 -0.0132
 6087SOL    HW129723   4.411   1.083  14.143  0.0345  0.1037  2.4297
 6087SOL    HW229724   4.352   0.981  14.246 -1.5647 -0.5116 -0.4731
 6088SOL     OW29725   0.095   2.030   5.205 -0.8316  0.0516 -0.4601
 6088SOL    HW129726   0.139   2.095   5.260  1.1456  0.6191 -2.7089
 6088SOL    HW229727   0.132   2.046   5.118  1.1045  0.5768  0.4496
 6089SOL     OW29728   1.458   4.146   3.700 -0.0077  0.2685  0.2857
 6089SOL    HW129729   1.504   4.063   3.698 -2.6796 -1.2446  1.0005
 6089SOL    HW229730   1.517   4.187   3.763  0.6304 -1.3961  0.7590
 6090SOL     OW29731   0.595   3.220   0.934 -0.1639 -0.3493 -0.1997
 6090SOL    HW129732   0.508   3.203   0.970  0.2985 -0.5598  0.8022
 6090SOL    HW229733   0.648   3.225   1.013 -1.1378 -0.0842  0.4332
 6091SOL     OW29734   3.405   0.781  16.479 -0.0694  0.5714 -0.1584
 6091SOL    HW129735   3.341   0.843  16.513 -0.2848  0.4281 -0.3002
 6091SOL    HW229736   3.415   0.820  16.392  0.3561 -0.2756 -0.4944
 6092SOL     OW29737   0.292   2.185  10.829  0.7894  0.1956  0.0687
 6092SOL    HW129738   0.236   2.174  10.906 -0.5430  1.4429 -0.7340
 6092SOL    HW229739   0.251   2.122  10.770  0.7860  0.9125 -0.7040
 6093SOL     OW29740   3.602   2.905  10.135  0.0557 -0.6237 -0.1005
 6093SOL    HW129741   3.517   2.892  10.178 -0.1597  0.4307 -0.2076
 6093SOL    HW229742   3.667   2.877  10.199  0.3906  1.9021  0.6506
 6094SOL     OW29743   1.468   2.431  11.657 -0.4085 -0.1859  0.1297
 6094SOL    HW129744   1.387   2.386  11.633 -1.9717  2.7323 -0.1554
 6094SOL    HW229745   1.508   2.435  11.569 -0.6397  0.0105  0.0337
 6095SOL     OW29746   3.689   0.208   2.655 -0.3134 -0.4353  0.1865
 6095SOL    HW129747   3.713   0.139   2.594 -1.4491  0.5137 -1.3379
 6095SOL    HW229748   3.599   0.222   2.624 -0.6996 -2.5153  0.3060
 6096SOL     OW29749   0.411   2.369   7.828 -0.1862  0.1336 -0.4476
 6096SOL    HW129750   0.347   2.317   7.877  0.2510 -2.2121 -2.3673
 6096SOL    HW229751   0.489   2.337   7.875 -1.3183  0.1640  1.4645
 6097SOL     OW29752   2.175   4.507   7.811 -0.0914 -0.2842  0.3042
 6097SOL    HW129753   2.229   4.545   7.742 -0.5335  1.9275  1.1661
 6097SOL    HW229754   2.129   4.444   7.755  0.5663  0.6549 -1.2942
 6098SOL     OW29755   2.042   2.852   3.903  0.0999  0.0071 -0.4916
 6098SOL    HW129756   1.985   2.786   3.940  2.4452 -0.7656  1.7112
 6098SOL    HW229757   1.988   2.931   3.897  2.6666  1.7661 -0.3562
 6099SOL     OW29758   2.362   0.737  11.053  0.1318 -0.0410 -0.0991
 6099SOL    HW129759   2.295   0.774  10.996  0.4170 -0.5341 -0.7523
 6099SOL    HW229760   2.420   0.691  10.993  1.1350 -0.1054  0.9225
 6100SOL     OW29761   0.450   1.909   3.382 -0.2858 -0.1682 -0.3325
 6100SOL    HW129762   0.392   1.837   3.356 -1.1247  0.6884 -0.8322
 6100SOL    HW229763   0.390   1.983   3.373 -0.4553 -0.1524  1.0073
 6101SOL     OW29764   2.897   2.349   3.303 -0.4368 -0.2840  0.3763
 6101SOL    HW129765   2.910   2.429   3.252 -0.5152  1.2356  2.7342
 6101SOL    HW229766   2.883   2.272   3.247 -1.2884 -1.7122  2.5433
 6102SOL     OW29767   3.287   2.796   8.102 -0.5756 -0.1921  0.2094
 6102SOL    HW129768   3.294   2.881   8.146  4.6154 -0.2050 -0.5429
 6102SOL    HW229769   3.256   2.749   8.180  1.4598  0.9956  1.7419
 6103SOL     OW29770   1.990   4.686   9.808  0.7025  0.2073 -0.0060
 6103SOL    HW129771   1.895   4.675   9.795  0.2447  1.7521  1.9806
 6103SOL    HW229772   2.009   4.631   9.884 -0.5216  0.4642  0.4837
 6104SOL     OW29773   1.436   4.477   9.205  0.1370 -0.4317 -0.4937
 6104SOL    HW129774   1.486   4.408   9.249 -1.4652 -0.6633  0.9264
 6104SOL    HW229775   1.481   4.557   9.234 -0.7114 -0.0472 -0.2385
 6105SOL     OW29776   3.245   1.987  10.067  0.3723  0.3404  0.3620
 6105SOL    HW129777   3.226   1.976  10.161 -1.0681  2.6050  0.3430
 6105SOL    HW229778   3.309   2.059  10.070  0.6119  0.2309 -2.1156
 6106SOL     OW29779   1.937   4.295  16.872 -0.2208 -0.0213 -0.5325
 6106SOL    HW129780   2.005   4.301  16.939 -1.4275  2.7209  0.4804
 6106SOL    HW229781   1.962   4.376  16.827 -0.1225 -0.3951 -1.1465
 6107SOL     OW29782   2.474   1.224  11.232 -0.1977  0.0359 -0.2821
 6107SOL    HW129783   2.567   1.208  11.248 -0.4569 -1.3957 -0.1845
 6107SOL    HW229784   2.443   1.226  11.323 -3.0708  0.8619 -1.2798
 6108SOL     OW29785   3.520   3.685   4.508  0.1303  0.1890 -0.3899
 6108SOL    HW129786   3.490   3.620   4.571 -0.2047  1.7343  1.0610
 6108SOL    HW229787   3.455   3.747   4.541  0.3664 -0.6552  1.6544
 6109SOL     OW29788   0.864   0.045  14.263  0.0930 -0.2550 -0.2627
 6109SOL    HW129789   0.929   0.015  14.326 -1.6073 -1.9985  0.6631
 6109SOL    HW229790   0.784   0.057  14.313  0.7161 -0.5469  0.8041
 6110SOL     OW29791   1.374   3.167   7.283  0.5069  0.2010 -0.1069
 6110SOL    HW129792   1.430   3.167   7.205  0.9934  0.0669  0.2381
 6110SOL    HW229793   1.440   3.181   7.351  0.9453 -2.4495  0.0110
 6111SOL     OW29794   3.732   4.400   3.145  0.3656 -0.5599  0.1602
 6111SOL    HW129795   3.662   4.392   3.079 -1.1236 -0.6618  1.7483
 6111SOL    HW229796   3.725   4.492   3.170  1.8917 -0.3289 -0.2983
 6112SOL     OW29797   1.656   1.241   5.477 -0.1847  0.0813 -0.3377
 6112SOL    HW129798   1.600   1.211   5.405  0.5406 -2.8278  0.3217
 6112SOL    HW229799   1.679   1.164   5.528 -0.7225 -0.5318 -1.0181
 6113SOL     OW29800   1.499   0.124   0.290  0.2601 -0.0652 -0.4096
 6113SOL    HW129801   1.579   0.096   0.246  1.3334 -2.2715  2.9719
 6113SOL    HW229802   1.433   0.054   0.282  0.2824 -0.2150  0.7560
 6114SOL     OW29803   4.624   0.306   2.678 -0.5386  0.1985  0.0246
 6114SOL    HW129804   4.644   0.267   2.593  0.7459 -0.0074  0.4283
 6114SOL    HW229805   4.621   0.399   2.653 -2.5020 -0.5390 -2.4625
 6115SOL     OW29806   3.136   3.959   2.201 -0.3395 -0.5187 -0.2934
 6115SOL    HW129807   3.172   3.996   2.282 -1.2803 -1.9404  0.7783
 6115SOL    HW229808   3.138   4.037   2.146  0.9282 -0.8204 -0.6547
 6116SOL     OW29809   0.224   1.024   7.473  0.4403 -0.4258 -0.1437
 6116SOL    HW129810   0.300   1.005   7.527 -0.3252  0.9920  1.4347
 6116SOL    HW229811   0.257   1.111   7.454 -1.3188  0.1613 -0.5077
 6117SOL     OW29812   2.758   1.799   0.691 -0.1537  0.7306 -0.5878
 6117SOL    HW129813   2.851   1.777   0.696 -0.4938 -0.1590  1.9056
 6117SOL    HW229814   2.728   1.718   0.651 -2.2358 -0.3302  3.1060
 6118SOL     OW29815   3.774   4.153   3.266  0.5192 -0.1415 -0.1575
 6118SOL    HW129816   3.744   4.238   3.234  0.0020 -0.6277 -0.9443
 6118SOL    HW229817   3.701   4.129   3.323 -0.2448 -1.0032 -1.5061
 6119SOL     OW29818   0.260   1.832   4.692  0.0508 -0.1636  0.1255
 6119SOL    HW129819   0.298   1.744   4.691 -1.8245 -0.9726  2.3827
 6119SOL    HW229820   0.307   1.875   4.763  0.0746  1.4983 -0.8961
 6120SOL     OW29821   3.446   1.457  14.804 -0.0269 -0.1835  0.6949
 6120SOL    HW129822   3.407   1.544  14.809 -0.6831 -0.5909  2.5073
 6120SOL    HW229823   3.457   1.471  14.710  0.2009  1.7292  1.0067
 6121SOL     OW29824   2.850   3.974   7.285  0.3098  0.1168 -0.1910
 6121SOL    HW129825   2.780   4.013   7.338 -0.6968  0.0022 -1.4395
 6121SOL    HW229826   2.846   4.025   7.205 -1.7083  0.9614  0.4411
 6122SOL     OW29827   4.314   4.478  11.198 -0.0390 -0.0764  0.1918
 6122SOL    HW129828   4.408   4.490  11.210  0.3475 -2.7549 -0.2510
 6122SOL    HW229829   4.288   4.571  11.202  1.1821  0.1665  2.4797
 6123SOL     OW29830   3.904   0.683   0.946 -0.2600 -0.3090 -0.0655
 6123SOL    HW129831   3.857   0.666   1.028 -1.4619  0.2339 -0.6548
 6123SOL    HW229832   3.946   0.767   0.965  1.5708 -0.7574 -2.1472
 6124SOL     OW29833   1.650   2.376   5.931 -0.0096 -0.0618  0.6058
 6124SOL    HW129834   1.665   2.321   6.009  1.5187 -0.7255 -0.1604
 6124SOL    HW229835   1.561   2.343   5.918 -0.3005  1.4341 -1.1464
 6125SOL     OW29836   3.324   2.152   4.549  0.0569 -1.2978 -0.0864
 6125SOL    HW129837   3.403   2.116   4.590 -0.5174 -0.1914  1.9791
 6125SOL    HW229838   3.320   2.101   4.468 -1.7886 -0.8575 -0.2717
 6126SOL     OW29839   3.338   0.971  13.838 -0.4839 -0.2425 -0.3381
 6126SOL    HW129840   3.283   0.959  13.915  1.4123  0.8657  1.1611
 6126SOL    HW229841   3.374   1.055  13.864 -1.3834  0.0623 -0.0732
 6127SOL     OW29842   1.921   2.483   6.217  0.0105 -0.0268  0.2989
 6127SOL    HW129843   1.979   2.556   6.195  0.0300 -0.1743 -0.1466
 6127SOL    HW229844   1.926   2.442   6.130  1.4885  0.1004  0.3154
 6128SOL     OW29845   4.445   2.263  12.761 -0.3002  0.3439 -0.0672
 6128SOL    HW129846   4.412   2.351  12.746  0.5072  0.4255 -1.3973
 6128SOL    HW229847   4.508   2.274  12.832 -0.9916  0.4374  0.5323
 6129SOL     OW29848   2.492   4.481   9.724  0.0654  0.0203  0.3024
 6129SOL    HW129849   2.396   4.485   9.730  0.0285 -1.1264  0.4442
 6129SOL    HW229850   2.512   4.411   9.786  0.5147  1.3036  1.6139
 6130SOL     OW29851   0.926   3.407   6.233 -0.2963 -0.5347 -0.1703
 6130SOL    HW129852   1.004   3.459   6.252 -0.8243  0.2054 -0.0277
 6130SOL    HW229853   0.877   3.405   6.315 -0.1090  1.3818 -0.0121
 6131SOL     OW29854   0.402   2.340   5.242 -0.1801  0.4022  0.1495
 6131SOL    HW129855   0.340   2.342   5.168  0.4672  0.7895 -0.3755
 6131SOL    HW229856   0.355   2.285   5.305  0.2237 -1.5676 -1.2694
 6132SOL     OW29857   2.150   0.108   5.888 -0.2460 -0.5684  0.2497
 6132SOL    HW129858   2.143   0.203   5.892  0.0173 -0.7255  4.2134
 6132SOL    HW229859   2.117   0.079   5.973  3.6184 -0.7139  1.7218
 6133SOL     OW29860   2.747   2.973   9.323  0.0638 -0.7604 -0.0730
 6133SOL    HW129861   2.818   3.014   9.273  0.3431  0.3652  1.2524
 6133SOL    HW229862   2.680   3.022   9.276  0.2127 -0.0888  0.4142
 6134SOL     OW29863   1.848   4.308   4.655 -0.0056 -0.1664 -0.3117
 6134SOL    HW129864   1.796   4.297   4.576 -1.3240  1.7659  0.2812
 6134SOL    HW229865   1.917   4.366   4.623 -0.5858  0.6689 -0.0283
 6135SOL     OW29866   1.064   3.104   4.101 -0.5188  0.2334  0.2895
 6135SOL    HW129867   1.138   3.124   4.045  0.4707 -0.5753  1.3079
 6135SOL    HW229868   1.103   3.081   4.185  3.6594 -0.5228 -1.8950
 6136SOL     OW29869   0.531   4.668  14.025 -0.9041 -0.0012  0.6766
 6136SOL    HW129870   0.491   4.596  14.073 -0.1785 -0.9368 -0.1150
 6136SOL    HW229871   0.490   0.020  14.070  2.7745  1.5838  1.4513
 6137SOL     OW29872   3.086   4.709   4.068 -0.6019  0.1448 -0.2381
 6137SOL    HW129873   3.160   0.038   4.101 -2.5798  1.4201  2.2836
 6137SOL    HW229874   3.072   4.655   4.146  2.0131 -0.7535 -0.4070
 6138SOL     OW29875   0.910   1.522   2.811  1.1096 -0.3443 -0.8900
 6138SOL    HW129876   0.821   1.557   2.810  0.9335 -0.6914  1.4571
 6138SOL    HW229877   0.935   1.532   2.719  0.9204 -1.6732 -1.0831
 6139SOL     OW29878   2.973   3.772   0.042  0.0029 -0.3798  0.0869
 6139SOL    HW129879   2.959   3.771   0.136 -3.0080  2.0020 -0.3405
 6139SOL    HW229880   2.992   3.679   0.038  0.3026 -0.3027 -0.2240
 6140SOL     OW29881   3.114   3.782   3.247  0.3293  0.2652  0.3366
 6140SOL    HW129882   3.060   3.858   3.229  2.3444  1.4016 -0.9161
 6140SOL    HW229883   3.091   3.719   3.179  1.6061  1.1116 -0.8733
 6141SOL     OW29884   2.454   1.864   6.856  0.2263 -0.7386 -0.3835
 6141SOL    HW129885   2.389   1.930   6.882 -0.6715 -1.6375 -0.3414
 6141SOL    HW229886   2.399   1.790   6.881  0.3976 -1.0086 -0.8055
 6142SOL     OW29887   0.479   4.551   3.729  0.2570  0.1860  0.0570
 6142SOL    HW129888   0.465   4.520   3.818  0.7142  0.0925  0.0949
 6142SOL    HW229889   0.404   4.500   3.699 -1.4333  0.3114  3.9852
 6143SOL     OW29890   3.589   4.342   9.752  0.4915  0.2508  0.5179
 6143SOL    HW129891   3.628   4.264   9.713 -1.1834 -1.0722  1.5020
 6143SOL    HW229892   3.504   4.311   9.783  1.9008 -4.9013 -0.8295
 6144SOL     OW29893   1.413   0.394   6.781  0.3212 -0.2691 -0.5448
 6144SOL    HW129894   1.469   0.468   6.805 -1.0020  0.5779 -0.0554
 6144SOL    HW229895   1.362   0.417   6.703 -0.9743 -0.0244  0.3606
 6145SOL     OW29896   3.884   1.250   3.143  0.2636 -0.2651 -0.0130
 6145SOL    HW129897   3.811   1.310   3.132 -0.0291 -1.0732 -2.2678
 6145SOL    HW229898   3.907   1.260   3.236  1.2351 -0.4760 -0.2286
 6146SOL     OW29899   3.467   3.850   2.869 -0.3160  0.6569 -0.3199
 6146SOL    HW129900   3.443   3.903   2.793 -0.6334  0.7574 -0.1477
 6146SOL    HW229901   3.513   3.918   2.920  0.0941 -0.8231  1.2758
 6147SOL     OW29902   3.978   2.132  14.518 -0.6778 -0.3118 -0.5616
 6147SOL    HW129903   4.040   2.180  14.573 -2.6077  0.6310  0.7926
 6147SOL    HW229904   3.912   2.107  14.583  1.5175 -3.1263  0.6164
 6148SOL     OW29905   2.876   3.279  14.931  0.1476  1.0100  0.4324
 6148SOL    HW129906   2.835   3.196  14.904  1.6590 -0.1518  1.6903
 6148SOL    HW229907   2.871   3.267  15.026 -0.8446 -2.2098 -0.0083
 6149SOL     OW29908   3.868   1.247   5.357  0.6628 -0.7633  0.3674
 6149SOL    HW129909   3.921   1.265   5.279 -0.5761 -0.7374 -0.4759
 6149SOL    HW229910   3.933   1.246   5.427 -0.9857  1.5480  1.9218
 6150SOL     OW29911   3.149   1.055  10.817  0.5352 -0.5672  0.4066
 6150SOL    HW129912   3.070   1.017  10.778  0.1152 -0.2582  0.9653
 6150SOL    HW229913   3.117   1.101  10.894  4.0857  1.4171  0.7080
 6151SOL     OW29914   1.938   2.127   5.901 -0.3790  0.8491  0.4684
 6151SOL    HW129915   1.991   2.100   5.976 -1.8391 -2.1108  0.4109
 6151SOL    HW229916   1.913   2.043   5.863  1.1808 -0.5766  2.5741
 6152SOL     OW29917   4.598   1.214   8.978  0.3690  0.6954 -0.0573
 6152SOL    HW129918   4.654   1.143   9.007  0.9302  1.2827  0.2887
 6152SOL    HW229919   4.663   1.270   8.935  0.7096  0.5725  0.3041
 6153SOL     OW29920   2.015   3.459   9.004  0.1817  0.1627 -0.6172
 6153SOL    HW129921   2.004   3.469   9.099 -0.1446  0.3842 -0.6759
 6153SOL    HW229922   2.099   3.414   9.008 -0.2264 -0.4384  1.0387
 6154SOL     OW29923   2.150   1.432  11.461 -0.6264 -0.1118 -0.1716
 6154SOL    HW129924   2.125   1.368  11.395 -0.0249 -0.6558  0.1296
 6154SOL    HW229925   2.223   1.381  11.495 -1.6679 -0.6908  1.2106
 6155SOL     OW29926   4.569   3.449   5.969 -0.2898 -0.3677  0.0028
 6155SOL    HW129927   4.547   3.359   5.942 -2.1175  0.9166 -2.7938
 6155SOL    HW229928   4.481   3.478   5.993  0.0014 -0.6213  1.3960
 6156SOL     OW29929   3.354   1.237  17.552  0.1033 -0.0321 -0.2397
 6156SOL    HW129930   3.404   1.256  17.473 -1.3850 -4.2771 -2.2472
 6156SOL    HW229931   3.348   1.322  17.595 -1.8715 -0.6726  0.7732
 6157SOL     OW29932   2.629   1.731   0.349  0.2281 -0.0742 -0.3903
 6157SOL    HW129933   2.606   1.777   0.268 -2.7424  1.4546  1.3392
 6157SOL    HW229934   2.582   1.778   0.417  0.8812  0.3429 -0.2164
 6158SOL     OW29935   0.808   2.919  15.258 -0.5534  0.2981 -0.1062
 6158SOL    HW129936   0.734   2.958  15.304  0.8891  0.9553  1.6996
 6158SOL    HW229937   0.842   2.862  15.327 -1.0967 -3.0765 -2.6562
 6159SOL     OW29938   2.739   2.853   2.266  0.1470  0.1520  0.0380
 6159SOL    HW129939   2.774   2.808   2.189 -0.9079 -3.6618  1.7681
 6159SOL    HW229940   2.683   2.786   2.305  0.6008 -1.2423 -1.6899
 6160SOL     OW29941   1.909   3.237  12.433 -0.0041 -0.1335  0.5331
 6160SOL    HW129942   1.910   3.305  12.366  0.8349  0.5714  1.2650
 6160SOL    HW229943   1.815   3.229  12.451 -0.2510 -1.9396 -1.6663
 6161SOL     OW29944   4.614   2.776   7.806 -0.4928  0.4281 -0.2649
 6161SOL    HW129945   4.685   2.838   7.790  0.1899 -0.7766 -1.9360
 6161SOL    HW229946   4.644   2.732   7.886 -0.8721  1.2037  0.3072
 6162SOL     OW29947   4.413   0.985  15.836  0.3879  0.0414 -0.0478
 6162SOL    HW129948   4.395   0.935  15.756  0.1019  0.2605 -0.1221
 6162SOL    HW229949   4.436   1.071  15.799  0.9818 -0.2708 -0.4009
 6163SOL     OW29950   2.930   3.624   6.851 -0.1418  0.6472  0.6505
 6163SOL    HW129951   2.958   3.535   6.875 -1.5378 -0.4421 -1.7446
 6163SOL    HW229952   3.015   3.666   6.844 -0.4358  0.8055 -2.0006
 6164SOL     OW29953   4.645   3.212   8.803  0.9556 -0.5209 -0.4439
 6164SOL    HW129954   4.558   3.183   8.829  0.6473  2.4954  1.8768
 6164SOL    HW229955   4.676   3.141   8.747  1.2124 -1.4101  0.8379
 6165SOL     OW29956   0.264   3.199  16.898 -0.5059  0.3433 -0.0874
 6165SOL    HW129957   0.355   3.200  16.866 -0.9236 -1.6896 -1.3921
 6165SOL    HW229958   0.282   3.215  16.991 -0.6165  1.1988 -0.2191
 6166SOL     OW29959   3.863   2.052   5.501  0.2456 -0.1369  0.0171
 6166SOL    HW129960   3.832   2.028   5.588 -0.8930  1.3429  0.0121
 6166SOL    HW229961   3.834   2.143   5.499  3.4567  0.8375 -3.3585
 6167SOL     OW29962   3.218   1.814   5.174  1.0548  0.3747 -0.3632
 6167SOL    HW129963   3.171   1.735   5.146  0.4585  0.9788 -1.0624
 6167SOL    HW229964   3.307   1.780   5.163  1.1871  1.6513 -3.2098
 6168SOL     OW29965   0.314   0.666   8.091 -0.2253  0.3746  0.2699
 6168SOL    HW129966   0.305   0.585   8.140 -2.9812  0.4614 -0.0832
 6168SOL    HW229967   0.405   0.692   8.107  0.3627 -0.4548 -1.6436
 6169SOL     OW29968   3.145   3.040   6.954 -0.0644  0.4896 -0.1697
 6169SOL    HW129969   3.184   3.072   6.873  0.4545  0.1497 -0.0546
 6169SOL    HW229970   3.201   3.073   7.025  0.5408  0.1862 -0.5093
 6170SOL     OW29971   3.188   3.732   6.911  0.2487 -0.3303  0.1694
 6170SOL    HW129972   3.173   3.762   7.001 -0.0259  1.3974 -0.4391
 6170SOL    HW229973   3.275   3.771   6.900  0.1935 -0.2477  0.0191
 6171SOL     OW29974   4.245   0.986  11.864 -0.1864  0.1383  0.0964
 6171SOL    HW129975   4.249   1.040  11.942  2.4057  2.1173 -1.4165
 6171SOL    HW229976   4.197   0.909  11.895  0.2112 -0.4103 -0.6653
 6172SOL     OW29977   4.502   3.930  16.274 -0.0118 -0.2022  0.1065
 6172SOL    HW129978   4.505   4.025  16.284 -0.0049 -0.3568  1.4921
 6172SOL    HW229979   4.584   3.913  16.226 -0.1416 -1.0289  0.1758
 6173SOL     OW29980   0.285   1.171   6.004 -0.2647 -0.1295  0.3384
 6173SOL    HW129981   0.261   1.078   6.010  0.2043 -0.4015 -1.9511
 6173SOL    HW229982   0.291   1.176   5.909 -1.9009  1.0812  0.3011
 6174SOL     OW29983   4.615   0.493   2.259  0.3460  0.2060 -0.3649
 6174SOL    HW129984   4.606   0.398   2.259 -1.7583  0.3941 -1.0143
 6174SOL    HW229985   4.692   0.505   2.203 -0.4815 -0.7521 -1.7097
 6175SOL     OW29986   3.599   1.202   3.806 -0.6566  0.2595 -0.1870
 6175SOL    HW129987   3.598   1.144   3.730  1.4334  2.1888 -1.6877
 6175SOL    HW229988   3.611   1.139   3.877  0.1676 -0.5253 -1.0134
 6176SOL     OW29989   0.687   0.705  13.125 -0.4452 -0.5120  0.4170
 6176SOL    HW129990   0.661   0.788  13.085  0.3255  0.0679  1.1355
 6176SOL    HW229991   0.715   0.729  13.213  1.8771 -1.1619 -0.1358
 6177SOL     OW29992   2.334   0.626   7.175 -0.1698  0.5145  0.2413
 6177SOL    HW129993   2.320   0.685   7.101  0.5104  0.1217 -0.2000
 6177SOL    HW229994   2.412   0.577   7.148 -0.4835  1.0925 -1.6900
 6178SOL     OW29995   4.083   1.721  16.771 -0.0464 -0.3925 -0.1914
 6178SOL    HW129996   4.055   1.637  16.736 -0.0889 -0.2393 -0.5195
 6178SOL    HW229997   4.018   1.783  16.739 -1.1095 -0.6580  1.4550
 6179SOL     OW29998   1.771   2.098  15.422  0.6897  0.4462 -0.4887
 6179SOL    HW129999   1.715   2.094  15.344 -1.0483  1.4511  0.7148
 6179SOL    HW230000   1.856   2.122  15.386 -0.2269  1.2726 -2.1065
 6180SOL     OW30001   1.903   2.031   6.276 -0.0122 -0.0976  0.1229
 6180SOL    HW130002   1.869   2.118   6.298 -0.7249 -0.0433 -1.1622
 6180SOL    HW230003   1.997   2.046   6.283 -0.3253  1.3871  1.3230
 6181SOL     OW30004   2.220   0.613   4.680  0.7318 -0.6606  0.0352
 6181SOL    HW130005   2.156   0.623   4.750 -1.6969  0.8557 -2.4075
 6181SOL    HW230006   2.284   0.675   4.715  0.2547  1.3378 -2.6711
 6182SOL     OW30007   4.259   3.325  16.298 -0.7529  0.9549  0.0115
 6182SOL    HW130008   4.290   3.323  16.389 -2.1494 -1.4256  0.4229
 6182SOL    HW230009   4.343   3.354  16.261 -0.0490 -1.3354 -0.1791
 6183SOL     OW30010   1.128   1.858   2.227  0.1257  0.1505 -0.1440
 6183SOL    HW130011   1.154   1.900   2.145 -0.3798 -0.7428 -0.7627
 6183SOL    HW230012   1.133   1.766   2.200 -0.4860  0.8986 -2.7922
 6184SOL     OW30013   0.841   2.582   5.928  0.1391  0.4875 -0.5460
 6184SOL    HW130014   0.822   2.638   6.004 -0.2903 -0.5854  0.1386
 6184SOL    HW230015   0.868   2.655   5.872 -1.8865  2.3624  0.8631
 6185SOL     OW30016   3.497   1.181  10.646 -0.2393 -0.0312 -0.1771
 6185SOL    HW130017   3.473   1.265  10.607  0.0719 -0.3963 -1.1663
 6185SOL    HW230018   3.465   1.188  10.736  1.2384 -1.7219  0.4973
 6186SOL     OW30019   3.717   1.160   1.528 -0.4878  0.4065 -0.0701
 6186SOL    HW130020   3.754   1.074   1.509  2.1288  1.3447  0.8276
 6186SOL    HW230021   3.684   1.183   1.440  1.4150 -1.3542 -1.2348
 6187SOL     OW30022   3.946   0.107  16.897 -0.0828 -0.3840 -0.2119
 6187SOL    HW130023   3.900   0.081  16.818  3.0000 -3.4944 -0.9907
 6187SOL    HW230024   4.026   0.055  16.891  2.0815  2.6227  2.1522
 6188SOL     OW30025   1.090   0.971  15.325  0.3371 -0.2459 -0.3890
 6188SOL    HW130026   1.040   0.889  15.326 -0.8732  0.5035  0.5398
 6188SOL    HW230027   1.119   0.974  15.416  2.1361  0.5924 -1.0027
 6189SOL     OW30028   1.080   0.931   4.150 -0.1744 -0.3337 -0.0544
 6189SOL    HW130029   1.146   0.928   4.081 -0.3824  1.9216 -0.3369
 6189SOL    HW230030   1.041   0.846   4.130  0.0168 -0.4002 -0.1466
 6190SOL     OW30031   3.413   2.362   8.400 -0.0726 -0.5461 -0.2244
 6190SOL    HW130032   3.387   2.408   8.480  0.3125 -0.4046 -0.1765
 6190SOL    HW230033   3.441   2.288   8.454 -2.3795 -0.4417  1.1018
 6191SOL     OW30034   4.637   2.526   9.687 -0.4509 -0.0175 -0.8924
 6191SOL    HW130035   4.638   2.463   9.759 -0.7017  1.6000  0.5366
 6191SOL    HW230036   4.656   2.462   9.618 -0.8221 -2.3219  1.1198
 6192SOL     OW30037   3.402   1.775   9.598 -0.0023  0.0729 -0.2162
 6192SOL    HW130038   3.378   1.826   9.675  2.0371 -0.5738  0.8671
 6192SOL    HW230039   3.496   1.764   9.612 -0.2418  0.5567  1.6422
 6193SOL     OW30040   0.605   3.458  16.908  0.1270 -0.0996 -0.4549
 6193SOL    HW130041   0.520   3.416  16.897 -0.2680  0.7584 -0.6913
 6193SOL    HW230042   0.670   3.412  16.855 -0.4943 -1.4345 -0.0599
 6194SOL     OW30043   0.176   1.382   7.566 -0.4994 -0.4164  0.3429
 6194SOL    HW130044   0.120   1.420   7.633  0.3170 -0.7033  1.1778
 6194SOL    HW230045   0.218   1.310   7.612  0.4423  1.1663  1.9460
 6195SOL     OW30046   0.519   1.660   5.436  0.0848  0.3512  0.9443
 6195SOL    HW130047   0.443   1.650   5.492  0.3362 -3.4592  0.5844
 6195SOL    HW230048   0.569   1.710   5.501 -1.7788  0.5900  2.1945
 6196SOL     OW30049   1.276   3.244   4.212 -0.0997  0.6174  0.4894
 6196SOL    HW130050   1.367   3.254   4.239 -0.0619  2.0709 -0.1760
 6196SOL    HW230051   1.237   3.323   4.249 -0.6855  0.3155  0.5143
 6197SOL     OW30052   2.462   3.380   1.952  0.5837 -0.9034 -0.3429
 6197SOL    HW130053   2.527   3.316   1.922  0.1076  0.1263 -3.5907
 6197SOL    HW230054   2.475   3.364   2.045 -0.5484 -1.8077 -0.3536
 6198SOL     OW30055   4.530   2.369   0.163 -0.3173 -0.0810 -0.1001
 6198SOL    HW130056   4.557   2.289   0.117  0.2688  1.6683 -2.7694
 6198SOL    HW230057   4.453   2.399   0.115  0.2453 -1.0089 -1.5917
 6199SOL     OW30058   4.108   1.870   0.264 -0.0172  0.0154  0.0148
 6199SOL    HW130059   4.071   1.797   0.313  0.2344 -2.3510 -3.2749
 6199SOL    HW230060   4.081   1.952   0.306 -0.0170  0.3361 -0.6097
 6200SOL     OW30061   3.255   3.141  12.432 -0.3620  0.4476  0.0013
 6200SOL    HW130062   3.160   3.146  12.420 -0.8757 -2.9120  2.5727
 6200SOL    HW230063   3.270   3.071  12.496 -0.6456 -0.2487 -0.6887
 6201SOL     OW30064   1.497   1.680   7.601 -0.1980  0.7598  0.5632
 6201SOL    HW130065   1.471   1.605   7.655  0.2187  0.1624 -0.0717
 6201SOL    HW230066   1.591   1.667   7.610 -0.2414 -0.3503 -0.6588
 6202SOL     OW30067   2.819   1.673   4.951 -0.3721 -0.2669  0.1529
 6202SOL    HW130068   2.883   1.646   4.886 -0.4155 -0.0378  0.0137
 6202SOL    HW230069   2.790   1.761   4.927  2.3889  0.5281 -0.2724
 6203SOL     OW30070   2.499   1.493   6.064  0.0458  0.8597  0.0395
 6203SOL    HW130071   2.525   1.529   5.979 -0.4134 -1.2802 -1.0182
 6203SOL    HW230072   2.407   1.471   6.050  0.2305 -0.7924  1.4616
 6204SOL     OW30073   3.417   1.758   5.741  0.0901  0.1231 -0.2999
 6204SOL    HW130074   3.411   1.706   5.821 -1.0577  0.8645  0.1055
 6204SOL    HW230075   3.382   1.699   5.675 -1.1623 -1.2836  1.6025
 6205SOL     OW30076   1.430   1.082   9.353 -0.1321  0.3648 -0.0743
 6205SOL    HW130077   1.393   1.009   9.402  1.0590 -1.1385 -1.4341
 6205SOL    HW230078   1.347   1.123   9.327  0.4531  1.9304  0.5366
 6206SOL     OW30079   2.064   4.535  11.431  0.1758 -0.3949  0.8263
 6206SOL    HW130080   2.131   4.603  11.421  1.6792 -1.9528  0.3346
 6206SOL    HW230081   2.001   4.589  11.477 -0.0976  0.8147 -0.9832
 6207SOL     OW30082   4.488   2.640   3.423  0.1249  0.4873  0.3292
 6207SOL    HW130083   4.440   2.718   3.395  0.4441  0.8929  0.8929
 6207SOL    HW230084   4.528   2.661   3.508 -0.4642  0.4782  0.6164
 6208SOL     OW30085   1.551   4.690   4.510  0.1875 -0.0443  0.0307
 6208SOL    HW130086   1.578   0.052   4.472  0.1976 -0.9144 -1.8680
 6208SOL    HW230087   1.630   4.637   4.500 -0.3348 -0.5872 -1.3688
 6209SOL     OW30088   4.188   3.279  10.188  0.7977 -0.3607 -0.5755
 6209SOL    HW130089   4.221   3.219  10.122 -0.6581 -2.1236  0.2957
 6209SOL    HW230090   4.259   3.277  10.251 -0.3048 -1.3605  0.6477
 6210SOL     OW30091   0.882   1.228  16.150  0.3671 -0.3277 -0.3749
 6210SOL    HW130092   0.929   1.195  16.226 -2.0824 -1.4950  0.6507
 6210SOL    HW230093   0.883   1.322  16.167  2.2082 -0.2317 -1.0267
 6211SOL     OW30094   1.652   4.387   6.521  0.3559  0.3953 -0.3362
 6211SOL    HW130095   1.586   4.319   6.506  0.8479 -0.4909  1.5097
 6211SOL    HW230096   1.622   4.438   6.596 -0.4751 -0.2855 -0.2002
 6212SOL     OW30097   4.048   1.097   6.257  0.1257 -0.0669  0.3648
 6212SOL    HW130098   4.139   1.077   6.238 -0.4561  0.5519 -2.9644
 6212SOL    HW230099   4.039   1.049   6.340 -0.3475 -2.0639 -0.8437
 6213SOL     OW30100   1.944   0.382   6.314  0.5988  0.4589  0.0699
 6213SOL    HW130101   1.868   0.437   6.296  0.3587  1.1088  3.0732
 6213SOL    HW230102   1.944   0.361   6.408  1.7530  0.3427  0.0390
 6214SOL     OW30103   4.491   1.050   1.387  0.1565  0.0639 -0.2365
 6214SOL    HW130104   4.403   1.017   1.366  0.7391 -2.6913  1.5384
 6214SOL    HW230105   4.533   1.008   1.313  0.6536  1.7893 -0.9263
 6215SOL     OW30106   1.759   4.543   4.434  0.1360  0.5303  0.3921
 6215SOL    HW130107   1.757   4.581   4.346  1.4310 -0.3230 -0.0113
 6215SOL    HW230108   1.852   4.557   4.450 -0.5551  3.5319  1.8324
 6216SOL     OW30109   4.191   4.477   7.260 -0.3198 -0.4707  0.0264
 6216SOL    HW130110   4.134   4.409   7.296  1.2800 -0.7614  2.0472
 6216SOL    HW230111   4.134   4.546   7.226 -0.0930 -0.8036 -1.0161
 6217SOL     OW30112   0.994   3.650   1.563  0.7891 -0.4453  0.0665
 6217SOL    HW130113   1.062   3.701   1.607 -1.5494  1.4950  1.4576
 6217SOL    HW230114   0.989   3.565   1.606 -0.3308 -0.9051 -0.9659
 6218SOL     OW30115   3.452   4.487  17.114  0.2238 -0.7087 -0.0214
 6218SOL    HW130116   3.514   4.503  17.043  0.8709  0.1459  0.7213
 6218SOL    HW230117   3.412   4.574  17.120  0.2223 -0.8005  1.2761
 6219SOL     OW30118   3.414   1.690   9.981  0.0962  0.1912  0.2998
 6219SOL    HW130119   3.434   1.613  10.034 -1.6171 -0.5915 -0.1750
 6219SOL    HW230120   3.505   1.710   9.957  1.0099 -2.9719  1.0521
 6220SOL     OW30121   1.000   2.071   6.836 -0.0402 -0.3498  0.2249
 6220SOL    HW130122   0.907   2.082   6.816  0.3728  1.8327 -0.6161
 6220SOL    HW230123   1.040   2.068   6.749  2.1406  2.2646  1.1171
 6221SOL     OW30124   0.247   3.627   7.085 -0.1455 -0.4058  0.1902
 6221SOL    HW130125   0.176   3.572   7.119 -0.1610 -1.0863 -0.9061
 6221SOL    HW230126   0.257   3.608   6.991 -0.9831 -0.8009  0.1820
 6222SOL     OW30127   1.070   1.396   4.864  0.1150  0.4876 -0.1662
 6222SOL    HW130128   1.069   1.310   4.904 -1.5336  0.1343 -0.9491
 6222SOL    HW230129   0.986   1.405   4.818  0.1527  2.1906  0.0853
 6223SOL     OW30130   1.539   3.228   6.721  0.5185  0.0571  0.1886
 6223SOL    HW130131   1.457   3.182   6.704  0.7136 -0.0496 -0.4541
 6223SOL    HW230132   1.573   3.246   6.633 -0.3368 -1.8141 -0.5242
 6224SOL     OW30133   2.484   2.055  15.070  0.3925  0.3603 -0.2630
 6224SOL    HW130134   2.525   2.007  14.998 -0.8237 -0.1761 -0.5973
 6224SOL    HW230135   2.511   2.005  15.148 -0.7728 -0.4889 -0.4032
 6225SOL     OW30136   0.744   1.372   8.436 -0.2824  0.0779 -0.5856
 6225SOL    HW130137   0.684   1.433   8.480  1.1244  1.4527 -0.6013
 6225SOL    HW230138   0.737   1.410   8.349 -1.8753 -0.0931 -0.5405
 6226SOL     OW30139   0.685   1.825   9.099  0.1059  0.1473 -0.3062
 6226SOL    HW130140   0.666   1.899   9.156  1.3875  1.3672 -1.4469
 6226SOL    HW230141   0.706   1.754   9.160 -2.3509 -2.6553 -2.7025
 6227SOL     OW30142   0.169   4.079   2.465  0.5697 -0.1968  0.0441
 6227SOL    HW130143   0.234   4.022   2.507 -0.7101 -0.2374  1.9865
 6227SOL    HW230144   0.087   4.033   2.483  1.2400 -1.3018  0.2869
 6228SOL     OW30145   4.184   0.108   1.540  0.0820 -0.6023  0.5397
 6228SOL    HW130146   4.119   0.068   1.598 -0.7417 -0.5487 -0.3621
 6228SOL    HW230147   4.138   0.188   1.516  3.7477  2.0166  2.2248
 6229SOL     OW30148   0.879   3.991   7.341  0.5293 -0.1925 -0.0524
 6229SOL    HW130149   0.789   4.002   7.309 -0.1548 -2.9353  0.9931
 6229SOL    HW230150   0.867   3.984   7.435 -0.5198 -1.2740 -0.2628
 6230SOL     OW30151   2.800   3.089   6.861  0.6445  0.3220 -0.4182
 6230SOL    HW130152   2.808   3.170   6.810  2.0872 -0.6433 -1.7397
 6230SOL    HW230153   2.849   3.119   6.937 -1.7057  0.4369  1.0585
 6231SOL     OW30154   2.900   1.666  11.020  0.4977 -0.1875 -0.7020
 6231SOL    HW130155   2.890   1.756  10.988 -2.7464 -0.2994  0.0313
 6231SOL    HW230156   2.838   1.638  10.953  0.4035 -2.0877  0.1659
 6232SOL     OW30157   3.450   0.170  15.142 -0.1526  0.0777  0.1629
 6232SOL    HW130158   3.461   0.093  15.086 -2.5665 -1.5291  1.8646
 6232SOL    HW230159   3.401   0.132  15.215 -3.3466  0.0953 -1.9562
 6233SOL     OW30160   3.526   0.432   0.978  0.8773  0.5747 -0.4392
 6233SOL    HW130161   3.434   0.431   1.003  0.9325 -0.2538 -0.2779
 6233SOL    HW230162   3.516   0.481   0.896 -0.5712  2.3158  0.7747
 6234SOL     OW30163   3.645   2.699  16.434  0.0055 -0.4847  0.0276
 6234SOL    HW130164   3.588   2.622  16.424 -0.2372 -0.1708 -0.9993
 6234SOL    HW230165   3.592   2.772  16.402  0.4116  0.6854  1.9693
 6235SOL     OW30166   4.635   4.520  16.514 -0.2897 -0.3472 -0.3950
 6235SOL    HW130167   4.593   4.453  16.460  1.0301 -0.8773 -0.7682
 6235SOL    HW230168   4.714   4.524  16.460  0.0643  0.7781  0.2035
 6236SOL     OW30169   0.651   4.494   3.302 -0.0100 -0.4746 -0.3267
 6236SOL    HW130170   0.715   4.562   3.322 -1.0889  0.8307 -1.3600
 6236SOL    HW230171   0.699   4.452   3.231  1.8101  1.5949 -0.3197
 6237SOL     OW30172   2.864   0.402   5.244 -0.4477  0.5050  0.0554
 6237SOL    HW130173   2.901   0.334   5.299  2.2580  1.6639 -0.3433
 6237SOL    HW230174   2.829   0.465   5.307 -0.1489  0.5872  0.1385
 6238SOL     OW30175   1.165   4.576   9.512 -0.6098  0.6374  0.4208
 6238SOL    HW130176   1.086   4.619   9.544 -0.1001 -0.9370  3.7937
 6238SOL    HW230177   1.151   4.483   9.533 -3.7376  1.2225  0.8139
 6239SOL     OW30178   1.357   3.301   5.052 -0.3052 -0.3082  0.0419
 6239SOL    HW130179   1.322   3.249   4.979  1.8418  0.6527 -1.6806
 6239SOL    HW230180   1.280   3.338   5.095 -2.4318 -1.5016 -2.7038
 6240SOL     OW30181   0.282   4.158  11.329 -0.4830 -0.0282 -0.1409
 6240SOL    HW130182   0.293   4.111  11.247 -0.8164 -1.3986  0.5980
 6240SOL    HW230183   0.207   4.116  11.371 -0.8009 -1.1929 -1.8878
 6241SOL     OW30184   4.000   0.975   5.676  0.1569 -0.1248  0.8364
 6241SOL    HW130185   3.983   1.024   5.596 -0.8741 -0.5625  0.7933
 6241SOL    HW230186   3.987   0.885   5.646 -1.2916  1.1493 -2.2862
 6242SOL     OW30187   0.618   2.017   5.588  0.4024 -0.6451 -0.4011
 6242SOL    HW130188   0.570   2.086   5.543 -1.9220 -1.2284  1.1939
 6242SOL    HW230189   0.595   2.028   5.680 -0.3803  0.4764 -0.7330
 6243SOL     OW30190   2.889   4.623   8.912  0.5709  0.3494  0.0785
 6243SOL    HW130191   2.966   4.679   8.906  1.3982 -0.7267  0.6745
 6243SOL    HW230192   2.855   4.651   8.997 -1.7576 -0.5005 -0.5534
 6244SOL     OW30193   0.151   2.440  15.184 -0.7710 -0.1991 -0.2531
 6244SOL    HW130194   0.113   2.438  15.272  0.3335 -0.7515  0.2128
 6244SOL    HW230195   0.152   2.345  15.174 -0.2734 -0.2883  0.6183
 6245SOL     OW30196   4.115   1.486   6.862 -0.0219 -0.6638  0.5476
 6245SOL    HW130197   4.071   1.409   6.898 -1.8345 -0.0677 -0.3933
 6245SOL    HW230198   4.081   1.496   6.773 -0.4747  2.4837  1.0755
 6246SOL     OW30199   3.215   1.548   5.140 -0.5624  0.5742  0.2119
 6246SOL    HW130200   3.196   1.503   5.058 -0.8945  1.6589 -0.3139
 6246SOL    HW230201   3.310   1.544   5.126 -1.0106 -1.5604 -2.2115
 6247SOL     OW30202   2.501   3.951   7.482  0.0811 -0.2251  0.0506
 6247SOL    HW130203   2.468   3.982   7.566 -0.1985  2.4972 -1.0873
 6247SOL    HW230204   2.442   4.010   7.436  1.2879 -0.4781 -1.8073
 6248SOL     OW30205   1.042   1.301   5.887 -1.0149 -0.0589 -0.1305
 6248SOL    HW130206   1.122   1.331   5.930  0.0258  0.1800 -2.2114
 6248SOL    HW230207   0.995   1.260   5.960 -0.9599 -0.6911 -0.4539
 6249SOL     OW30208   0.793   2.500   0.010  0.0887 -0.1316 -0.4187
 6249SOL    HW130209   0.880   2.513   0.048 -1.1318 -0.5154  2.5050
 6249SOL    HW230210   0.748   2.475   0.090 -0.2271  1.1010 -0.2217
 6250SOL     OW30211   4.252   2.078   9.611  0.3514 -0.0737 -0.4892
 6250SOL    HW130212   4.234   2.144   9.543 -2.2243 -1.5974 -1.3110
 6250SOL    HW230213   4.275   2.142   9.678  1.1554  0.0359 -0.8712
 6251SOL     OW30214   1.492   0.429   4.440 -0.0701  0.3353 -0.0816
 6251SOL    HW130215   1.403   0.424   4.473 -0.5979 -1.2597 -1.7630
 6251SOL    HW230216   1.482   0.464   4.351 -1.1978  1.0500  0.3299
 6252SOL     OW30217   3.185   1.962   0.814  0.5003  0.7852  0.0674
 6252SOL    HW130218   3.159   1.906   0.887 -2.8621  1.8252 -0.3332
 6252SOL    HW230219   3.262   2.006   0.851  0.7913  1.6796 -1.6093
 6253SOL     OW30220   2.231   0.591   2.814 -0.0972 -0.0935 -0.3702
 6253SOL    HW130221   2.256   0.672   2.859  1.0624 -0.7793  0.2121
 6253SOL    HW230222   2.136   0.591   2.821 -0.0250  3.3621  0.3203
 6254SOL     OW30223   0.239   0.219   3.044 -0.1112  0.3187 -0.1532
 6254SOL    HW130224   0.232   0.312   3.022 -1.3778  1.1887  3.9800
 6254SOL    HW230225   0.330   0.197   3.024  0.5267  2.6306  0.2363
 6255SOL     OW30226   0.387   4.304   6.421 -0.4630 -0.3108  0.2503
 6255SOL    HW130227   0.341   4.227   6.454 -0.9847  0.4186  1.2088
 6255SOL    HW230228   0.380   4.374   6.485 -1.1593  0.2384 -0.4217
 6256SOL     OW30229   1.006   0.856   6.249  0.0589 -0.1580  0.4283
 6256SOL    HW130230   1.003   0.762   6.228 -1.0118 -0.2305  0.9322
 6256SOL    HW230231   1.099   0.859   6.273 -1.0590 -1.1758  4.9462
 6257SOL     OW30232   2.069   0.323   2.167  0.1680  0.2106 -0.0649
 6257SOL    HW130233   2.063   0.342   2.074 -0.1790  0.3428 -0.0126
 6257SOL    HW230234   2.152   0.275   2.173 -1.2855 -2.3255 -0.3531
 6258SOL     OW30235   2.215   2.746  16.207  0.3346 -0.5217  0.9267
 6258SOL    HW130236   2.307   2.756  16.185  0.3464  1.0479  1.7160
 6258SOL    HW230237   2.218   2.687  16.282 -2.4613 -1.4123  0.3428
 6259SOL     OW30238   2.279   1.600  15.580 -0.4947  0.5281  0.2435
 6259SOL    HW130239   2.374   1.606  15.571 -0.3667 -0.3119  1.0532
 6259SOL    HW230240   2.269   1.535  15.650  1.0510 -1.3253 -1.2524
 6260SOL     OW30241   2.793   1.628   8.290 -0.0732  0.1161 -0.1175
 6260SOL    HW130242   2.852   1.583   8.231 -0.0627  1.4192 -1.0887
 6260SOL    HW230243   2.859   1.651   8.355 -0.3523  1.6806 -0.3871
 6261SOL     OW30244   1.641   4.559   3.789 -0.2719  0.6070  0.0119
 6261SOL    HW130245   1.684   4.540   3.706  2.0231  1.6359  0.9780
 6261SOL    HW230246   1.691   4.500   3.845 -1.5728  0.0035  0.5269
 6262SOL     OW30247   0.055   2.860   2.109  0.6912  0.1820  0.0162
 6262SOL    HW130248   0.022   2.909   2.033  0.2692  0.7533  0.5675
 6262SOL    HW230249   0.142   2.895   2.124  0.2811  1.7565 -1.2131
 6263SOL     OW30250   3.316   3.758  15.021  0.0236 -0.1043  0.8832
 6263SOL    HW130251   3.244   3.713  15.064 -0.1654 -0.3546  0.3000
 6263SOL    HW230252   3.281   3.742  14.934  1.1876  2.5316 -0.0743
 6264SOL     OW30253   1.177   2.860   3.279  0.2788  0.0499 -0.2668
 6264SOL    HW130254   1.118   2.925   3.318  0.3993  0.1718 -0.2889
 6264SOL    HW230255   1.115   2.788   3.269  0.0243  0.0998  0.9234
 6265SOL     OW30256   2.662   0.694   5.081  0.4160 -0.1985 -0.2192
 6265SOL    HW130257   2.758   0.700   5.081  0.5406 -2.2171  3.5237
 6265SOL    HW230258   2.645   0.671   4.989  1.9313 -1.1762 -0.2638
 6266SOL     OW30259   1.311   2.841   6.756 -0.1018 -0.0059 -0.3472
 6266SOL    HW130260   1.323   2.749   6.776 -3.0296 -0.3635 -0.2593
 6266SOL    HW230261   1.391   2.882   6.788 -0.6120  2.3550 -2.0277
 6267SOL     OW30262   4.077   3.328   7.862 -0.4365 -0.6234  0.0838
 6267SOL    HW130263   4.034   3.249   7.895 -1.0096 -0.3666 -0.0493
 6267SOL    HW230264   4.102   3.372   7.943 -1.2032 -0.0301  0.0043
 6268SOL     OW30265   0.575   3.422   4.870  0.0214  0.5397  0.2591
 6268SOL    HW130266   0.499   3.368   4.889  1.3552 -1.4531 -0.0708
 6268SOL    HW230267   0.539   3.474   4.798  2.5005 -0.5755 -1.8129
 6269SOL     OW30268   2.041   1.791   8.257  0.1368 -0.0283 -0.0456
 6269SOL    HW130269   1.954   1.831   8.255 -0.1978 -0.8744 -1.7573
 6269SOL    HW230270   2.090   1.838   8.325 -1.9674  1.2959  0.5583
 6270SOL     OW30271   0.596   0.016   6.177  0.3310 -0.3244  0.1076
 6270SOL    HW130272   0.576   0.096   6.128  1.0765 -0.3160 -0.1924
 6270SOL    HW230273   0.662   4.708   6.114 -0.2256 -1.6030  0.1152
 6271SOL     OW30274   2.333   2.794  12.957 -0.4798  0.5208  0.6802
 6271SOL    HW130275   2.361   2.869  12.904 -0.1126 -1.8043 -2.4602
 6271SOL    HW230276   2.279   2.742  12.898  0.8805 -0.3208  0.1548
 6272SOL     OW30277   2.531   0.899   8.023  0.4426 -0.1123 -0.0438
 6272SOL    HW130278   2.486   0.959   7.965  2.5434  1.7133  0.2039
 6272SOL    HW230279   2.504   0.815   7.987 -0.6785  0.8920 -1.5161
 6273SOL     OW30280   0.744   2.694  11.207 -0.1894  0.5092  0.2069
 6273SOL    HW130281   0.765   2.609  11.168  3.4493  1.2206  0.5607
 6273SOL    HW230282   0.763   2.664  11.296 -1.5266 -0.8184  0.0446
 6274SOL     OW30283   2.393   1.229   4.111 -0.1283 -0.2993  0.1804
 6274SOL    HW130284   2.336   1.151   4.111 -0.6909  0.1121 -0.4849
 6274SOL    HW230285   2.441   1.212   4.029 -0.7698  0.5605 -0.3668
 6275SOL     OW30286   2.378   4.266   5.273 -0.5785  0.2368  0.1237
 6275SOL    HW130287   2.325   4.345   5.287 -2.4595 -1.1062  0.6764
 6275SOL    HW230288   2.419   4.286   5.189  0.6185 -1.0422  0.4076
 6276SOL     OW30289   4.352   2.701   1.610  0.2742  0.1053 -0.7366
 6276SOL    HW130290   4.299   2.683   1.687 -0.5171  0.9607 -1.0841
 6276SOL    HW230291   4.435   2.664   1.640  0.3266 -0.5676 -1.6852
 6277SOL     OW30292   0.685   4.245   7.595 -0.0307 -0.0150  0.4241
 6277SOL    HW130293   0.712   4.247   7.687 -0.1116 -1.0448  0.4739
 6277SOL    HW230294   0.737   4.319   7.564 -1.5887  0.5200 -0.8785
 6278SOL     OW30295   0.994   4.278   0.692  0.1105  0.0948  0.1112
 6278SOL    HW130296   0.967   4.188   0.675  1.6232 -0.4302  0.5012
 6278SOL    HW230297   0.970   4.327   0.614  2.0358  1.2063  0.2247
 6279SOL     OW30298   4.310   2.449   3.275  0.4786  0.0841  0.0121
 6279SOL    HW130299   4.309   2.502   3.195  1.8122 -1.4269 -1.0224
 6279SOL    HW230300   4.369   2.504   3.327  2.8078 -0.1655 -2.3858
 6280SOL     OW30301   1.448   4.108  12.085 -0.6756 -0.2429  0.3769
 6280SOL    HW130302   1.471   4.139  12.172  3.1232 -0.9891 -0.3794
 6280SOL    HW230303   1.406   4.026  12.111  0.5458 -1.0187 -0.0968
 6281SOL     OW30304   0.788   2.397   7.319 -0.2942  0.0667 -0.1479
 6281SOL    HW130305   0.745   2.482   7.331  1.5139  1.0812 -0.9073
 6281SOL    HW230306   0.786   2.363   7.408 -2.3059  1.3989  0.3182
 6282SOL     OW30307   1.494   1.518   4.645 -0.0547  0.0595  0.1953
 6282SOL    HW130308   1.494   1.596   4.589 -1.4240  0.6784  1.0626
 6282SOL    HW230309   1.406   1.508   4.680 -0.0289 -0.2802  0.1630
 6283SOL     OW30310   2.289   0.805   8.936  0.2176 -0.2560 -0.5115
 6283SOL    HW130311   2.313   0.825   9.027  1.4771 -0.3846 -0.8111
 6283SOL    HW230312   2.303   0.711   8.946  0.2627  0.0549  2.3458
 6284SOL     OW30313   2.136   1.406   2.456 -0.4975 -0.4880  0.1179
 6284SOL    HW130314   2.052   1.450   2.446 -1.3065 -2.3350 -1.1853
 6284SOL    HW230315   2.189   1.450   2.390 -0.6959 -0.2926  0.0884
 6285SOL     OW30316   3.190   1.230   5.518 -0.1417 -0.0424 -0.3462
 6285SOL    HW130317   3.177   1.225   5.423 -1.3930 -0.9718 -0.1222
 6285SOL    HW230318   3.103   1.255   5.548 -0.5409 -1.1388 -0.5980
 6286SOL     OW30319   0.710   3.123  11.912  0.3692  0.0862  0.3845
 6286SOL    HW130320   0.707   3.154  11.822 -0.2786 -0.0069  0.3734
 6286SOL    HW230321   0.616   3.120  11.929 -0.1915  2.7220 -2.2177
 6287SOL     OW30322   3.744   0.079  12.957  0.3812 -0.4413  0.0546
 6287SOL    HW130323   3.723   0.138  13.029  1.0912 -3.1050  2.4415
 6287SOL    HW230324   3.808   0.023  13.002 -0.9128 -0.3761  1.9981
 6288SOL     OW30325   0.311   1.621   6.878 -0.3505 -0.4050  0.1416
 6288SOL    HW130326   0.382   1.557   6.875  0.3636  0.3546  1.2680
 6288SOL    HW230327   0.333   1.674   6.954 -0.0072 -1.0349  0.4773
 6289SOL     OW30328   4.216   4.600  13.011  0.2829 -0.6696  0.2523
 6289SOL    HW130329   4.195   4.522  13.063  0.4538 -0.7382  0.2180
 6289SOL    HW230330   4.294   4.631  13.056  0.8342 -2.7556  0.7476
 6290SOL     OW30331   2.056   2.046   8.484 -0.3742 -0.2863  0.2475
 6290SOL    HW130332   2.088   1.982   8.548 -2.9191 -1.9198 -0.1558
 6290SOL    HW230333   2.126   2.039   8.420  0.2950  3.1086  0.5547
 6291SOL     OW30334   1.964   3.437  15.534  0.1504 -0.4443 -0.5759
 6291SOL    HW130335   1.983   3.527  15.560  0.4496 -0.7288  0.2064
 6291SOL    HW230336   2.053   3.403  15.541  0.6381  0.5825 -1.7053
 6292SOL     OW30337   4.176   1.260   5.353  0.1771  0.4485  0.4525
 6292SOL    HW130338   4.170   1.355   5.342 -0.8497  0.4610  1.0871
 6292SOL    HW230339   4.213   1.255   5.441  0.0795  0.9698  0.5249
 6293SOL     OW30340   1.361   1.614   0.955 -0.2179 -0.4521  0.2542
 6293SOL    HW130341   1.418   1.537   0.959  1.9982  1.3150  2.8840
 6293SOL    HW230342   1.398   1.663   1.028  0.5528 -2.0366  0.9269
 6294SOL     OW30343   2.169   0.089   9.422 -0.3424  0.2790 -0.0994
 6294SOL    HW130344   2.238   0.120   9.363  0.3506 -0.3857  0.3498
 6294SOL    HW230345   2.138   0.167   9.466  2.8692  1.5019  0.0089
 6295SOL     OW30346   1.791   3.009   7.106 -0.1934 -0.0519 -0.1848
 6295SOL    HW130347   1.788   3.043   7.195  0.3818 -0.0352 -0.1723
 6295SOL    HW230348   1.878   3.042   7.083 -1.1302  2.2090 -0.5434
 6296SOL     OW30349   2.480   0.152   8.660 -0.0677 -0.4102 -0.2624
 6296SOL    HW130350   2.487   0.239   8.701 -0.7252 -0.0424 -0.9361
 6296SOL    HW230351   2.550   0.106   8.707 -0.0473  0.2149  0.3287
 6297SOL     OW30352   2.455   1.323  14.435 -0.7896  0.4359 -0.0340
 6297SOL    HW130353   2.374   1.355  14.394 -0.4843 -1.8472 -2.4460
 6297SOL    HW230354   2.449   1.229  14.420  0.3592  0.2090  0.9444
 6298SOL     OW30355   3.844   0.011   9.803  0.2281 -0.0256 -0.2697
 6298SOL    HW130356   3.807   0.091   9.837  1.2408  0.8219 -1.1428
 6298SOL    HW230357   3.933   0.012   9.838 -0.3769  0.7783  1.2009
 6299SOL     OW30358   1.703   1.683   3.612 -0.8782 -0.4007 -0.1161
 6299SOL    HW130359   1.787   1.644   3.587 -0.1936  0.8250  0.2563
 6299SOL    HW230360   1.638   1.614   3.609 -1.6716  0.3588 -0.3193
 6300SOL     OW30361   4.338   4.584   7.038  0.1523 -0.1515  0.0898
 6300SOL    HW130362   4.315   4.502   6.995 -1.5961 -0.0359  0.7964
 6300SOL    HW230363   4.285   4.566   7.116 -0.5950 -2.0972 -0.8605
 6301SOL     OW30364   0.584   2.931   7.070 -0.0035  0.1388 -0.0998
 6301SOL    HW130365   0.655   2.913   7.131 -2.4892 -1.5381  2.3338
 6301SOL    HW230366   0.634   2.968   6.997  1.8804  1.9437  2.1133
 6302SOL     OW30367   2.941   3.971   3.219  0.6760  0.3172  0.7637
 6302SOL    HW130368   2.908   3.976   3.129  1.5482  0.7028  0.4623
 6302SOL    HW230369   2.941   4.061   3.250 -0.3590  0.5797 -0.0121
 6303SOL     OW30370   3.187   4.297   8.070  0.0313  0.1761  0.6108
 6303SOL    HW130371   3.104   4.339   8.049  0.1549 -0.2785 -0.7349
 6303SOL    HW230372   3.252   4.365   8.050  0.1688  0.0250  0.5398
 6304SOL     OW30373   0.717   4.064   3.192  0.0886  0.1530 -0.0991
 6304SOL    HW130374   0.797   4.110   3.168 -0.1161  1.2118  1.2687
 6304SOL    HW230375   0.741   3.971   3.187 -2.2106 -0.5139  1.1554
 6305SOL     OW30376   3.113   0.779   8.716 -0.5331  0.3321 -0.0666
 6305SOL    HW130377   3.083   0.863   8.751  0.0841 -0.5751  2.6454
 6305SOL    HW230378   3.206   0.802   8.706 -1.2205  3.1773  0.0552
 6306SOL     OW30379   2.662   1.296   6.331  0.1263 -0.0718 -0.2520
 6306SOL    HW130380   2.755   1.315   6.326  0.0469  0.9159  2.3909
 6306SOL    HW230381   2.627   1.381   6.301  0.6708  0.3939  0.4519
 6307SOL     OW30382   0.453   2.687   3.871 -0.1527 -0.0817 -0.2101
 6307SOL    HW130383   0.525   2.640   3.912 -0.6890  0.4013  1.3201
 6307SOL    HW230384   0.376   2.636   3.896  0.4470 -0.9186 -0.0767
 6308SOL     OW30385   4.687   0.037   1.201  0.0010  0.2717  0.0583
 6308SOL    HW130386   4.642   4.696   1.145  0.0912  0.5891 -0.3679
 6308SOL    HW230387   4.712   0.098   1.131  0.5460 -0.7771 -0.6625
 6309SOL     OW30388   3.813   2.403   6.948  0.8311 -0.2368  0.3812
 6309SOL    HW130389   3.787   2.357   7.028  0.3994  0.5747  0.7026
 6309SOL    HW230390   3.908   2.402   6.956  0.7709  0.7093  1.1545
 6310SOL     OW30391   1.538   2.262   7.843  0.2463 -0.2396  0.3203
 6310SOL    HW130392   1.484   2.338   7.825  1.5572  1.2874  2.8076
 6310SOL    HW230393   1.622   2.292   7.809 -0.6197  1.8905  0.0819
 6311SOL     OW30394   0.982   0.786  12.699 -0.1820 -0.0210  0.3709
 6311SOL    HW130395   1.035   0.793  12.778 -0.0591  1.0915  0.1817
 6311SOL    HW230396   1.004   0.869  12.657  1.2067 -1.3886 -1.6287
 6312SOL     OW30397   4.714   2.173   3.816  0.3007 -0.1090  0.0420
 6312SOL    HW130398   4.640   2.187   3.875 -0.0699 -1.1191 -0.1895
 6312SOL    HW230399   4.663   2.148   3.740 -0.9492 -0.7039  1.0798
 6313SOL     OW30400   2.211   1.515   4.572  0.2138 -0.1112  0.0394
 6313SOL    HW130401   2.263   1.548   4.498 -1.2477 -0.7774 -1.2981
 6313SOL    HW230402   2.253   1.435   4.604  0.0229 -0.8639 -1.5985
 6314SOL     OW30403   2.070   3.602   8.629 -0.2047 -0.4783  0.1485
 6314SOL    HW130404   2.033   3.517   8.653 -3.8052  0.1050 -3.0834
 6314SOL    HW230405   2.134   3.573   8.564  0.8778  2.4019 -0.0767
 6315SOL     OW30406   3.723   3.381   8.180 -0.3645  0.1498 -0.4418
 6315SOL    HW130407   3.696   3.295   8.147  2.0585  0.0591 -2.1628
 6315SOL    HW230408   3.643   3.413   8.223 -0.4205  0.0186 -0.4483
 6316SOL     OW30409   4.192   3.585   8.545 -0.3165 -0.4037 -0.4910
 6316SOL    HW130410   4.187   3.633   8.628  0.3401  0.6257 -1.0376
 6316SOL    HW230411   4.287   3.582   8.531 -0.1453  0.3099  0.5399
 6317SOL     OW30412   3.371   3.360   5.343 -0.3303  0.3010  0.8210
 6317SOL    HW130413   3.320   3.439   5.327 -0.4781 -0.4360 -2.5871
 6317SOL    HW230414   3.349   3.313   5.262 -1.9607 -1.6252  2.3679
 6318SOL     OW30415   2.180   3.102   2.569  0.1191 -0.2013  0.3834
 6318SOL    HW130416   2.157   3.195   2.572 -0.8582 -0.4199 -0.4956
 6318SOL    HW230417   2.272   3.104   2.595 -0.0358 -0.0964  0.9369
 6319SOL     OW30418   3.410   1.439   6.454  0.3126  0.0535  0.2840
 6319SOL    HW130419   3.408   1.534   6.449  1.7971  0.0502 -0.3422
 6319SOL    HW230420   3.502   1.415   6.468 -0.3662 -1.1032  2.6968
 6320SOL     OW30421   2.048   0.406   1.886 -0.5609 -0.3445  0.2347
 6320SOL    HW130422   2.142   0.412   1.869 -0.3143 -1.3771  1.2026
 6320SOL    HW230423   2.015   0.359   1.810 -0.4926  0.5708 -0.3547
 6321SOL     OW30424   4.014   1.961   3.394  0.2516 -0.2766  0.3672
 6321SOL    HW130425   4.018   1.870   3.367 -2.7500 -0.7890  1.5809
 6321SOL    HW230426   4.007   2.009   3.311  0.6590 -1.2908 -0.2457
 6322SOL     OW30427   2.256   2.500  15.147  0.2133  0.2007  0.0578
 6322SOL    HW130428   2.331   2.491  15.207 -1.0986 -0.0294  1.6727
 6322SOL    HW230429   2.194   2.539  15.208  0.2027 -0.6474  0.6006
 6323SOL     OW30430   0.092   4.121   5.137 -0.2285  0.0320  0.0613
 6323SOL    HW130431   0.112   4.154   5.225 -0.6882  0.2594  0.0850
 6323SOL    HW230432   4.719   4.102   5.138  0.1352 -1.8549 -1.2692
 6324SOL     OW30433   1.743   3.981   6.008 -0.2994  0.5168  0.4724
 6324SOL    HW130434   1.837   3.963   6.002 -0.2536  0.0693  2.4574
 6324SOL    HW230435   1.740   3.994   6.103 -0.6746  2.8454  0.1316
 6325SOL     OW30436   0.999   4.071  17.208 -0.2440 -0.4749  0.5062
 6325SOL    HW130437   1.019   4.066  17.115 -3.5554  0.5584 -0.2623
 6325SOL    HW230438   0.912   4.032  17.215  0.3224 -1.3670  2.6447
 6326SOL     OW30439   3.246   3.228  16.105  0.0504 -0.1698  0.3964
 6326SOL    HW130440   3.324   3.284  16.103 -0.9333  1.2330  0.8516
 6326SOL    HW230441   3.210   3.250  16.019  3.1158  1.0396 -0.5566
 6327SOL     OW30442   1.846   0.048  16.884 -0.7852 -0.3228  0.0125
 6327SOL    HW130443   1.940   0.063  16.875 -0.9089 -0.3543 -1.2608
 6327SOL    HW230444   1.813   0.138  16.872 -1.3741 -0.7974 -1.8589
 6328SOL     OW30445   2.074   1.116   9.377  0.3002 -0.0318  0.0368
 6328SOL    HW130446   2.095   1.025   9.356 -0.5601 -0.6995  2.0994
 6328SOL    HW230447   1.982   1.119   9.404  0.4339  1.3586  0.3620
 6329SOL     OW30448   3.986   4.626   8.940 -0.2710  0.0431  0.0308
 6329SOL    HW130449   4.054   4.560   8.925 -1.6114 -1.3020 -0.2013
 6329SOL    HW230450   4.040   4.704   8.940  1.0631 -0.8749  1.9696
 6330SOL     OW30451   1.504   3.935   2.216  1.0749  0.2319  0.3376
 6330SOL    HW130452   1.559   3.915   2.140  2.0290 -2.6599  1.8013
 6330SOL    HW230453   1.504   4.031   2.208 -0.5885  0.2891  0.9533
 6331SOL     OW30454   2.194   0.596   6.210 -0.8939  0.3765 -0.0473
 6331SOL    HW130455   2.281   0.554   6.214 -0.5125  1.2825  1.2681
 6331SOL    HW230456   2.222   0.686   6.223  0.5594  0.2621 -2.4208
 6332SOL     OW30457   3.668   1.928  14.502  0.1364 -0.2500 -0.2111
 6332SOL    HW130458   3.646   1.859  14.439 -2.1553 -0.3690  0.7018
 6332SOL    HW230459   3.588   1.934  14.555  0.3689 -0.2739  0.1415
 6333SOL     OW30460   4.222   1.282   1.981  0.0682 -0.6416 -0.6094
 6333SOL    HW130461   4.313   1.289   1.951  0.7268  1.1500  1.6835
 6333SOL    HW230462   4.218   1.191   2.010 -1.4452 -0.6179 -0.7763
 6334SOL     OW30463   2.247   3.838  14.759  0.0124 -0.2775 -0.4743
 6334SOL    HW130464   2.286   3.925  14.753  2.1903 -1.0313  2.8924
 6334SOL    HW230465   2.318   3.779  14.785 -2.2663 -1.9615  1.8391
 6335SOL     OW30466   2.114   1.591   6.493 -0.3542  0.0283  0.0587
 6335SOL    HW130467   2.052   1.534   6.448  0.4847 -1.3323  0.6090
 6335SOL    HW230468   2.132   1.539   6.572  2.4535  1.0670  0.1267
 6336SOL     OW30469   1.160   2.174   7.834  0.2957 -0.2900  0.1151
 6336SOL    HW130470   1.110   2.098   7.806  1.1483  0.3578 -3.1839
 6336SOL    HW230471   1.123   2.182   7.923  6.9595  0.8499  2.7642
 6337SOL     OW30472   2.820   0.218   9.044  0.2596  0.4277 -0.4772
 6337SOL    HW130473   2.747   0.170   9.004  0.7794 -1.1002  0.4059
 6337SOL    HW230474   2.800   0.305   9.011  1.3193  1.1004  0.6601
 6338SOL     OW30475   3.279   4.389   8.662 -0.6448  0.2465  0.3333
 6338SOL    HW130476   3.317   4.457   8.717 -0.2792 -1.7064  2.5379
 6338SOL    HW230477   3.347   4.328   8.633 -0.8879 -0.7297  1.8213
 6339SOL     OW30478   2.851   3.471  13.533  0.2909  0.3191  0.0638
 6339SOL    HW130479   2.933   3.421  13.536  0.6736  1.0990  2.3254
 6339SOL    HW230480   2.875   3.532  13.464 -0.3043 -1.8756 -2.1011
 6340SOL     OW30481   3.315   4.034  10.700  0.0579  0.6056  0.2886
 6340SOL    HW130482   3.284   4.004  10.785  0.6736  0.0114  0.3072
 6340SOL    HW230483   3.398   4.077  10.722  1.0932 -0.4820 -1.4834
 6341SOL     OW30484   0.872   4.381   2.248  0.9143  0.2326  0.0175
 6341SOL    HW130485   0.796   4.416   2.201  0.2129  0.5363  1.3754
 6341SOL    HW230486   0.840   4.291   2.254  0.2651  0.3478 -1.7058
 6342SOL     OW30487   2.727   1.531   3.943  0.2180 -0.4142 -0.0258
 6342SOL    HW130488   2.690   1.507   3.858 -0.6503 -0.0681  0.2525
 6342SOL    HW230489   2.677   1.611   3.963  0.5282 -0.5167  1.1828
 6343SOL     OW30490   1.092   2.116   9.035  0.2867 -0.1100 -0.0156
 6343SOL    HW130491   1.184   2.117   9.006  0.2221  1.5451 -0.1394
 6343SOL    HW230492   1.067   2.028   9.006 -1.8412  0.1938  0.8964
 6344SOL     OW30493   3.743   2.095  11.834  0.0405  0.3885  0.4941
 6344SOL    HW130494   3.742   2.131  11.745  1.6079 -3.6533 -1.1576
 6344SOL    HW230495   3.836   2.073  11.846  0.9502  3.8148 -0.1812
 6345SOL     OW30496   3.562   3.602   0.138  0.3492 -0.5702  0.3159
 6345SOL    HW130497   3.606   3.517   0.133 -1.5643 -1.4609 -1.3804
 6345SOL    HW230498   3.468   3.600   0.121  0.2333  0.1061  0.9163
 6346SOL     OW30499   1.833   0.245  11.295 -0.1716  0.3567  0.5155
 6346SOL    HW130500   1.921   0.279  11.276 -0.3071 -0.3051 -1.3530
 6346SOL    HW230501   1.796   0.248  11.206 -2.2823 -0.7437  1.3752
 6347SOL     OW30502   3.917   1.986   6.655  0.1928  0.5767 -0.2138
 6347SOL    HW130503   3.878   1.986   6.567 -2.9877 -0.8171  1.2128
 6347SOL    HW230504   3.983   2.054   6.644  3.6154 -2.5482  1.3033
 6348SOL     OW30505   0.803   2.319   6.267  0.2400 -0.3349 -0.3190
 6348SOL    HW130506   0.876   2.362   6.313 -1.1642  1.2373  0.4528
 6348SOL    HW230507   0.846   2.254   6.212  0.0375  0.6772 -1.6717
 6349SOL     OW30508   1.109   3.372  13.776 -0.0294  0.0501  0.0759
 6349SOL    HW130509   1.197   3.339  13.790  0.0346 -0.0866 -0.6519
 6349SOL    HW230510   1.111   3.379  13.680 -0.4611 -0.0336  0.0568
 6350SOL     OW30511   2.271   1.671   9.168 -0.2252  0.0949  0.0129
 6350SOL    HW130512   2.229   1.616   9.234 -0.7199  0.4679  0.0102
 6350SOL    HW230513   2.337   1.617   9.123 -0.3220 -1.5975  1.9069
 6351SOL     OW30514   4.380   1.298  10.228  0.3157  0.2243 -0.2634
 6351SOL    HW130515   4.357   1.223  10.172  0.8150 -1.4087  1.7053
 6351SOL    HW230516   4.304   1.355  10.218 -0.2559 -0.2464  1.3673
 6352SOL     OW30517   3.713   0.818   9.162  0.5291 -0.0598 -0.6707
 6352SOL    HW130518   3.703   0.737   9.112  0.3973 -0.8327  0.6137
 6352SOL    HW230519   3.702   0.883   9.092 -1.1859 -0.2098 -0.5354
 6353SOL     OW30520   0.374   2.731   6.261  0.0892  0.4181  0.2241
 6353SOL    HW130521   0.402   2.641   6.274  0.4896  0.7860  1.8876
 6353SOL    HW230522   0.291   2.733   6.214  1.3669  0.5022 -2.0489
 6354SOL     OW30523   1.310   0.646   4.927 -0.0329 -0.0430  0.0032
 6354SOL    HW130524   1.382   0.648   4.865 -2.2740  1.7326 -2.5256
 6354SOL    HW230525   1.366   0.627   5.002 -0.9609 -1.6814  0.2949
 6355SOL     OW30526   1.289   2.959   7.745  0.0083 -0.2722 -0.1129
 6355SOL    HW130527   1.236   2.883   7.722 -0.6846  0.2721 -0.3286
 6355SOL    HW230528   1.305   2.941   7.838  1.2537 -0.2582 -0.3173
 6356SOL     OW30529   0.121   3.231   7.552  0.3568 -0.0596  0.4453
 6356SOL    HW130530   0.084   3.177   7.622 -1.3593 -0.6975 -0.9504
 6356SOL    HW230531   0.104   3.323   7.572 -2.9944 -1.0467  2.0571
 6357SOL     OW30532   4.093   3.231  17.680  0.2331 -0.1616 -0.2472
 6357SOL    HW130533   4.041   3.252   0.070  0.6233  1.2401 -0.3674
 6357SOL    HW230534   4.027   3.229  17.611  0.6279  0.8151 -0.6461
 6358SOL     OW30535   0.737   4.428   5.041  0.5576  0.1761  0.5345
 6358SOL    HW130536   0.770   4.420   5.130  1.3093  1.4752  0.3683
 6358SOL    HW230537   0.820   4.444   4.995  1.3653 -1.7072  1.2995
 6359SOL     OW30538   0.321   4.509   6.613 -0.0635  0.0659  0.3135
 6359SOL    HW130539   0.372   4.588   6.626  0.1495 -0.0531  0.2049
 6359SOL    HW230540   0.243   4.550   6.650  0.4208  0.2375  1.1318
 6360SOL     OW30541   1.171   3.381   1.029  0.3455 -0.6659 -0.7290
 6360SOL    HW130542   1.113   3.327   1.083  2.5538 -2.4773 -0.1909
 6360SOL    HW230543   1.128   3.379   0.943 -0.2144  0.8549 -0.4855
 6361SOL     OW30544   2.574   2.220   0.821 -0.4680 -0.3377  0.0222
 6361SOL    HW130545   2.643   2.246   0.883 -0.7591  0.1687  0.1360
 6361SOL    HW230546   2.589   2.127   0.805 -1.4129 -0.3527 -0.7118
 6362SOL     OW30547   1.585   2.283  17.676  0.2862 -0.2454 -0.1804
 6362SOL    HW130548   1.555   2.355  17.621 -0.4576 -0.5612 -0.1980
 6362SOL    HW230549   1.667   2.320   0.019 -0.6536  3.0165 -1.6014
 6363SOL     OW30550   2.377   4.452   9.018 -0.1751 -0.4602  0.2068
 6363SOL    HW130551   2.398   4.492   9.102  0.6755  0.0502 -0.2465
 6363SOL    HW230552   2.317   4.521   8.987 -0.4813 -1.0484 -0.5083
 6364SOL     OW30553   3.599   1.004   7.563 -0.1810  0.0194 -0.0624
 6364SOL    HW130554   3.661   0.933   7.583 -2.1307 -0.6596  3.4484
 6364SOL    HW230555   3.607   1.013   7.468  1.8948 -1.0514  0.0092
 6365SOL     OW30556   1.965   3.356   7.852 -0.4626  0.0134 -0.1244
 6365SOL    HW130557   1.938   3.426   7.912  0.0353 -0.5834  0.7938
 6365SOL    HW230558   2.060   3.358   7.855 -0.5171  1.3224  1.1830
 6366SOL     OW30559   2.807   1.076   9.468  0.1807  0.0948  0.1573
 6366SOL    HW130560   2.789   1.132   9.543  3.1734  1.1476  0.0923
 6366SOL    HW230561   2.881   1.125   9.430  0.7114 -0.9783 -0.2009
 6367SOL     OW30562   0.201   2.593  15.413 -0.0940 -0.3398  0.0667
 6367SOL    HW130563   0.158   2.546  15.485 -1.6723  1.3268  0.2076
 6367SOL    HW230564   0.222   2.677  15.452 -1.0661 -1.0483  2.1414
 6368SOL     OW30565   3.031   4.552   9.531 -0.2274  0.1187 -0.4884
 6368SOL    HW130566   3.070   4.544   9.619 -2.8377 -1.0509  0.5484
 6368SOL    HW230567   3.003   4.644   9.532 -0.9698 -0.0990 -1.7330
 6369SOL     OW30568   4.220   4.690   3.545 -0.3724 -0.0712  0.2142
 6369SOL    HW130569   4.294   4.712   3.489 -1.0393 -1.2921 -1.1486
 6369SOL    HW230570   4.245   4.613   3.596 -0.3739 -2.0560 -2.7903
 6370SOL     OW30571   1.892   0.097   1.019  0.0940  0.1432 -0.0813
 6370SOL    HW130572   1.982   0.095   0.988  0.3333 -0.3871  0.6365
 6370SOL    HW230573   1.897   0.176   1.074 -1.2221  1.3537 -1.6999
 6371SOL     OW30574   0.020   1.401   8.401 -0.0179 -0.0638 -0.5949
 6371SOL    HW130575   0.093   1.399   8.463 -0.6154  1.3309  0.1433
 6371SOL    HW230576   0.058   1.374   8.317  0.6568  0.0798 -0.3356
 6372SOL     OW30577   3.392   0.439  12.607 -0.5489  0.1014 -0.3198
 6372SOL    HW130578   3.438   0.505  12.556  1.1155  1.4900  2.9650
 6372SOL    HW230579   3.347   0.374  12.552 -2.9679  1.3133  0.2005
 6373SOL     OW30580   0.007   3.066   5.082 -0.0970 -0.1266 -0.6596
 6373SOL    HW130581   0.044   2.983   5.114 -0.3794 -0.9127 -2.4065
 6373SOL    HW230582   4.658   3.030   5.029 -0.7342 -1.1313  0.8572
 6374SOL     OW30583   4.463   0.543   9.550  0.1068 -0.0610 -0.0955
 6374SOL    HW130584   4.428   0.544   9.639 -0.1605  1.1864 -0.2086
 6374SOL    HW230585   4.552   0.510   9.562  0.5093  1.3076  0.6248
 6375SOL     OW30586   0.545   4.717   5.801 -0.0372 -1.0896  0.5488
 6375SOL    HW130587   0.608   4.659   5.760  0.9012 -0.4673  1.1211
 6375SOL    HW230588   0.604   0.046   5.857 -1.3092 -3.6185  4.1586
 6376SOL     OW30589   2.851   4.336   1.188  0.6195 -0.0139  0.4432
 6376SOL    HW130590   2.911   4.396   1.143 -0.2539  0.4711 -0.0849
 6376SOL    HW230591   2.815   4.389   1.259 -0.5764 -0.0926 -0.0973
 6377SOL     OW30592   0.346   2.451   8.847 -0.3287 -0.1285 -0.5137
 6377SOL    HW130593   0.374   2.375   8.897  1.3177  0.3288 -0.7434
 6377SOL    HW230594   0.261   2.426   8.810 -0.3371 -0.6591 -0.1281
 6378SOL     OW30595   1.857   3.408   3.394 -0.9015  0.5600 -0.3606
 6378SOL    HW130596   1.946   3.413   3.427 -0.5887 -0.4117 -1.0692
 6378SOL    HW230597   1.853   3.317   3.365 -1.2937  0.8381 -1.1839
 6379SOL     OW30598   2.592   0.051   6.241  0.1966  0.2428 -0.0854
 6379SOL    HW130599   2.591   4.677   6.243  0.5690  0.2533  0.5011
 6379SOL    HW230600   2.509   0.077   6.280  0.5638  0.2109  0.7178
 6380SOL     OW30601   2.121   1.079   1.333  0.6474  0.0210 -0.0264
 6380SOL    HW130602   2.105   1.049   1.422  1.0202  0.2573  0.1203
 6380SOL    HW230603   2.202   1.030   1.314  1.5890  0.8909  1.7635
 6381SOL     OW30604   4.669   0.895   2.919  0.1588  0.6955 -0.8745
 6381SOL    HW130605   4.611   0.836   2.871  0.1588 -0.2809  0.3228
 6381SOL    HW230606   4.686   0.962   2.853  0.2918  0.6871 -0.8473
 6382SOL     OW30607   0.238   2.131   8.791 -0.1704 -0.8052 -0.2200
 6382SOL    HW130608   0.185   2.206   8.766 -1.7075 -1.8946 -0.2025
 6382SOL    HW230609   0.277   2.159   8.874  1.3658  2.1022 -1.9151
 6383SOL     OW30610   0.920   4.208   6.036 -0.1245 -0.0102  0.1847
 6383SOL    HW130611   0.938   4.171   5.949  1.6925 -0.4087  0.7266
 6383SOL    HW230612   0.839   4.256   6.019 -1.4097 -1.3205  2.7125
 6384SOL     OW30613   3.034   3.236  11.892 -1.0059 -0.0207  0.2840
 6384SOL    HW130614   3.009   3.327  11.908  0.5225  0.8346 -2.1486
 6384SOL    HW230615   3.055   3.206  11.980 -3.5886 -0.0388  0.9058
 6385SOL     OW30616   4.117   2.887   3.046  0.4365 -0.9454  0.0780
 6385SOL    HW130617   4.117   2.863   2.953  0.8864  1.6479 -0.5904
 6385SOL    HW230618   4.081   2.809   3.088 -0.9286 -0.9230 -1.0551
 6386SOL     OW30619   2.255   3.679   2.658 -0.0677  0.5069  0.5871
 6386SOL    HW130620   2.332   3.658   2.605 -1.6119 -1.8807 -0.7019
 6386SOL    HW230621   2.290   3.664   2.746  1.7184  0.1520 -0.1701
 6387SOL     OW30622   0.253   1.568   5.258  0.3283  0.7084  0.4527
 6387SOL    HW130623   0.271   1.653   5.297  0.7391 -0.6074  3.1433
 6387SOL    HW230624   0.337   1.542   5.220 -0.2715 -0.8600  0.1786
 6388SOL     OW30625   4.056   3.112   7.538 -0.3743 -0.3514 -0.4006
 6388SOL    HW130626   4.121   3.137   7.603 -0.7626  0.1162 -0.1910
 6388SOL    HW230627   4.060   3.195   7.490  2.2777 -1.6529 -2.4154
 6389SOL     OW30628   2.205   1.787   7.187  0.4932  0.2489 -0.4047
 6389SOL    HW130629   2.297   1.789   7.162  0.1191  0.6835 -1.7106
 6389SOL    HW230630   2.213   1.741   7.271 -1.8072 -1.7588 -1.2668
 6390SOL     OW30631   1.150   0.071   0.132  0.2575  0.3100 -0.1545
 6390SOL    HW130632   1.133   0.151   0.182 -0.4036 -0.9316  1.6043
 6390SOL    HW230633   1.184   0.019   0.205  0.7671 -1.5681 -1.7537
 6391SOL     OW30634   0.687   1.906   7.783 -0.3379 -0.0337 -0.1905
 6391SOL    HW130635   0.768   1.905   7.731  0.0233 -0.6983  0.3711
 6391SOL    HW230636   0.715   1.908   7.875  2.1977 -0.3840 -0.9588
 6392SOL     OW30637   2.825   1.033   0.623 -0.2837  0.2405 -0.0107
 6392SOL    HW130638   2.851   1.010   0.533  1.8611  1.7316  0.2297
 6392SOL    HW230639   2.908   1.054   0.665 -0.9183  0.4304  1.1497
 6393SOL     OW30640   2.298   1.324  17.245  0.2629 -0.1581 -0.2823
 6393SOL    HW130641   2.239   1.380  17.296  1.8959  1.8805 -0.6548
 6393SOL    HW230642   2.303   1.371  17.162  0.7337 -0.8272 -0.6338
 6394SOL     OW30643   4.656   2.849   0.923  0.2310 -0.7131  0.3348
 6394SOL    HW130644   4.594   2.800   0.868  0.0899  0.8339 -0.8513
 6394SOL    HW230645   4.632   2.806   1.006  1.3308  1.1803  1.6425
 6395SOL     OW30646   0.451   2.613  12.020 -0.2491 -0.5317 -0.0811
 6395SOL    HW130647   0.499   2.691  11.993  2.3686 -1.7051  1.1689
 6395SOL    HW230648   0.445   2.560  11.940 -0.9889  0.7191 -0.8383
 6396SOL     OW30649   3.337   0.033   8.370 -0.4384 -0.6716 -0.7034
 6396SOL    HW130650   3.246   0.047   8.346 -1.1676 -2.5834  0.9615
 6396SOL    HW230651   3.349   4.659   8.370  0.7076 -0.5354 -0.5833
 6397SOL     OW30652   3.742   1.079   2.279 -0.3482 -0.1549  0.2958
 6397SOL    HW130653   3.646   1.082   2.275 -0.4070  0.2283  2.2270
 6397SOL    HW230654   3.753   1.143   2.349 -0.5417 -1.9079  1.9295
 6398SOL     OW30655   0.585   3.519  17.179 -0.0769  0.1749 -0.0023
 6398SOL    HW130656   0.596   3.522  17.084  1.4509  1.9785  0.2418
 6398SOL    HW230657   0.660   3.464  17.201  0.3899  1.5069  1.7859
 6399SOL     OW30658   3.454   0.908   4.829  0.2987 -0.4834 -0.8291
 6399SOL    HW130659   3.424   0.858   4.905  0.0479  0.7419 -0.1250
 6399SOL    HW230660   3.514   0.974   4.862 -2.0922  1.0698  0.3886
 6400SOL     OW30661   3.540   1.670  13.414  0.7229  0.3566 -0.1841
 6400SOL    HW130662   3.574   1.759  13.414 -1.1421  1.0516 -1.3961
 6400SOL    HW230663   3.611   1.612  13.442 -0.5241 -0.6594  0.8813
 6401SOL     OW30664   2.568   4.201  11.876  0.2900  0.1630  0.1649
 6401SOL    HW130665   2.478   4.196  11.845  0.8371  2.0622 -1.6787
 6401SOL    HW230666   2.568   4.242  11.962  1.5301  0.5586 -0.0153
 6402SOL     OW30667   2.229   3.272  16.245  0.0969  0.4689  0.4246
 6402SOL    HW130668   2.179   3.352  16.259 -0.5815  0.3162 -1.1689
 6402SOL    HW230669   2.212   3.251  16.153 -4.5097  2.5843  0.7998
 6403SOL     OW30670   1.591   3.359  12.479  0.5091  0.3840  0.5371
 6403SOL    HW130671   1.600   3.267  12.504  2.2216  0.0149 -1.3948
 6403SOL    HW230672   1.580   3.403  12.563 -3.3679  0.9627 -0.3060
 6404SOL     OW30673   3.145   3.049   2.454  0.2916  0.9286 -0.7641
 6404SOL    HW130674   3.077   2.982   2.455  1.2158  0.0130  1.2245
 6404SOL    HW230675   3.131   3.100   2.374 -2.9642 -1.3208 -1.6293
 6405SOL     OW30676   3.416   2.835   0.908 -0.6762  0.6438  0.3495
 6405SOL    HW130677   3.387   2.747   0.931  2.2185 -0.6862 -1.1729
 6405SOL    HW230678   3.432   2.875   0.994  1.7689  2.0523 -0.7876
 6406SOL     OW30679   3.540   3.326   5.543  0.3420 -0.0231 -0.0611
 6406SOL    HW130680   3.484   3.351   5.469  2.1172  1.1189 -1.0198
 6406SOL    HW230681   3.613   3.386   5.532 -1.3278  2.0963  0.3522
 6407SOL     OW30682   4.584   2.557   7.627 -0.0956  0.0118  0.3159
 6407SOL    HW130683   4.630   2.639   7.608 -0.8307  0.8678  2.2194
 6407SOL    HW230684   4.553   2.572   7.717 -2.4603 -2.5147 -0.0804
 6408SOL     OW30685   0.924   3.866   2.134  0.3042 -0.3869 -0.6820
 6408SOL    HW130686   0.926   3.804   2.061  1.8823  0.6685 -1.5364
 6408SOL    HW230687   0.838   3.858   2.174  0.6330 -1.6299 -0.2137
 6409SOL     OW30688   1.323   4.640   0.320  0.1995  0.1816 -0.0335
 6409SOL    HW130689   1.284   4.582   0.385  3.0903 -3.3011 -1.3998
 6409SOL    HW230690   1.375   4.582   0.264  0.2891  0.7510 -0.5346
 6410SOL     OW30691   2.241   1.772   6.333  0.1984  0.0530 -0.1329
 6410SOL    HW130692   2.333   1.747   6.328  0.2577  0.6538 -1.9208
 6410SOL    HW230693   2.218   1.715   6.407  0.2790 -1.1563 -1.0305
 6411SOL     OW30694   2.172   2.629  11.094 -0.8374  0.1354 -0.1898
 6411SOL    HW130695   2.219   2.678  11.161 -2.5374  1.9638 -0.3449
 6411SOL    HW230696   2.082   2.659  11.106 -0.6839  0.7165 -0.4547
 6412SOL     OW30697   1.812   3.361  12.179  0.6614  0.4274 -0.0730
 6412SOL    HW130698   1.741   3.420  12.205  0.6347  0.6587 -0.6923
 6412SOL    HW230699   1.838   3.406  12.099  2.8520 -3.1434 -1.3681
 6413SOL     OW30700   3.302   2.862   4.102  0.4079  0.4011 -0.7414
 6413SOL    HW130701   3.313   2.880   4.009 -2.1000 -0.3952 -1.1914
 6413SOL    HW230702   3.391   2.856   4.138 -0.1659  3.0931  1.1027
 6414SOL     OW30703   3.617   1.607  15.396  0.2563  0.3228 -0.5535
 6414SOL    HW130704   3.645   1.675  15.456  0.4799  0.6920 -1.0750
 6414SOL    HW230705   3.522   1.618  15.389  0.0779 -0.7426  0.1441
 6415SOL     OW30706   4.575   1.296   7.503  0.1513  0.1584  0.4192
 6415SOL    HW130707   4.629   1.343   7.566 -0.3606  0.9557  0.2704
 6415SOL    HW230708   4.498   1.269   7.553 -0.5975 -1.9460 -1.8360
 6416SOL     OW30709   0.572   3.369   4.156 -0.1402 -0.0434 -0.0448
 6416SOL    HW130710   0.626   3.391   4.080 -0.4462 -0.0544 -0.2648
 6416SOL    HW230711   0.570   3.456   4.195 -1.8911 -0.3385  0.5363
 6417SOL     OW30712   2.712   1.502   2.712 -0.3214 -0.1555  0.3376
 6417SOL    HW130713   2.728   1.427   2.770 -1.6412  1.5417  2.9377
 6417SOL    HW230714   2.674   1.471   2.631  1.8048  1.5583 -1.3084
 6418SOL     OW30715   2.717   3.811   3.295 -1.0205 -0.4682 -0.0144
 6418SOL    HW130716   2.708   3.888   3.351  0.7343  0.6614 -1.2743
 6418SOL    HW230717   2.690   3.860   3.217  0.6233  1.1218  0.4084
 6419SOL     OW30718   3.671   2.061  16.839 -0.2864 -0.1123 -0.3194
 6419SOL    HW130719   3.591   2.012  16.820 -1.4671  1.3511  0.8856
 6419SOL    HW230720   3.637   2.128  16.898  0.6775  0.5469 -0.5085
 6420SOL     OW30721   3.339   1.089  15.045  0.7267  0.5664 -0.6132
 6420SOL    HW130722   3.401   1.129  14.984 -0.6290  1.1002 -1.6470
 6420SOL    HW230723   3.268   1.153  15.043  1.4487  1.3327 -2.0427
 6421SOL     OW30724   1.186   2.346   3.246  0.1224 -0.2579 -0.2813
 6421SOL    HW130725   1.161   2.395   3.167 -2.5080 -1.5903 -0.2531
 6421SOL    HW230726   1.262   2.293   3.222 -0.3971  0.0310 -2.5841
 6422SOL     OW30727   4.362   3.812  15.419 -0.8736  0.0910  0.3761
 6422SOL    HW130728   4.275   3.774  15.423 -0.4693 -0.8351  0.5195
 6422SOL    HW230729   4.424   3.739  15.422 -0.2177  0.5765 -0.9494
 6423SOL     OW30730   1.403   4.256   8.834 -0.6472  0.6901  0.1533
 6423SOL    HW130731   1.473   4.198   8.862 -0.2293  1.2417  0.2650
 6423SOL    HW230732   1.349   4.260   8.913  0.0103  0.1190  0.6308
 6424SOL     OW30733   0.398   1.559   4.703  0.0353  0.3897 -0.5297
 6424SOL    HW130734   0.411   1.472   4.740 -1.7067  1.0708  1.6955
 6424SOL    HW230735   0.478   1.561   4.650 -0.3421  1.4178 -1.0756
 6425SOL     OW30736   4.405   3.136   6.597  0.2755 -0.3865 -0.9235
 6425SOL    HW130737   4.425   3.228   6.582  2.7763 -0.8445 -0.2712
 6425SOL    HW230738   4.446   3.117   6.681  1.4690  1.0332 -1.1949
 6426SOL     OW30739   0.439   3.212  11.941 -0.0048  0.2046 -0.0354
 6426SOL    HW130740   0.409   3.137  11.890 -3.6136  1.4335  0.2659
 6426SOL    HW230741   0.375   3.220  12.012 -0.1597 -1.6176  0.0186
 6427SOL     OW30742   1.102   4.387   0.184  0.3898 -0.5653  0.3929
 6427SOL    HW130743   1.102   4.317   0.249 -1.8509 -1.6539 -0.7854
 6427SOL    HW230744   1.014   4.419   0.203  0.6845  0.2138  0.4513
 6428SOL     OW30745   2.643   0.666   0.162 -0.4328 -0.0169  0.2148
 6428SOL    HW130746   2.572   0.661   0.098  0.2880 -2.0776 -0.4504
 6428SOL    HW230747   2.681   0.578   0.153 -0.6208 -0.1976  1.1816
 6429SOL     OW30748   3.328   2.680   3.759 -0.3093  0.1726 -0.3836
 6429SOL    HW130749   3.308   2.633   3.841 -0.6617 -0.7273 -0.9888
 6429SOL    HW230750   3.246   2.684   3.710  0.2531  1.3031 -1.2272
 6430SOL     OW30751   3.975   4.429   4.741  0.2452 -0.0590  0.1941
 6430SOL    HW130752   4.004   4.506   4.788  0.6487 -0.3048  0.3517
 6430SOL    HW230753   3.902   4.408   4.799  0.7463 -2.8237 -0.1634
 6431SOL     OW30754   1.316   2.767   4.609 -0.1867 -0.2767  1.0134
 6431SOL    HW130755   1.335   2.675   4.592  1.7365  0.4648 -0.8994
 6431SOL    HW230756   1.357   2.811   4.534 -1.1558  0.8699  1.1566
 6432SOL     OW30757   3.766   3.580   4.207 -0.1469  0.6835 -0.3125
 6432SOL    HW130758   3.767   3.486   4.226 -0.9698  0.9871  1.2764
 6432SOL    HW230759   3.859   3.595   4.225  0.2866 -1.4613 -0.7970
 6433SOL     OW30760   1.597   2.907   8.837 -0.4192 -0.1774 -0.4538
 6433SOL    HW130761   1.684   2.897   8.875 -0.2683  0.9192 -0.5195
 6433SOL    HW230762   1.541   2.895   8.914 -0.0118 -1.9916 -0.4213
 6434SOL     OW30763   1.874   2.396  15.059  0.3649  0.6761  0.0201
 6434SOL    HW130764   1.957   2.398  15.012  0.5290  2.0573  0.3642
 6434SOL    HW230765   1.852   2.489  15.061 -1.3768  0.2644  0.0267
 6435SOL     OW30766   1.724   1.394   8.485  0.1864  0.5660 -0.5596
 6435SOL    HW130767   1.778   1.361   8.556 -1.7842  0.6597  0.9873
 6435SOL    HW230768   1.647   1.424   8.534  2.4137  0.3554  3.0830
 6436SOL     OW30769   1.983   3.883  11.742 -0.4037 -0.6619  0.9772
 6436SOL    HW130770   1.894   3.886  11.778 -1.2390 -0.7826 -1.0623
 6436SOL    HW230771   1.974   3.807  11.686 -2.5558 -0.8009  1.4902
 6437SOL     OW30772   0.316   3.661  14.662  0.3661 -0.0494 -0.0504
 6437SOL    HW130773   0.313   3.571  14.697  2.0077 -0.7843 -1.8547
 6437SOL    HW230774   0.234   3.659  14.613  0.1793 -0.4346  0.2714
 6438SOL     OW30775   3.738   0.199   9.308 -0.4377 -0.0132  0.6827
 6438SOL    HW130776   3.718   0.292   9.307  0.4755  0.1856  0.7384
 6438SOL    HW230777   3.683   0.165   9.378 -0.2231 -1.4096  0.1888
 6439SOL     OW30778   1.940   3.404   2.088 -0.6035 -0.6833 -0.1746
 6439SOL    HW130779   1.964   3.358   2.169  0.3219 -1.7477 -1.0605
 6439SOL    HW230780   2.022   3.418   2.040 -1.0059  1.9817 -0.0806
 6440SOL     OW30781   2.811   3.118   4.409 -0.5154 -0.2171 -0.0892
 6440SOL    HW130782   2.743   3.176   4.443  0.8089  1.2148  0.1326
 6440SOL    HW230783   2.765   3.059   4.350 -0.7213 -0.2054  0.0604
 6441SOL     OW30784   4.193   1.359   8.685  0.0257 -0.3584 -0.2709
 6441SOL    HW130785   4.262   1.309   8.727  0.7757  0.5036 -0.4805
 6441SOL    HW230786   4.164   1.302   8.613  0.3432  0.7255 -1.2617
 6442SOL     OW30787   2.929   1.784  15.319  0.1715  0.2393 -0.0676
 6442SOL    HW130788   2.993   1.715  15.305  0.9925  0.6785  1.4894
 6442SOL    HW230789   2.899   1.813  15.233  0.3747 -0.3780 -0.3479
 6443SOL     OW30790   4.208   1.756  17.678  0.4666 -0.7162  0.0465
 6443SOL    HW130791   4.170   1.817   0.053  0.6464 -1.3062  0.7200
 6443SOL    HW230792   4.128   1.733  17.630 -1.1850  1.8030  1.5895
 6444SOL     OW30793   1.206   2.258  11.246 -0.5638  0.1360  0.0438
 6444SOL    HW130794   1.242   2.347  11.241  0.2113 -0.2065 -0.4983
 6444SOL    HW230795   1.113   2.277  11.258 -0.6564 -1.5022  1.9099
 6445SOL     OW30796   1.239   4.088  16.733 -0.7394  0.0952  0.0303
 6445SOL    HW130797   1.332   4.070  16.748 -0.4704  0.3815 -1.2982
 6445SOL    HW230798   1.226   4.058  16.643  1.4737 -1.4334  0.2304
 6446SOL     OW30799   1.904   3.969   7.679  0.0035  0.3992  0.4494
 6446SOL    HW130800   1.971   4.038   7.681 -0.0906  0.4923  0.3524
 6446SOL    HW230801   1.823   4.019   7.677  0.3647  0.7942 -3.1607
 6447SOL     OW30802   3.242   2.919   1.152 -0.1329 -0.4319 -0.6124
 6447SOL    HW130803   3.330   2.887   1.168 -0.0634  1.2673  2.2824
 6447SOL    HW230804   3.192   2.850   1.196 -1.6426  0.0124 -1.6218
 6448SOL     OW30805   2.648   1.233   8.267 -0.1487  0.8202 -0.0208
 6448SOL    HW130806   2.641   1.201   8.177 -0.5587 -1.8249  0.9500
 6448SOL    HW230807   2.585   1.177   8.311 -1.2069  1.5333 -0.6444
 6449SOL     OW30808   0.975   3.167   6.861  0.5540 -0.1816  0.2598
 6449SOL    HW130809   0.918   3.184   6.787  1.1827  0.7347 -0.0223
 6449SOL    HW230810   1.002   3.075   6.855 -1.8630 -0.8466 -0.1853
 6450SOL     OW30811   1.554   2.707   1.800 -0.3615 -0.2982  0.0736
 6450SOL    HW130812   1.610   2.692   1.876 -0.0637 -0.0122 -0.0929
 6450SOL    HW230813   1.506   2.783   1.832 -0.1118 -0.8423  1.7107
 6451SOL     OW30814   4.646   1.854   5.342 -0.0804 -0.0492  0.7008
 6451SOL    HW130815   4.705   1.893   5.277  0.0620 -1.6424 -0.1205
 6451SOL    HW230816   4.565   1.872   5.295  2.2594  1.4985 -2.8454
 6452SOL     OW30817   3.362   1.652  12.474  0.2903 -0.1886 -0.5399
 6452SOL    HW130818   3.366   1.641  12.569 -0.7078  0.2391 -0.4487
 6452SOL    HW230819   3.298   1.722  12.460 -0.0520 -0.5036 -0.5443
 6453SOL     OW30820   3.982   1.069  11.305  0.2515 -0.0127 -0.6430
 6453SOL    HW130821   4.040   1.144  11.295  1.8151 -1.2079 -0.4590
 6453SOL    HW230822   3.918   1.113  11.361  1.0418  0.9132 -0.4726
 6454SOL     OW30823   1.319   0.107   9.664 -0.1028  0.1657 -0.7292
 6454SOL    HW130824   1.343   0.072   9.578 -2.4620 -0.2951 -1.2085
 6454SOL    HW230825   1.227   0.131   9.655 -0.6923 -2.1607 -0.9788
 6455SOL     OW30826   2.712   4.530   1.714  0.1076 -0.5408 -0.5989
 6455SOL    HW130827   2.741   4.513   1.803  2.2772  1.6138 -0.8857
 6455SOL    HW230828   2.772   4.478   1.660  2.2346  0.1690  1.0693
 6456SOL     OW30829   3.355   1.570   5.923  0.4237  0.2367  0.3343
 6456SOL    HW130830   3.298   1.538   5.993  0.5835 -0.1206  0.3040
 6456SOL    HW230831   3.346   1.489   5.873  0.5389  0.3369  0.1529
 6457SOL     OW30832   0.232   0.069  12.884 -0.1217 -0.0126  0.6662
 6457SOL    HW130833   0.171   0.004  12.850 -0.3206  1.2123 -1.2881
 6457SOL    HW230834   0.299   0.057  12.817 -1.5272  0.1678 -0.7624
 6458SOL     OW30835   3.683   4.452  12.711 -0.1465 -0.2591  0.3251
 6458SOL    HW130836   3.706   4.428  12.801  0.7420  0.1081  0.1893
 6458SOL    HW230837   3.652   4.541  12.728 -1.0999 -0.2761 -1.3134
 6459SOL     OW30838   0.458   0.994   2.654  0.2687 -0.1265 -0.3393
 6459SOL    HW130839   0.523   0.993   2.584 -1.0325 -1.1039 -1.5200
 6459SOL    HW230840   0.411   1.073   2.630  0.2779  0.5409  1.8074
 6460SOL     OW30841   1.150   0.195   4.122  0.3213 -0.0778  0.2510
 6460SOL    HW130842   1.234   0.185   4.166  0.4940 -1.2323 -0.3488
 6460SOL    HW230843   1.088   0.152   4.181  1.6292 -1.4274  0.6215
 6461SOL     OW30844   1.986   2.597   8.302 -0.3862  0.2146 -0.0704
 6461SOL    HW130845   2.071   2.568   8.269 -1.7221 -0.7529 -2.6812
 6461SOL    HW230846   2.003   2.630   8.390 -2.5762  1.2736 -0.0475
 6462SOL     OW30847   1.593   3.002  17.197 -0.2755  0.5295 -0.2610
 6462SOL    HW130848   1.613   3.092  17.172 -1.0620  0.8654  0.3300
 6462SOL    HW230849   1.539   3.023  17.273  2.1819  0.4390  1.4799
 6463SOL     OW30850   2.575   0.328   3.610  0.1801  0.6231 -0.4228
 6463SOL    HW130851   2.669   0.340   3.595  0.5208  0.8127  1.9285
 6463SOL    HW230852   2.554   0.339   3.517  0.4029 -1.7394 -0.7577
 6464SOL     OW30853   0.503   0.166   3.014 -0.0018 -0.3863  0.2662
 6464SOL    HW130854   0.566   0.170   2.941 -0.5523  2.1783 -0.0445
 6464SOL    HW230855   0.503   0.070   3.022 -0.4141 -0.0647  3.7162
 6465SOL     OW30856   1.113   1.443   8.811  0.0231 -0.2548 -0.9729
 6465SOL    HW130857   1.131   1.419   8.721  0.6953  0.8076 -1.1288
 6465SOL    HW230858   1.196   1.418   8.853 -0.8008  1.6633  1.8381
 6466SOL     OW30859   4.174   0.904   4.956  0.2678 -0.1558  0.7089
 6466SOL    HW130860   4.079   0.911   4.958  0.3842  1.3819  1.3298
 6466SOL    HW230861   4.196   0.969   5.024  1.6573  0.8975 -0.7396
 6467SOL     OW30862   0.701   1.109   6.861  0.2669  0.0839 -0.0785
 6467SOL    HW130863   0.686   1.178   6.797  1.3556  0.3323 -0.0562
 6467SOL    HW230864   0.676   1.141   6.948  1.0819 -0.8405  0.4958
 6468SOL     OW30865   4.591   4.492   8.192  0.6318 -0.0529 -0.4882
 6468SOL    HW130866   4.608   4.404   8.157  1.1738 -0.4063  0.6639
 6468SOL    HW230867   4.583   4.538   8.108 -0.5045  2.0568  0.7833
 6469SOL     OW30868   0.824   0.213   7.555 -0.0781 -0.4809  0.6911
 6469SOL    HW130869   0.770   0.240   7.629  0.9321  1.9974  0.5154
 6469SOL    HW230870   0.817   0.295   7.508  0.0700 -2.4078 -2.6673
 6470SOL     OW30871   0.182   0.315   2.241  0.4510  0.0185 -0.3009
 6470SOL    HW130872   0.226   0.357   2.167 -0.3290 -0.2770 -0.9417
 6470SOL    HW230873   0.196   0.382   2.307  0.3595  0.8744 -1.1430
 6471SOL     OW30874   1.782   4.531   7.745 -0.1058  0.6839  0.1008
 6471SOL    HW130875   1.739   4.508   7.827  0.9125  2.3266  1.0941
 6471SOL    HW230876   1.860   4.576   7.778 -1.2388  2.3365  0.5045
 6472SOL     OW30877   2.349   0.096   4.765 -0.3233  0.0643  0.6890
 6472SOL    HW130878   2.368   0.190   4.757 -0.2179  0.1388  1.9121
 6472SOL    HW230879   2.308   0.102   4.851 -0.1267 -3.2061  0.9753
 6473SOL     OW30880   2.492   2.767   9.367 -0.0724  0.4570 -0.0629
 6473SOL    HW130881   2.575   2.785   9.412 -0.2518  0.4047  0.2944
 6473SOL    HW230882   2.496   2.674   9.346 -1.7389  0.6770 -1.3509
 6474SOL     OW30883   2.529   0.088   7.848  0.0061  0.3053 -0.1738
 6474SOL    HW130884   2.617   0.124   7.841  1.2168 -3.1687 -2.9786
 6474SOL    HW230885   2.508   0.103   7.940 -0.2821  0.0436 -0.1959
 6475SOL     OW30886   3.603   3.077  11.522 -0.9610 -0.0682 -0.0078
 6475SOL    HW130887   3.538   3.059  11.454  0.9689 -1.5494 -1.4467
 6475SOL    HW230888   3.573   3.024  11.597 -0.6114 -1.8703 -1.1286
 6476SOL     OW30889   3.031   3.916   7.493  0.4818  0.0553 -0.1353
 6476SOL    HW130890   2.996   3.972   7.562  2.9485  2.0938 -0.5159
 6476SOL    HW230891   2.971   3.920   7.419  1.6008 -2.2105 -1.1888
 6477SOL     OW30892   0.951   3.658   1.959 -0.0179  0.1344 -0.2159
 6477SOL    HW130893   0.900   3.610   2.024  0.7326 -2.6086 -1.6507
 6477SOL    HW230894   1.020   3.592   1.954 -0.7165 -0.7004  1.0783
 6478SOL     OW30895   1.537   4.171   9.067  0.1304 -0.1094  0.2734
 6478SOL    HW130896   1.592   4.198   8.994  0.4907 -1.4290  0.0673
 6478SOL    HW230897   1.576   4.220   9.140  2.1664 -1.8799  0.3818
 6479SOL     OW30898   2.928   0.516   6.861 -0.5688  0.1311 -0.0965
 6479SOL    HW130899   3.016   0.496   6.830 -0.1801  0.4061  0.8255
 6479SOL    HW230900   2.898   0.592   6.812  1.0410  0.0924 -1.1172
 6480SOL     OW30901   1.483   4.496  11.068 -0.3566  0.2684 -0.1682
 6480SOL    HW130902   1.471   4.574  11.122  0.5367  0.0454  0.3563
 6480SOL    HW230903   1.398   4.454  11.079  0.3446 -1.0172  0.3513
 6481SOL     OW30904   3.485   4.397   5.915 -0.2574  0.1448  0.6760
 6481SOL    HW130905   3.509   4.486   5.889  3.7502 -0.2041  3.1224
 6481SOL    HW230906   3.396   4.410   5.947 -0.1382  1.0465  0.6424
 6482SOL     OW30907   0.819   3.031   0.835 -0.3638  0.1359 -0.0459
 6482SOL    HW130908   0.749   3.092   0.859 -1.0727  0.5460 -3.2174
 6482SOL    HW230909   0.788   2.987   0.756 -1.0842  1.2334 -0.3798
 6483SOL     OW30910   4.589   3.877   8.630 -0.0319  0.5156  0.3197
 6483SOL    HW130911   4.590   3.939   8.703 -0.1732  0.3785  0.4368
 6483SOL    HW230912   4.681   3.850   8.634  0.0541  0.8372  0.5832
 6484SOL     OW30913   1.664   4.718   5.909  0.4740 -0.1910  0.3103
 6484SOL    HW130914   1.630   4.636   5.873 -0.3286  1.7908 -3.5108
 6484SOL    HW230915   1.752   4.691   5.935  1.0519 -0.1873 -1.6212
 6485SOL     OW30916   3.845   4.346   2.662 -0.1534 -0.2131 -0.0745
 6485SOL    HW130917   3.901   4.364   2.737 -0.9005  2.5016 -0.1942
 6485SOL    HW230918   3.796   4.273   2.700 -1.5932  0.7233 -0.1621
 6486SOL     OW30919   3.552   1.251   5.081 -0.2539 -0.4564  0.0284
 6486SOL    HW130920   3.561   1.344   5.060 -1.4666 -0.4125 -0.2982
 6486SOL    HW230921   3.595   1.210   5.005  1.8063  3.3232 -0.8710
 6487SOL     OW30922   3.791   1.075   5.821 -0.1268 -0.3295 -0.2241
 6487SOL    HW130923   3.864   1.038   5.772 -1.0908 -0.0523 -1.8636
 6487SOL    HW230924   3.831   1.064   5.907  0.3252 -0.2080 -0.4173
 6488SOL     OW30925   3.376   2.702   2.642  0.1455 -0.5550 -0.4343
 6488SOL    HW130926   3.443   2.659   2.695 -0.5202 -0.7710  0.2424
 6488SOL    HW230927   3.426   2.717   2.563 -1.4859  3.8285 -0.6660
 6489SOL     OW30928   1.847   2.870   7.402  0.3740 -0.3965  0.5457
 6489SOL    HW130929   1.852   2.881   7.497 -0.9645 -2.0952  0.8195
 6489SOL    HW230930   1.848   2.963   7.378 -0.0268 -0.4662  0.2443
 6490SOL     OW30931   1.976   3.331  15.864 -0.3905 -0.3276 -0.3470
 6490SOL    HW130932   2.053   3.348  15.811  0.0361 -1.9023 -0.2362
 6490SOL    HW230933   1.910   3.324  15.794 -1.7462  1.3671  0.7724
 6491SOL     OW30934   1.023   1.744   0.755 -0.6815  0.3536  0.3356
 6491SOL    HW130935   0.935   1.762   0.720  0.1949  1.8893 -1.0242
 6491SOL    HW230936   1.010   1.769   0.846  2.3986 -1.1630  1.1879
 6492SOL     OW30937   2.569   1.161   2.222  0.4593 -0.4896 -0.5744
 6492SOL    HW130938   2.502   1.133   2.284  0.6562 -0.3685 -0.3048
 6492SOL    HW230939   2.650   1.146   2.271  0.5586 -0.8861 -0.8635
 6493SOL     OW30940   2.843   0.593   5.819  0.3693 -0.3368  0.3179
 6493SOL    HW130941   2.926   0.544   5.816  0.9543  0.7090 -0.3369
 6493SOL    HW230942   2.788   0.532   5.869  2.0249 -1.7454  0.4518
 6494SOL     OW30943   4.602   2.354   4.435 -0.0200  0.1956 -0.1389
 6494SOL    HW130944   4.655   2.292   4.386 -1.0096  0.6302 -1.7690
 6494SOL    HW230945   4.658   2.431   4.444  1.3739 -1.1295  2.1685
 6495SOL     OW30946   3.591   2.826  12.989 -0.1187 -0.1015  0.7620
 6495SOL    HW130947   3.518   2.887  13.003  0.6200  0.5945  1.5544
 6495SOL    HW230948   3.625   2.822  13.078  1.2091  0.0167  0.2522
 6496SOL     OW30949   0.377   3.506  16.548  0.5752  0.2169 -0.2226
 6496SOL    HW130950   0.415   3.591  16.526  0.3773  0.6915  1.2640
 6496SOL    HW230951   0.452   3.447  16.550  0.4818  0.1728  2.8696
 6497SOL     OW30952   4.246   3.475   5.361 -0.0962 -0.0917  0.2370
 6497SOL    HW130953   4.297   3.446   5.286 -0.6729 -1.3133  0.3012
 6497SOL    HW230954   4.257   3.402   5.422 -0.8319 -1.4432 -1.2153
 6498SOL     OW30955   0.294   2.830   0.235 -0.1009  0.0333 -0.0136
 6498SOL    HW130956   0.264   2.794   0.152  0.2399 -2.0798  0.7820
 6498SOL    HW230957   0.334   2.757   0.281  0.5335  1.2870  1.4286
 6499SOL     OW30958   0.430   2.738   5.111 -0.1092  0.1778 -0.0467
 6499SOL    HW130959   0.388   2.663   5.068  2.1813 -0.5197 -1.0947
 6499SOL    HW230960   0.404   2.719   5.201 -0.8266 -1.0916 -0.5073
 6500SOL     OW30961   3.730   2.008   5.743  0.0059  1.2403  0.0467
 6500SOL    HW130962   3.648   2.040   5.704 -0.1160  0.6120 -0.2137
 6500SOL    HW230963   3.710   1.924   5.782 -2.7049  1.3722 -1.0303
 6501SOL     OW30964   0.061   1.350   8.805 -0.1994 -0.6293  0.2675
 6501SOL    HW130965   0.140   1.392   8.837 -0.4260  1.9364 -2.5222
 6501SOL    HW230966   4.721   1.416   8.773 -0.7391 -1.4378 -0.3883
 6502SOL     OW30967   2.179   4.283  12.546 -0.1430  0.6615  0.0282
 6502SOL    HW130968   2.097   4.234  12.550  0.7952 -0.6278  3.2154
 6502SOL    HW230969   2.153   4.375  12.546  0.0666  0.7242 -1.2114
 6503SOL     OW30970   3.730   4.031   5.198 -0.0539  0.3512  0.2987
 6503SOL    HW130971   3.681   4.067   5.271 -3.7760 -1.9118 -1.0747
 6503SOL    HW230972   3.810   4.082   5.213 -0.5728  0.5258  2.4256
 6504SOL     OW30973   1.288   1.608   3.038 -0.9834 -0.0893 -0.4668
 6504SOL    HW130974   1.340   1.536   3.073 -1.1777  0.4401  0.9401
 6504SOL    HW230975   1.269   1.591   2.946  1.1922 -0.1508 -0.9059
 6505SOL     OW30976   3.070   0.687   7.714 -0.0360 -0.1425  0.0025
 6505SOL    HW130977   3.055   0.769   7.666 -0.4326  0.1408  0.6097
 6505SOL    HW230978   3.130   0.713   7.784 -1.6972 -0.1589  1.4325
 6506SOL     OW30979   1.282   2.676   2.611  0.3675  0.3509 -0.1812
 6506SOL    HW130980   1.261   2.720   2.529 -0.4602  0.7530  0.2438
 6506SOL    HW230981   1.290   2.583   2.591  1.9811  0.5701 -0.5424
 6507SOL     OW30982   2.218   1.754   5.354  0.7754  0.0819 -0.3865
 6507SOL    HW130983   2.281   1.703   5.405 -0.7391 -1.8297 -0.4264
 6507SOL    HW230984   2.154   1.685   5.337 -1.2319  1.6799  0.6519
 6508SOL     OW30985   4.280   0.112   9.752 -0.0108 -0.0279  0.0108
 6508SOL    HW130986   4.223   0.145   9.683  0.1200  0.9098  0.3476
 6508SOL    HW230987   4.213   0.057   9.792  0.0490  0.4166  0.7225
 6509SOL     OW30988   2.541   4.329   8.359  0.1919  0.1880  0.4361
 6509SOL    HW130989   2.556   4.412   8.314  1.4438 -0.5949 -0.5859
 6509SOL    HW230990   2.522   4.367   8.445 -0.5597  2.3141 -0.6866
 6510SOL     OW30991   3.641   1.044   3.036  0.8346 -0.0592 -0.9683
 6510SOL    HW130992   3.580   1.118   3.031 -0.1670 -0.8699 -0.7325
 6510SOL    HW230993   3.575   0.981   3.065 -0.4361  1.5884 -0.2013
 6511SOL     OW30994   1.592   3.889   5.561 -1.2674 -0.1387  0.1589
 6511SOL    HW130995   1.537   3.814   5.541 -0.9246 -0.1730 -0.6525
 6511SOL    HW230996   1.539   3.905   5.640 -1.1476 -0.2407  0.2592
 6512SOL     OW30997   0.287   1.862   8.755  0.5431 -0.1611 -0.1752
 6512SOL    HW130998   0.209   1.850   8.701  0.6845 -0.2257 -0.3655
 6512SOL    HW230999   0.275   1.957   8.765 -0.1604 -0.1108 -1.5737
 6513SOL     OW31000   4.458   2.750   8.280  0.3326 -0.5708  0.4611
 6513SOL    HW131001   4.502   2.827   8.316 -0.0364  0.0758 -0.4522
 6513SOL    HW231002   4.525   2.689   8.309  0.6650  0.1111  1.1213
 6514SOL     OW31003   2.862   2.035  16.393  0.2952 -0.4535 -0.7695
 6514SOL    HW131004   2.861   1.940  16.378 -3.9000 -0.8572  2.2945
 6514SOL    HW231005   2.772   2.043  16.362  0.6288  1.9670 -1.0841
 6515SOL     OW31006   0.860   4.019   2.876 -0.3628 -0.1725 -0.3775
 6515SOL    HW131007   0.876   4.096   2.821 -0.2966  0.9499  1.2126
 6515SOL    HW231008   0.882   3.948   2.816  0.1521  0.2947 -0.7378
 6516SOL     OW31009   0.550   0.724   3.596 -0.2191  0.2759  0.0803
 6516SOL    HW131010   0.561   0.650   3.537  1.2492  0.8375 -0.3660
 6516SOL    HW231011   0.467   0.706   3.640 -0.8551  0.2725 -1.1130
 6517SOL     OW31012   4.105   2.050   7.150 -0.0818  0.1540  0.5188
 6517SOL    HW131013   4.138   2.093   7.229 -0.2636 -0.8383  1.1303
 6517SOL    HW231014   4.066   1.967   7.176  2.0936 -1.4534 -1.3381
 6518SOL     OW31015   1.009   3.647   2.973 -0.6974  0.1197 -0.1449
 6518SOL    HW131016   0.932   3.653   2.916 -1.7727  0.2931  1.3186
 6518SOL    HW231017   1.017   3.552   2.972  0.0075  0.1745  0.2666
 6519SOL     OW31018   4.424   2.034   0.771  0.4269 -0.2852  0.2813
 6519SOL    HW131019   4.445   1.997   0.686  1.9131 -0.2921  0.6490
 6519SOL    HW231020   4.329   2.022   0.768  0.7443 -1.7334 -3.2854
 6520SOL     OW31021   1.692   1.888   2.777 -0.8416  0.6974 -0.1253
 6520SOL    HW131022   1.598   1.898   2.794 -0.6867  1.2900  0.3852
 6520SOL    HW231023   1.734   1.968   2.808  0.7357  0.2933 -1.1939
 6521SOL     OW31024   2.461   3.585   6.413  0.3824 -0.1134  0.4089
 6521SOL    HW131025   2.448   3.677   6.437 -1.4802  0.1297 -1.6548
 6521SOL    HW231026   2.424   3.543   6.491  2.3571  0.0529  1.4563
 6522SOL     OW31027   2.821   4.527   8.649  0.2599  0.2603  0.0309
 6522SOL    HW131028   2.859   4.440   8.646 -1.3780 -0.4243 -0.8260
 6522SOL    HW231029   2.841   4.551   8.739  1.1363 -0.1949 -0.0394
 6523SOL     OW31030   0.050   4.555   3.423 -0.1145 -0.4557  0.2735
 6523SOL    HW131031   0.019   4.508   3.345 -1.3249  1.0126 -0.1286
 6523SOL    HW231032   0.137   4.520   3.444  0.4345  1.3154  0.9449
 6524SOL     OW31033   0.786   4.200   0.005  0.5726 -0.0752 -0.4419
 6524SOL    HW131034   0.827   4.133   0.060  1.8214  1.4141  0.4463
 6524SOL    HW231035   0.739   4.246   0.075 -1.7391  0.0595 -2.0797
 6525SOL     OW31036   1.337   0.007   8.914  0.1074 -0.3094 -0.1160
 6525SOL    HW131037   1.334   0.063   8.992 -0.6755 -1.3885  0.6175
 6525SOL    HW231038   1.243   0.004   8.899 -0.2094 -1.3885  2.1067
 6526SOL     OW31039   3.255   1.205   6.538 -0.1346  0.3538 -0.8770
 6526SOL    HW131040   3.276   1.282   6.487 -0.4423  0.2264 -1.1943
 6526SOL    HW231041   3.335   1.182   6.587 -1.5399 -1.4467  0.5786
 6527SOL     OW31042   3.434   3.226   4.366  0.1771  0.2199  0.6381
 6527SOL    HW131043   3.525   3.208   4.391 -0.3114 -2.6857  0.3095
 6527SOL    HW231044   3.387   3.172   4.428 -1.1746  1.1844  0.4665
 6528SOL     OW31045   0.968   2.824   5.830 -0.1070 -0.4696 -0.0351
 6528SOL    HW131046   0.890   2.849   5.878 -1.4890 -1.5585 -1.7249
 6528SOL    HW231047   1.012   2.906   5.853 -1.0020 -0.5199  1.8522
 6529SOL     OW31048   4.470   4.294   6.429  0.4333  0.7757 -0.3589
 6529SOL    HW131049   4.555   4.264   6.461  0.6254  1.0110 -0.6395
 6529SOL    HW231050   4.427   4.215   6.395 -3.0077  1.5734  2.1088
 6530SOL     OW31051   1.863   1.487   8.242  0.7117 -0.6254 -0.7850
 6530SOL    HW131052   1.835   1.570   8.280  1.3986 -0.6703 -0.1638
 6530SOL    HW231053   1.818   1.427   8.302  0.4141 -1.1100 -1.4977
 6531SOL     OW31054   2.439   1.063  10.879 -0.3064 -0.1019 -0.4821
 6531SOL    HW131055   2.427   1.130  10.811 -0.4567  0.7476  0.3854
 6531SOL    HW231056   2.356   1.072  10.925 -0.4465  0.6147 -0.8714
 6532SOL     OW31057   1.678   0.325  16.014  0.3094 -0.2980 -0.2007
 6532SOL    HW131058   1.638   0.258  15.957 -0.8667 -1.3619  1.8897
 6532SOL    HW231059   1.768   0.294  16.018  0.5160  0.8443  4.0480
 6533SOL     OW31060   2.234   3.350   2.394 -0.5882  0.0520  0.0700
 6533SOL    HW131061   2.224   3.439   2.362 -2.1932 -1.1090 -2.6688
 6533SOL    HW231062   2.293   3.361   2.468 -0.8455 -2.9875  0.7527
 6534SOL     OW31063   2.024   3.797   2.586  0.3634  0.7955  1.1774
 6534SOL    HW131064   2.112   3.760   2.586  0.6449  1.4738 -1.4486
 6534SOL    HW231065   2.042   3.844   2.505 -0.6647 -0.5416  0.1709
 6535SOL     OW31066   0.395   3.030  12.346  0.0636 -0.4976 -0.6595
 6535SOL    HW131067   0.340   2.953  12.327 -0.3195 -0.8526  1.8758
 6535SOL    HW231068   0.451   3.025  12.268 -0.8415  1.8721 -1.4777
 6536SOL     OW31069   0.425   1.133   9.707  0.2746 -0.0980  0.4670
 6536SOL    HW131070   0.385   1.100   9.787 -2.5363 -0.1058 -0.9414
 6536SOL    HW231071   0.376   1.090   9.637 -1.6209  1.7494  0.6555
 6537SOL     OW31072   0.787   3.410   6.473  0.5552 -0.5941  0.6609
 6537SOL    HW131073   0.824   3.442   6.555 -0.1442 -0.0010  0.7446
 6537SOL    HW231074   0.796   3.317   6.497  0.0958 -0.1408  2.6100
 6538SOL     OW31075   0.536   4.096   4.484  1.0937 -0.4533 -0.6034
 6538SOL    HW131076   0.586   4.133   4.556 -2.2714  1.2408  0.8672
 6538SOL    HW231077   0.595   4.058   4.419 -0.9041 -1.2537 -1.9351
 6539SOL     OW31078   3.083   3.746   5.895  0.4840 -0.3247  0.2267
 6539SOL    HW131079   3.130   3.671   5.857  2.2496  0.4560  0.8675
 6539SOL    HW231080   3.075   3.807   5.821 -0.7446 -0.0469  0.5915
 6540SOL     OW31081   1.514   0.613   5.962  0.3445  0.3528  0.5365
 6540SOL    HW131082   1.591   0.669   5.956  3.3232 -3.7867 -0.3240
 6540SOL    HW231083   1.460   0.654   6.030  0.0199  1.4343 -0.3678
 6541SOL     OW31084   2.904   2.564   2.490  0.0703 -0.0327  0.6264
 6541SOL    HW131085   2.813   2.568   2.520 -0.4526 -3.5357 -0.5832
 6541SOL    HW231086   2.912   2.489   2.432 -0.3874 -1.7031  2.7279
 6542SOL     OW31087   0.223   2.861   4.166 -0.6660 -0.1614 -0.1064
 6542SOL    HW131088   0.261   2.922   4.104  1.1604 -0.5587  0.5977
 6542SOL    HW231089   0.298   2.854   4.226 -0.6526  0.3054 -0.0726
 6543SOL     OW31090   1.074   0.362  11.046 -0.5455  0.2075  0.3296
 6543SOL    HW131091   1.009   0.328  11.108  0.8538  1.1760  2.3280
 6543SOL    HW231092   1.040   0.337  10.960 -0.4400  0.4572  0.2166
 6544SOL     OW31093   3.615   2.667   1.380 -0.3388  0.5066 -0.3786
 6544SOL    HW131094   3.677   2.670   1.453  1.0107 -0.5107 -1.4984
 6544SOL    HW231095   3.552   2.726   1.423 -1.2491 -1.3557  0.8164
 6545SOL     OW31096   2.369   0.612   7.447  0.0988 -0.5607 -0.3076
 6545SOL    HW131097   2.446   0.659   7.481 -1.5294 -0.0283  2.6253
 6545SOL    HW231098   2.378   0.614   7.352  1.6258 -0.7669 -0.1724
 6546SOL     OW31099   0.042   0.631   3.875 -0.1180 -0.6700 -0.5295
 6546SOL    HW131100   0.012   0.540   3.866 -0.7286 -0.5718  0.4274
 6546SOL    HW231101   0.108   0.619   3.944 -2.2277 -1.7716  1.3243
 6547SOL     OW31102   3.798   0.979   7.288  0.5125 -0.0730 -0.2074
 6547SOL    HW131103   3.870   0.990   7.226 -1.6203  1.6635 -2.3772
 6547SOL    HW231104   3.734   1.028   7.237 -0.5387 -0.2801  0.9263
 6548SOL     OW31105   0.495   1.839   5.190 -0.1931  0.1882  0.6261
 6548SOL    HW131106   0.578   1.884   5.205  0.7440 -1.4446  0.3870
 6548SOL    HW231107   0.481   1.806   5.279 -1.7714  2.5428  1.2444
 6549SOL     OW31108   2.174   4.668   3.335  0.2140 -0.6543  0.7302
 6549SOL    HW131109   2.119   4.605   3.290 -1.8249  1.6222  0.0917
 6549SOL    HW231110   2.156   4.654   3.428  1.2148  0.7777  1.1438
 6550SOL     OW31111   2.586   1.142   3.137  0.0083 -0.2363 -0.1971
 6550SOL    HW131112   2.664   1.095   3.109  0.0273  0.7076 -1.7305
 6550SOL    HW231113   2.625   1.190   3.210  0.9047  0.5810 -1.2188
 6551SOL     OW31114   2.279   0.594   5.379 -0.0778  0.0707 -0.1636
 6551SOL    HW131115   2.321   0.663   5.328  2.3324 -1.4798 -0.2729
 6551SOL    HW231116   2.349   0.582   5.443  0.5815  1.0109 -0.7067
 6552SOL     OW31117   3.853   0.297  10.654 -0.6049  0.0245  0.1719
 6552SOL    HW131118   3.905   0.219  10.635 -0.7869  0.4070 -1.9086
 6552SOL    HW231119   3.857   0.347  10.573  1.1535  0.8990  0.7875
 6553SOL     OW31120   3.039   0.987   2.859  0.1102  0.4902 -0.3383
 6553SOL    HW131121   3.057   0.902   2.820  2.0217  0.2724  1.0060
 6553SOL    HW231122   3.005   1.033   2.782 -1.3606  1.9368  1.1791
 6554SOL     OW31123   4.469   2.615  11.686 -0.3366  0.2109 -0.2146
 6554SOL    HW131124   4.536   2.650  11.628  0.0189  0.5208  0.3933
 6554SOL    HW231125   4.504   2.529  11.708 -1.6567 -0.1614  0.4343
 6555SOL     OW31126   3.467   3.623   5.801 -0.1766 -0.2796 -0.4741
 6555SOL    HW131127   3.414   3.650   5.726 -1.7829 -0.3035  0.6543
 6555SOL    HW231128   3.553   3.639   5.762 -0.3866 -0.3122 -0.9514
 6556SOL     OW31129   4.084   0.195   9.590 -0.7575  0.2876 -0.2454
 6556SOL    HW131130   4.037   0.152   9.518  0.4360 -2.5882  0.6928
 6556SOL    HW231131   4.043   0.281   9.585  0.5898  1.0176  1.0579
 6557SOL     OW31132   0.103   4.348   5.692 -0.3566  0.0085 -0.4878
 6557SOL    HW131133   0.195   4.371   5.703 -0.9126  1.0932  1.9031
 6557SOL    HW231134   0.086   4.269   5.744 -0.6491  2.0561  2.5777
 6558SOL     OW31135   1.319   2.982   1.124  0.4704  0.4931  0.3867
 6558SOL    HW131136   1.402   2.958   1.163  0.1073  0.8300  1.3518
 6558SOL    HW231137   1.254   2.931   1.172 -1.2598  0.8897 -1.5148
 6559SOL     OW31138   2.979   0.638   6.341  0.3707 -0.3391  0.2981
 6559SOL    HW131139   3.058   0.692   6.333 -0.6061  0.8061 -1.6746
 6559SOL    HW231140   2.981   0.572   6.271 -1.2477  0.1812 -0.2453
 6560SOL     OW31141   4.147   1.291   7.330  0.8352  0.1306  0.1728
 6560SOL    HW131142   4.133   1.268   7.422 -1.3087 -0.3242 -0.2707
 6560SOL    HW231143   4.124   1.384   7.328  0.8525  0.1353  0.1847
 6561SOL     OW31144   0.906   0.834  16.591  0.1362  0.2874 -0.1441
 6561SOL    HW131145   0.961   0.755  16.590 -1.6484 -0.9862  1.3088
 6561SOL    HW231146   0.936   0.879  16.670 -1.4484 -1.7949  1.6577
 6562SOL     OW31147   3.501   1.832  10.195  0.1442 -0.0430  0.2833
 6562SOL    HW131148   3.464   1.807  10.110  0.5456  1.4189 -0.3229
 6562SOL    HW231149   3.462   1.767  10.253 -2.2807  0.0830 -1.1987
 6563SOL     OW31150   1.945   4.499   0.537  0.2627 -0.3505 -0.1760
 6563SOL    HW131151   1.860   4.542   0.549  0.7706  1.0850 -1.6564
 6563SOL    HW231152   2.001   4.545   0.474 -0.1323 -0.4277 -0.5905
 6564SOL     OW31153   1.211   3.595   4.752  0.0729 -0.1416  0.4802
 6564SOL    HW131154   1.256   3.529   4.698  2.1322  0.1977  1.7752
 6564SOL    HW231155   1.126   3.552   4.745  0.0346  0.0508 -0.2913
 6565SOL     OW31156   4.637   1.728   6.409 -0.1154  0.1225 -0.7579
 6565SOL    HW131157   4.688   1.777   6.345  0.6997 -0.8501 -0.8525
 6565SOL    HW231158   4.705   1.721   6.476 -2.1803 -2.1705  1.1486
 6566SOL     OW31159   1.056   2.398   3.001  0.0169  0.5119 -0.1021
 6566SOL    HW131160   1.122   2.457   2.965  0.1597 -0.8747 -2.0650
 6566SOL    HW231161   1.023   2.353   2.923  0.7848  1.1412 -0.7901
 6567SOL     OW31162   0.804   3.660   2.481  0.4245  0.0351  0.2443
 6567SOL    HW131163   0.758   3.718   2.420  0.5992 -0.4685 -0.3583
 6567SOL    HW231164   0.763   3.580   2.451 -1.7639  1.2580 -0.0155
 6568SOL     OW31165   0.686   4.427   2.515  0.3986 -0.5253  0.6527
 6568SOL    HW131166   0.600   4.452   2.482  0.6995  0.2270  0.4309
 6568SOL    HW231167   0.748   4.496   2.490 -3.2658  3.3303  2.1870
 6569SOL     OW31168   1.369   4.115   7.575  0.2619 -0.1221  0.6911
 6569SOL    HW131169   1.327   4.036   7.608  1.1420 -1.5822 -1.7000
 6569SOL    HW231170   1.293   4.157   7.536  0.6049  1.1224  1.3298
 6570SOL     OW31171   2.779   0.462   7.532 -0.3623 -0.0236  0.4888
 6570SOL    HW131172   2.702   0.423   7.572 -1.4309  0.4832 -1.1119
 6570SOL    HW231173   2.744   0.537   7.484 -1.6686 -1.0959 -0.1926
 6571SOL     OW31174   0.014   3.540  15.893  0.3211  0.3733 -0.0163
 6571SOL    HW131175   4.664   3.602  15.908 -0.1289  0.0333 -0.7306
 6571SOL    HW231176   4.704   3.474  15.832  0.2603 -0.8155  1.3122
 6572SOL     OW31177   2.120   3.909   2.356 -0.1642 -0.0093 -0.4283
 6572SOL    HW131178   2.205   3.953   2.348 -0.1944  0.0306 -0.5203
 6572SOL    HW231179   2.056   3.969   2.318 -0.0054  0.2809 -0.2454
 6573SOL     OW31180   2.680   4.631   4.891 -0.5670 -0.3271  0.1855
 6573SOL    HW131181   2.749   4.695   4.878 -0.5880  0.1756  2.6314
 6573SOL    HW231182   2.635   4.680   4.960 -1.8886 -2.7567  1.0782
 6574SOL     OW31183   0.744   0.841   4.848  0.4918  0.7587 -0.0095
 6574SOL    HW131184   0.826   0.823   4.802  0.2643 -1.7166  0.5318
 6574SOL    HW231185   0.710   0.891   4.775 -0.2586 -1.2484 -1.0266
 6575SOL     OW31186   1.630   2.122   4.537 -0.2234  0.8360  0.2049
 6575SOL    HW131187   1.664   2.049   4.590 -1.0156  0.1750 -0.1960
 6575SOL    HW231188   1.710   2.150   4.493 -1.1011 -2.4973 -3.5312
 6576SOL     OW31189   0.206   1.460   8.177  0.1147  0.3014 -0.7296
 6576SOL    HW131190   0.270   1.411   8.229  0.1154  0.8350 -0.2322
 6576SOL    HW231191   0.207   1.543   8.225  2.3184  0.2597 -0.6874
 6577SOL     OW31192   3.263   3.982   3.835  0.0885 -0.5397  0.6045
 6577SOL    HW131193   3.183   4.001   3.785  0.4427  1.0633  0.6673
 6577SOL    HW231194   3.333   4.038   3.802  1.7103 -2.9032  0.0310
 6578SOL     OW31195   4.003   1.001   8.137  0.0229 -0.0089  0.5396
 6578SOL    HW131196   4.081   0.999   8.082 -1.4911  0.1303 -1.6325
 6578SOL    HW231197   4.045   1.043   8.212 -2.0878  1.9359  0.6561
 6579SOL     OW31198   2.393   3.555   2.198  0.3743 -0.1781 -0.0601
 6579SOL    HW131199   2.305   3.580   2.226  0.9314  0.8643  0.7287
 6579SOL    HW231200   2.430   3.633   2.157 -0.4159  1.1043  1.7047
 6580SOL     OW31201   0.178   2.733   6.484  0.3605 -0.3355 -0.1053
 6580SOL    HW131202   0.249   2.673   6.509  0.2849 -1.5914 -2.8946
 6580SOL    HW231203   0.220   2.817   6.464 -0.2233 -0.0155  0.0174
 6581SOL     OW31204   4.598   3.830  11.461  0.0597  0.0857 -0.6910
 6581SOL    HW131205   4.604   3.819  11.556 -2.6652  1.9770 -0.2853
 6581SOL    HW231206   4.505   3.854  11.456 -0.1861 -0.8993 -0.8797
 6582SOL     OW31207   4.241   0.513   6.295  0.2460  0.5839 -0.7486
 6582SOL    HW131208   4.225   0.423   6.267 -0.3310 -0.0424  1.5529
 6582SOL    HW231209   4.162   0.528   6.348  0.6762  1.4161 -0.3358
 6583SOL     OW31210   0.091   3.899   0.040  0.2090 -0.3224 -0.3591
 6583SOL    HW131211   0.033   3.971   0.018  0.4386 -0.5454 -1.6867
 6583SOL    HW231212   0.146   3.934   0.111 -0.4204 -1.8614  0.8982
 6584SOL     OW31213   4.245   0.522   9.763  0.0858 -0.3752  0.5893
 6584SOL    HW131214   4.241   0.585   9.835  2.0682  0.7215 -0.2676
 6584SOL    HW231215   4.294   0.452   9.805  0.9511  0.3662  0.8072
 6585SOL     OW31216   3.184   0.462   8.653  0.4600 -0.1163 -0.1810
 6585SOL    HW131217   3.104   0.511   8.630  0.3678 -0.7302 -1.1727
 6585SOL    HW231218   3.250   0.530   8.664 -0.1316  0.6307 -1.2076
 6586SOL     OW31219   3.327   2.204   6.255 -0.0231 -0.0927 -0.8523
 6586SOL    HW131220   3.259   2.194   6.321  0.1551  1.2808 -0.4598
 6586SOL    HW231221   3.391   2.246   6.313  1.2486 -1.1255 -1.5080
 6587SOL     OW31222   1.080   3.607  15.242  0.3988  0.3385  0.4447
 6587SOL    HW131223   1.042   3.668  15.178  1.9944  1.7643  0.8514
 6587SOL    HW231224   1.166   3.642  15.267 -0.4823  1.5846  1.6912
 6588SOL     OW31225   0.233   0.315   3.353  0.5101  0.4450 -0.0215
 6588SOL    HW131226   0.196   0.400   3.328 -1.9530 -0.3587  0.8788
 6588SOL    HW231227   0.237   0.271   3.269 -0.8030  0.5764 -0.1515
 6589SOL     OW31228   4.024   1.711  10.356  0.1020  0.3079 -0.1979
 6589SOL    HW131229   3.964   1.690  10.284 -0.6259  0.4054  0.3765
 6589SOL    HW231230   4.008   1.630  10.404 -0.0906  1.6905  2.0534
 6590SOL     OW31231   4.540   3.039   4.684 -0.4782 -0.0431 -0.6405
 6590SOL    HW131232   4.547   3.004   4.595 -1.7686 -0.7203 -0.4664
 6590SOL    HW231233   4.455   2.996   4.691  0.1141 -1.0148  0.4150
 6591SOL     OW31234   2.223   3.800   6.324 -0.0093 -0.4830  0.3372
 6591SOL    HW131235   2.225   3.791   6.419  0.1670  0.5187  0.4253
 6591SOL    HW231236   2.163   3.727   6.304  0.0715 -0.6654  0.7662
 6592SOL     OW31237   3.986   1.992  11.822 -0.3646  0.2234  0.1502
 6592SOL    HW131238   4.038   2.014  11.744 -1.2280  1.1427 -0.1788
 6592SOL    HW231239   4.040   2.034  11.889  0.0958 -0.5198  0.2402
 6593SOL     OW31240   1.750   0.008   8.621  0.1090  0.1708  0.3109
 6593SOL    HW131241   1.711   0.035   8.538 -0.1294  0.2057  0.4345
 6593SOL    HW231242   1.703   0.067   8.679  0.7195  1.1371 -0.1806
 6594SOL     OW31243   0.036   1.218   0.132  0.0889  0.0255 -0.0620
 6594SOL    HW131244   4.691   1.191   0.196 -0.2743  3.4103  0.9489
 6594SOL    HW231245   0.077   1.294   0.172 -2.9292  1.2795  0.6070
 6595SOL     OW31246   2.148   4.680  10.927  0.6635 -0.4343  0.7159
 6595SOL    HW131247   2.164   4.592  10.961 -0.1005 -0.3742  1.2308
 6595SOL    HW231248   2.189   0.008  10.998  3.0723  0.9209 -1.6074
 6596SOL     OW31249   0.859   4.633   2.465 -0.4515  0.3566  0.2027
 6596SOL    HW131250   0.944   4.605   2.432 -1.3634 -0.1992 -1.7252
 6596SOL    HW231251   0.808   4.642   2.384  3.1448  1.5445 -1.9499
 6597SOL     OW31252   0.863   3.435   4.036  0.1917 -0.1857  0.2231
 6597SOL    HW131253   0.935   3.494   4.057  0.9389 -0.7749 -0.7090
 6597SOL    HW231254   0.835   3.470   3.952  0.4811 -2.5551 -0.8607
 6598SOL     OW31255   4.228   3.772   4.008 -0.0324 -0.1542  0.2821
 6598SOL    HW131256   4.196   3.862   4.014  2.6228  0.7903  0.2168
 6598SOL    HW231257   4.319   3.786   3.982 -0.4009 -1.6874 -1.8234
 6599SOL     OW31258   2.611   2.297   8.117  0.0501 -0.4863  0.0769
 6599SOL    HW131259   2.584   2.386   8.092  0.3866  0.1485  1.9873
 6599SOL    HW231260   2.678   2.308   8.185  1.4496  1.0860 -1.5474
 6600SOL     OW31261   3.900   3.509   5.684 -0.6213  0.2810 -0.2678
 6600SOL    HW131262   3.909   3.414   5.695  0.9761  0.3974 -0.5178
 6600SOL    HW231263   3.834   3.511   5.615  0.1051  3.4913 -0.8543
 6601SOL     OW31264   1.531   1.292   2.694 -0.1262 -0.4128  0.4677
 6601SOL    HW131265   1.569   1.309   2.608 -0.3680 -3.3650 -0.2172
 6601SOL    HW231266   1.585   1.348   2.750 -1.0413  0.6891  0.2719
 6602SOL     OW31267   0.697   2.651   8.652 -0.2499 -0.5228  0.1903
 6602SOL    HW131268   0.785   2.628   8.621 -0.3025 -0.7964  0.2455
 6602SOL    HW231269   0.668   2.696   8.573 -1.1414 -0.6300  0.4541
 6603SOL     OW31270   1.658   1.513   9.591 -0.0346  0.1055  0.5511
 6603SOL    HW131271   1.668   1.530   9.497  0.7519  2.0102  0.9781
 6603SOL    HW231272   1.671   1.602   9.622  1.0040  0.0961  0.1218
 6604SOL     OW31273   1.489   3.274  14.020 -0.9719  0.3532 -0.5348
 6604SOL    HW131274   1.471   3.245  14.109 -1.8073  2.7702  0.0513
 6604SOL    HW231275   1.574   3.316  14.030 -1.3264  1.2722 -1.3230
 6605SOL     OW31276   4.430   0.296  14.785 -0.0989  0.1439  0.6045
 6605SOL    HW131277   4.445   0.351  14.709  2.2432 -0.9588  0.2359
 6605SOL    HW231278   4.519   0.281  14.819 -0.9060  0.2701  2.7745
 6606SOL     OW31279   4.623   3.600   5.188  0.0934  0.2132 -0.2958
 6606SOL    HW131280   4.673   3.606   5.107 -1.0475  1.5255 -0.9094
 6606SOL    HW231281   4.618   3.693   5.209  0.8881  0.5842 -1.7523
 6607SOL     OW31282   2.385   1.723   8.475  0.2359  0.3043 -0.1127
 6607SOL    HW131283   2.447   1.734   8.546  1.0418 -0.7175 -0.6492
 6607SOL    HW231284   2.387   1.628   8.461  1.8193  0.4505 -0.7724
 6608SOL     OW31285   2.911   0.240   6.013 -0.1970 -0.3234 -0.1810
 6608SOL    HW131286   3.003   0.212   6.004  0.0476  0.3900  0.0958
 6608SOL    HW231287   2.885   0.217   5.923  0.9148  0.6971 -0.7704
 6609SOL     OW31288   1.080   2.224   3.766 -0.4549 -0.0472 -0.2682
 6609SOL    HW131289   1.104   2.149   3.821 -2.2659  0.3678  1.0458
 6609SOL    HW231290   1.080   2.171   3.685  2.2318 -3.0367  1.6758
 6610SOL     OW31291   0.640   1.919  13.938  0.4704  0.4258 -0.9654
 6610SOL    HW131292   0.551   1.888  13.920 -0.6593  2.1347  1.7017
 6610SOL    HW231293   0.670   1.943  13.850  0.1479  1.3855 -0.8105
 6611SOL     OW31294   3.627   4.552   8.383 -0.0121 -0.0474 -0.6150
 6611SOL    HW131295   3.582   4.581   8.462  0.2257  0.5709 -0.7048
 6611SOL    HW231296   3.651   4.634   8.339  0.4500  0.9617  1.5197
 6612SOL     OW31297   3.508   1.699   4.094  0.2134 -0.5256  0.3005
 6612SOL    HW131298   3.442   1.638   4.126  2.0187 -1.6285  1.9435
 6612SOL    HW231299   3.530   1.750   4.172  0.9599 -0.3515 -0.0219
 6613SOL     OW31300   3.368   4.120  11.520 -0.3909  0.4517 -0.2082
 6613SOL    HW131301   3.314   4.041  11.509 -0.2101 -0.0144  2.2616
 6613SOL    HW231302   3.384   4.151  11.431  1.3337 -0.1393 -0.0940
 6614SOL     OW31303   1.834   1.899  16.636  0.0859 -0.3107 -0.2045
 6614SOL    HW131304   1.745   1.931  16.651  0.0430 -0.5665  0.0838
 6614SOL    HW231305   1.838   1.824  16.695 -2.0295 -1.1539 -1.1357
 6615SOL     OW31306   3.539   1.479  12.335  0.3740 -0.7989 -0.6000
 6615SOL    HW131307   3.480   1.548  12.365  0.9400  1.6968 -5.2569
 6615SOL    HW231308   3.624   1.520  12.354  0.1067 -0.1766 -0.7747
 6616SOL     OW31309   2.051   0.214   9.775 -0.3669  0.4116  0.4644
 6616SOL    HW131310   2.075   0.213   9.868 -1.8538  2.8850  0.8742
 6616SOL    HW231311   2.018   0.124   9.774  0.3833  0.1361  0.5527
 6617SOL     OW31312   4.561   1.393   7.010 -0.0492 -0.3387  0.1734
 6617SOL    HW131313   4.569   1.470   7.067  2.0259 -2.4470  2.7310
 6617SOL    HW231314   4.518   1.334   7.072  1.1796 -1.9130 -0.4792
 6618SOL     OW31315   0.890   2.901  11.155  0.2982 -0.5075 -0.4218
 6618SOL    HW131316   0.821   2.843  11.187  1.6814 -0.8895  1.8199
 6618SOL    HW231317   0.905   2.867  11.066 -0.3907  3.3290 -2.0196
 6619SOL     OW31318   2.662   0.381   3.295 -0.5538  0.3892  0.0008
 6619SOL    HW131319   2.717   0.458   3.285  0.1116 -0.0103  0.5464
 6619SOL    HW231320   2.621   0.381   3.209  0.2564 -1.5997 -0.3931
 6620SOL     OW31321   1.780   1.208   3.523  0.4269 -0.3289  0.1915
 6620SOL    HW131322   1.840   1.140   3.491 -0.0197 -0.7078  0.1700
 6620SOL    HW231323   1.724   1.156   3.580  1.8258 -2.3655 -0.2718
 6621SOL     OW31324   1.837   0.041  10.986  0.2945  0.2743 -0.3486
 6621SOL    HW131325   1.903   4.693  10.987  1.9940  1.8493 -2.7555
 6621SOL    HW231326   1.778   0.017  11.057  0.6448 -0.7072 -0.3937
 6622SOL     OW31327   1.188   1.555  10.343 -0.4469  0.3933 -0.9524
 6622SOL    HW131328   1.161   1.556  10.435 -0.6156  0.9747 -1.0051
 6622SOL    HW231329   1.154   1.471  10.315  2.3630 -1.4809  1.2890
 6623SOL     OW31330   2.198   0.508   3.123 -0.4971  0.0964 -0.3614
 6623SOL    HW131331   2.265   0.484   3.187  0.9476 -0.2699 -2.0170
 6623SOL    HW231332   2.214   0.449   3.050  1.3078  0.1464 -0.0101
 6624SOL     OW31333   2.961   4.417   3.668  0.9046  0.4156  0.2148
 6624SOL    HW131334   3.037   4.471   3.644  1.1900 -0.1201 -0.0757
 6624SOL    HW231335   2.927   4.466   3.743 -0.3638 -0.2985  0.0939
 6625SOL     OW31336   4.006   4.159  10.358  0.1032 -0.2113  0.1644
 6625SOL    HW131337   4.089   4.167  10.312  0.3881  1.8278  1.0581
 6625SOL    HW231338   4.029   4.110  10.437 -2.5869 -0.2586  0.9207
 6626SOL     OW31339   1.708   0.940  12.094 -0.6044 -0.5677  0.0289
 6626SOL    HW131340   1.634   0.915  12.039  0.0296 -0.0340 -1.0599
 6626SOL    HW231341   1.778   0.877  12.076 -1.1242 -0.8793 -0.8492
 6627SOL     OW31342   4.617   3.634  14.406 -0.1071  0.4754 -0.0104
 6627SOL    HW131343   4.538   3.616  14.457  0.6161 -1.9941  0.2583
 6627SOL    HW231344   4.575   3.633  14.320  0.9764  0.6930 -0.5398
 6628SOL     OW31345   1.949   4.558   8.677  0.5344 -0.1831  0.0337
 6628SOL    HW131346   1.871   4.609   8.653 -0.7511 -1.0158  2.4701
 6628SOL    HW231347   1.933   4.549   8.771 -2.1257 -1.0198 -0.5099
 6629SOL     OW31348   3.229   0.089   9.378 -0.4966 -0.1522  0.2845
 6629SOL    HW131349   3.256   4.719   9.379 -1.4355 -0.4138  1.5001
 6629SOL    HW231350   3.137   0.101   9.403 -0.7641  0.4517 -1.0260
 6630SOL     OW31351   3.859   3.918   6.979  0.1888 -0.1411  0.3352
 6630SOL    HW131352   3.796   3.886   6.914  2.0134 -0.3371 -1.3122
 6630SOL    HW231353   3.816   3.877   7.054 -2.3300  1.7490 -0.0511
 6631SOL     OW31354   1.379   0.360   4.809  0.3374 -0.4042  0.3405
 6631SOL    HW131355   1.437   0.302   4.858  1.2537  3.3870  3.7923
 6631SOL    HW231356   1.438   0.436   4.802  1.3271 -1.1019  1.1183
 6632SOL     OW31357   2.292   3.608   4.313  0.2828  0.4326  0.2357
 6632SOL    HW131358   2.343   3.636   4.389  0.4404 -1.9122  0.9738
 6632SOL    HW231359   2.351   3.636   4.243  2.7793  1.8870  2.8983
 6633SOL     OW31360   0.540   2.037   4.206  0.3046 -0.3806  0.1596
 6633SOL    HW131361   0.488   2.051   4.127 -1.9469  1.5340  1.9820
 6633SOL    HW231362   0.469   2.067   4.263 -0.5536 -0.6873 -0.7532
 6634SOL     OW31363   2.261   0.548  16.061  0.2210  0.2373  0.1482
 6634SOL    HW131364   2.269   0.514  16.150 -0.9262  0.3879  0.3141
 6634SOL    HW231365   2.341   0.514  16.021  0.5800  0.4269  0.7151
 6635SOL     OW31366   0.871   0.841   3.936 -0.4081  0.0555  0.2629
 6635SOL    HW131367   0.821   0.837   4.018  0.8336  0.3781  1.0421
 6635SOL    HW231368   0.860   0.751   3.905  2.2408  0.6122 -2.2630
 6636SOL     OW31369   4.252   2.180   7.751  0.4552  0.2849 -0.2513
 6636SOL    HW131370   4.234   2.109   7.813  0.4241 -0.6203 -1.2843
 6636SOL    HW231371   4.210   2.255   7.792 -1.3546  0.2021 -1.9395
 6637SOL     OW31372   0.112   3.718  10.918 -0.1352  0.1124 -0.1614
 6637SOL    HW131373   0.018   3.711  10.900 -0.3843  1.0114  0.8247
 6637SOL    HW231374   0.118   3.723  11.013  1.2484 -0.6523 -0.2109
 6638SOL     OW31375   0.450   1.793   9.535 -0.2671  0.0924  1.0015
 6638SOL    HW131376   0.523   1.732   9.546  0.9528  1.5983  1.1028
 6638SOL    HW231377   0.478   1.864   9.479  0.0382  0.6020  1.8061
 6639SOL     OW31378   2.138   4.525   2.504  0.5253  0.2622  0.1315
 6639SOL    HW131379   2.074   4.541   2.435  0.0809 -1.8802  0.0730
 6639SOL    HW231380   2.217   4.553   2.457  1.5667 -0.4829  1.4416
 6640SOL     OW31381   1.010   3.129  13.728 -0.6431  0.3230  0.4263
 6640SOL    HW131382   1.026   3.084  13.811  0.7054 -0.3954 -0.2205
 6640SOL    HW231383   1.038   3.215  13.760  1.7837 -0.3887  0.2272
 6641SOL     OW31384   1.305   4.570   6.544 -0.2736  0.0339  0.0282
 6641SOL    HW131385   1.328   4.606   6.458  0.4399  1.0791  0.6490
 6641SOL    HW231386   1.242   4.635   6.576  0.1458  1.3300 -1.7597
 6642SOL     OW31387   1.944   4.708   5.282 -0.1963  0.3937  0.9213
 6642SOL    HW131388   2.021   0.044   5.285  0.3997 -0.3418 -0.0210
 6642SOL    HW231389   1.873   0.031   5.328 -1.3474 -1.0075  0.4812
 6643SOL     OW31390   1.912   2.480   4.451 -0.0647 -0.2331  0.1039
 6643SOL    HW131391   1.939   2.523   4.370  0.0446 -0.0562  0.2319
 6643SOL    HW231392   1.933   2.542   4.521 -0.2235  0.7491 -0.7067
 6644SOL     OW31393   1.358   1.325   8.920 -0.0096 -0.7308  0.0791
 6644SOL    HW131394   1.377   1.412   8.954  0.2166 -0.7631  0.0359
 6644SOL    HW231395   1.446   1.287   8.922  0.4869  0.3028 -2.1661
 6645SOL     OW31396   1.507   0.738  13.400 -0.2130 -0.7774 -0.3816
 6645SOL    HW131397   1.517   0.653  13.443 -1.6329 -0.7133  0.0729
 6645SOL    HW231398   1.577   0.790  13.438 -2.6835  0.7155  2.1138
 6646SOL     OW31399   1.161   3.599   9.335 -0.0458 -0.3031 -0.0105
 6646SOL    HW131400   1.214   3.627   9.409  1.3550  1.1765 -1.5593
 6646SOL    HW231401   1.083   3.648   9.362  0.6354 -0.3464  2.0352
 6647SOL     OW31402   0.569   1.927  11.391  0.7785 -0.3467  0.1848
 6647SOL    HW131403   0.591   1.835  11.401  0.7595 -0.4861 -1.0793
 6647SOL    HW231404   0.549   1.948  11.483  0.0166  0.3553 -0.1416
 6648SOL     OW31405   0.579   4.037   7.299  0.0901  0.2614 -0.6784
 6648SOL    HW131406   0.493   4.055   7.336  0.2103 -0.7791  0.1187
 6648SOL    HW231407   0.562   3.960   7.245  0.9088  0.2515 -0.9304
 6649SOL     OW31408   3.079   2.625  11.872 -0.6316  0.4916 -0.1030
 6649SOL    HW131409   3.073   2.553  11.935  0.2091  0.2861 -0.2550
 6649SOL    HW231410   3.001   2.679  11.886  0.0215  1.4046 -0.0337
 6650SOL     OW31411   1.420   3.588   9.944 -0.0576 -0.2702 -0.0097
 6650SOL    HW131412   1.393   3.628   9.861  0.7496  1.9819  0.8217
 6650SOL    HW231413   1.402   3.498   9.917  0.2598 -0.2803 -0.1988
 6651SOL     OW31414   1.177   2.182  16.415 -0.5904  0.7888 -0.2300
 6651SOL    HW131415   1.144   2.261  16.457  1.4442  1.8552 -0.6574
 6651SOL    HW231416   1.244   2.159  16.479  0.5163 -1.2555 -2.1009
 6652SOL     OW31417   1.536   4.072   4.707  0.1162  0.3641 -0.1112
 6652SOL    HW131418   1.450   4.111   4.691 -0.1386  0.0558  0.5243
 6652SOL    HW231419   1.582   4.150   4.738 -0.6813  0.2880  1.2307
 6653SOL     OW31420   4.553   1.796   5.765 -0.0399  0.9199  0.1709
 6653SOL    HW131421   4.510   1.712   5.782  1.5853  0.3047  1.2975
 6653SOL    HW231422   4.525   1.851   5.839  0.7842 -0.1828  1.3135
 6654SOL     OW31423   3.284   4.672   2.260  0.3246  0.1523 -0.3998
 6654SOL    HW131424   3.278   4.584   2.222 -1.6050  0.8562 -1.7446
 6654SOL    HW231425   3.364   4.693   2.213  1.0725 -1.7405  0.0446
 6655SOL     OW31426   0.216   2.328   3.952 -0.3347 -0.1512 -0.2349
 6655SOL    HW131427   0.203   2.412   3.996  0.9200  0.5502 -1.2133
 6655SOL    HW231428   0.138   2.308   3.900  0.5006  0.9406 -1.8782
 6656SOL     OW31429   2.888   1.588   3.468 -0.5095  0.8420  0.6442
 6656SOL    HW131430   2.910   1.594   3.375 -2.1021 -2.0714  0.0968
 6656SOL    HW231431   2.979   1.591   3.499 -0.3931 -3.1933  0.5701
 6657SOL     OW31432   2.972   0.416   2.672 -0.0914  0.3161 -0.1024
 6657SOL    HW131433   2.896   0.432   2.616 -1.7676  0.4073  2.1967
 6657SOL    HW231434   3.035   0.463   2.617 -1.4750  3.4935  1.0024
 6658SOL     OW31435   2.100   2.702   8.752 -0.7111  0.0557 -0.0749
 6658SOL    HW131436   2.107   2.641   8.679  0.9384  1.6282 -1.2275
 6658SOL    HW231437   2.191   2.701   8.780 -0.5335  1.8217 -0.5930
 6659SOL     OW31438   2.207   2.495   6.457  0.5101 -0.4093 -0.6525
 6659SOL    HW131439   2.251   2.494   6.372  2.7286 -0.3204  0.4925
 6659SOL    HW231440   2.220   2.403   6.484  0.9308 -0.2958 -0.4607
 6660SOL     OW31441   1.836   3.001  16.709 -0.7212 -0.3234  0.1889
 6660SOL    HW131442   1.898   3.074  16.704 -2.7867  1.3638 -0.5629
 6660SOL    HW231443   1.772   3.022  16.777 -0.7632 -0.0252  0.0580
 6661SOL     OW31444   2.763   4.038   3.462 -0.4145  0.3227 -0.0626
 6661SOL    HW131445   2.815   4.050   3.541  0.7772 -0.0557 -0.8008
 6661SOL    HW231446   2.786   4.117   3.412  2.0134 -1.5547 -1.9109
 6662SOL     OW31447   1.812   2.641  14.250  0.4992  0.3851 -0.1621
 6662SOL    HW131448   1.896   2.596  14.259 -0.0849 -0.8217 -0.8543
 6662SOL    HW231449   1.822   2.678  14.163  1.9824 -1.1467 -0.6218
 6663SOL     OW31450   0.391   0.293   1.471 -0.3120  0.0988 -0.4667
 6663SOL    HW131451   0.347   0.371   1.439 -1.8351 -1.1910 -1.5183
 6663SOL    HW231452   0.439   0.276   1.390  0.9690  1.1225  0.0822
 6664SOL     OW31453   4.317   2.435   8.464  0.0654 -0.1344  0.1175
 6664SOL    HW131454   4.327   2.357   8.409  0.8560 -0.2710  0.4462
 6664SOL    HW231455   4.280   2.488   8.393  0.1095  2.3297  1.9330
 6665SOL     OW31456   1.031   2.632   3.735  0.2638 -0.1539 -0.2214
 6665SOL    HW131457   0.990   2.718   3.722 -0.2096 -0.8099 -2.9709
 6665SOL    HW231458   0.957   2.571   3.738 -0.2705  0.5382  0.8437
 6666SOL     OW31459   0.659   1.125  14.615 -0.1616 -0.0048  0.4157
 6666SOL    HW131460   0.690   1.134  14.706 -0.5644  0.4143  0.5086
 6666SOL    HW231461   0.740   1.094  14.574 -0.8480  0.6444 -1.4079
 6667SOL     OW31462   3.779   1.698   9.112  0.1421  0.0755  0.2129
 6667SOL    HW131463   3.863   1.743   9.121 -1.2064  2.3470  1.6536
 6667SOL    HW231464   3.793   1.679   9.019  1.7714 -0.2987  0.5447
 6668SOL     OW31465   1.776   1.178   9.386 -0.1315  0.4109  0.2482
 6668SOL    HW131466   1.694   1.179   9.337  0.2061  1.0712 -0.3072
 6668SOL    HW231467   1.739   1.152   9.470  0.1417  2.5383  1.0236
 6669SOL     OW31468   0.489   2.606   2.980  0.2635 -0.2515 -0.4732
 6669SOL    HW131469   0.572   2.622   3.026  1.3811 -0.6838 -2.3201
 6669SOL    HW231470   0.509   2.612   2.887  1.2038  0.2288 -0.2457
 6670SOL     OW31471   0.749   2.186   3.894  0.2128  0.5115 -0.2302
 6670SOL    HW131472   0.816   2.231   3.946  0.7105  1.3298 -1.5755
 6670SOL    HW231473   0.779   2.095   3.903  0.2993  0.5069 -0.5656
 6671SOL     OW31474   2.059   4.022   0.739  0.3658  0.5846 -0.0814
 6671SOL    HW131475   1.977   3.994   0.698  0.9549 -3.2075  1.2772
 6671SOL    HW231476   2.089   4.087   0.676 -0.8068  0.3051 -0.9203
 6672SOL     OW31477   2.840   3.724  14.993  0.0103  0.3175  0.1231
 6672SOL    HW131478   2.822   3.784  14.920  0.4120  2.2170  1.5881
 6672SOL    HW231479   2.877   3.644  14.956 -2.9546 -0.5894 -0.8862
 6673SOL     OW31480   2.627   1.851   4.009  0.3215  0.1349  0.5503
 6673SOL    HW131481   2.603   1.847   4.102 -1.8355  0.8850  0.0334
 6673SOL    HW231482   2.636   1.945   3.995 -0.9156  0.2541  0.5360
 6674SOL     OW31483   2.329   4.461   3.170  0.1244 -0.0402 -0.3982
 6674SOL    HW131484   2.306   4.505   3.251  0.7415  2.8110 -1.7527
 6674SOL    HW231485   2.366   4.379   3.202 -0.1536 -0.1792 -0.4333
 6675SOL     OW31486   0.172   2.771   8.670 -0.5835  0.2259 -0.2019
 6675SOL    HW131487   0.252   2.760   8.722 -0.6635  1.2451  0.1419
 6675SOL    HW231488   0.182   2.692   8.616  0.9272  1.2682 -1.4492
 6676SOL     OW31489   1.838   4.260   2.430  0.2230 -0.4543 -0.4571
 6676SOL    HW131490   1.774   4.323   2.464  2.1312  1.3104 -0.0941
 6676SOL    HW231491   1.911   4.268   2.492 -0.4945  1.2865  0.1660
 6677SOL     OW31492   4.300   1.957   5.718 -0.1907  0.6400 -0.2456
 6677SOL    HW131493   4.227   1.924   5.665 -1.5184  2.4112  0.4717
 6677SOL    HW231494   4.379   1.973   5.666 -0.6809 -2.3977 -1.9581
 6678SOL     OW31495   3.027   2.723   5.022 -0.4164 -0.7282 -0.1174
 6678SOL    HW131496   3.114   2.719   5.063 -0.6680  2.3912  0.7071
 6678SOL    HW231497   3.049   2.685   4.937 -0.3902 -1.3079  0.1453
 6679SOL     OW31498   0.606   1.258   4.850  0.8422  0.5356 -0.5121
 6679SOL    HW131499   0.632   1.218   4.933  1.7053 -2.4186 -2.2229
 6679SOL    HW231500   0.512   1.267   4.866  1.1578 -0.4656  1.8875
 6680SOL     OW31501   1.963   1.976  14.885  0.5648 -0.6581 -0.1128
 6680SOL    HW131502   1.877   2.019  14.892  2.1594  2.7465 -1.3514
 6680SOL    HW231503   2.013   2.010  14.959  0.7614  0.9604 -0.9728
 6681SOL     OW31504   2.636   1.466   2.238  0.4564  0.6395  0.1045
 6681SOL    HW131505   2.714   1.410   2.231 -0.1205 -0.0325 -0.9085
 6681SOL    HW231506   2.617   1.458   2.332  2.0571  1.3046  0.4809
 6682SOL     OW31507   1.287   3.664   6.585  0.7243  0.2212  0.4008
 6682SOL    HW131508   1.320   3.628   6.667 -1.0159 -0.3461  0.8502
 6682SOL    HW231509   1.336   3.615   6.520 -1.0325  0.0408 -0.7886
 6683SOL     OW31510   3.210   3.365   6.263  0.0850 -0.5128  0.1533
 6683SOL    HW131511   3.122   3.329   6.274 -0.6057  0.6519 -1.4916
 6683SOL    HW231512   3.247   3.277   6.269 -2.6098 -1.5164  1.9244
 6684SOL     OW31513   1.354   0.236   0.967 -0.4022  0.6419 -0.2422
 6684SOL    HW131514   1.408   0.302   1.010  2.6065 -1.2104 -1.2402
 6684SOL    HW231515   1.314   0.299   0.908  1.6880  3.6565  1.5767
 6685SOL     OW31516   1.476   0.906   9.004  0.0566 -0.5111 -0.7160
 6685SOL    HW131517   1.492   0.996   8.976  0.4553 -0.5982 -0.7756
 6685SOL    HW231518   1.523   0.901   9.088 -0.2820 -1.3725 -0.5793
 6686SOL     OW31519   1.365   1.660  10.910 -0.1700 -0.2844  0.2469
 6686SOL    HW131520   1.411   1.739  10.939 -0.6746  1.0052 -2.4576
 6686SOL    HW231521   1.436   1.617  10.861 -0.8607  1.4785 -2.3062
 6687SOL     OW31522   4.150   3.268   6.136  0.0093  0.0592 -0.9234
 6687SOL    HW131523   4.116   3.341   6.085  2.1683  2.1522  0.6691
 6687SOL    HW231524   4.178   3.306   6.219  0.0901 -0.0535 -0.8997
 6688SOL     OW31525   0.241   2.556  11.139 -0.2565  0.0796  0.2911
 6688SOL    HW131526   0.324   2.517  11.110  0.5481  2.9457 -1.2612
 6688SOL    HW231527   0.211   2.481  11.191  1.1683 -0.0668  0.9083
 6689SOL     OW31528   2.349   0.184   2.685 -0.0570 -0.3893  0.6238
 6689SOL    HW131529   2.383   0.098   2.709  0.3998  0.4075  2.8176
 6689SOL    HW231530   2.324   0.182   2.593  0.5069  2.2189  0.3970
 6690SOL     OW31531   3.982   2.164   5.780 -0.1251 -0.3715  0.2909
 6690SOL    HW131532   3.890   2.141   5.792 -0.1392 -1.8557 -2.7114
 6690SOL    HW231533   4.023   2.109   5.847  0.0236  2.0727  2.1734
 6691SOL     OW31534   3.692   0.290  13.104  0.2973  0.6256 -0.4184
 6691SOL    HW131535   3.755   0.359  13.081  1.8663  0.2536  2.8079
 6691SOL    HW231536   3.618   0.313  13.048 -0.8733  0.5667  1.1064
 6692SOL     OW31537   1.165   2.962   8.666  0.8727 -0.1838 -0.4225
 6692SOL    HW131538   1.172   2.868   8.651 -1.4004 -0.3064 -0.7760
 6692SOL    HW231539   1.257   2.989   8.669  0.7653 -0.1964  2.3670
 6693SOL     OW31540   3.605   0.200   0.684  0.1263 -0.9341  0.0553
 6693SOL    HW131541   3.619   0.215   0.778  0.8350  3.4297 -0.7480
 6693SOL    HW231542   3.632   0.108   0.674  1.5550 -0.6059  0.8410
 6694SOL     OW31543   4.292   0.780   1.698  0.0792  0.0477  0.3323
 6694SOL    HW131544   4.264   0.817   1.615 -1.5405  1.3993  1.4736
 6694SOL    HW231545   4.371   0.729   1.679  0.1549  0.8455 -1.4279
 6695SOL     OW31546   2.620   3.098   0.064 -0.1853  0.6590 -0.0889
 6695SOL    HW131547   2.653   3.187   0.074 -0.0849  0.6476 -0.3180
 6695SOL    HW231548   2.536   3.109   0.020  0.5490 -0.7557 -1.8802
 6696SOL     OW31549   0.086   0.768   8.171  0.3677 -0.3175  0.3868
 6696SOL    HW131550   0.081   0.768   8.267  1.7744  0.5677  0.4735
 6696SOL    HW231551   0.178   0.744   8.163  0.0886 -0.5915 -2.0490
 6697SOL     OW31552   3.384   1.850   1.326  0.0185  0.4646  0.4549
 6697SOL    HW131553   3.397   1.756   1.313  0.1086  0.1788  2.4771
 6697SOL    HW231554   3.475   1.880   1.332  0.2719 -0.0536 -0.8898
 6698SOL     OW31555   3.810   0.602   5.825 -0.3179  0.5946  0.3281
 6698SOL    HW131556   3.862   0.678   5.798 -1.5994  1.3037 -0.1393
 6698SOL    HW231557   3.720   0.626   5.804 -0.2241 -1.3181 -2.3647
 6699SOL     OW31558   0.793   0.300  12.901 -0.2529  0.0360  0.1998
 6699SOL    HW131559   0.820   0.387  12.928  1.0482  0.0841 -1.2212
 6699SOL    HW231560   0.721   0.320  12.841  0.8641  1.2989 -0.7319
 6700SOL     OW31561   2.943   0.008   8.169  0.2046 -0.4607  0.4357
 6700SOL    HW131562   2.993   0.023   8.250  1.1933 -1.6356  0.0501
 6700SOL    HW231563   3.011   0.038   8.109 -0.9054 -1.2103 -1.1582
 6701SOL     OW31564   2.379   2.691   3.894 -0.0373  0.0376  0.5518
 6701SOL    HW131565   2.380   2.773   3.845  0.8062 -0.4999 -0.3252
 6701SOL    HW231566   2.427   2.631   3.837  0.5093  0.9590  0.0313
 6702SOL     OW31567   4.611   0.651   6.409 -0.0289 -0.4890  0.2280
 6702SOL    HW131568   4.605   0.591   6.335 -1.5242 -0.7199  0.5320
 6702SOL    HW231569   4.584   0.593   6.481  0.1505 -3.6548 -2.2344
 6703SOL     OW31570   3.700   4.709   3.265 -0.1983 -0.6427  0.1301
 6703SOL    HW131571   3.768   0.010   3.203 -1.4025 -1.5639 -1.5182
 6703SOL    HW231572   3.617   0.032   3.246  0.3692 -0.4523 -1.8408
 6704SOL     OW31573   0.920   3.245  12.982 -0.5626  0.2015  0.2970
 6704SOL    HW131574   0.838   3.216  12.942 -0.9056  0.7281  0.6208
 6704SOL    HW231575   0.904   3.232  13.076  3.5909 -0.2202  0.9551
 6705SOL     OW31576   4.417   4.546   7.441  0.1554 -0.3853  0.3215
 6705SOL    HW131577   4.342   4.570   7.387 -0.2428  0.3240  1.1999
 6705SOL    HW231578   4.377   4.471   7.486  1.5543 -1.2202  0.2092
 6706SOL     OW31579   3.062   2.067   3.979 -0.1876  0.2115  1.0593
 6706SOL    HW131580   2.985   2.095   4.027 -0.1525  0.6034  0.8894
 6706SOL    HW231581   3.087   1.993   4.034 -0.5183 -1.3107 -0.8597
 6707SOL     OW31582   3.287   0.388   1.332 -0.2402  0.1866 -0.4971
 6707SOL    HW131583   3.306   0.336   1.410 -0.5657 -0.4236 -0.8271
 6707SOL    HW231584   3.280   0.315   1.270  0.4380 -0.3248  0.0246
 6708SOL     OW31585   1.427   1.434   6.534 -0.0945  0.3630 -0.0145
 6708SOL    HW131586   1.389   1.521   6.525 -0.7643 -0.1096 -1.7359
 6708SOL    HW231587   1.481   1.443   6.613  0.5785 -1.4990 -0.2499
 6709SOL     OW31588   4.700   3.582   6.920  0.2688  0.0341  0.0322
 6709SOL    HW131589   4.644   3.630   6.981 -0.1979 -0.6045  0.1054
 6709SOL    HW231590   0.003   3.506   6.972  1.9923  0.2715 -0.4196
 6710SOL     OW31591   0.768   0.812  16.018 -0.0911  0.8083 -0.4858
 6710SOL    HW131592   0.710   0.770  16.081 -0.2913  0.8220 -0.6556
 6710SOL    HW231593   0.762   0.906  16.036 -1.5222  0.9890 -1.8286
 6711SOL     OW31594   1.173   4.133   6.740  0.1916 -0.0087  0.1799
 6711SOL    HW131595   1.176   4.074   6.665  1.0994  0.6409 -0.2929
 6711SOL    HW231596   1.092   4.097   6.776 -0.1294 -0.6808 -1.2010
 6712SOL     OW31597   4.136   3.865   3.763 -0.0111  0.2349 -0.0729
 6712SOL    HW131598   4.169   3.808   3.833  1.1466  1.9808  0.8112
 6712SOL    HW231599   4.135   3.811   3.684  2.4182 -1.6770  1.1850
 6713SOL     OW31600   0.408   2.137  11.230 -0.4421  0.1626  0.1344
 6713SOL    HW131601   0.386   2.103  11.317 -1.7212  1.5727  0.3570
 6713SOL    HW231602   0.439   2.062  11.179 -2.8131 -1.0389  0.4788
 6714SOL     OW31603   1.929   1.698   7.335  0.0310  0.3955  0.2239
 6714SOL    HW131604   1.894   1.725   7.420  1.2196 -0.1065  0.8849
 6714SOL    HW231605   2.009   1.651   7.358 -0.1731  0.1494  0.4174
 6715SOL     OW31606   0.765   2.418  11.109  0.2529  0.2676 -0.0263
 6715SOL    HW131607   0.842   2.383  11.154 -0.7850 -2.3852 -0.2780
 6715SOL    HW231608   0.733   2.343  11.058 -0.1111  0.8600 -0.6659
 6716SOL     OW31609   0.677   1.870   3.526 -0.1156  0.0945  0.3255
 6716SOL    HW131610   0.682   1.953   3.575 -0.2163 -0.0514  0.5821
 6716SOL    HW231611   0.601   1.883   3.469  0.4218 -0.5426 -0.5328
 6717SOL     OW31612   3.438   0.052   4.985 -0.4878 -0.0629  0.3842
 6717SOL    HW131613   3.450   4.678   4.978  0.7290  0.1719 -0.6685
 6717SOL    HW231614   3.496   0.090   4.919  0.3933  0.3358  1.3994
 6718SOL     OW31615   1.938   3.850  10.981 -0.5035 -0.1303 -0.0864
 6718SOL    HW131616   2.022   3.862  11.024  0.5339  0.0753 -2.1673
 6718SOL    HW231617   1.903   3.938  10.993  1.9332  0.8548 -0.3361
 6719SOL     OW31618   2.922   0.749   8.273 -0.2960  0.0740  0.1124
 6719SOL    HW131619   2.855   0.685   8.250 -0.9504  1.9655 -3.2657
 6719SOL    HW231620   2.867   0.811   8.321 -0.6985 -0.1608 -0.0504
 6720SOL     OW31621   1.838   1.902   5.826 -0.4099  0.3851 -0.2047
 6720SOL    HW131622   1.760   1.850   5.809  1.8664 -3.0933 -0.0466
 6720SOL    HW231623   1.903   1.852   5.776  0.6348  0.7109  0.8159
 6721SOL     OW31624   1.844   3.303  16.825 -0.2475 -0.6558 -0.6070
 6721SOL    HW131625   1.818   3.395  16.825 -0.3124 -0.6739 -0.9017
 6721SOL    HW231626   1.802   3.264  16.748 -0.2286  0.2202 -1.0614
 6722SOL     OW31627   1.108   0.534  15.439  0.3975 -0.1837 -0.5754
 6722SOL    HW131628   1.036   0.592  15.414  0.7944  1.0985  1.3131
 6722SOL    HW231629   1.174   0.598  15.467  1.0873 -0.5662 -1.2814
 6723SOL     OW31630   4.449   0.484   1.350 -0.2659  0.2408  0.0772
 6723SOL    HW131631   4.437   0.400   1.306  0.7547  0.9557 -1.5817
 6723SOL    HW231632   4.392   0.536   1.293 -1.3921  1.7857  2.6110
 6724SOL     OW31633   1.873   2.602   3.032 -0.1299  0.1643  0.1760
 6724SOL    HW131634   1.894   2.641   3.117 -0.2761 -2.0727  1.2182
 6724SOL    HW231635   1.959   2.565   3.015 -1.3847 -1.6325 -2.2733
 6725SOL     OW31636   4.673   1.922  10.405 -0.5039  0.1821 -0.1300
 6725SOL    HW131637   4.579   1.935  10.395 -0.2382  1.4453 -0.9845
 6725SOL    HW231638   4.686   1.999  10.460 -1.7141  0.5211 -0.3177
 6726SOL     OW31639   2.798   4.544   2.396  0.0788 -0.3044 -0.1409
 6726SOL    HW131640   2.816   4.564   2.305  0.6856  2.3034  0.5438
 6726SOL    HW231641   2.728   4.478   2.393 -0.5370  0.2904  0.8612
 6727SOL     OW31642   1.435   2.255   7.126 -0.1538  0.7155 -0.2867
 6727SOL    HW131643   1.504   2.322   7.122 -0.3935  0.9808  0.0102
 6727SOL    HW231644   1.372   2.306   7.176  0.3103  0.7150  0.3060
 6728SOL     OW31645   0.194   2.132  15.478 -0.1083  0.3705  0.7724
 6728SOL    HW131646   0.273   2.113  15.427 -0.9006 -0.4268 -0.1523
 6728SOL    HW231647   0.145   2.188  15.418 -1.2063 -0.8986  0.4811
 6729SOL     OW31648   1.781   0.754   5.511 -0.4758 -0.0249 -0.1339
 6729SOL    HW131649   1.867   0.732   5.545 -0.4514 -0.0425 -0.2069
 6729SOL    HW231650   1.728   0.680   5.541 -1.4360  0.8810  0.4447
 6730SOL     OW31651   1.139   2.810   2.352  0.2179 -0.0074  0.8776
 6730SOL    HW131652   1.051   2.773   2.344  1.1291 -1.5588 -1.9020
 6730SOL    HW231653   1.199   2.740   2.325 -0.7355 -0.3455 -0.3855
 6731SOL     OW31654   1.592   2.747   7.426  0.6782  0.1409 -0.8560
 6731SOL    HW131655   1.683   2.774   7.413  0.4299  1.5287  0.2545
 6731SOL    HW231656   1.553   2.829   7.456  1.5663  1.2476 -2.6915
 6732SOL     OW31657   3.949   3.949   5.496 -0.0180 -0.0477 -0.0649
 6732SOL    HW131658   3.977   3.859   5.515  1.2491  0.5182  0.7419
 6732SOL    HW231659   3.953   3.959   5.401  0.5189  1.0537  0.0778
 6733SOL     OW31660   3.378   1.865   6.250  0.0422  0.1840 -0.0597
 6733SOL    HW131661   3.284   1.877   6.237 -0.1828  0.0163  1.4550
 6733SOL    HW231662   3.408   1.937   6.305  0.8002  1.2612 -1.9070
 6734SOL     OW31663   0.161   1.721   0.258  0.1068  0.4935 -0.8333
 6734SOL    HW131664   0.160   1.642   0.203 -1.7032  0.8062 -1.2450
 6734SOL    HW231665   0.097   1.708   0.328  1.3209 -0.5194  0.0888
 6735SOL     OW31666   0.551   1.398   3.881 -0.3351  0.4153  0.1567
 6735SOL    HW131667   0.526   1.478   3.927 -3.1569 -0.7896  0.7142
 6735SOL    HW231668   0.621   1.433   3.826 -1.0571  1.1062 -0.3294
 6736SOL     OW31669   0.764   1.913   3.974 -0.4664 -0.2189 -0.0165
 6736SOL    HW131670   0.801   1.846   4.031  3.1314  0.2317 -1.8612
 6736SOL    HW231671   0.670   1.923   3.992 -0.5888  0.4010 -1.0102
 6737SOL     OW31672   1.512   2.944  14.043  0.2489  0.5243 -0.3531
 6737SOL    HW131673   1.490   2.851  14.046 -1.3266  1.0166  3.2755
 6737SOL    HW231674   1.432   2.978  14.083 -0.4770 -2.0507  0.4117
 6738SOL     OW31675   3.654   4.167   6.616 -0.2482 -0.4359 -0.0435
 6738SOL    HW131676   3.671   4.261   6.618  0.5296 -0.6130  2.8643
 6738SOL    HW231677   3.659   4.135   6.526 -0.4901 -1.0711  0.1680
 6739SOL     OW31678   1.703   0.311   6.615 -0.2556  0.0163 -0.0588
 6739SOL    HW131679   1.696   0.360   6.697 -3.4968  0.3837 -0.5620
 6739SOL    HW231680   1.795   0.310   6.591 -0.3792 -1.7248 -0.4663
 6740SOL     OW31681   1.480   0.649   2.455 -0.2135 -0.4804 -0.2932
 6740SOL    HW131682   1.400   0.677   2.498  0.5593  0.9460  0.1960
 6740SOL    HW231683   1.457   0.642   2.362  2.1220 -1.8764 -0.7807
 6741SOL     OW31684   1.932   1.711  14.786 -0.1091 -0.1590 -0.2370
 6741SOL    HW131685   1.843   1.692  14.756 -0.3067  1.0702 -0.4263
 6741SOL    HW231686   1.924   1.803  14.811  0.0201  0.3204 -1.9278
 6742SOL     OW31687   3.537   4.493   4.287 -0.2557 -0.3811 -0.0097
 6742SOL    HW131688   3.508   4.417   4.338  0.3557 -0.4729  0.2009
 6742SOL    HW231689   3.621   4.514   4.329 -0.6745 -0.1794  0.7279
 6743SOL     OW31690   0.810   4.204   3.790 -0.2355  0.2247  0.2704
 6743SOL    HW131691   0.889   4.257   3.781 -0.2698  0.2435  0.0814
 6743SOL    HW231692   0.800   4.196   3.885 -3.1944 -0.9181 -0.1446
 6744SOL     OW31693   1.917   3.058  17.519 -0.5058 -0.1754  0.1362
 6744SOL    HW131694   1.832   3.103  17.519 -0.9637 -1.0469 -0.1916
 6744SOL    HW231695   1.897   2.968  17.544 -0.3477 -0.3593 -0.4181
 6745SOL     OW31696   0.999   0.890   5.715  0.2012 -0.1069  0.0637
 6745SOL    HW131697   0.975   0.845   5.796 -2.9420  0.4643 -0.5847
 6745SOL    HW231698   0.916   0.896   5.668 -0.9082  1.0488  2.1619
 6746SOL     OW31699   0.254   0.480   4.247 -0.4971 -0.3500 -0.1745
 6746SOL    HW131700   0.238   0.419   4.175  1.0518 -1.8428  0.7358
 6746SOL    HW231701   0.295   0.554   4.201  0.6571  0.9080  2.8938
 6747SOL     OW31702   0.775   3.327   8.320 -0.3877 -0.6649  0.2346
 6747SOL    HW131703   0.744   3.342   8.409  0.1229 -0.0097  0.3046
 6747SOL    HW231704   0.828   3.405   8.305 -1.5383  0.2916  1.0664
 6748SOL     OW31705   3.635   4.714   1.905 -0.0075  0.1306  0.0616
 6748SOL    HW131706   3.565   0.056   1.886  0.7327  0.5617 -1.1648
 6748SOL    HW231707   3.676   4.692   1.822  1.2396  1.0535  0.4211
 6749SOL     OW31708   3.683   0.214   9.949  0.9469  0.3576  0.3444
 6749SOL    HW131709   3.735   0.273   9.895 -1.2617  0.0159 -2.1496
 6749SOL    HW231710   3.615   0.271   9.985  1.0061 -0.4937  1.8385
 6750SOL     OW31711   0.059   0.939   9.817  0.0635  0.3277  0.0015
 6750SOL    HW131712   0.137   0.964   9.867  0.3822  0.8638 -0.7585
 6750SOL    HW231713   0.021   0.869   9.871 -3.4162  3.0160  1.0244
 6751SOL     OW31714   1.125   4.251  10.595  0.2890 -0.1141  0.2952
 6751SOL    HW131715   1.073   4.327  10.565  0.7629 -0.2589 -0.8786
 6751SOL    HW231716   1.209   4.252  10.551  0.5266  1.3612  0.7659
 6752SOL     OW31717   4.186   4.525   0.671 -0.5558  0.1866  0.0285
 6752SOL    HW131718   4.094   4.510   0.693 -0.2637 -3.1355 -1.1267
 6752SOL    HW231719   4.176   4.572   0.588  0.3923 -1.5443 -1.0740
 6753SOL     OW31720   0.065   0.257   4.553  0.1832 -0.0687 -0.5393
 6753SOL    HW131721   4.703   0.251   4.600 -0.3282 -0.0628 -1.4258
 6753SOL    HW231722   0.060   0.177   4.501 -0.0606 -0.7024  0.4849
 6754SOL     OW31723   2.102   4.716   0.421  0.0247  0.1049 -0.0036
 6754SOL    HW131724   2.112   0.018   0.328  2.1103  2.9812  0.9418
 6754SOL    HW231725   2.069   0.078   0.453 -0.5861  0.5333 -1.7356
 6755SOL     OW31726   3.798   3.904  16.606 -0.4385 -0.0964 -0.0488
 6755SOL    HW131727   3.827   3.987  16.645 -3.0618  0.0817  1.4741
 6755SOL    HW231728   3.873   3.871  16.556 -0.5745 -1.4620  0.6279
 6756SOL     OW31729   2.833   2.921  14.199 -0.2291  0.4870  0.3014
 6756SOL    HW131730   2.737   2.923  14.203 -0.2109  1.6619 -0.0919
 6756SOL    HW231731   2.853   2.987  14.265  1.8254 -0.3955  0.5726
 6757SOL     OW31732   1.645   0.565   5.620  0.2945  0.2221 -0.1150
 6757SOL    HW131733   1.622   0.533   5.708  1.3810  2.2423  0.9014
 6757SOL    HW231734   1.565   0.538   5.574  0.0877 -1.6754  1.3066
 6758SOL     OW31735   2.965   1.701   8.494 -0.0603  0.3990 -0.2092
 6758SOL    HW131736   3.037   1.712   8.557  0.8635  1.4609 -1.4301
 6758SOL    HW231737   2.892   1.709   8.555  1.1408  1.0005  1.1790
 6759SOL     OW31738   0.595   0.071   3.836  0.1842 -0.3221 -0.5461
 6759SOL    HW131739   0.547   4.717   3.800 -2.2391  1.0102 -0.0667
 6759SOL    HW231740   0.646   0.092   3.758  0.4311  0.7204 -0.1027
 6760SOL     OW31741   3.763   1.479  13.571 -0.2103  0.1098  0.1011
 6760SOL    HW131742   3.726   1.391  13.562  0.5664 -0.0955 -1.0929
 6760SOL    HW231743   3.842   1.452  13.525 -1.0759 -0.7095 -0.9084
 6761SOL     OW31744   2.576   3.420  12.303 -0.2821  0.2242 -0.9966
 6761SOL    HW131745   2.547   3.374  12.381 -0.8311  0.4913 -1.0416
 6761SOL    HW231746   2.511   3.390  12.239  0.5543  0.1230 -1.8022
 6762SOL     OW31747   4.303   3.152   9.373 -0.2395 -0.7198  0.0087
 6762SOL    HW131748   4.390   3.149   9.413  0.0395  2.1654 -0.4215
 6762SOL    HW231749   4.332   3.171   9.284  0.6555  1.1608  0.7075
 6763SOL     OW31750   4.684   0.436   9.635  0.1163 -0.6780 -0.1056
 6763SOL    HW131751   4.630   0.357   9.629 -0.5791 -0.3836  2.1275
 6763SOL    HW231752   0.050   0.406   9.611  0.9616  2.3473 -0.8108
 6764SOL     OW31753   4.414   1.005   7.802  0.0363 -0.8342  0.2881
 6764SOL    HW131754   4.470   0.951   7.746 -2.6007 -3.4548  0.2065
 6764SOL    HW231755   4.347   1.011   7.735  0.7135  0.4108 -0.2710
 6765SOL     OW31756   0.341   4.432  11.431 -0.3199 -0.0256  0.0203
 6765SOL    HW131757   0.357   4.353  11.380  2.1775 -1.4935  3.0706
 6765SOL    HW231758   0.382   4.396  11.510  0.1196  1.1837  0.3487
 6766SOL     OW31759   4.200   0.917   1.472  0.1538 -0.1631  0.1106
 6766SOL    HW131760   4.184   1.007   1.445 -0.0027 -0.1765  0.1610
 6766SOL    HW231761   4.159   0.873   1.398 -0.9861  2.6042 -0.8820
 6767SOL     OW31762   4.629   2.951   8.069  0.0002 -0.2488  0.2687
 6767SOL    HW131763   4.710   2.963   8.119  0.3867 -0.9657 -0.1873
 6767SOL    HW231764   4.635   2.857   8.052  1.5814 -0.2272  0.7856
 6768SOL     OW31765   0.914   3.417  10.484  0.1552 -0.2380 -0.1130
 6768SOL    HW131766   0.869   3.449  10.562 -2.4909  0.4466 -1.9097
 6768SOL    HW231767   0.872   3.331  10.475 -2.3687  1.1886 -1.9132
 6769SOL     OW31768   4.137   3.726   5.312 -0.5126 -0.3406 -0.0699
 6769SOL    HW131769   4.186   3.644   5.314  1.4946  0.8603 -0.3873
 6769SOL    HW231770   4.104   3.733   5.402 -1.4540 -2.9711 -0.2102
 6770SOL     OW31771   0.457   1.840   3.816 -0.5597  0.0406  0.1529
 6770SOL    HW131772   0.434   1.921   3.771  0.9277  0.4729  0.1655
 6770SOL    HW231773   0.453   1.776   3.745  1.8975  0.2169 -0.1492
 6771SOL     OW31774   4.038   0.917   7.816 -0.5211  0.5246 -0.1294
 6771SOL    HW131775   4.116   0.915   7.761 -1.6402 -2.0392 -1.6025
 6771SOL    HW231776   4.064   0.841   7.867 -1.0227  0.6548  0.3335
 6772SOL     OW31777   3.924   0.893  14.823  0.3526 -0.3477 -0.1236
 6772SOL    HW131778   3.982   0.965  14.846 -0.0867 -0.4192  1.1984
 6772SOL    HW231779   3.839   0.922  14.855 -0.9480 -1.0279 -2.9311
 6773SOL     OW31780   3.959   0.054   9.378 -0.3881 -0.3303 -0.1583
 6773SOL    HW131781   3.887   0.109   9.346 -0.3729 -0.6178 -0.6881
 6773SOL    HW231782   4.025   0.072   9.312  0.6762  0.7856  1.2224
 6774SOL     OW31783   0.296   3.022   0.753  0.3751  0.1454  0.0751
 6774SOL    HW131784   0.270   3.070   0.831  3.7182  0.2005  1.1656
 6774SOL    HW231785   0.209   2.984   0.744  0.2880  0.8106 -1.9033
 6775SOL     OW31786   3.810   3.895   1.261  0.1070 -0.7475  0.4991
 6775SOL    HW131787   3.761   3.869   1.339  0.1517  1.9091  1.4112
 6775SOL    HW231788   3.846   3.808   1.244  2.9563  0.3317  0.8572
 6776SOL     OW31789   1.081   4.578   3.393  0.0803  0.0374 -0.2167
 6776SOL    HW131790   1.155   4.639   3.401  0.4983 -0.3099 -1.3907
 6776SOL    HW231791   1.007   4.636   3.375  0.2370  0.1608 -0.4732
 6777SOL     OW31792   1.539   0.616   7.491  0.7229 -0.7112 -0.4564
 6777SOL    HW131793   1.576   0.529   7.507  0.1939 -0.6046  1.4598
 6777SOL    HW231794   1.456   0.616   7.539  0.7141 -0.1097 -0.4710
 6778SOL     OW31795   1.862   1.766   2.143 -0.0974 -0.2034 -0.1602
 6778SOL    HW131796   1.957   1.753   2.149  0.1560  1.0120 -1.4646
 6778SOL    HW231797   1.821   1.683   2.165  0.4800 -1.2855 -3.1843
 6779SOL     OW31798   4.653   1.127   2.443 -0.1197 -0.0812 -0.2431
 6779SOL    HW131799   4.647   1.222   2.459  1.1271 -0.5937  3.1840
 6779SOL    HW231800   4.566   1.100   2.414  1.5637 -2.2655 -3.1964
 6780SOL     OW31801   0.175   3.343   3.911  0.3382 -0.5582 -0.3888
 6780SOL    HW131802   0.091   3.388   3.916  0.5878 -0.2232  0.8575
 6780SOL    HW231803   0.236   3.382   3.973 -1.8883  0.4009  1.1651
 6781SOL     OW31804   2.740   0.833   3.164  1.0259  0.4712 -0.3074
 6781SOL    HW131805   2.684   0.758   3.186  2.9209 -0.5268  1.0971
 6781SOL    HW231806   2.741   0.898   3.235  2.0453  0.6454 -0.4863
 6782SOL     OW31807   4.142   3.823  17.468 -0.0426  0.0836 -0.2113
 6782SOL    HW131808   4.074   3.784  17.413 -0.1300 -1.9807  1.3739
 6782SOL    HW231809   4.159   3.901  17.414  1.1261  0.4085  0.6321
 6783SOL     OW31810   4.253   3.996  15.254  0.0075  0.1689 -0.0080
 6783SOL    HW131811   4.324   3.933  15.244 -0.8322 -0.4876 -1.7181
 6783SOL    HW231812   4.176   3.946  15.280  0.9107 -0.2401  1.8767
 6784SOL     OW31813   3.346   0.377   8.380 -0.2523 -0.0883  0.6936
 6784SOL    HW131814   3.342   0.415   8.467 -1.8749 -0.4625  0.7929
 6784SOL    HW231815   3.251   0.365   8.372 -0.3720  0.3564  1.4345
 6785SOL     OW31816   2.211   2.530   7.473 -0.8884  0.1845  0.8396
 6785SOL    HW131817   2.206   2.448   7.425  1.4601  0.0552  0.7709
 6785SOL    HW231818   2.146   2.588   7.436 -0.8919 -0.6669 -0.4785
 6786SOL     OW31819   1.533   3.895  13.969 -0.4766  0.2694 -0.1104
 6786SOL    HW131820   1.549   3.984  13.938  1.7894  0.9609  3.0014
 6786SOL    HW231821   1.606   3.873  14.027 -0.9113 -0.1383  0.2846
 6787SOL     OW31822   0.975   2.052   6.349  0.5911 -0.1665 -0.1571
 6787SOL    HW131823   0.970   2.106   6.428  0.1117 -0.5114  0.0458
 6787SOL    HW231824   1.069   2.039   6.337  0.6512  1.5625 -1.5895
 6788SOL     OW31825   2.544   0.737   4.571 -0.0942  0.6128 -0.5280
 6788SOL    HW131826   2.607   0.771   4.508  3.5173 -2.5009  1.4369
 6788SOL    HW231827   2.472   0.800   4.565 -0.2205  0.1405 -4.0865
 6789SOL     OW31828   3.981   3.891   7.462  0.0161 -0.0432 -0.2148
 6789SOL    HW131829   3.919   3.873   7.532  1.6292  1.0098  1.4863
 6789SOL    HW231830   4.006   3.980   7.489  0.7049 -0.5493  0.8378
 6790SOL     OW31831   3.204   1.418   4.912 -0.2982 -0.1911 -0.0127
 6790SOL    HW131832   3.204   1.325   4.891 -1.2642 -0.2961  0.4346
 6790SOL    HW231833   3.234   1.455   4.829 -1.0808 -0.1931 -0.3012
 6791SOL     OW31834   2.444   4.097   7.685  0.3077  0.1874  0.3491
 6791SOL    HW131835   2.415   4.137   7.767  2.2951  2.2971  0.0210
 6791SOL    HW231836   2.511   4.157   7.653 -0.2154 -0.0950 -1.2487
 6792SOL     OW31837   4.613   3.649   2.848 -0.5652  0.0993  0.0633
 6792SOL    HW131838   4.626   3.576   2.788  2.0915  0.9419 -0.4209
 6792SOL    HW231839   4.550   3.695   2.794 -0.6493  0.3938  0.4103
 6793SOL     OW31840   1.285   0.729  15.485  0.1732  0.1752 -0.5050
 6793SOL    HW131841   1.335   0.750  15.406  0.4806  1.7576  0.1185
 6793SOL    HW231842   1.310   0.800  15.545 -0.1661 -1.8508  2.0037
 6794SOL     OW31843   0.562   3.706   5.972 -0.4357 -0.4300 -0.1772
 6794SOL    HW131844   0.607   3.631   6.011  1.5212  0.5994 -0.4321
 6794SOL    HW231845   0.469   3.683   5.973 -0.5143 -0.1851 -2.1015
 6795SOL     OW31846   0.354   0.655   3.266 -0.0908 -0.0464 -0.0459
 6795SOL    HW131847   0.332   0.719   3.333  0.6880 -0.6271  0.7582
 6795SOL    HW231848   0.268   0.613   3.263 -0.9314  1.6333  0.6471
 6796SOL     OW31849   2.313   3.084   2.229  0.2490 -0.3730 -0.6652
 6796SOL    HW131850   2.406   3.069   2.249 -0.1100  1.7531  2.6548
 6796SOL    HW231851   2.302   3.167   2.276  0.7061 -1.7244  1.8430
 6797SOL     OW31852   1.872   3.371   4.671  0.1053  0.2510  0.2424
 6797SOL    HW131853   1.948   3.408   4.715  0.3747 -1.0624  0.8818
 6797SOL    HW231854   1.794   3.419   4.702 -1.2125 -1.3292 -0.6262
 6798SOL     OW31855   2.421   0.463   2.683  0.2506  0.1628 -0.5945
 6798SOL    HW131856   2.338   0.504   2.707 -1.4862 -1.7568 -3.3436
 6798SOL    HW231857   2.405   0.369   2.690 -0.7844  0.3964  0.1493
 6799SOL     OW31858   3.384   0.617   8.551 -0.7999  0.6065 -0.2141
 6799SOL    HW131859   3.347   0.685   8.608  0.1734  0.7467  0.2546
 6799SOL    HW231860   3.440   0.670   8.495 -2.6547  2.3418 -0.4162
 6800SOL     OW31861   1.977   3.372   8.736  0.2352 -0.5699 -0.1207
 6800SOL    HW131862   1.994   3.279   8.754  1.6248  0.3514  3.4255
 6800SOL    HW231863   1.971   3.402   8.827 -1.2746 -2.9463  0.5715
 6801SOL     OW31864   1.410   2.783   7.205  0.2322 -0.0692  0.2473
 6801SOL    HW131865   1.460   2.819   7.279  0.4889 -0.0721  0.0750
 6801SOL    HW231866   1.480   2.754   7.146 -0.4673  1.4248 -1.2733
 6802SOL     OW31867   0.407   0.773   7.832 -0.6452 -0.4249 -0.9355
 6802SOL    HW131868   0.389   0.865   7.848  2.2069  0.2673 -1.6484
 6802SOL    HW231869   0.349   0.725   7.891 -0.0520 -0.7095 -0.5875
 6803SOL     OW31870   3.521   1.176  13.864  0.0777  0.4989 -0.0211
 6803SOL    HW131871   3.497   1.242  13.799 -2.2168 -0.7968 -0.4791
 6803SOL    HW231872   3.616   1.179  13.868  0.0625  0.8513  0.0658
 6804SOL     OW31873   1.333   0.629  12.513  0.1146 -0.4185 -0.8304
 6804SOL    HW131874   1.269   0.616  12.443 -1.3611 -0.2787  0.4964
 6804SOL    HW231875   1.341   0.724  12.507 -0.7841 -0.2976  0.0859
 6805SOL     OW31876   1.912   2.924   8.866  0.2310  0.6346  0.7810
 6805SOL    HW131877   1.965   2.997   8.835 -0.0667 -0.1728 -1.5656
 6805SOL    HW231878   1.980   2.859   8.882  0.3488  0.8513  1.1892
 6806SOL     OW31879   3.694   2.550   5.935  0.2501  0.5881 -0.0315
 6806SOL    HW131880   3.737   2.508   6.009  1.5477  2.9482  0.5623
 6806SOL    HW231881   3.702   2.643   5.956 -0.2753  0.5322  0.4112
 6807SOL     OW31882   0.070   4.563   6.148  0.3695  0.6745  0.0274
 6807SOL    HW131883   0.105   4.485   6.106 -0.0730  0.9128 -0.7654
 6807SOL    HW231884   0.147   4.580   6.203 -0.7783 -1.8218  2.3756
 6808SOL     OW31885   3.073   0.688   2.539 -0.1651  0.2196  0.6824
 6808SOL    HW131886   2.987   0.720   2.510  0.4590 -1.4299 -3.0088
 6808SOL    HW231887   3.089   0.622   2.472  0.6188  1.0054  0.0947
 6809SOL     OW31888   0.626   2.184   0.979 -0.6666 -0.0528 -0.0172
 6809SOL    HW131889   0.677   2.253   1.020 -0.2575 -0.2512 -0.1900
 6809SOL    HW231890   0.548   2.232   0.949 -0.5888  0.2162  0.2177
 6810SOL     OW31891   2.313   0.065   6.353 -0.1249  0.5439  0.6004
 6810SOL    HW131892   2.228   0.054   6.395  0.2590 -0.8786  0.9828
 6810SOL    HW231893   2.309   0.160   6.365  1.6108  0.4933  1.5916
 6811SOL     OW31894   1.850   2.474   3.355  0.5733  0.2117 -0.2928
 6811SOL    HW131895   1.871   2.562   3.385 -1.8349  1.2234 -1.6437
 6811SOL    HW231896   1.759   2.466   3.381  0.7263  0.5695  0.3383
 6812SOL     OW31897   2.327   0.070   3.992 -0.1385  0.2618 -0.0197
 6812SOL    HW131898   2.244   0.030   3.968  0.2313 -0.8177  0.5243
 6812SOL    HW231899   2.309   0.079   4.085 -0.2253 -0.3077  0.0180
 6813SOL     OW31900   1.572   2.881   8.413 -0.2566  0.3172  0.2890
 6813SOL    HW131901   1.521   2.936   8.473  0.0457  2.0176 -1.0073
 6813SOL    HW231902   1.612   2.826   8.480  0.3280  1.2636  0.7119
 6814SOL     OW31903   0.791   2.246   9.470  0.2112  0.2568  0.2940
 6814SOL    HW131904   0.803   2.252   9.375 -1.1580 -0.2912  0.0957
 6814SOL    HW231905   0.701   2.214   9.476  0.7026 -1.0570  0.6630
 6815SOL     OW31906   2.939   3.911  15.584  0.1547  0.7900 -0.5904
 6815SOL    HW131907   2.887   3.961  15.647 -0.4642 -1.0770  0.3954
 6815SOL    HW231908   2.897   3.930  15.500  1.0006  1.7166 -0.8027
 6816SOL     OW31909   1.075   2.686  17.490  0.2346  0.0224  0.1316
 6816SOL    HW131910   1.012   2.736  17.543 -0.1207  0.9225 -1.1249
 6816SOL    HW231911   1.012   2.628  17.447  0.4781 -1.1088  1.3012
 6817SOL     OW31912   0.375   0.456  12.915  0.4162 -0.3447 -0.5335
 6817SOL    HW131913   0.402   0.398  12.844 -1.6485  0.6211 -2.0811
 6817SOL    HW231914   0.451   0.462  12.973 -0.7877 -1.3461  1.1661
 6818SOL     OW31915   1.488   2.195   2.710 -0.3379  0.0589  0.6351
 6818SOL    HW131916   1.505   2.144   2.631  0.1255  1.7747 -0.3680
 6818SOL    HW231917   1.455   2.120   2.759 -0.7647  1.0862  1.9025
 6819SOL     OW31918   0.253   1.205  13.422  0.4068 -0.5969 -0.1644
 6819SOL    HW131919   0.253   1.286  13.371 -1.7371  0.1388  1.0561
 6819SOL    HW231920   0.199   1.238  13.494  1.5669 -1.2768  1.0214
 6820SOL     OW31921   1.717   2.451   3.914 -0.2028  0.4726 -0.4901
 6820SOL    HW131922   1.656   2.481   3.847  0.0530  3.7260  0.7549
 6820SOL    HW231923   1.765   2.527   3.946 -1.5298  0.2446  1.9965
 6821SOL     OW31924   2.205   1.113  14.438  0.7997 -0.1860 -0.1534
 6821SOL    HW131925   2.197   1.197  14.393  0.2722 -0.5655 -0.7797
 6821SOL    HW231926   2.184   1.056  14.363 -0.0656 -0.9228  0.6448
 6822SOL     OW31927   3.905   4.527  15.223  0.6275  0.2617  0.0328
 6822SOL    HW131928   3.908   4.534  15.127 -0.3589  0.9142  0.0573
 6822SOL    HW231929   3.940   4.438  15.226 -2.3553 -0.9362 -1.0647
 6823SOL     OW31930   2.182   0.733  15.237 -0.0549 -0.5313 -0.5521
 6823SOL    HW131931   2.183   0.690  15.322 -0.7013 -0.2621 -0.4034
 6823SOL    HW231932   2.143   0.665  15.181 -0.0247 -0.8369 -0.2034
 6824SOL     OW31933   0.212   1.854   3.586 -0.3774 -0.2557  0.1610
 6824SOL    HW131934   0.206   1.948   3.569 -0.2677  0.0576  1.8199
 6824SOL    HW231935   0.282   1.823   3.529 -0.1040  0.3573  0.1592
 6825SOL     OW31936   4.356   2.054  11.747 -0.2855 -0.7783  0.0526
 6825SOL    HW131937   4.281   2.053  11.688 -1.4267 -1.5252  1.5147
 6825SOL    HW231938   4.368   1.965  11.781 -1.2257 -1.4824 -1.4443
 6826SOL     OW31939   3.198   4.539   3.578 -0.2435 -0.4520 -0.0486
 6826SOL    HW131940   3.229   4.549   3.668 -0.0630  0.2201 -0.1873
 6826SOL    HW231941   3.244   4.607   3.529 -0.6998  2.3849  3.4307
 6827SOL     OW31942   0.937   1.083   5.134  0.0666  0.6163 -0.3521
 6827SOL    HW131943   0.959   1.061   5.225 -1.4382 -0.7265 -0.3272
 6827SOL    HW231944   0.846   1.109   5.118 -0.4326 -0.5469  0.6333
 6828SOL     OW31945   1.231   3.883   9.231  0.3393 -0.6933 -0.8871
 6828SOL    HW131946   1.191   3.811   9.280  1.3497 -0.3146  0.5177
 6828SOL    HW231947   1.171   3.893   9.157 -2.4231 -0.2391  1.4104
 6829SOL     OW31948   2.237   4.655   6.117  0.2885 -0.5623 -0.2005
 6829SOL    HW131949   2.329   4.630   6.110  0.7643  1.0521  0.1434
 6829SOL    HW231950   2.250   4.705   6.198 -0.6806  1.1974 -1.1131
 6830SOL     OW31951   2.641   3.843   8.831  0.9027 -0.2971  0.5834
 6830SOL    HW131952   2.587   3.780   8.784 -0.6608  1.1505  0.4425
 6830SOL    HW231953   2.628   3.925   8.782 -2.8823 -0.1234  1.9204
 6831SOL     OW31954   0.570   4.624   2.983 -0.1598 -0.2438 -0.3047
 6831SOL    HW131955   0.557   4.590   3.071  3.7289  1.0702  0.8236
 6831SOL    HW231956   0.645   4.568   2.962  0.2896  0.8008 -1.4547
 6832SOL     OW31957   1.397   1.915   3.111  0.0205 -0.0768 -0.1694
 6832SOL    HW131958   1.456   1.922   3.186  0.6311 -0.4877 -0.6027
 6832SOL    HW231959   1.356   2.002   3.111 -0.3811 -0.2671  2.1206
 6833SOL     OW31960   4.082   3.374   4.031 -0.3238 -0.5001  0.2382
 6833SOL    HW131961   4.054   3.365   3.940  2.3042 -1.7747 -0.4442
 6833SOL    HW231962   4.053   3.462   4.056 -0.0785 -0.3302 -0.0732
 6834SOL     OW31963   4.538   4.600   1.704 -0.3643  0.1133  0.9067
 6834SOL    HW131964   4.501   4.642   1.782 -0.9353  3.5904 -1.2066
 6834SOL    HW231965   4.458   4.550   1.690  0.1440 -0.5678  0.4720
 6835SOL     OW31966   4.590   1.100   6.117  0.2728 -0.1348  0.2054
 6835SOL    HW131967   4.586   1.028   6.180 -0.0196  1.0425  1.5090
 6835SOL    HW231968   4.645   1.168   6.156 -1.1044  1.2603 -0.2845
 6836SOL     OW31969   1.984   3.721  12.073 -0.2133  0.4981  0.1165
 6836SOL    HW131970   1.990   3.715  12.168  0.7309 -0.3835 -0.0008
 6836SOL    HW231971   1.934   3.642  12.055 -0.9216  0.3239  2.9227
 6837SOL     OW31972   0.496   4.637  13.069  0.3683 -1.0544  0.2661
 6837SOL    HW131973   0.499   4.612  13.161 -0.2900 -1.2685  0.2320
 6837SOL    HW231974   0.405   4.665  13.061  1.1771  1.4443 -0.2170
 6838SOL     OW31975   2.136   3.110   7.715 -0.0208 -0.0468 -0.5911
 6838SOL    HW131976   2.136   3.180   7.780 -1.2862 -1.4787  0.9464
 6838SOL    HW231977   2.223   3.116   7.674 -0.0396  1.4621 -0.3996
 6839SOL     OW31978   4.388   0.065   4.554  0.3800 -0.0946  0.0287
 6839SOL    HW131979   4.361   0.122   4.482 -1.1145  0.1894  0.8165
 6839SOL    HW231980   4.344   4.704   4.537 -0.0314  0.3270 -0.9377
 6840SOL     OW31981   1.879   1.007  16.351 -0.2974  0.1181 -0.4820
 6840SOL    HW131982   1.912   1.087  16.311  2.5834 -1.0317 -0.4658
 6840SOL    HW231983   1.950   0.944  16.337 -1.3823 -0.8522 -1.5884
 6841SOL     OW31984   3.649   1.606   6.836 -0.4710 -0.0733 -0.0948
 6841SOL    HW131985   3.589   1.631   6.906 -0.0737 -0.8853  0.5377
 6841SOL    HW231986   3.691   1.691   6.823  0.7197 -0.6030  0.3402
 6842SOL     OW31987   0.899   2.496   1.732 -0.1009 -0.4918  0.1331
 6842SOL    HW131988   0.943   2.438   1.794  2.3805 -0.1537 -1.2828
 6842SOL    HW231989   0.969   2.507   1.667 -0.7411  0.9930 -0.2997
 6843SOL     OW31990   0.713   1.715  15.751  0.6777  0.3085 -0.1727
 6843SOL    HW131991   0.782   1.780  15.736 -0.7334  2.1819  1.4060
 6843SOL    HW231992   0.739   1.671  15.832 -0.6959  2.0455  1.2275
 6844SOL     OW31993   3.450   0.342   7.128  0.1836 -0.1369 -0.0643
 6844SOL    HW131994   3.491   0.395   7.059 -1.9033  1.2410 -0.2508
 6844SOL    HW231995   3.527   0.323   7.182 -1.0729 -2.1457  0.9915
 6845SOL     OW31996   3.654   3.354   0.910  0.6406  0.4338 -0.2267
 6845SOL    HW131997   3.694   3.267   0.913 -2.5614 -1.0024  0.7210
 6845SOL    HW231998   3.584   3.348   0.974  2.1765  0.8456  1.5197
 6846SOL     OW31999   3.010   3.192   3.937 -0.0114 -0.4047 -0.3352
 6846SOL    HW132000   3.046   3.279   3.917 -0.7437  0.2837  1.4129
 6846SOL    HW232001   3.078   3.142   3.982 -0.8502  1.6228  3.1321
 6847SOL     OW32002   1.139   2.335   6.699 -0.2207 -0.0227 -0.0655
 6847SOL    HW132003   1.199   2.406   6.721 -2.6769  1.3567  2.2499
 6847SOL    HW232004   1.162   2.279   6.772  0.6111  0.8275  0.3329
 6848SOL     OW32005   4.709   2.162   3.357  0.2368 -0.1047 -0.0860
 6848SOL    HW132006   4.681   2.248   3.325 -1.6788 -0.5754  0.3592
 6848SOL    HW232007   4.694   2.116   3.274 -0.5229 -2.0755  1.1572
 6849SOL     OW32008   0.946   4.116   5.792  0.1706 -0.2905  0.5135
 6849SOL    HW132009   0.894   4.049   5.748  1.1927 -0.3482 -0.6006
 6849SOL    HW232010   1.035   4.088   5.771  0.1176 -0.4814  0.5389
 6850SOL     OW32011   3.617   3.624   2.730 -0.5863  0.1354  0.2544
 6850SOL    HW132012   3.663   3.569   2.793  1.6147 -1.8806 -3.1098
 6850SOL    HW232013   3.568   3.688   2.781  0.6910  2.2681 -1.2219
 6851SOL     OW32014   4.243   4.095   7.582 -0.2011 -0.3149 -0.1017
 6851SOL    HW132015   4.147   4.106   7.582 -0.0988  0.6229 -1.2944
 6851SOL    HW232016   4.256   4.041   7.504 -1.9961  2.3906 -2.2972
 6852SOL     OW32017   2.676   2.657   6.769 -0.0956 -0.3418  0.0977
 6852SOL    HW132018   2.658   2.749   6.751  1.0771  0.0978  1.2211
 6852SOL    HW232019   2.719   2.655   6.855 -2.0215 -1.1711  1.0540
 6853SOL     OW32020   1.243   0.868   8.704  0.2542 -0.6167  0.2496
 6853SOL    HW132021   1.153   0.858   8.734  0.0730 -0.9877 -0.4204
 6853SOL    HW232022   1.250   0.962   8.719 -2.3731 -0.0748 -2.0057
 6854SOL     OW32023   3.681   3.939  16.279 -0.5763  0.4600  0.4639
 6854SOL    HW132024   3.707   3.980  16.361  0.4538  0.2045  0.2637
 6854SOL    HW232025   3.692   3.850  16.312 -1.2138 -0.3175 -1.4372
 6855SOL     OW32026   4.137   0.341  17.281 -0.6914  0.2862  0.0961
 6855SOL    HW132027   4.074   0.280  17.244  0.2011 -1.1312  0.9168
 6855SOL    HW232028   4.072   0.411  17.283 -1.0174 -0.0212  0.2446
 6856SOL     OW32029   3.692   0.278   2.200  0.0394 -0.6336  0.2883
 6856SOL    HW132030   3.737   0.262   2.117 -1.4804  0.6862 -0.7979
 6856SOL    HW232031   3.723   0.368   2.207 -0.2022 -0.6909  1.9709
 6857SOL     OW32032   2.949   0.089   9.533  0.5207 -0.1547 -0.3305
 6857SOL    HW132033   2.976   0.178   9.509 -2.0480  0.9981  0.9938
 6857SOL    HW232034   2.868   0.089   9.481  0.3490 -1.3621 -0.0651
 6858SOL     OW32035   4.712   0.085   3.072 -0.0045 -0.1968 -0.0429
 6858SOL    HW132036   0.029   0.098   3.158 -1.4896 -2.6740  0.9667
 6858SOL    HW232037   0.063   0.131   3.029 -2.2447  2.6232 -0.8113
 6859SOL     OW32038   0.616   1.110   7.595  0.2639  0.2364 -0.9548
 6859SOL    HW132039   0.709   1.089   7.608  0.0063 -0.5093 -0.2997
 6859SOL    HW232040   0.577   1.024   7.579  2.2825 -1.1174  1.2347
 6860SOL     OW32041   1.244   0.445   4.534 -0.0294 -0.0845  0.2976
 6860SOL    HW132042   1.168   0.502   4.540 -0.0770 -0.4385  3.0164
 6860SOL    HW232043   1.254   0.427   4.628 -1.1977  2.0833  0.8391
 6861SOL     OW32044   4.316   1.993   1.047  0.1269 -0.1994  0.4909
 6861SOL    HW132045   4.366   1.996   0.966 -0.4567  0.7598  0.1731
 6861SOL    HW232046   4.224   1.987   1.020  0.2498 -1.7664  0.4080
 6862SOL     OW32047   2.074   0.622   2.247 -0.4920  0.3255  0.1114
 6862SOL    HW132048   2.137   0.631   2.318  1.2898 -0.0648 -1.4060
 6862SOL    HW232049   2.072   0.532   2.216  0.3303  0.9387 -1.7557
 6863SOL     OW32050   0.491   0.651   0.572 -0.3484  0.1135  0.2749
 6863SOL    HW132051   0.566   0.711   0.566 -0.4079  0.1558 -0.0677
 6863SOL    HW232052   0.484   0.626   0.664 -0.2674  0.5028  0.3859
 6864SOL     OW32053   4.014   4.249  11.127  0.3042 -0.1621 -0.2006
 6864SOL    HW132054   3.948   4.293  11.075  0.2943 -0.3735 -0.3676
 6864SOL    HW232055   4.097   4.260  11.080  0.5294  0.3834  0.3156
 6865SOL     OW32056   4.455   2.812   0.642  0.3779 -0.3507  0.1051
 6865SOL    HW132057   4.489   2.744   0.701  0.6623  0.0102  0.3537
 6865SOL    HW232058   4.526   2.810   0.578  0.5648  0.2052  0.3004
 6866SOL     OW32059   4.254   3.559  10.514  0.1715  0.1834  0.5031
 6866SOL    HW132060   4.347   3.578  10.522 -0.3892  1.8781  2.9173
 6866SOL    HW232061   4.254   3.480  10.568 -0.4729  1.2680  2.1003
 6867SOL     OW32062   2.002   4.475   3.241 -0.2624  0.5814 -0.3176
 6867SOL    HW132063   1.944   4.412   3.283  1.9375 -0.4222  1.2567
 6867SOL    HW232064   1.983   4.461   3.149  0.6222 -0.8038 -0.3012
 6868SOL     OW32065   3.098   1.941   1.953 -0.0360 -0.0806 -0.5548
 6868SOL    HW132066   3.066   2.017   2.001  1.3956  1.2083 -1.6520
 6868SOL    HW232067   3.011   1.901   1.942  0.5869 -1.5856 -0.0711
 6869SOL     OW32068   1.289   3.839   0.383  0.6675 -0.6459 -0.1307
 6869SOL    HW132069   1.355   3.824   0.451  1.2943  2.9080  0.0512
 6869SOL    HW232070   1.302   3.933   0.370  0.3507 -0.4462  1.0033
 6870SOL     OW32071   2.756   3.852  14.535 -0.0486  0.5033 -0.6659
 6870SOL    HW132072   2.749   3.873  14.628 -1.3758  2.0989 -1.1316
 6870SOL    HW232073   2.805   3.771  14.552 -0.5299  0.2180 -0.6266
 6871SOL     OW32074   3.152   4.529   7.820 -0.1454 -0.0059 -0.3019
 6871SOL    HW132075   3.169   4.530   7.725  0.7305  1.3163 -0.1460
 6871SOL    HW232076   3.234   4.494   7.855  0.4491  0.9557 -0.7093
 6872SOL     OW32077   4.099   2.623  11.868 -0.3253 -0.3583  0.1849
 6872SOL    HW132078   4.006   2.627  11.888 -0.7286 -0.9856 -1.5404
 6872SOL    HW232079   4.120   2.555  11.931  0.4286 -0.4487 -0.1630
 6873SOL     OW32080   0.778   2.703  15.452 -0.5790 -0.1815 -0.0621
 6873SOL    HW132081   0.771   2.754  15.533 -0.7508  0.3397 -0.4093
 6873SOL    HW232082   0.783   2.612  15.482  1.2827  0.1798  0.7283
 6874SOL     OW32083   3.556   1.436   8.199 -0.1709  0.9151 -0.4195
 6874SOL    HW132084   3.498   1.493   8.249 -1.4130 -0.1823 -0.6013
 6874SOL    HW232085   3.556   1.481   8.114 -0.8094  0.0026 -0.9073
 6875SOL     OW32086   4.571   3.747   7.151  0.5166  0.6737  0.0534
 6875SOL    HW132087   4.540   3.813   7.213  0.3493  2.1636 -1.6144
 6875SOL    HW232088   4.588   3.671   7.206 -0.7965 -0.2415 -0.8211
 6876SOL     OW32089   0.665   1.461   7.249  0.7617 -0.5925  0.1349
 6876SOL    HW132090   0.656   1.518   7.325  0.8570  0.0470 -0.3349
 6876SOL    HW232091   0.665   1.534   7.188 -2.9718 -0.7204 -0.0310
 6877SOL     OW32092   3.753   2.301  15.894  0.4569  0.0160 -0.2088
 6877SOL    HW132093   3.686   2.336  15.836 -1.0946  1.0442  2.2183
 6877SOL    HW232094   3.801   2.377  15.928  2.4263 -2.7681  3.1437
 6878SOL     OW32095   3.147   2.513   6.453 -0.6521 -0.3734 -0.1313
 6878SOL    HW132096   3.126   2.580   6.518 -0.2485  0.2455 -0.6438
 6878SOL    HW232097   3.227   2.549   6.415 -0.3117 -1.1690 -0.1769
 6879SOL     OW32098   3.595   0.641   3.162  0.1304 -0.8925  0.1355
 6879SOL    HW132099   3.618   0.590   3.240 -1.3759  0.0091  1.1824
 6879SOL    HW232100   3.678   0.650   3.114  0.0491  2.6190  0.6780
 6880SOL     OW32101   1.339   4.016   4.448 -0.5910 -0.1184  0.1704
 6880SOL    HW132102   1.278   3.979   4.383  2.0384 -2.8248 -0.7335
 6880SOL    HW232103   1.324   3.942   4.507  0.6275 -0.4165  0.1080
 6881SOL     OW32104   0.004   1.516  11.238  0.5955 -0.3735 -0.1018
 6881SOL    HW132105   4.719   1.447  11.173  1.1236 -0.5271  0.0081
 6881SOL    HW232106   4.702   1.593  11.186 -1.9191 -1.5832 -0.7530
 6882SOL     OW32107   3.316   1.600  15.442 -0.3527  0.0781 -0.1167
 6882SOL    HW132108   3.242   1.632  15.390 -0.2226  1.2475  0.4186
 6882SOL    HW232109   3.309   1.504  15.444  0.2545  0.0554  0.9618
 6883SOL     OW32110   2.696   4.496   7.413 -0.2751 -0.2335 -0.1975
 6883SOL    HW132111   2.686   4.582   7.452 -2.2114 -1.2407  1.5422
 6883SOL    HW232112   2.617   4.478   7.362 -0.2947 -1.2460  0.1737
 6884SOL     OW32113   2.123   4.435   3.690  0.9279  0.0602 -0.2155
 6884SOL    HW132114   2.170   4.493   3.631 -0.1087  2.0233  0.8950
 6884SOL    HW232115   2.202   4.392   3.722  3.5749  4.8508 -0.3954
 6885SOL     OW32116   4.256   4.343   6.584 -0.3950  0.2137 -0.0780
 6885SOL    HW132117   4.344   4.332   6.547 -0.5776  3.1907 -1.3845
 6885SOL    HW232118   4.235   4.256   6.618 -0.6769  0.6097  0.7678
 6886SOL     OW32119   1.089   3.493  16.608  0.2230 -0.2754  0.3954
 6886SOL    HW132120   1.182   3.470  16.605  0.0571 -0.9146  0.2144
 6886SOL    HW232121   1.062   3.465  16.520  0.7660 -0.3331  0.2498
 6887SOL     OW32122   1.435   1.715   6.473 -0.5081 -0.1959  0.0181
 6887SOL    HW132123   1.472   1.692   6.388  1.0552  1.5794  0.2060
 6887SOL    HW232124   1.494   1.771   6.524 -2.8334  0.1767  2.3215
 6888SOL     OW32125   3.680   4.542  15.950  0.1516 -0.2091  0.1593
 6888SOL    HW132126   3.634   4.475  15.898  2.2250  1.1702 -3.4406
 6888SOL    HW232127   3.639   4.527  16.035  1.1887 -1.2004  0.4922
 6889SOL     OW32128   3.523   3.165  11.857 -0.2478 -0.0767  0.2258
 6889SOL    HW132129   3.607   3.122  11.840  0.0370  1.0890 -1.3881
 6889SOL    HW232130   3.516   3.152  11.951 -0.6434  0.3174  0.2532
 6890SOL     OW32131   1.660   0.478  11.962 -0.0309 -0.2518 -0.4687
 6890SOL    HW132132   1.590   0.484  12.027  0.4900  0.0669  0.0557
 6890SOL    HW232133   1.609   0.465  11.881  1.4892 -0.3123 -1.4130
 6891SOL     OW32134   1.710   1.551  17.673 -0.4011  0.3381  0.2087
 6891SOL    HW132135   1.672   1.501   0.058  0.5321 -0.3706  0.2184
 6891SOL    HW232136   1.653   1.628  17.679 -0.4259  0.2749  0.8313
 6892SOL     OW32137   1.319   1.627  15.735 -0.0046 -1.0620 -0.3584
 6892SOL    HW132138   1.362   1.542  15.726  0.6005 -0.7041 -0.8313
 6892SOL    HW232139   1.252   1.601  15.798  0.0754 -1.5774 -0.4870
 6893SOL     OW32140   3.306   1.524   5.637  0.4879  0.7462 -0.2773
 6893SOL    HW132141   3.305   1.448   5.695  0.5921  0.5374 -0.5532
 6893SOL    HW232142   3.214   1.537   5.614  0.3631  0.0385 -0.1676
 6894SOL     OW32143   3.110   2.303   9.022 -0.0832 -0.0768  0.2181
 6894SOL    HW132144   3.071   2.348   9.097  1.2180  0.8860  0.3251
 6894SOL    HW232145   3.038   2.264   8.973  1.5981 -1.9540 -0.7315
 6895SOL     OW32146   2.817   1.102   2.321  0.3790  0.0685 -0.5885
 6895SOL    HW132147   2.839   1.173   2.261  2.7150 -0.7683 -0.7177
 6895SOL    HW232148   2.824   1.022   2.269  1.9589  0.8093 -1.5127
 6896SOL     OW32149   3.355   1.069   4.185  0.1181  0.2070  0.0508
 6896SOL    HW132150   3.287   1.062   4.252 -1.1152  1.6380 -1.0556
 6896SOL    HW232151   3.379   0.976   4.178 -0.6816 -0.0830  1.1723
 6897SOL     OW32152   2.388   1.231   5.836 -0.2792 -0.1216 -0.6066
 6897SOL    HW132153   2.359   1.221   5.927 -3.7374  1.4986 -1.5314
 6897SOL    HW232154   2.345   1.160   5.789 -0.2033  0.1824 -1.1243
 6898SOL     OW32155   2.853   4.630   3.457 -0.2639  0.4412 -0.3593
 6898SOL    HW132156   2.905   4.679   3.521  0.4175 -0.7745  0.0211
 6898SOL    HW232157   2.790   4.695   3.426 -1.4802 -1.3097 -1.5683
 6899SOL     OW32158   4.286   3.292  11.219  0.0661 -0.0821  0.5746
 6899SOL    HW132159   4.324   3.211  11.254  1.3622  0.2405 -0.0900
 6899SOL    HW232160   4.213   3.306  11.279  1.0466 -0.2578  1.8021
 6900SOL     OW32161   2.904   3.123  17.310 -0.7954  0.3728  0.1450
 6900SOL    HW132162   2.855   3.104  17.230  0.0176 -0.9107 -0.0564
 6900SOL    HW232163   2.879   3.051  17.368 -0.7256  1.6120  1.7024
 6901SOL     OW32164   4.031   1.530  13.683 -0.2033  0.3140 -0.1680
 6901SOL    HW132165   4.071   1.452  13.646  0.2530  0.3596  0.2333
 6901SOL    HW232166   4.017   1.589  13.608 -0.4443  0.0299 -0.3467
 6902SOL     OW32167   2.877   4.484   3.931  0.0419  0.1592  0.2195
 6902SOL    HW132168   2.965   4.448   3.938  0.5579  1.7152  1.4398
 6902SOL    HW232169   2.850   4.455   4.018  0.7740 -2.3915 -0.4065
 6903SOL     OW32170   2.075   0.979   2.147  0.6769 -0.7512 -0.2421
 6903SOL    HW132171   2.031   0.981   2.232  1.3417 -1.8255  0.1316
 6903SOL    HW232172   2.085   1.073   2.134 -0.8844 -1.0389 -3.5126
 6904SOL     OW32173   3.915   0.259   4.941 -0.0611  0.0734 -0.6717
 6904SOL    HW132174   3.980   0.188   4.942 -0.7233 -0.4368  4.1541
 6904SOL    HW232175   3.953   0.323   4.881 -0.5963  0.9563 -0.0619
 6905SOL     OW32176   3.788   2.369  17.607  0.0620  0.1825  0.0427
 6905SOL    HW132177   3.814   2.438  17.546 -0.2875 -0.0312 -0.3443
 6905SOL    HW232178   3.851   2.378  17.679 -1.1358  1.6699  0.8997
 6906SOL     OW32179   4.255   4.248  12.876 -0.6081  1.5434  0.3301
 6906SOL    HW132180   4.263   4.168  12.927 -2.6049  0.1606 -1.5472
 6906SOL    HW232181   4.324   4.236  12.810 -0.4734  2.5179  0.2818
 6907SOL     OW32182   2.059   1.591  12.059 -0.4429 -0.0298  0.1212
 6907SOL    HW132183   2.117   1.557  11.991  0.4967 -0.1332  0.9571
 6907SOL    HW232184   1.991   1.526  12.075 -0.4155 -0.3546 -1.1296
 6908SOL     OW32185   1.454   2.177   1.565  0.9034 -0.6205 -0.6498
 6908SOL    HW132186   1.539   2.136   1.579  1.6466 -0.0311 -3.4010
 6908SOL    HW232187   1.467   2.214   1.478 -0.4887 -0.1193 -0.6453
 6909SOL     OW32188   0.174   2.351  11.296  0.1172 -0.0519  0.2613
 6909SOL    HW132189   0.210   2.335  11.384 -0.9637 -1.2188  0.4834
 6909SOL    HW232190   0.096   2.295  11.290 -0.1636  0.2085  1.3655
 6910SOL     OW32191   3.065   3.846  14.666  0.6408  0.0516  0.4223
 6910SOL    HW132192   2.993   3.783  14.652  0.8066  0.0331 -0.3381
 6910SOL    HW232193   3.091   3.854  14.574  0.9445 -2.2744  0.2940
 6911SOL     OW32194   1.997   3.530   4.827 -0.1884  0.1054 -0.0016
 6911SOL    HW132195   1.974   3.610   4.780 -2.1878  0.1540  1.0657
 6911SOL    HW232196   2.068   3.562   4.883 -0.3791 -0.0244  0.3122
 6912SOL     OW32197   2.341   1.701   2.388 -0.2319  0.2678 -0.5650
 6912SOL    HW132198   2.433   1.727   2.402 -0.5277  0.4024  1.2105
 6912SOL    HW232199   2.302   1.780   2.425  0.4945 -0.5173  1.8831
 6913SOL     OW32200   3.562   1.494   4.808  0.0261 -0.1338  0.2775
 6913SOL    HW132201   3.641   1.520   4.759  0.3601 -0.5203  0.6138
 6913SOL    HW232202   3.519   1.447   4.737  0.0167  1.2454 -0.6341
 6914SOL     OW32203   2.743   4.642  12.777 -0.2515 -0.0703  0.2776
 6914SOL    HW132204   2.723   4.576  12.711 -2.4729 -0.0558  0.9295
 6914SOL    HW232205   2.706   4.589  12.848  0.3075 -0.9923 -0.1177
 6915SOL     OW32206   1.156   3.842   6.229 -0.1295 -0.8515 -0.4867
 6915SOL    HW132207   1.211   3.860   6.152  0.3272 -1.4792 -0.3151
 6915SOL    HW232208   1.109   3.925   6.235  2.2638  0.3783  1.1789
 6916SOL     OW32209   0.616   0.209   5.014  0.2595  0.6175 -0.5058
 6916SOL    HW132210   0.651   0.196   5.103  1.3647  1.4463 -0.8180
 6916SOL    HW232211   0.623   0.123   4.972  0.3641 -1.3568  3.4833
 6917SOL     OW32212   1.907   0.442   3.104  0.1140  0.1031 -0.6690
 6917SOL    HW132213   1.917   0.348   3.089 -1.0797 -0.4902  2.2208
 6917SOL    HW232214   1.993   0.478   3.080 -0.1187  1.2714  0.2312
 6918SOL     OW32215   0.658   0.479   6.546 -0.4556  0.5122  0.0444
 6918SOL    HW132216   0.680   0.393   6.509 -0.7366 -0.3358  1.8531
 6918SOL    HW232217   0.719   0.535   6.498  0.4285 -1.0008 -0.5981
 6919SOL     OW32218   3.883   0.979   3.120 -0.2583  0.1066 -0.0333
 6919SOL    HW132219   3.801   1.006   3.079  0.0895  0.4173 -0.5316
 6919SOL    HW232220   3.920   1.067   3.136  0.7988 -0.5678  1.2731
 6920SOL     OW32221   2.146   0.046   3.613 -0.1858 -0.2408 -0.2601
 6920SOL    HW132222   2.240   0.053   3.625 -0.2339 -1.0337  0.6543
 6920SOL    HW232223   2.130   0.139   3.629 -1.4554 -0.1866 -1.7955
 6921SOL     OW32224   2.143   2.197  10.578  0.3459  0.3142 -0.5642
 6921SOL    HW132225   2.101   2.134  10.520  2.0047  1.7513 -3.2978
 6921SOL    HW232226   2.210   2.229  10.517  1.5400  0.7186  0.9464
 6922SOL     OW32227   1.673   2.932  15.427  0.5726 -0.1994  0.6370
 6922SOL    HW132228   1.755   2.979  15.446 -0.2217  2.2293 -2.0166
 6922SOL    HW232229   1.699   2.882  15.350 -3.7466  0.8957 -1.5117
 6923SOL     OW32230   0.712   2.479   4.721  0.0758  0.3358  0.6524
 6923SOL    HW132231   0.698   2.561   4.674  1.6292  1.0177  1.3764
 6923SOL    HW232232   0.629   2.438   4.698 -0.1868  0.8825  0.6208
 6924SOL     OW32233   1.455   3.249   8.618  0.2632  0.7729 -0.5712
 6924SOL    HW132234   1.440   3.274   8.527  1.8319 -1.8362 -1.5571
 6924SOL    HW232235   1.551   3.244   8.625  0.1354  0.3894  0.9156
 6925SOL     OW32236   2.634   4.614   9.995 -0.4267 -0.3851  0.3022
 6925SOL    HW132237   2.697   4.562  10.045  0.0491  1.3091  1.4721
 6925SOL    HW232238   2.693   4.667   9.942 -2.1623 -0.6537 -1.8902
 6926SOL     OW32239   2.240   2.592   3.399 -0.0630 -0.0473  0.1025
 6926SOL    HW132240   2.171   2.633   3.451  1.1564 -0.5627  2.1057
 6926SOL    HW232241   2.313   2.596   3.460  1.9801 -1.0507 -2.2817
 6927SOL     OW32242   0.552   2.826   6.092 -0.0645  0.4945 -1.0766
 6927SOL    HW132243   0.485   2.776   6.139  0.4408  0.3797 -0.4834
 6927SOL    HW232244   0.602   2.872   6.160 -1.3525  1.1161 -0.5456
 6928SOL     OW32245   1.919   3.317   6.362 -0.1593  0.7639  0.0155
 6928SOL    HW132246   1.935   3.410   6.378  1.2036  0.5775 -0.2790
 6928SOL    HW232247   1.828   3.312   6.390 -0.7989  1.9681 -1.8215
 6929SOL     OW32248   3.404   1.654  16.777  0.1120 -0.0769  0.0363
 6929SOL    HW132249   3.374   1.573  16.820 -1.8660 -0.0387 -1.2673
 6929SOL    HW232250   3.496   1.630  16.792  0.1122 -0.7438 -1.0363
 6930SOL     OW32251   3.761   0.343   7.560 -0.0517  0.0603  0.2240
 6930SOL    HW132252   3.717   0.397   7.626  0.0541 -1.1054  1.2632
 6930SOL    HW232253   3.759   0.263   7.613 -0.1974  0.1350  0.3309
 6931SOL     OW32254   3.050   3.446  12.229 -0.0523 -0.5993  0.2781
 6931SOL    HW132255   3.078   3.357  12.207 -0.8277 -0.5108 -1.0706
 6931SOL    HW232256   3.009   3.460  12.143 -1.1980  2.5133  1.3146
 6932SOL     OW32257   0.098   3.718   2.114 -0.4298 -0.2711 -0.7024
 6932SOL    HW132258   0.036   3.727   2.042 -2.0166  2.1465  0.9743
 6932SOL    HW232259   0.045   3.729   2.193 -0.8284  2.8871 -1.4110
 6933SOL     OW32260   0.435   3.320  10.126 -0.2957  0.1278  0.1856
 6933SOL    HW132261   0.502   3.295  10.189 -0.2001 -1.5278 -0.5662
 6933SOL    HW232262   0.482   3.375  10.063  2.2954 -1.9062  0.3385
 6934SOL     OW32263   0.684   1.651   1.955  0.2542  0.1565  0.7953
 6934SOL    HW132264   0.752   1.633   1.890 -1.3193 -0.7733 -0.6016
 6934SOL    HW232265   0.719   1.724   2.005 -1.3147  0.1430  1.9156
 6935SOL     OW32266   1.736   0.175   6.955  0.0002  1.2334 -0.2224
 6935SOL    HW132267   1.641   0.163   6.965  0.6693 -2.6529  1.3555
 6935SOL    HW232268   1.733   0.267   6.928 -0.1895  1.3604  0.2304
 6936SOL     OW32269   1.731   2.353   5.257 -0.1833  0.2845 -0.2301
 6936SOL    HW132270   1.718   2.369   5.164 -0.3136 -0.6856 -0.3768
 6936SOL    HW232271   1.688   2.268   5.268  0.5507 -0.1193 -0.4899
 6937SOL     OW32272   3.799   4.620   8.742 -0.4373 -0.0870  0.1607
 6937SOL    HW132273   3.861   4.609   8.814  0.7081  0.4989 -0.7552
 6937SOL    HW232274   3.822   4.542   8.691  0.9959  0.5046 -0.0873
 6938SOL     OW32275   2.630   1.000  17.258  0.1962 -0.3438 -0.1401
 6938SOL    HW132276   2.580   1.018  17.338 -1.8049 -1.3165 -1.1748
 6938SOL    HW232277   2.571   1.043  17.195 -1.8100 -1.1261  1.1937
 6939SOL     OW32278   1.379   3.931   8.136  0.2285 -0.1181  0.4545
 6939SOL    HW132279   1.390   3.909   8.043 -0.8637 -1.8019  0.7240
 6939SOL    HW232280   1.313   4.000   8.134 -2.0142 -2.3347 -1.6599
 6940SOL     OW32281   3.949   4.649   8.439 -0.5173  0.0888 -0.4777
 6940SOL    HW132282   3.856   4.648   8.415 -0.5204 -4.3999 -0.2780
 6940SOL    HW232283   3.970   0.011   8.397 -1.0257  1.3340  1.7087
 6941SOL     OW32284   2.582   3.258   5.091 -0.1827 -0.1439 -0.0559
 6941SOL    HW132285   2.569   3.206   5.011  0.6815  2.1266 -1.6737
 6941SOL    HW232286   2.618   3.335   5.047 -2.2857  1.7928  1.6236
 6942SOL     OW32287   2.469   1.104   8.412  0.4406 -0.4221 -0.8144
 6942SOL    HW132288   2.407   1.175   8.396 -1.0996 -1.5553  0.1173
 6942SOL    HW232289   2.412   1.029   8.427 -1.2254  1.2978  1.3642
 6943SOL     OW32290   4.133   1.129   9.018  0.4485 -0.7554  0.2764
 6943SOL    HW132291   4.059   1.187   9.034  0.5229  0.2268 -2.9616
 6943SOL    HW232292   4.128   1.110   8.925  4.4320  0.1111 -0.1373
 6944SOL     OW32293   0.173   1.656  12.286 -0.2209  0.0631  0.2845
 6944SOL    HW132294   0.201   1.718  12.352 -1.1151  2.2638 -1.3755
 6944SOL    HW232295   0.110   1.705  12.232  0.5226  1.1830  0.4193
 6945SOL     OW32296   4.061   1.496   3.966  0.3580 -0.0966  0.2504
 6945SOL    HW132297   4.123   1.553   3.921  0.8118 -1.0958 -0.3971
 6945SOL    HW232298   4.111   1.454   4.035 -0.9743 -0.9808  0.6839
 6946SOL     OW32299   1.200   1.477   7.142 -0.6089 -0.5337 -0.3876
 6946SOL    HW132300   1.129   1.513   7.088 -0.2527 -1.1995 -1.3038
 6946SOL    HW232301   1.275   1.502   7.087  0.8666 -0.3376  1.7463
 6947SOL     OW32302   0.230   0.885   5.974 -0.2981  1.1402  0.0993
 6947SOL    HW132303   0.310   0.887   5.922  0.2114 -0.9189  0.8219
 6947SOL    HW232304   0.263   0.832   6.046  1.3268 -0.1229 -1.5699
 6948SOL     OW32305   2.816   0.549   3.140 -0.3625  0.6689  0.1531
 6948SOL    HW132306   2.735   0.559   3.089  0.6858  2.9724 -1.0996
 6948SOL    HW232307   2.872   0.613   3.095 -0.2605  1.2804  1.1386
 6949SOL     OW32308   3.752   0.110   7.740  0.2052 -0.4956 -0.1292
 6949SOL    HW132309   3.679   0.104   7.802 -0.9341  2.0004 -1.2031
 6949SOL    HW232310   3.824   0.079   7.794  0.3253  1.0558  0.6100
 6950SOL     OW32311   3.304   0.786  15.042 -0.0254  0.4077 -0.0864
 6950SOL    HW132312   3.303   0.879  15.064  1.5293  0.3519  0.2038
 6950SOL    HW232313   3.307   0.787  14.946 -1.5378 -1.0026 -0.1489
 6951SOL     OW32314   0.579   2.580  17.026 -0.0826  0.2868 -0.0403
 6951SOL    HW132315   0.490   2.566  17.058 -0.5765  0.3258 -1.3787
 6951SOL    HW232316   0.601   2.654  17.082  1.5222 -1.2669  1.3836
 6952SOL     OW32317   2.711   1.444  11.802 -0.4877 -0.1305  0.4555
 6952SOL    HW132318   2.698   1.372  11.740  0.1212 -0.1455  0.3471
 6952SOL    HW232319   2.760   1.402  11.873  2.4266  1.0828 -0.8543
 6953SOL     OW32320   1.492   4.317   5.935 -0.2490 -0.0414  0.2698
 6953SOL    HW132321   1.538   4.310   6.018 -1.9148  0.8443  1.2723
 6953SOL    HW232322   1.413   4.267   5.954  0.7156 -1.5649  0.2763
 6954SOL     OW32323   2.569   4.560   9.319 -0.0387  0.3646  0.3491
 6954SOL    HW132324   2.629   4.528   9.386  0.3765  1.5074  0.5222
 6954SOL    HW232325   2.517   4.625   9.366 -1.5719  0.3289 -1.3018
 6955SOL     OW32326   3.384   3.848   7.120 -0.1016 -0.2508  0.1746
 6955SOL    HW132327   3.342   3.857   7.206 -0.2338  0.9511 -0.0133
 6955SOL    HW232328   3.454   3.783   7.130 -0.3957 -0.4125  1.2237
 6956SOL     OW32329   1.460   3.236   1.849  0.1643  0.4701 -0.1075
 6956SOL    HW132330   1.478   3.291   1.926 -0.0383 -0.9094  0.9305
 6956SOL    HW232331   1.369   3.205   1.851 -0.1708  1.4230 -0.3942
 6957SOL     OW32332   2.525   2.872   4.175 -0.3564 -0.7976 -0.0170
 6957SOL    HW132333   2.607   2.920   4.191  0.0028 -1.2313 -0.5816
 6957SOL    HW232334   2.570   2.801   4.131  1.2624 -2.6344  4.5967
 6958SOL     OW32335   1.391   2.586   6.803  0.3607  0.1720  0.4601
 6958SOL    HW132336   1.448   2.537   6.863 -0.4337  1.2459  2.1008
 6958SOL    HW232337   1.454   2.603   6.733 -0.3983  0.0496 -0.2399
 6959SOL     OW32338   0.587   2.774   4.220 -0.6087  0.2339 -0.0161
 6959SOL    HW132339   0.617   2.856   4.182  3.7124 -1.7253 -0.8886
 6959SOL    HW232340   0.520   2.802   4.281 -0.2112  0.2432  0.4190
 6960SOL     OW32341   1.510   3.163   7.055 -0.1229 -0.0954  0.0423
 6960SOL    HW132342   1.465   3.224   6.998  1.9732  1.3602 -0.0370
 6960SOL    HW232343   1.522   3.094   6.990  1.4438  1.1241 -0.9381
 6961SOL     OW32344   0.103   4.618   6.746  0.4635 -0.2448  0.0104
 6961SOL    HW132345   0.109   4.713   6.734  1.3018 -0.3376 -0.3177
 6961SOL    HW232346   0.027   4.607   6.689  1.7713 -1.1113 -1.5751
 6962SOL     OW32347   0.720   2.083   6.780  0.6913 -0.2928  0.0405
 6962SOL    HW132348   0.660   2.117   6.846 -0.8563 -0.9242 -1.0376
 6962SOL    HW232349   0.701   2.135   6.702 -1.6911 -1.7637 -0.3460
 6963SOL     OW32350   2.100   1.129   8.500 -0.1489 -0.0525  0.0336
 6963SOL    HW132351   2.039   1.104   8.431 -1.0047  0.0730  0.7547
 6963SOL    HW232352   2.163   1.178   8.445 -0.0104  0.4974  0.6770
 6964SOL     OW32353   4.264   0.234   7.284 -0.4822 -0.5423  0.8794
 6964SOL    HW132354   4.205   0.186   7.342 -1.8347 -2.3394 -1.9989
 6964SOL    HW232355   4.268   0.322   7.322 -2.8244 -0.0124 -0.1045
 6965SOL     OW32356   2.431   1.548   6.336 -0.1320  0.0688 -0.5286
 6965SOL    HW132357   2.460   1.557   6.245 -0.8601 -1.9311 -0.9597
 6965SOL    HW232358   2.378   1.468   6.333 -0.5528  0.2554  1.9659
 6966SOL     OW32359   1.474   3.562   0.129  0.5711  0.8085 -0.2198
 6966SOL    HW132360   1.450   3.470   0.116 -1.5978  1.5168 -1.1062
 6966SOL    HW232361   1.496   3.588   0.039  0.2058  0.3466 -0.4450
 6967SOL     OW32362   0.450   2.141   7.442  0.1712 -0.6689 -0.5383
 6967SOL    HW132363   0.514   2.146   7.514 -1.8489  0.3940  1.1822
 6967SOL    HW232364   0.390   2.204   7.481 -1.7161 -1.4538 -2.1893
 6968SOL     OW32365   3.346   1.904  15.964 -0.4308 -0.6825 -0.0147
 6968SOL    HW132366   3.294   1.843  16.017 -1.8473 -0.2773 -0.9550
 6968SOL    HW232367   3.433   1.895  16.005  0.5179  0.4162 -1.7902
 6969SOL     OW32368   4.568   2.107   8.906 -0.6426  0.7970  0.0309
 6969SOL    HW132369   4.484   2.077   8.870 -0.1877  0.3923 -0.6727
 6969SOL    HW232370   4.625   2.119   8.831 -0.4851  0.6898  0.1355
 6970SOL     OW32371   0.544   0.220   1.263  0.1644 -0.0878  0.4023
 6970SOL    HW132372   0.610   0.212   1.195 -1.8949  0.1928 -1.6122
 6970SOL    HW232373   0.550   0.130   1.297  1.2206  0.1086  0.7375
 6971SOL     OW32374   2.860   1.378   6.856 -0.7169 -0.2554 -0.1212
 6971SOL    HW132375   2.941   1.419   6.887 -1.7366 -0.0573  2.2897
 6971SOL    HW232376   2.825   1.462   6.826 -0.8245 -0.3319 -0.2102
 6972SOL     OW32377   3.491   1.213   6.705 -0.3912 -0.5431  0.1180
 6972SOL    HW132378   3.430   1.247   6.770  0.6100  0.1949  0.6829
 6972SOL    HW232379   3.535   1.293   6.675 -1.4365 -0.7998 -2.1450
 6973SOL     OW32380   4.671   0.490   7.011 -0.0934  0.1486  0.4082
 6973SOL    HW132381   4.693   0.398   6.996 -1.4835 -0.1530  0.1796
 6973SOL    HW232382   0.013   0.511   7.079 -0.8833  1.5515  0.7003
 6974SOL     OW32383   2.814   3.445   6.475  0.2892  0.1540 -0.3835
 6974SOL    HW132384   2.783   3.473   6.561  0.4522 -1.9311  0.3540
 6974SOL    HW232385   2.882   3.507   6.448 -0.4022  0.8145 -0.5791
 6975SOL     OW32386   3.503   1.527   5.075  0.8458  0.0703 -0.5479
 6975SOL    HW132387   3.516   1.519   4.981 -0.0299 -0.6347 -0.6118
 6975SOL    HW232388   3.520   1.615   5.109 -0.7722  0.5569 -1.0146
 6976SOL     OW32389   2.165   1.132  17.077  0.4510  0.1735  0.3772
 6976SOL    HW132390   2.211   1.123  16.994 -0.0190 -1.8857  0.3194
 6976SOL    HW232391   2.229   1.180  17.130  0.0963  0.9757  0.0764
 6977SOL     OW32392   0.234   3.211   6.699  0.8059 -0.2126  0.0508
 6977SOL    HW132393   0.295   3.239   6.631  1.7457 -3.3129 -0.3825
 6977SOL    HW232394   0.274   3.129   6.728  0.3717 -1.1208 -1.9297
 6978SOL     OW32395   1.583   3.447   3.448 -0.0589  0.4253 -0.0160
 6978SOL    HW132396   1.542   3.366   3.476  2.1581 -0.4883  0.5083
 6978SOL    HW232397   1.672   3.414   3.440  0.3103  1.8951 -2.2985
 6979SOL     OW32398   1.428   2.362   1.340 -0.0926  0.5800 -0.2537
 6979SOL    HW132399   1.405   2.451   1.315 -1.7439  0.8547  2.2164
 6979SOL    HW232400   1.491   2.338   1.272  2.7057  1.2012  2.0719
 6980SOL     OW32401   1.379   3.505  13.944  0.6244  0.2322  0.9585
 6980SOL    HW132402   1.424   3.421  13.938  0.5114  0.4040 -1.8885
 6980SOL    HW232403   1.395   3.546  13.859  0.2995  3.0736  2.2624
 6981SOL     OW32404   2.629   3.828   9.299 -0.7101  0.5087 -0.3639
 6981SOL    HW132405   2.537   3.808   9.319 -0.2804  0.6383  1.6989
 6981SOL    HW232406   2.623   3.873   9.214  1.0885  0.5494 -0.4511
 6982SOL     OW32407   0.343   0.360  16.101  1.0628 -0.9945  0.0922
 6982SOL    HW132408   0.378   0.445  16.074  0.4762 -0.4262  1.0769
 6982SOL    HW232409   0.251   0.369  16.077  1.5380  0.2804 -1.2466
 6983SOL     OW32410   0.256   1.595   8.593  0.1221  0.7689  0.0655
 6983SOL    HW132411   0.293   1.645   8.520 -2.9215 -2.8381 -4.0060
 6983SOL    HW232412   0.163   1.617   8.589  0.3113  1.4898 -0.3679
 6984SOL     OW32413   3.776   3.095  17.417 -0.4309 -0.3827  0.0173
 6984SOL    HW132414   3.801   3.184  17.443 -0.4149 -0.4970  0.3901
 6984SOL    HW232415   3.682   3.107  17.402 -0.1973  0.0182 -1.1066
 6985SOL     OW32416   4.243   4.073  12.542  0.0306  0.0986 -0.3203
 6985SOL    HW132417   4.244   4.016  12.466  0.8765 -0.3268  0.0131
 6985SOL    HW232418   4.336   4.080  12.565 -0.4088 -0.8707  1.7573
 6986SOL     OW32419   1.429   4.472   8.217 -0.0919  0.6155  0.1047
 6986SOL    HW132420   1.375   4.452   8.294 -0.4557 -0.0267 -0.3121
 6986SOL    HW232421   1.512   4.450   8.259  1.1264 -0.0380 -2.6122
 6987SOL     OW32422   3.127   2.726   6.651  0.0701 -0.5218  0.1367
 6987SOL    HW132423   3.092   2.815   6.649  2.1124  0.3037  1.4784
 6987SOL    HW232424   3.170   2.727   6.736  1.0224 -0.6538 -0.3477
 6988SOL     OW32425   4.024   0.440   7.605  0.1129  0.0305 -0.8060
 6988SOL    HW132426   3.937   0.401   7.617  0.3881 -0.2791  0.1375
 6988SOL    HW232427   4.080   0.369   7.637  2.5960  1.5227 -1.8966
 6989SOL     OW32428   3.781   3.449   6.618 -0.1237 -0.1595 -0.1998
 6989SOL    HW132429   3.760   3.406   6.535  0.2809 -0.8436  0.0482
 6989SOL    HW232430   3.722   3.524   6.617  0.5531  0.3822  0.8739
 6990SOL     OW32431   2.453   4.118  10.666 -0.0237  0.5798 -0.1372
 6990SOL    HW132432   2.431   4.176  10.739  3.2045 -0.1008  1.3386
 6990SOL    HW232433   2.378   4.057  10.671 -0.1574  0.8400  1.0771
 6991SOL     OW32434   4.278   2.362   4.228 -0.5444 -0.6003  0.9962
 6991SOL    HW132435   4.268   2.274   4.264  1.2208 -0.9396  0.6956
 6991SOL    HW232436   4.187   2.384   4.207 -0.2403  0.5537  0.8727
 6992SOL     OW32437   4.387   0.706  14.510 -0.0368  0.3028 -0.0233
 6992SOL    HW132438   4.342   0.679  14.431 -0.4988  0.3523  0.2245
 6992SOL    HW232439   4.372   0.801  14.506  1.3668  0.6069  1.5606
 6993SOL     OW32440   4.444   3.163   9.768 -0.1690 -0.0820  0.2069
 6993SOL    HW132441   4.466   3.085   9.717 -0.9149 -0.5437  0.5962
 6993SOL    HW232442   4.529   3.175   9.812  2.1040 -0.8801 -3.9888
 6994SOL     OW32443   2.386   1.307  11.495 -0.1701 -0.0984  0.1339
 6994SOL    HW132444   2.468   1.346  11.467  1.1773 -4.3315 -1.8602
 6994SOL    HW232445   2.416   1.257  11.571 -0.5101  0.7029  0.8006
 6995SOL     OW32446   3.879   0.321   4.095 -0.3411 -0.0548  0.4248
 6995SOL    HW132447   3.959   0.328   4.043 -0.2304 -0.9922  0.4778
 6995SOL    HW232448   3.814   0.358   4.035 -0.4148 -0.3095  0.3474
 6996SOL     OW32449   2.059   3.379   2.707  0.3573  0.2288 -0.5640
 6996SOL    HW132450   2.154   3.366   2.705  0.3414  0.1947 -1.2485
 6996SOL    HW232451   2.053   3.474   2.719  3.1237  0.1065  1.8818
 6997SOL     OW32452   0.298   1.050   4.352  0.4618  0.2361 -0.2637
 6997SOL    HW132453   0.307   1.091   4.266 -1.8151 -1.2255 -1.1825
 6997SOL    HW232454   0.210   1.082   4.373  0.0627 -1.1980  0.2030
 6998SOL     OW32455   2.671   2.073   6.642  0.4889 -0.0370 -0.2086
 6998SOL    HW132456   2.647   2.108   6.728  0.3354  3.0822 -1.5249
 6998SOL    HW232457   2.594   2.026   6.608  1.8760  0.5111 -4.0991
 6999SOL     OW32458   0.118   3.154   5.306  0.2055 -0.7005  0.1404
 6999SOL    HW132459   0.047   3.213   5.331  0.2948  0.2677 -1.9442
 6999SOL    HW232460   0.086   3.140   5.218  0.2307  2.9829 -0.4686
 7000SOL     OW32461   2.048   0.921  12.262 -0.6494  0.3070  0.3892
 7000SOL    HW132462   2.067   1.014  12.248 -2.3329  0.3804 -1.5169
 7000SOL    HW232463   2.037   0.919  12.357 -1.1590 -1.5014  0.2937
 7001SOL     OW32464   1.023   3.727   3.824 -0.0295 -0.6016  0.3267
 7001SOL    HW132465   1.090   3.721   3.755  0.6228 -1.4092  1.0303
 7001SOL    HW232466   1.006   3.821   3.817  3.3055 -0.1471 -1.5843
 7002SOL     OW32467   2.396   1.670   2.754  0.0455  0.2157 -0.3069
 7002SOL    HW132468   2.387   1.575   2.745  1.3008  0.0636  0.0332
 7002SOL    HW232469   2.313   1.705   2.720  0.4067  2.0899  0.7162
 7003SOL     OW32470   3.809   0.726  12.051 -0.5651 -0.3141  0.1236
 7003SOL    HW132471   3.808   0.710  11.957 -0.8991 -0.2131  0.1125
 7003SOL    HW232472   3.719   0.699  12.069 -0.2143 -0.7951  1.1366
 7004SOL     OW32473   4.645   0.125   3.674  0.4373 -0.0755 -0.2999
 7004SOL    HW132474   0.005   0.151   3.717 -0.5035  0.7111  1.0318
 7004SOL    HW232475   4.634   0.044   3.724  0.3791 -0.4337 -0.8859
 7005SOL     OW32476   2.061   2.224  15.382  0.2102  0.5564  0.0435
 7005SOL    HW132477   2.113   2.228  15.462 -0.7684 -2.5639  0.8202
 7005SOL    HW232478   2.021   2.311  15.393 -1.4473  0.0878 -2.2577
 7006SOL     OW32479   1.337   0.720   8.490  0.0752 -0.9562 -0.0696
 7006SOL    HW132480   1.290   0.758   8.565  1.7943  0.4335  0.3173
 7006SOL    HW232481   1.266   0.661   8.466 -0.0659 -0.9128  0.2374
 7007SOL     OW32482   3.209   3.189  17.277 -0.2763  0.1026 -0.7230
 7007SOL    HW132483   3.143   3.144  17.330  0.6769 -0.5005 -0.0401
 7007SOL    HW232484   3.162   3.266  17.245 -1.9640 -0.4283  0.5372
 7008SOL     OW32485   0.517   0.011   7.198  0.2100 -0.8222 -0.4467
 7008SOL    HW132486   0.557   4.667   7.255 -0.6395 -0.3996  0.6444
 7008SOL    HW232487   0.527   0.083   7.260 -2.1530 -1.7786  1.0277
 7009SOL     OW32488   2.265   2.997   7.952 -0.0743  0.0488  0.3448
 7009SOL    HW132489   2.172   2.991   7.973 -0.4902 -0.7471 -1.7793
 7009SOL    HW232490   2.262   3.049   7.872 -2.1914 -1.1949 -0.3657
 7010SOL     OW32491   4.707   4.707   7.208 -0.0265 -0.1234  0.3173
 7010SOL    HW132492   4.620   0.019   7.229 -0.0349 -0.4810  0.8795
 7010SOL    HW232493   4.692   4.622   7.166  3.4113 -1.0155  0.9242
 7011SOL     OW32494   4.253   2.280  11.981  0.8276  0.1410  0.4503
 7011SOL    HW132495   4.234   2.186  11.979  1.7129 -0.0619  1.6368
 7011SOL    HW232496   4.161   2.306  11.986  0.5016 -0.5092 -2.3725
 7012SOL     OW32497   0.306   3.042  14.282  0.2144 -0.4999  0.1429
 7012SOL    HW132498   0.224   3.017  14.324  0.1070  0.9587  0.8023
 7012SOL    HW232499   0.285   3.037  14.188  2.6993  1.8081 -0.5364
 7013SOL     OW32500   1.450   3.785   2.740  0.3413 -0.6208 -0.1202
 7013SOL    HW132501   1.363   3.793   2.778  1.5047  0.2396  2.4115
 7013SOL    HW232502   1.430   3.837   2.662  2.2942  0.6049  0.1795
 7014SOL     OW32503   1.650   0.196  12.409 -0.4154  0.4202  0.1679
 7014SOL    HW132504   1.741   0.212  12.433 -0.4399  1.0034 -0.1258
 7014SOL    HW232505   1.600   0.265  12.452  1.1607  1.8731 -0.3449
 7015SOL     OW32506   1.457   0.492   9.186  0.0399  0.1369  0.0967
 7015SOL    HW132507   1.543   0.498   9.146  0.0831 -0.3783  0.1060
 7015SOL    HW232508   1.408   0.547   9.125 -0.1046 -0.2156 -0.1053
 7016SOL     OW32509   3.068   4.494  15.524  0.1022  0.3442  0.4697
 7016SOL    HW132510   3.148   4.446  15.500  1.0870  1.3608  1.7020
 7016SOL    HW232511   3.041   4.531  15.440 -1.0659 -2.8228 -0.5569
 7017SOL     OW32512   3.238   2.343   3.363  0.2388 -0.2113  0.2648
 7017SOL    HW132513   3.329   2.346   3.393  0.9248 -1.3988 -1.6623
 7017SOL    HW232514   3.238   2.266   3.306  2.6259  1.1754 -1.6367
 7018SOL     OW32515   1.887   3.000   2.254 -0.5792  0.3584 -0.0299
 7018SOL    HW132516   1.829   2.938   2.299 -0.0031  0.6947  1.1859
 7018SOL    HW232517   1.820   3.024   2.190  0.0159  1.2389 -0.3280
 7019SOL     OW32518   2.377   1.109   9.259 -0.6626 -0.1038 -0.0034
 7019SOL    HW132519   2.414   1.021   9.250  0.1344  0.2905 -0.5951
 7019SOL    HW232520   2.321   1.113   9.181 -0.0368  1.8688 -0.3437
 7020SOL     OW32521   3.616   0.238  11.338  0.2162  0.3511  0.0609
 7020SOL    HW132522   3.536   0.208  11.381 -0.2450  0.5861 -0.6348
 7020SOL    HW232523   3.656   0.268  11.419  1.0135 -1.3755  0.3039
 7021SOL     OW32524   1.779   1.234   4.402  0.0382 -0.1437 -0.4150
 7021SOL    HW132525   1.778   1.306   4.339  0.4227 -0.8102 -1.1932
 7021SOL    HW232526   1.765   1.283   4.483  0.1399 -3.6123  1.7222
 7022SOL     OW32527   1.958   0.578   1.109  0.2689 -0.1368 -0.2368
 7022SOL    HW132528   1.970   0.673   1.104 -0.3747 -0.0999 -0.9891
 7022SOL    HW232529   1.888   0.563   1.046  0.2493  2.8584 -0.9385
 7023SOL     OW32530   4.386   2.659  13.610 -0.1335  0.0299  0.1581
 7023SOL    HW132531   4.415   2.638  13.699  0.0495  2.8424  0.7589
 7023SOL    HW232532   4.312   2.709  13.644  0.4449  1.0085 -0.0109
 7024SOL     OW32533   1.862   2.753   9.263 -0.0937  0.8488 -0.0539
 7024SOL    HW132534   1.922   2.741   9.337 -1.5239 -3.1319  0.4169
 7024SOL    HW232535   1.787   2.799   9.302  0.3315 -0.1230  1.8893
 7025SOL     OW32536   2.551   3.213  14.477 -0.0925  0.3865 -0.5874
 7025SOL    HW132537   2.462   3.219  14.443 -0.5497  1.9539  0.8897
 7025SOL    HW232538   2.574   3.125  14.449  1.1454  1.1994 -2.1032
 7026SOL     OW32539   0.758   0.473   2.392 -0.3881  0.0501 -0.1570
 7026SOL    HW132540   0.816   0.476   2.468 -0.4771  1.6298 -0.1693
 7026SOL    HW232541   0.772   0.383   2.360 -0.4924 -0.1351  0.3149
 7027SOL     OW32542   3.667   2.775   4.952  0.3841 -0.0121 -0.3535
 7027SOL    HW132543   3.644   2.772   4.859  1.6385 -2.2159 -0.5887
 7027SOL    HW232544   3.606   2.836   4.994  0.8251 -2.4724  3.8731
 7028SOL     OW32545   2.472   0.926   0.568  0.4258  0.7135  0.0618
 7028SOL    HW132546   2.514   0.868   0.631 -1.2914 -1.9790 -1.2546
 7028SOL    HW232547   2.503   0.880   0.490 -3.7775 -0.3637 -0.9906
 7029SOL     OW32548   4.558   2.663   3.912  0.4118  0.0972 -0.1528
 7029SOL    HW132549   4.572   2.757   3.922  0.4666  0.2102 -1.2928
 7029SOL    HW232550   4.527   2.636   3.999  0.2537  0.2557 -0.1608
 7030SOL     OW32551   2.689   0.327   5.712  0.2501  0.0475 -0.2843
 7030SOL    HW132552   2.639   0.299   5.788 -0.6298  1.6211 -0.2637
 7030SOL    HW232553   2.763   0.269   5.729  0.3382  0.2387 -0.0130
 7031SOL     OW32554   1.715   0.426   6.858  0.3560 -0.2261  0.2554
 7031SOL    HW132555   1.790   0.475   6.892  0.4580 -0.7558  0.7967
 7031SOL    HW232556   1.644   0.490   6.858  0.5416 -0.0424 -1.6439
 7032SOL     OW32557   2.630   0.639  14.421 -0.0381 -0.4974  0.1075
 7032SOL    HW132558   2.575   0.631  14.498  0.3303 -1.5205  0.2607
 7032SOL    HW232559   2.590   0.711  14.372 -1.7661 -0.6961  1.2318
 7033SOL     OW32560   1.298   2.508   0.792  0.7799  0.1573  0.3115
 7033SOL    HW132561   1.322   2.432   0.741 -1.8553 -0.0372 -0.6389
 7033SOL    HW232562   1.282   2.566   0.717 -0.1136 -1.4118 -0.6946
 7034SOL     OW32563   4.481   1.803   3.716 -0.5133  0.1272  0.1300
 7034SOL    HW132564   4.550   1.821   3.652 -1.0183  0.6432 -0.2731
 7034SOL    HW232565   4.472   1.708   3.709  2.4040 -0.3820  3.0409
 7035SOL     OW32566   1.272   1.796   5.633  0.1216 -0.6138 -0.3202
 7035SOL    HW132567   1.257   1.726   5.697 -1.4988  1.6477  1.7652
 7035SOL    HW232568   1.306   1.875   5.674  0.1224 -0.5148 -0.5097
 7036SOL     OW32569   1.248   0.098   3.731  0.0002 -0.5343  0.3064
 7036SOL    HW132570   1.305   0.024   3.754  3.3263  1.5809 -1.2677
 7036SOL    HW232571   1.175   0.072   3.787  0.4527 -0.2172  1.0356
 7037SOL     OW32572   1.965   3.394  11.756  0.7859 -0.3798 -0.0702
 7037SOL    HW132573   1.890   3.351  11.717  1.6301 -0.4615 -1.6220
 7037SOL    HW232574   2.034   3.331  11.732 -1.1715 -2.0342 -1.3200
 7038SOL     OW32575   2.421   3.701   7.336  0.2219 -0.1323 -0.0041
 7038SOL    HW132576   2.331   3.702   7.369  0.6004  0.6683  0.9863
 7038SOL    HW232577   2.461   3.765   7.394  0.5711 -0.8165  0.5151
 7039SOL     OW32578   4.065   3.291   9.849 -0.0116  0.3189  0.1472
 7039SOL    HW132579   3.992   3.306   9.788 -1.1728 -0.3004  1.3754
 7039SOL    HW232580   4.024   3.335   9.924 -0.9642 -1.3749  0.6110
 7040SOL     OW32581   1.883   3.983  12.040 -0.1819 -0.7082 -0.2900
 7040SOL    HW132582   1.904   3.892  12.063  1.6978 -0.2922 -0.3293
 7040SOL    HW232583   1.815   4.001  12.105 -1.2190 -1.7750 -1.0811
 7041SOL     OW32584   0.577   2.953  10.677  0.3252  0.1502 -0.1509
 7041SOL    HW132585   0.539   2.937  10.764 -1.7045  0.8824 -0.9081
 7041SOL    HW232586   0.511   2.908  10.625  0.7161  0.0943 -0.5991
 7042SOL     OW32587   3.267   3.595   5.265 -0.3838  0.5083  0.4067
 7042SOL    HW132588   3.316   3.669   5.228 -1.0025  1.7666  2.1374
 7042SOL    HW232589   3.183   3.635   5.285 -0.9199 -0.7605  0.6563
 7043SOL     OW32590   3.390   4.673   9.718 -0.0988 -0.2071 -0.4486
 7043SOL    HW132591   3.420   4.638   9.634 -0.6415  0.0170 -0.7412
 7043SOL    HW232592   3.467   4.668   9.774 -1.2793 -1.6951  1.0346
 7044SOL     OW32593   1.198   0.150   2.625  0.2552 -0.2466 -0.1038
 7044SOL    HW132594   1.238   0.212   2.686  0.4666  0.0786 -0.5690
 7044SOL    HW232595   1.166   0.080   2.682  0.5201  1.4798  2.1783
 7045SOL     OW32596   2.605   3.350  17.510 -0.0046  1.2437  0.5956
 7045SOL    HW132597   2.665   3.326  17.581  0.1056 -2.0564 -0.6228
 7045SOL    HW232598   2.602   3.445  17.520 -0.2780  1.2051  0.8605
 7046SOL     OW32599   0.436   4.323   5.137  0.5649 -0.2428 -0.0473
 7046SOL    HW132600   0.476   4.407   5.117  1.2730 -1.3347 -3.2328
 7046SOL    HW232601   0.517   4.275   5.124  0.0476 -0.9269 -0.7728
 7047SOL     OW32602   0.213   4.559  16.123  0.1375  0.1591  0.0482
 7047SOL    HW132603   0.192   4.597  16.038  0.4607  0.8882  0.2904
 7047SOL    HW232604   0.206   4.466  16.102  0.4656 -0.2916  1.9591
 7048SOL     OW32605   1.109   4.485   8.731  0.4343  0.4447 -0.1551
 7048SOL    HW132606   1.142   4.485   8.821  0.3823 -1.5314 -0.1422
 7048SOL    HW232607   1.035   4.546   8.738  0.3739  0.2963  0.5487
 7049SOL     OW32608   4.176   3.533   2.395 -0.5072  0.7125 -0.1210
 7049SOL    HW132609   4.220   3.495   2.319  0.9295  1.9707  0.0780
 7049SOL    HW232610   4.086   3.502   2.384 -0.8808  1.6419  0.2476
 7050SOL     OW32611   1.886   2.962  10.296 -0.2748 -0.1844  0.0788
 7050SOL    HW132612   1.793   2.983  10.284  0.4195  2.4818 -0.7231
 7050SOL    HW232613   1.915   2.950  10.205 -0.5298 -0.6641  0.0614
 7051SOL     OW32614   2.148   0.178   5.266 -0.1209  0.5346 -0.4618
 7051SOL    HW132615   2.159   0.272   5.253  1.0358  0.5055  0.2823
 7051SOL    HW232616   2.166   0.174   5.360 -0.4717 -0.2415 -0.4338
 7052SOL     OW32617   1.187   1.183   8.032  0.3605  0.6698 -0.8611
 7052SOL    HW132618   1.175   1.275   8.055  3.4509  1.4163 -2.1943
 7052SOL    HW232619   1.262   1.182   7.973  0.7614 -1.7275 -0.3043
 7053SOL     OW32620   0.045   0.907  10.537 -0.0020  0.1054  0.0422
 7053SOL    HW132621   0.037   0.953  10.454 -0.1948 -1.0553 -0.5960
 7053SOL    HW232622   0.138   0.920  10.550 -0.5564  3.0606  0.9220
 7054SOL     OW32623   0.442   2.706  16.306  0.1536 -0.2479  0.8327
 7054SOL    HW132624   0.385   2.698  16.382 -0.0873 -0.9747  0.5832
 7054SOL    HW232625   0.384   2.740  16.238  0.4165  0.8224  1.1531
 7055SOL     OW32626   2.997   2.705   7.863  0.2161 -0.1721  0.2700
 7055SOL    HW132627   2.912   2.679   7.827 -0.5977  1.4823  1.0447
 7055SOL    HW232628   3.029   2.621   7.897 -1.2709 -0.9482 -0.2166
 7056SOL     OW32629   2.382   1.624  14.882 -0.0173 -0.7390  0.1870
 7056SOL    HW132630   2.346   1.579  14.806  1.0548 -0.3109 -0.5671
 7056SOL    HW232631   2.327   1.576  14.944 -0.5207  0.4871  0.6823
 7057SOL     OW32632   3.675   2.354   0.231  0.5320  0.0310 -0.1792
 7057SOL    HW132633   3.685   2.281   0.169  0.0364 -1.9260  2.0425
 7057SOL    HW232634   3.716   2.425   0.182 -0.1809  2.0855  2.2020
 7058SOL     OW32635   0.968   3.374   3.037 -0.1130  0.4249  0.1442
 7058SOL    HW132636   1.057   3.340   3.044 -1.5191 -2.4384  3.6664
 7058SOL    HW232637   0.928   3.348   3.120 -0.2973  0.4529  0.0659
 7059SOL     OW32638   2.158   0.208  10.812 -0.1016  0.0613  0.7120
 7059SOL    HW132639   2.151   0.116  10.838  0.1482 -0.2989 -0.4848
 7059SOL    HW232640   2.065   0.226  10.795 -0.1446  0.0993  0.9927
 7060SOL     OW32641   1.832   1.889   4.344  0.6340  0.4118  0.6861
 7060SOL    HW132642   1.866   1.958   4.402 -0.3518  0.9619  0.6065
 7060SOL    HW232643   1.909   1.840   4.315 -1.0600 -1.9298  0.1880
 7061SOL     OW32644   0.661   4.632  12.852  0.7448  0.9108 -0.1728
 7061SOL    HW132645   0.625   4.621  12.940  2.3495  0.8345  0.4745
 7061SOL    HW232646   0.668   4.542  12.822  1.7404  1.3424 -1.2046
 7062SOL     OW32647   0.021   3.396  15.439 -0.0278  0.1279  1.0602
 7062SOL    HW132648   0.025   3.353  15.354  1.2508  1.2273  0.5697
 7062SOL    HW232649   0.116   3.400  15.454  0.2817 -1.9004 -0.3719
 7063SOL     OW32650   4.359   3.748   1.834 -0.0704 -0.0525 -0.1953
 7063SOL    HW132651   4.265   3.737   1.824 -0.2398 -0.2161  1.5578
 7063SOL    HW232652   4.380   3.715   1.747 -0.3379  0.2683 -0.3826
 7064SOL     OW32653   2.131   0.968  14.226  0.4975  0.2562  0.1630
 7064SOL    HW132654   2.113   0.877  14.203 -1.5909  0.5512  0.6204
 7064SOL    HW232655   2.063   1.019  14.181 -1.8257 -1.5664  1.6540
 7065SOL     OW32656   1.364   0.236   3.517  0.7006 -0.0617 -0.1309
 7065SOL    HW132657   1.365   0.180   3.439  0.1838 -0.8297  0.4122
 7065SOL    HW232658   1.314   0.187   3.582  1.4747 -1.7324 -0.7934
 7066SOL     OW32659   1.462   1.080   4.215  0.0576  0.7775  0.1755
 7066SOL    HW132660   1.408   1.118   4.146  0.3287  2.1762  0.7418
 7066SOL    HW232661   1.393   1.034   4.263  0.8978  0.1708  0.8180
 7067SOL     OW32662   1.521   1.266  11.926  0.7551  0.1631  0.4743
 7067SOL    HW132663   1.436   1.233  11.898  1.3537  0.3767 -1.5523
 7067SOL    HW232664   1.568   1.186  11.904 -1.5470 -1.3860  1.2108
 7068SOL     OW32665   3.561   3.633  15.117  0.2629 -0.0328  0.0545
 7068SOL    HW132666   3.493   3.581  15.160  0.0439  0.0967 -0.1344
 7068SOL    HW232667   3.520   3.672  15.040 -0.0708 -1.2519 -0.3839
 7069SOL     OW32668   4.425   2.866   6.022  0.1332 -0.0799  0.0125
 7069SOL    HW132669   4.452   2.779   5.994  2.4777  0.6578  0.0115
 7069SOL    HW232670   4.469   2.871   6.107  3.4681 -0.2497 -1.7208
 7070SOL     OW32671   2.625   4.684  11.048  0.2971  0.1612 -0.0430
 7070SOL    HW132672   2.608   4.662  10.956  3.2422 -0.9123 -0.3455
 7070SOL    HW232673   2.610   0.057  11.043 -0.1557  0.0468 -0.8949
 7071SOL     OW32674   2.869   0.928   3.761 -0.5527  0.1686 -0.1067
 7071SOL    HW132675   2.877   0.834   3.773 -2.1015  0.1126  0.3875
 7071SOL    HW232676   2.932   0.956   3.828 -0.2393  1.0799 -0.7750
 7072SOL     OW32677   1.915   0.084   6.763 -0.1069 -0.8164  0.3580
 7072SOL    HW132678   1.991   0.137   6.788 -1.4808  1.0196  0.6803
 7072SOL    HW232679   1.851   0.119   6.825  0.9239  0.4902  0.6919
 7073SOL     OW32680   4.368   0.579  10.219  0.0296 -0.1289  0.0413
 7073SOL    HW132681   4.460   0.591  10.197  0.2197 -0.1477  0.8530
 7073SOL    HW232682   4.382   0.485  10.233  0.8760 -0.0673 -0.3950
 7074SOL     OW32683   0.827   2.412  15.472  0.2260  0.1434  0.0108
 7074SOL    HW132684   0.874   2.356  15.410  0.7918 -0.5336  1.0416
 7074SOL    HW232685   0.751   2.365  15.506  1.0539  0.0734  1.8115
 7075SOL     OW32686   3.820   3.832   2.637  0.0700 -0.4078 -0.4683
 7075SOL    HW132687   3.911   3.811   2.656  0.9247  1.6996 -2.1220
 7075SOL    HW232688   3.788   3.742   2.631 -1.2801  0.0353 -0.0868
 7076SOL     OW32689   1.953   1.975  15.718  0.3574  1.0222 -0.4055
 7076SOL    HW132690   1.976   2.067  15.723 -1.3415  1.4375 -0.1130
 7076SOL    HW232691   1.909   1.967  15.633  2.6091 -2.1682 -1.2710
 7077SOL     OW32692   3.209   3.273  16.359 -0.5185  0.2743 -0.1412
 7077SOL    HW132693   3.212   3.366  16.338  3.3058  0.0173 -0.7854
 7077SOL    HW232694   3.201   3.237  16.271 -0.2597  1.8650 -0.8134
 7078SOL     OW32695   1.278   0.822   3.328 -0.7990  0.3926 -0.2696
 7078SOL    HW132696   1.193   0.806   3.369 -0.1653 -0.9862  0.5039
 7078SOL    HW232697   1.341   0.814   3.400 -2.5791  1.0775  1.3457
 7079SOL     OW32698   4.053   0.255   6.041 -0.4834 -0.0881 -0.1796
 7079SOL    HW132699   4.021   0.345   6.045  0.8644  0.3911 -0.0796
 7079SOL    HW232700   4.130   0.265   5.985  0.2335  0.6380  0.9375
 7080SOL     OW32701   0.811   1.756   7.496  0.5901 -0.3688 -0.0860
 7080SOL    HW132702   0.743   1.816   7.467 -0.4409 -1.5808 -0.1738
 7080SOL    HW232703   0.763   1.675   7.514 -0.6622 -0.1115 -2.3116
 7081SOL     OW32704   0.460   0.816  16.961 -0.0858  0.0126  0.1691
 7081SOL    HW132705   0.393   0.855  17.017 -0.1977  0.1998 -0.0945
 7081SOL    HW232706   0.529   0.807  17.027 -1.6200  0.2688  1.8166
 7082SOL     OW32707   3.817   3.822   7.235  0.4657  0.1473  0.6563
 7082SOL    HW132708   3.883   3.886   7.262 -2.0044  0.5246  5.6222
 7082SOL    HW232709   3.800   3.796   7.325  1.5143 -4.4753 -0.4769
 7083SOL     OW32710   3.773   2.301   8.574 -0.0197  0.1742  0.1460
 7083SOL    HW132711   3.679   2.284   8.566 -0.3700  1.4050  1.5678
 7083SOL    HW232712   3.796   2.298   8.481  0.8613  1.6129  0.3060
 7084SOL     OW32713   3.042   3.353   6.877 -0.4681  0.7171 -0.3271
 7084SOL    HW132714   3.131   3.319   6.876 -1.0236 -0.6805 -2.4870
 7084SOL    HW232715   3.003   3.323   6.959 -3.1161 -0.5925 -2.0497
 7085SOL     OW32716   1.426   4.364   2.083  0.0364  0.6386  0.2464
 7085SOL    HW132717   1.332   4.383   2.085 -0.1339 -0.0772 -0.4926
 7085SOL    HW232718   1.434   4.277   2.044  0.5734  1.7621 -2.1742
 7086SOL     OW32719   2.760   2.285   6.447  0.4682  0.4045  0.5336
 7086SOL    HW132720   2.828   2.258   6.385  1.0018 -0.2205  1.3964
 7086SOL    HW232721   2.785   2.237   6.526 -1.4899 -0.5410  0.5932
 7087SOL     OW32722   0.200   1.128   8.885 -0.0389  0.5586 -0.6337
 7087SOL    HW132723   0.155   1.210   8.867 -0.1947  0.9998  1.6561
 7087SOL    HW232724   0.139   1.088   8.948 -1.7612  0.4513 -2.3699
 7088SOL     OW32725   0.951   1.384   7.463  0.1005  0.0806 -0.2283
 7088SOL    HW132726   1.022   1.449   7.464  0.4788 -0.3334 -0.7729
 7088SOL    HW232727   0.967   1.340   7.380 -0.3296  1.0832 -0.8363
 7089SOL     OW32728   3.135   1.598   3.560 -0.2942 -0.1240  0.0543
 7089SOL    HW132729   3.199   1.593   3.489 -1.7580  1.1549 -1.3437
 7089SOL    HW232730   3.182   1.555   3.632  1.3292  0.3289 -0.7367
 7090SOL     OW32731   3.318   1.221  15.695 -0.8002 -0.4232  0.1959
 7090SOL    HW132732   3.244   1.160  15.694 -0.7440 -0.4651 -0.8980
 7090SOL    HW232733   3.277   1.287  15.751 -0.0889  0.9462 -0.9139
 7091SOL     OW32734   4.333   0.308   8.354 -0.2589  0.3353  0.4854
 7091SOL    HW132735   4.306   0.275   8.439  1.1560 -2.5255 -0.1806
 7091SOL    HW232736   4.408   0.251   8.338  1.2820  1.9236  2.0629
 7092SOL     OW32737   3.111   3.860   2.513 -0.0666  0.2113  0.4265
 7092SOL    HW132738   3.036   3.817   2.473  0.0137  0.6189 -0.1643
 7092SOL    HW232739   3.133   3.786   2.570  0.9815 -1.7155 -2.4973
 7093SOL     OW32740   2.404   2.654   6.211 -0.5108  0.0541 -0.2963
 7093SOL    HW132741   2.472   2.639   6.277 -1.3905  0.8705  0.7923
 7093SOL    HW232742   2.378   2.563   6.195 -2.4752  0.7044 -0.8677
 7094SOL     OW32743   2.072   1.256   8.074  0.7643 -0.4583 -0.0028
 7094SOL    HW132744   1.999   1.247   8.136 -1.1942 -0.7717 -2.3259
 7094SOL    HW232745   2.022   1.263   7.993  0.5416 -3.8796 -0.1645
 7095SOL     OW32746   0.579   2.911   3.219 -0.7345 -0.3680  0.1148
 7095SOL    HW132747   0.532   2.957   3.288  1.0025  0.1968  0.9337
 7095SOL    HW232748   0.650   2.873   3.272  0.6818 -0.1132 -1.6046
 7096SOL     OW32749   3.527   1.677   6.157 -0.8300  0.1379  0.3257
 7096SOL    HW132750   3.491   1.754   6.200 -1.4651  0.6952 -1.1913
 7096SOL    HW232751   3.453   1.659   6.100 -1.1364  1.7101  0.2507
 7097SOL     OW32752   2.371   0.946  11.500 -0.0608  0.1598  0.0398
 7097SOL    HW132753   2.281   0.977  11.484 -0.2933 -0.8171 -0.5336
 7097SOL    HW232754   2.419   0.949  11.418 -1.3140 -1.5329 -0.7668
 7098SOL     OW32755   2.030   2.496   9.632  0.0819 -0.1461 -0.3674
 7098SOL    HW132756   2.092   2.474   9.702  0.2996 -0.1234 -0.5519
 7098SOL    HW232757   1.952   2.517   9.684 -1.4080 -1.9136 -1.9417
 7099SOL     OW32758   0.409   1.255   3.207 -0.1832 -0.4088  0.0373
 7099SOL    HW132759   0.444   1.208   3.131 -0.9312 -1.2145  0.1873
 7099SOL    HW232760   0.494   1.296   3.222 -0.6592  1.1816 -1.6534
 7100SOL     OW32761   2.733   3.469   8.934  0.3247 -0.4299  0.4778
 7100SOL    HW132762   2.641   3.489   8.953  0.2824 -1.3805  1.2638
 7100SOL    HW232763   2.780   3.521   9.000 -2.3160  0.8371  1.3702
 7101SOL     OW32764   1.621   0.779   6.661  0.2098  0.0879 -0.1289
 7101SOL    HW132765   1.702   0.772   6.610  0.5316  1.8429  0.1533
 7101SOL    HW232766   1.625   0.874   6.671  2.4518  0.1161 -1.4200
 7102SOL     OW32767   3.445   2.075   8.903  0.0870  0.0502  0.1585
 7102SOL    HW132768   3.535   2.096   8.930 -1.1566  1.5089  3.1189
 7102SOL    HW232769   3.394   2.113   8.974 -0.9995 -0.8425 -0.1415
 7103SOL     OW32770   3.681   3.970   2.429 -0.1688  0.6860  0.6007
 7103SOL    HW132771   3.749   4.006   2.373  1.2741 -2.2240  0.5296
 7103SOL    HW232772   3.734   3.937   2.502 -0.8732 -1.0120  0.3476
 7104SOL     OW32773   2.539   1.992   6.173 -0.2799 -0.0599 -0.2370
 7104SOL    HW132774   2.572   1.959   6.089 -0.1782  1.9539 -0.9736
 7104SOL    HW232775   2.560   1.908   6.214  1.2205 -0.1452 -1.1954
 7105SOL     OW32776   1.560   2.385   6.464 -0.5049  0.4778  0.7785
 7105SOL    HW132777   1.517   2.395   6.378  0.9959 -0.1802 -0.0427
 7105SOL    HW232778   1.628   2.323   6.438 -0.1984  0.6151  1.2676
 7106SOL     OW32779   3.368   1.683   2.543  0.0373 -0.3746 -0.1353
 7106SOL    HW132780   3.292   1.739   2.522 -0.6732 -2.3560 -2.8202
 7106SOL    HW232781   3.443   1.737   2.518  0.5964 -0.7899  0.6607
 7107SOL     OW32782   4.298   1.005   1.181  0.7453  0.3951  1.0086
 7107SOL    HW132783   4.353   1.074   1.143 -2.2486  1.6926 -0.9948
 7107SOL    HW232784   4.342   0.924   1.157 -1.0227  0.3881 -2.3367
 7108SOL     OW32785   4.038   1.525  13.050  0.3586 -0.2117  0.1949
 7108SOL    HW132786   4.031   1.439  13.093 -3.1452 -0.5877 -1.0933
 7108SOL    HW232787   4.058   1.493  12.961 -1.4038  0.5839 -0.4839
 7109SOL     OW32788   0.280   3.434  15.429  0.0843  0.1459  0.1383
 7109SOL    HW132789   0.245   3.507  15.378 -0.2176 -0.5462 -0.6564
 7109SOL    HW232790   0.342   3.480  15.486  0.8023 -0.5745 -0.0688
 7110SOL     OW32791   3.265   2.275   8.791  0.1729 -0.1136  0.1084
 7110SOL    HW132792   3.216   2.210   8.741 -1.4640  1.4026 -0.2698
 7110SOL    HW232793   3.209   2.284   8.868 -1.5509 -1.8022 -0.9330
 7111SOL     OW32794   0.173   1.174   8.328  0.1592  0.2659 -0.1415
 7111SOL    HW132795   0.214   1.181   8.414  1.6807  0.0398 -0.8516
 7111SOL    HW232796   0.147   1.083   8.340  1.2291 -0.1339 -0.7797
 7112SOL     OW32797   4.086   3.279  13.990 -0.2583  0.6472 -0.4739
 7112SOL    HW132798   4.091   3.295  14.084  1.2039  0.3215 -0.4969
 7112SOL    HW232799   4.154   3.337  13.955  0.9637 -0.3265  0.2756
 7113SOL     OW32800   1.244   0.328   2.874  0.0647 -0.0713 -0.6887
 7113SOL    HW132801   1.337   0.351   2.877 -0.1034  0.2814  1.5899
 7113SOL    HW232802   1.250   0.238   2.906 -1.5622 -0.6120 -1.8956
 7114SOL     OW32803   0.291   0.436   8.215 -0.1806  0.1149 -0.0821
 7114SOL    HW132804   0.234   0.427   8.292  0.2913 -0.6880  0.1704
 7114SOL    HW232805   0.284   0.348   8.178 -0.5145 -0.0185  0.2976
 7115SOL     OW32806   1.448   4.455  17.113  0.3311  0.1220  0.0361
 7115SOL    HW132807   1.483   4.403  17.040 -0.0797  1.7600 -1.3356
 7115SOL    HW232808   1.522   4.511  17.138 -1.2169  2.0875  0.1828
 7116SOL     OW32809   0.738   2.566   6.930 -0.2704  0.0680 -0.5595
 7116SOL    HW132810   0.749   2.474   6.956 -0.9646 -0.1552 -1.0528
 7116SOL    HW232811   0.745   2.616   7.012  2.0807 -1.6081  0.2727
 7117SOL     OW32812   3.967   3.817  17.670  0.1119  0.2615  0.3631
 7117SOL    HW132813   3.979   3.725   0.003  2.8594 -0.1571 -3.1816
 7117SOL    HW232814   4.022   3.823  17.592 -0.6519  2.7442  0.0037
 7118SOL     OW32815   0.010   3.618  17.011  0.5842 -0.2981 -0.0465
 7118SOL    HW132816   0.073   3.601  16.941 -2.3001 -1.5480 -2.3793
 7118SOL    HW232817   0.043   3.696  17.056  0.1411  0.3259 -0.7962
 7119SOL     OW32818   1.466   1.839   3.634  0.0356  0.0912  0.0799
 7119SOL    HW132819   1.551   1.796   3.640 -0.3730 -0.3380  2.5054
 7119SOL    HW232820   1.428   1.809   3.716  0.7687  2.8403  1.4240
 7120SOL     OW32821   0.434   1.676   3.051 -0.1889  0.0051  0.7388
 7120SOL    HW132822   0.395   1.594   3.020  2.8808 -2.0891  2.4479
 7120SOL    HW232823   0.371   1.711   3.114 -0.0792  1.7151 -0.1197
 7121SOL     OW32824   4.679   3.675   5.740  0.1650 -0.5864  0.0262
 7121SOL    HW132825   4.646   3.655   5.828 -1.0456  0.0704 -0.2762
 7121SOL    HW232826   4.651   3.766   5.731  2.4587  0.3049  1.9007
 7122SOL     OW32827   3.619   3.677   6.541 -0.1607 -0.8899 -0.6004
 7122SOL    HW132828   3.624   3.645   6.451 -1.2173  2.7746 -1.9464
 7122SOL    HW232829   3.531   3.713   6.547  0.6629  0.7211  1.9131
 7123SOL     OW32830   4.606   3.793   6.031  0.0385  0.0955 -0.2724
 7123SOL    HW132831   4.578   3.768   6.119  1.6510  0.9358  0.4726
 7123SOL    HW232832   4.524   3.834   6.001  0.1092  0.0176 -0.5682
 7124SOL     OW32833   0.698   2.165   2.250  0.2626  0.0442 -0.1565
 7124SOL    HW132834   0.755   2.235   2.217 -0.7047  1.3849  1.0141
 7124SOL    HW232835   0.675   2.113   2.173  0.3159 -0.2034 -0.0030
 7125SOL     OW32836   3.290   3.726   4.131 -0.3810 -0.7269  0.6866
 7125SOL    HW132837   3.374   3.730   4.176 -1.8223  2.0883  3.1846
 7125SOL    HW232838   3.273   3.638   4.097  2.3346 -0.9000 -0.1959
 7126SOL     OW32839   1.153   1.794   3.594  0.5107  0.0005  0.1115
 7126SOL    HW132840   1.065   1.808   3.629  0.0140 -0.5028 -0.9514
 7126SOL    HW232841   1.212   1.796   3.670 -1.1752  1.4863  1.3853
 7127SOL     OW32842   1.684   4.401  13.827 -0.4473 -0.0108 -0.2344
 7127SOL    HW132843   1.778   4.384  13.827 -0.3762  0.4148  0.8339
 7127SOL    HW232844   1.654   4.395  13.736 -0.5667 -2.3021 -0.0388
 7128SOL     OW32845   0.181   1.092   3.288 -0.2862  0.2806  0.0201
 7128SOL    HW132846   0.151   1.030   3.222  1.8394  0.1537 -0.8384
 7128SOL    HW232847   0.239   1.148   3.235  0.5944  0.8798  1.5979
 7129SOL     OW32848   2.420   4.621   0.202 -0.1494  0.2684 -0.7015
 7129SOL    HW132849   2.490   4.589   0.145  1.1470 -1.1629  1.6842
 7129SOL    HW232850   2.348   4.633   0.141 -1.6005 -4.3010  0.1116
 7130SOL     OW32851   2.317   1.039   2.632 -0.4033 -0.3068 -0.4313
 7130SOL    HW132852   2.382   1.080   2.575 -0.6756  1.1153  0.2880
 7130SOL    HW232853   2.271   0.988   2.566 -2.1010  1.2058 -0.4057
 7131SOL     OW32854   3.554   3.914  16.994 -0.6382 -0.0099 -0.2903
 7131SOL    HW132855   3.582   3.822  16.996 -0.5013  0.0291 -0.3999
 7131SOL    HW232856   3.495   3.922  17.069 -0.4157 -1.6543  0.0652
 7132SOL     OW32857   2.255   2.693   0.473  0.0178  0.0985  0.0196
 7132SOL    HW132858   2.326   2.633   0.452  0.0732  0.7337 -1.5552
 7132SOL    HW232859   2.257   2.748   0.395 -2.5533 -0.8094 -0.6872
 7133SOL     OW32860   4.426   1.467   2.968  0.0546  0.0510 -0.3120
 7133SOL    HW132861   4.513   1.457   2.929 -0.0188  0.5551 -0.6035
 7133SOL    HW232862   4.431   1.547   3.021  0.2250  0.5192 -1.0326
 7134SOL     OW32863   2.443   0.655   7.965 -0.5073  0.3090  0.6921
 7134SOL    HW132864   2.357   0.650   7.924  0.8342 -0.0034 -2.0677
 7134SOL    HW232865   2.430   0.586   8.030  1.6133 -0.3610  0.4110
 7135SOL     OW32866   2.355   2.186   6.019  0.2292 -0.1293  0.2832
 7135SOL    HW132867   2.412   2.123   6.063 -0.6327 -0.1013  1.4581
 7135SOL    HW232868   2.365   2.176   5.925 -1.5828 -0.0120  0.0607
 7136SOL     OW32869   3.012   4.020   7.787  0.3457 -0.5511 -0.0905
 7136SOL    HW132870   2.921   4.047   7.797  0.6435  0.7403 -0.7821
 7136SOL    HW232871   3.030   4.023   7.881  0.0604  0.5879 -0.0702
 7137SOL     OW32872   1.859   3.833  14.410 -0.1648  0.2704 -0.3170
 7137SOL    HW132873   1.840   3.761  14.470 -2.5004 -0.1629 -1.5755
 7137SOL    HW232874   1.812   3.807  14.331  0.4877  1.0273 -0.9624
 7138SOL     OW32875   4.719   4.243   8.083  0.0198 -0.5477 -0.0312
 7138SOL    HW132876   0.035   4.301   8.016  0.2062 -1.4764 -0.7289
 7138SOL    HW232877   4.656   4.184   8.041  0.5658 -0.1944 -1.3569
 7139SOL     OW32878   4.194   1.502   5.940 -0.5693 -0.4499  0.5525
 7139SOL    HW132879   4.165   1.411   5.941 -0.5979 -0.4534 -0.8183
 7139SOL    HW232880   4.152   1.546   6.014 -2.6415 -2.0625  0.3330
 7140SOL     OW32881   4.497   1.264  15.824 -0.8665  0.7591 -0.5375
 7140SOL    HW132882   4.419   1.317  15.841 -1.5682 -0.8430  1.3490
 7140SOL    HW232883   4.543   1.319  15.761 -0.2349  0.7539 -0.0726
 7141SOL     OW32884   3.487   0.604   6.074 -0.2430 -0.1241  0.2518
 7141SOL    HW132885   3.452   0.648   6.151 -0.3514  1.4334 -0.7001
 7141SOL    HW232886   3.573   0.584   6.113 -0.3902  0.3998  0.8431
 7142SOL     OW32887   4.127   1.550   8.258  0.3283 -0.3860  0.0392
 7142SOL    HW132888   4.159   1.570   8.346 -0.6700 -3.1093  1.0142
 7142SOL    HW232889   4.091   1.462   8.271 -1.1764  0.5667  2.3470
 7143SOL     OW32890   1.534   2.749  17.487  0.0751  0.6565  0.0208
 7143SOL    HW132891   1.624   2.776  17.506  0.0020 -0.5261  2.0339
 7143SOL    HW232892   1.538   2.764  17.392  1.1508  1.0966  0.1311
 7144SOL     OW32893   0.525   0.127   8.123  0.6026 -0.0918  0.3614
 7144SOL    HW132894   0.554   0.044   8.084  0.6475 -0.0517  0.3103
 7144SOL    HW232895   0.605   0.166   8.156  1.6252  1.0302 -3.4823
 7145SOL     OW32896   0.613   3.600   4.283  0.2570  0.1157  0.1410
 7145SOL    HW132897   0.564   3.674   4.248  0.3380 -0.0453 -0.3188
 7145SOL    HW232898   0.704   3.628   4.285  0.5286 -0.8038  0.6772
 7146SOL     OW32899   1.578   1.976   3.352 -0.4723  0.1959 -0.2571
 7146SOL    HW132900   1.645   2.042   3.333 -2.6620  2.1255 -1.3262
 7146SOL    HW232901   1.506   2.032   3.381  0.9067  0.9551  1.6233
 7147SOL     OW32902   2.504   1.625  11.820 -0.3625  0.2970  0.2850
 7147SOL    HW132903   2.504   1.613  11.725 -0.4387  1.4180  0.1352
 7147SOL    HW232904   2.575   1.569  11.851  0.8625  1.4676 -0.4004
 7148SOL     OW32905   3.749   3.338  16.025  0.5028  0.1330  0.4966
 7148SOL    HW132906   3.778   3.406  16.085  0.4048  1.7349 -1.2731
 7148SOL    HW232907   3.656   3.323  16.045  0.5288  0.4737  0.8807
 7149SOL     OW32908   2.574   1.941   0.851 -0.1800 -0.7170  0.5853
 7149SOL    HW132909   2.547   1.893   0.929  2.7611 -0.4557  1.7927
 7149SOL    HW232910   2.655   1.891   0.837 -0.5162 -0.9267 -0.6041
 7150SOL     OW32911   3.740   1.496   1.462 -0.1551 -0.0178  0.2067
 7150SOL    HW132912   3.702   1.441   1.393  1.6263 -0.4722 -0.4346
 7150SOL    HW232913   3.667   1.545   1.498  0.6554  0.8271  0.7095
 7151SOL     OW32914   0.243   2.196   6.293 -0.0516  0.1806 -0.2967
 7151SOL    HW132915   0.169   2.156   6.339  0.0960 -0.9242 -0.9933
 7151SOL    HW232916   0.284   2.111   6.274  3.5318  1.5780  1.3150
 7152SOL     OW32917   0.032   0.563   4.855 -0.1073  0.3943 -0.0200
 7152SOL    HW132918   0.065   0.589   4.941  0.1540  0.2083 -0.0639
 7152SOL    HW232919   0.109   0.541   4.803  0.6669  1.6065  0.6224
 7153SOL     OW32920   2.313   0.453  12.030  0.4026 -0.0912  0.4623
 7153SOL    HW132921   2.307   0.540  12.071  0.1534  0.1902 -0.1782
 7153SOL    HW232922   2.362   0.408  12.099 -0.5916 -3.2621 -0.9216
 7154SOL     OW32923   0.769   4.172   8.213  0.0584  0.4346  0.0540
 7154SOL    HW132924   0.716   4.105   8.256  2.1407  0.0205  1.9586
 7154SOL    HW232925   0.710   4.247   8.217  0.0371  0.3816  0.7427
 7155SOL     OW32926   3.381   0.113  11.366  0.3440  0.5506 -0.2041
 7155SOL    HW132927   3.317   0.047  11.391  1.1364 -0.0489  0.2580
 7155SOL    HW232928   3.336   0.156  11.294 -0.5944 -1.4668 -0.8181
 7156SOL     OW32929   4.266   2.044   9.157 -0.5504  0.3364  0.1703
 7156SOL    HW132930   4.307   1.973   9.207 -2.7760  0.0864  1.6453
 7156SOL    HW232931   4.190   2.055   9.214 -0.5992  0.6143  0.0490
 7157SOL     OW32932   0.720   3.318   0.688 -0.5404  0.2669 -0.1394
 7157SOL    HW132933   0.647   3.315   0.750  1.2085  0.8388  1.9469
 7157SOL    HW232934   0.707   3.404   0.650 -0.3387  0.1722 -0.4223
 7158SOL     OW32935   4.356   1.689  13.021 -0.0192 -0.0137 -0.4774
 7158SOL    HW132936   4.395   1.758  12.967  1.0171  0.4347  0.8360
 7158SOL    HW232937   4.264   1.707  13.002  0.5948  0.1588 -3.3556
 7159SOL     OW32938   3.346   2.377   0.232 -0.7808 -0.0307 -0.4619
 7159SOL    HW132939   3.440   2.379   0.215 -0.5628  0.7248  0.8328
 7159SOL    HW232940   3.344   2.461   0.279  0.9261 -0.9940  1.3501
 7160SOL     OW32941   0.931   2.159   3.127 -0.2283  0.1740  0.7603
 7160SOL    HW132942   0.956   2.243   3.089 -0.0009 -0.5567 -0.7153
 7160SOL    HW232943   0.871   2.183   3.198 -1.4503 -0.1875 -0.1708
 7161SOL     OW32944   4.682   3.723   1.879 -0.4838  0.1078  0.2003
 7161SOL    HW132945   4.616   3.671   1.834  0.2726  0.9122 -1.8099
 7161SOL    HW232946   0.010   3.746   1.801  1.0930 -1.5923  0.7062
 7162SOL     OW32947   1.623   4.276   6.165  0.1816 -0.1835 -0.1199
 7162SOL    HW132948   1.670   4.194   6.176 -1.5609 -0.8165  2.6397
 7162SOL    HW232949   1.538   4.261   6.207  0.6381 -0.2188  0.7743
 7163SOL     OW32950   1.193   3.942   6.518  0.2703 -0.4707 -0.3749
 7163SOL    HW132951   1.233   3.856   6.514  1.9351  0.2922 -0.1334
 7163SOL    HW232952   1.177   3.966   6.426  0.4021 -1.7809 -0.7314
 7164SOL     OW32953   2.992   2.821   2.445 -0.2498 -0.3805  0.0539
 7164SOL    HW132954   2.945   2.739   2.458 -2.2376  0.8221  0.5013
 7164SOL    HW232955   3.030   2.812   2.358  0.9605  0.8199  0.4516
 7165SOL     OW32956   0.716   0.806   4.153  0.3453  0.1782 -0.3099
 7165SOL    HW132957   0.799   0.782   4.194 -0.1002 -0.2552  0.3220
 7165SOL    HW232958   0.696   0.878   4.213  2.0222 -0.3635  0.8926
 7166SOL     OW32959   0.738   3.262   2.342 -0.3145  0.0586  0.4735
 7166SOL    HW132960   0.785   3.345   2.339  0.7166 -0.5053  1.1914
 7166SOL    HW232961   0.683   3.279   2.419 -2.5286 -0.7968 -0.8982
 7167SOL     OW32962   4.554   0.776   6.053  0.1757  0.1171 -0.0837
 7167SOL    HW132963   4.561   0.810   6.143 -0.4755 -0.2091  0.0921
 7167SOL    HW232964   4.460   0.776   6.034  0.3327 -1.1110 -0.8355
 7168SOL     OW32965   4.347   3.889  11.482 -0.5870  0.1893 -0.1165
 7168SOL    HW132966   4.306   3.963  11.437 -2.9548 -1.0714 -0.0550
 7168SOL    HW232967   4.278   3.875  11.548  0.0656 -0.3613  0.4410
 7169SOL     OW32968   2.943   4.012   3.674 -0.1088 -0.5003 -0.0892
 7169SOL    HW132969   2.958   3.922   3.647 -0.1025 -1.2546  2.3835
 7169SOL    HW232970   2.900   4.004   3.759  0.2147 -0.2860  0.0935
 7170SOL     OW32971   4.182   0.261  12.020  0.3471 -0.0414  0.0722
 7170SOL    HW132972   4.102   0.310  12.002  0.9238  0.9126  0.0780
 7170SOL    HW232973   4.223   0.320  12.083  0.0203 -0.1572  0.3930
 7171SOL     OW32974   0.449   0.127   7.614 -0.0034 -0.0068 -0.1794
 7171SOL    HW132975   0.400   0.046   7.600 -0.3392 -0.3921  3.3385
 7171SOL    HW232976   0.479   0.150   7.526 -2.5142 -0.4515 -1.1625
 7172SOL     OW32977   2.466   1.584   6.627  0.1677 -0.2733  0.0197
 7172SOL    HW132978   2.415   1.510   6.660 -0.8544  0.0508 -0.8110
 7172SOL    HW232979   2.468   1.583   6.531  0.6365 -0.5613  0.0345
 7173SOL     OW32980   1.628   2.508  14.039 -0.0469 -0.0987  1.3801
 7173SOL    HW132981   1.651   2.523  14.131  0.5586  1.0466  1.0441
 7173SOL    HW232982   1.712   2.539  14.006  0.1466 -1.4082  0.6331
 7174SOL     OW32983   3.378   1.344  13.662  0.5984 -0.4163 -0.4350
 7174SOL    HW132984   3.320   1.360  13.736  1.9574  0.7421  0.3924
 7174SOL    HW232985   3.364   1.421  13.607 -2.2878  0.7654  1.9766
 7175SOL     OW32986   1.038   0.245   3.427  0.1415 -0.0059 -0.5703
 7175SOL    HW132987   1.098   0.238   3.352 -0.7777  0.5544 -1.3606
 7175SOL    HW232988   1.090   0.287   3.496 -1.8243  2.3444 -0.5275
 7176SOL     OW32989   3.557   1.690   1.501 -0.3861  0.2047  0.0477
 7176SOL    HW132990   3.524   1.684   1.591  0.5480 -0.7891  0.3158
 7176SOL    HW232991   3.603   1.773   1.513 -1.0828  0.1901  2.7516
 7177SOL     OW32992   0.102   3.394  16.529  0.1734  0.2682  0.6558
 7177SOL    HW132993   0.182   3.439  16.556 -0.7526  3.7720 -2.4286
 7177SOL    HW232994   0.128   3.325  16.467  1.7827 -2.2118  4.0472
 7178SOL     OW32995   0.398   0.791  15.488 -0.3755 -0.7082  0.0115
 7178SOL    HW132996   0.488   0.764  15.509  0.0510  0.0815 -0.7754
 7178SOL    HW232997   0.369   0.711  15.443  1.4716  0.9704 -4.2123
 7179SOL     OW32998   2.071   0.334  11.169  0.0558 -0.1919 -0.2107
 7179SOL    HW132999   2.105   0.263  11.115  0.9661 -0.8773  1.2583
 7179SOL    HW233000   2.147   0.390  11.186  0.3683 -0.5009 -0.6014
 7180SOL     OW33001   3.180   2.041   5.038 -0.5597  0.1123 -0.0833
 7180SOL    HW133002   3.188   1.954   5.078  0.9405  0.7868  1.1156
 7180SOL    HW233003   3.235   2.092   5.098  0.0775 -1.1590  0.4303
 7181SOL     OW33004   2.725   4.690   9.110  0.0193 -0.2288  0.5488
 7181SOL    HW133005   2.684   4.638   9.178 -0.9237 -0.6238 -0.3205
 7181SOL    HW233006   2.754   0.040   9.167 -0.8040 -1.5707  2.6210
 7182SOL     OW33007   3.688   0.516   9.047  0.1938  0.3339 -0.7834
 7182SOL    HW133008   3.673   0.488   9.137 -1.8785  0.0635 -1.2092
 7182SOL    HW233009   3.600   0.502   9.013  0.3257  1.4974 -1.5899
 7183SOL     OW33010   3.112   2.979  12.859  0.4531 -0.1122 -0.5465
 7183SOL    HW133011   3.185   2.963  12.919 -1.4840 -3.2412  0.9377
 7183SOL    HW233012   3.154   2.972  12.773  0.5037 -1.0814 -0.4420
 7184SOL     OW33013   3.159   3.809  11.321 -0.0291  0.5992 -0.0146
 7184SOL    HW133014   3.220   3.802  11.248 -2.8370  0.6764 -2.3698
 7184SOL    HW233015   3.080   3.769  11.285  0.1597 -1.9484  2.4057
 7185SOL     OW33016   1.143   3.255   5.456  0.6069  0.3999  0.0597
 7185SOL    HW133017   1.067   3.224   5.504  1.0129 -1.7727 -0.7013
 7185SOL    HW233018   1.154   3.339   5.501  2.1953 -0.2500  0.8810
 7186SOL     OW33019   2.425   2.295   7.107  0.5715 -0.5016  0.1276
 7186SOL    HW133020   2.404   2.383   7.076 -0.0702 -0.9010 -0.5695
 7186SOL    HW233021   2.483   2.264   7.038  0.2778 -0.2653 -0.2230
 7187SOL     OW33022   4.361   2.916   3.748  0.0087  0.1226 -0.0289
 7187SOL    HW133023   4.268   2.937   3.742 -0.5275 -2.3016  0.0215
 7187SOL    HW233024   4.400   2.969   3.678 -0.9724 -1.5953 -1.8942
 7188SOL     OW33025   0.506   1.249  12.283  0.6394  0.5825  0.0100
 7188SOL    HW133026   0.445   1.323  12.288  2.4698  2.2022 -1.3598
 7188SOL    HW233027   0.584   1.284  12.326  1.3045  0.0983 -0.7948
 7189SOL     OW33028   1.366   0.173  17.312 -0.1721  0.1204 -0.2755
 7189SOL    HW133029   1.364   0.208  17.401  0.5141  1.2194 -0.6959
 7189SOL    HW233030   1.453   0.199  17.282 -1.0373 -0.0858 -2.9844
 7190SOL     OW33031   3.336   0.255   3.022 -0.2082 -0.2739 -0.0373
 7190SOL    HW133032   3.364   0.345   3.004  0.3704 -0.3675  0.3761
 7190SOL    HW233033   3.287   0.229   2.944  0.2643  1.4231 -0.8946
 7191SOL     OW33034   2.891   2.342   8.316 -0.2628  0.3540 -0.1897
 7191SOL    HW133035   2.963   2.350   8.378  0.6095 -0.3738 -1.1036
 7191SOL    HW233036   2.921   2.286   8.244 -2.1444  1.7909 -2.0831
 7192SOL     OW33037   0.986   1.881   1.901  0.6564 -0.0060 -0.6062
 7192SOL    HW133038   1.049   1.945   1.868 -0.0692  0.4074 -1.1819
 7192SOL    HW233039   0.915   1.889   1.838 -1.5860 -1.1259  1.7578
 7193SOL     OW33040   3.018   2.196   2.163  0.3975 -0.7817 -0.4597
 7193SOL    HW133041   3.008   2.239   2.078  0.7651 -1.8125 -1.0254
 7193SOL    HW233042   2.932   2.156   2.173 -0.1741  1.0343  1.8530
 7194SOL     OW33043   1.857   3.111   8.479  0.2345  0.1972 -0.2444
 7194SOL    HW133044   1.944   3.098   8.441  0.5887  0.2860  0.5356
 7194SOL    HW233045   1.848   3.034   8.536 -0.8078  0.6480  0.2045
 7195SOL     OW33046   4.052   0.675   4.174  0.0799 -0.2365 -0.0704
 7195SOL    HW133047   4.115   0.643   4.237  0.4626  0.1984 -0.2280
 7195SOL    HW233048   4.105   0.729   4.116 -0.8168 -0.6870 -1.3198
 7196SOL     OW33049   1.907   4.251   8.308  0.4320  0.7950 -0.0036
 7196SOL    HW133050   1.965   4.183   8.274 -1.8310 -1.4079  0.5742
 7196SOL    HW233051   1.959   4.298   8.374 -0.0470 -2.3043  2.5931
 7197SOL     OW33052   3.057   0.673  16.567 -0.8646 -0.5083 -0.5779
 7197SOL    HW133053   3.077   0.711  16.653 -0.2109  1.3637 -1.5639
 7197SOL    HW233054   3.053   0.581  16.593 -1.0387  0.0885  1.5093
 7198SOL     OW33055   3.046   2.065   8.587 -0.7633  0.3993 -0.6367
 7198SOL    HW133056   2.967   2.018   8.612  0.5978 -0.6936  1.6027
 7198SOL    HW233057   3.114   2.017   8.635 -1.3993 -1.1628 -1.3057
 7199SOL     OW33058   1.953   2.642   0.408 -0.1987  0.0103  0.0897
 7199SOL    HW133059   2.010   2.706   0.451  2.1466 -0.5974 -2.1489
 7199SOL    HW233060   1.968   2.653   0.315  0.1802  2.4405  0.4305
 7200SOL     OW33061   0.914   4.058  13.760  0.2817 -0.1542 -0.0880
 7200SOL    HW133062   0.873   4.101  13.836  1.9534  0.5427  0.4222
 7200SOL    HW233063   1.000   4.031  13.792  0.3069  0.1609  0.1131
 7201SOL     OW33064   0.848   3.864  15.913  0.0803 -0.5578  0.1354
 7201SOL    HW133065   0.885   3.939  15.866  1.0409 -0.8588  0.4301
 7201SOL    HW233066   0.766   3.855  15.864  1.5036 -0.7943 -2.1682
 7202SOL     OW33067   1.618   2.443   3.472 -0.2536  0.0356 -0.6064
 7202SOL    HW133068   1.607   2.362   3.522  0.8414  0.0946 -0.2712
 7202SOL    HW233069   1.586   2.505   3.538  1.1770  0.0417  0.0862
 7203SOL     OW33070   4.520   3.438   7.272 -0.0949  0.4129 -0.6595
 7203SOL    HW133071   4.492   3.379   7.342  0.8361 -0.0659 -0.6899
 7203SOL    HW233072   4.485   3.391   7.196  3.5922  1.0479 -2.7441
 7204SOL     OW33073   3.872   3.161   6.338  0.3011  0.0278  0.4036
 7204SOL    HW133074   3.893   3.170   6.245 -0.2000 -1.4475  0.1442
 7204SOL    HW233075   3.941   3.216   6.373  1.5362 -0.2397 -1.5505
 7205SOL     OW33076   1.338   2.452   5.103 -0.7574 -0.3485 -0.5948
 7205SOL    HW133077   1.247   2.480   5.109 -0.4718  0.2802  0.7202
 7205SOL    HW233078   1.335   2.376   5.162 -1.9835  0.3420  0.2189
 7206SOL     OW33079   2.812   2.298   5.545  0.3768  0.2601 -0.3407
 7206SOL    HW133080   2.845   2.313   5.634  0.5976  0.0063 -0.3813
 7206SOL    HW233081   2.887   2.259   5.500  0.8419  0.4754  0.2349
 7207SOL     OW33082   3.715   2.362   7.744  0.3123  0.0874 -0.2682
 7207SOL    HW133083   3.637   2.402   7.783  1.0676  1.5431 -0.2783
 7207SOL    HW233084   3.776   2.371   7.817 -0.2251 -0.6610  0.2729
 7208SOL     OW33085   2.495   2.393   8.574 -0.0015  0.4954  0.0585
 7208SOL    HW133086   2.400   2.381   8.578  0.3280 -0.4433  4.1416
 7208SOL    HW233087   2.535   2.331   8.635 -1.1671 -0.2644  0.0509
 7209SOL     OW33088   2.243   3.772  11.545  0.2538 -0.0450  0.4154
 7209SOL    HW133089   2.237   3.729  11.460 -2.4211  0.7240  0.2038
 7209SOL    HW233090   2.152   3.765  11.573 -0.0263 -0.1767 -0.5047
 7210SOL     OW33091   4.267   1.925  10.198  0.2136 -0.0865 -0.0629
 7210SOL    HW133092   4.189   1.886  10.237  0.3384  0.1418  0.4185
 7210SOL    HW233093   4.331   1.919  10.269 -0.0724  1.8418  0.3523
 7211SOL     OW33094   2.243   4.304  11.472 -0.4227 -0.2107 -0.0619
 7211SOL    HW133095   2.314   4.313  11.409 -0.3418  0.9688  0.1953
 7211SOL    HW233096   2.184   4.374  11.444 -0.9700 -0.5489  0.2486
 7212SOL     OW33097   2.073   1.539   1.870  0.0585 -0.2090 -0.1602
 7212SOL    HW133098   2.167   1.526   1.879  0.1711  0.0024 -0.9908
 7212SOL    HW233099   2.062   1.634   1.874  1.6007 -0.0686  0.7365
 7213SOL     OW33100   1.598   2.653   9.615  0.1952  0.1832 -0.2626
 7213SOL    HW133101   1.538   2.585   9.644 -0.2671  0.5825 -0.2924
 7213SOL    HW233102   1.665   2.639   9.682 -0.1127 -2.3897 -0.4924
 7214SOL     OW33103   0.700   2.226   8.878 -0.0554  0.1607 -0.0825
 7214SOL    HW133104   0.737   2.296   8.933  0.5306 -0.2024 -0.0179
 7214SOL    HW233105   0.707   2.266   8.791  1.2315 -1.9409 -0.9427
 7215SOL     OW33106   3.520   0.866   1.596  0.2937  0.2423 -0.0373
 7215SOL    HW133107   3.544   0.945   1.645 -0.3015 -0.3000  1.1428
 7215SOL    HW233108   3.496   0.903   1.512  0.8360  2.3765  0.7612
 7216SOL     OW33109   2.708   4.142   8.441 -0.1220 -0.2128 -0.1162
 7216SOL    HW133110   2.666   4.191   8.370 -2.8530 -1.1123  0.8497
 7216SOL    HW233111   2.699   4.052   8.407  0.1211  0.3948 -1.7690
 7217SOL     OW33112   2.185   4.502  15.551 -0.1726 -0.5355 -0.1907
 7217SOL    HW133113   2.134   4.583  15.546  2.7103  1.2696 -0.1714
 7217SOL    HW233114   2.144   4.449  15.482 -2.5388  3.3319 -1.7693
 7218SOL     OW33115   2.791   4.365   3.053 -0.6702  0.7609  0.3085
 7218SOL    HW133116   2.723   4.424   3.085  0.1589  0.5184  2.4814
 7218SOL    HW233117   2.747   4.338   2.972 -0.2038 -3.0092  1.3285
 7219SOL     OW33118   3.764   2.138  10.667  0.4914 -0.5960 -0.4387
 7219SOL    HW133119   3.818   2.217  10.663 -2.0624  1.1643 -0.4898
 7219SOL    HW233120   3.827   2.074  10.700 -0.0376 -0.6593  0.4393
 7220SOL     OW33121   0.991   1.556   6.536  0.3831  0.2950 -0.6293
 7220SOL    HW133122   0.918   1.496   6.547 -1.5305  2.9371  1.1378
 7220SOL    HW233123   1.038   1.535   6.616 -2.2527  0.4834  0.9665
 7221SOL     OW33124   2.046   1.794   6.802  0.1232  0.2505 -0.6030
 7221SOL    HW133125   1.988   1.756   6.868  2.8128  0.1596  1.7331
 7221SOL    HW233126   1.995   1.821   6.726  0.8164  2.8592 -0.1549
 7222SOL     OW33127   0.026   2.705   8.033 -0.0197  0.3200  0.9138
 7222SOL    HW133128   0.002   2.657   8.112  1.0965 -1.6724  0.0413
 7222SOL    HW233129   0.119   2.725   8.046  0.0411  0.0476  0.9000
 7223SOL     OW33130   3.833   1.900   4.076  0.1152 -0.4045 -0.1470
 7223SOL    HW133131   3.865   1.810   4.070 -0.3442 -0.3119 -3.7969
 7223SOL    HW233132   3.762   1.904   4.012 -1.1954  0.0007  1.3318
 7224SOL     OW33133   3.979   1.122   7.535 -0.3424 -0.5953 -0.1189
 7224SOL    HW133134   3.918   1.178   7.488  0.0976  0.1955  0.2398
 7224SOL    HW233135   3.940   1.102   7.621  0.8457  1.0464  0.8096
 7225SOL     OW33136   1.949   1.632  17.079 -0.9194  0.0180  0.1887
 7225SOL    HW133137   2.030   1.683  17.078 -1.3365  0.6776 -0.0686
 7225SOL    HW233138   1.895   1.682  17.018 -0.7392 -2.2718 -1.8391
 7226SOL     OW33139   2.167   4.538  16.566 -0.1384  0.5616 -0.4092
 7226SOL    HW133140   2.256   4.506  16.577 -0.3675  0.1295  0.2235
 7226SOL    HW233141   2.142   4.529  16.474  0.1939 -0.1764 -0.4279
 7227SOL     OW33142   1.057   1.301  14.450  0.1679 -0.4312  0.2569
 7227SOL    HW133143   1.006   1.220  14.451  0.5551 -0.6474  1.5626
 7227SOL    HW233144   1.115   1.294  14.373 -0.3119  1.1958 -0.2589
 7228SOL     OW33145   0.444   1.112   5.252 -0.3936  0.3415  0.0281
 7228SOL    HW133146   0.410   1.172   5.318 -1.3552  0.2599 -0.3890
 7228SOL    HW233147   0.361   1.089   5.210  0.2306  0.6632 -1.3999
 7229SOL     OW33148   3.954   1.829  14.794 -1.1173 -0.1649 -0.6519
 7229SOL    HW133149   4.011   1.783  14.855 -1.3982  0.1238 -0.1681
 7229SOL    HW233150   3.990   1.917  14.807 -0.1273 -1.0402  2.4002
 7230SOL     OW33151   2.769   4.314  14.322  0.1646 -0.4565  0.2199
 7230SOL    HW133152   2.735   4.225  14.322  0.1470 -0.4526  1.1071
 7230SOL    HW233153   2.861   4.301  14.299 -0.2508 -0.8010 -1.2632
 7231SOL     OW33154   1.456   1.588   5.431 -0.0826  0.4673  0.1717
 7231SOL    HW133155   1.449   1.527   5.504 -1.2473 -0.5719 -0.8025
 7231SOL    HW233156   1.364   1.584   5.404 -0.1633 -0.9711  0.6332
 7232SOL     OW33157   3.274   3.670   3.539  0.4799 -0.0764 -0.6928
 7232SOL    HW133158   3.329   3.702   3.468  1.5159 -2.3893 -0.9515
 7232SOL    HW233159   3.235   3.587   3.510 -0.4785  0.4995 -1.0359
 7233SOL     OW33160   3.810   2.244  13.832  0.4887 -0.4634 -0.2432
 7233SOL    HW133161   3.811   2.310  13.763  2.6048  0.1403  0.3780
 7233SOL    HW233162   3.737   2.186  13.807  0.9185 -0.0905 -2.3697
 7234SOL     OW33163   0.492   2.259  11.655  0.6347 -0.3579  0.0644
 7234SOL    HW133164   0.578   2.241  11.692  1.2014  1.2427 -0.4701
 7234SOL    HW233165   0.449   2.307  11.726  1.1597 -1.2104  0.9519
 7235SOL     OW33166   1.499   2.016   2.499  0.4485  0.3711 -0.0648
 7235SOL    HW133167   1.573   1.983   2.448  1.0913 -0.4163  1.3699
 7235SOL    HW233168   1.448   2.036   2.421 -0.6893  3.3529  1.4125
 7236SOL     OW33169   2.945   0.528  13.415  0.0225  0.2479 -0.6538
 7236SOL    HW133170   2.875   0.568  13.466  0.3030 -1.1193  0.8215
 7236SOL    HW233171   2.966   0.595  13.351 -0.2511 -1.0075 -2.0517
 7237SOL     OW33172   2.570   1.471   0.357  0.1008  0.8957  0.1503
 7237SOL    HW133173   2.478   1.448   0.345  0.2669  0.2443  0.1520
 7237SOL    HW233174   2.564   1.565   0.338  1.7394  0.8412 -0.6985
 7238SOL     OW33175   0.073   1.739   1.391  0.6119 -0.1273  0.0082
 7238SOL    HW133176   0.004   1.685   1.354 -1.0148  1.0461  1.3255
 7238SOL    HW233177   0.085   1.800   1.319 -0.0360  0.7411  0.6300
 7239SOL     OW33178   4.037   0.397  16.727 -0.3131 -0.2788 -0.5740
 7239SOL    HW133179   3.975   0.470  16.722  0.9569  0.9239  1.4129
 7239SOL    HW233180   4.004   0.345  16.801 -2.6810  1.0544 -0.6993
 7240SOL     OW33181   4.429   4.046   6.183 -0.6100 -0.0254 -0.6164
 7240SOL    HW133182   4.354   4.082   6.136 -1.0628  0.1884  0.2734
 7240SOL    HW233183   4.504   4.095   6.151  0.2265 -0.6087  0.4304
 7241SOL     OW33184   4.513   0.336   1.655  0.0024  0.2262 -1.1348
 7241SOL    HW133185   4.444   0.282   1.695  0.9075 -1.4624 -1.8304
 7241SOL    HW233186   4.474   0.379   1.580 -0.8534 -0.0629 -0.8523
 7242SOL     OW33187   3.534   1.236  14.938  0.0809  0.2105 -0.7933
 7242SOL    HW133188   3.584   1.269  15.012 -0.6785  3.6318 -1.8039
 7242SOL    HW233189   3.501   1.320  14.905 -0.0849  0.5963  0.3773
 7243SOL     OW33190   4.333   3.620   4.793 -0.1560 -0.0559  0.3298
 7243SOL    HW133191   4.297   3.699   4.833 -0.4735 -0.2520  0.4275
 7243SOL    HW233192   4.406   3.661   4.747 -0.2538 -1.7233 -1.2842
 7244SOL     OW33193   2.074   1.027   6.445 -0.7531 -0.0900 -0.1965
 7244SOL    HW133194   2.052   1.032   6.352  1.2664 -0.5925 -0.6885
 7244SOL    HW233195   2.137   0.956   6.455  0.2843  0.3347 -3.6095
 7245SOL     OW33196   0.924   0.951   3.134 -0.1587  0.8814  0.6183
 7245SOL    HW133197   0.970   1.018   3.184 -1.0217  1.0067  1.2444
 7245SOL    HW233198   0.870   1.006   3.078  0.6009  0.3288 -0.6614
 7246SOL     OW33199   3.688   0.866   5.632  0.0383 -0.2944 -0.1299
 7246SOL    HW133200   3.593   0.866   5.624 -0.0658  0.1713  0.9768
 7246SOL    HW233201   3.693   0.934   5.700  2.2085 -0.8461  0.2531
 7247SOL     OW33202   2.396   2.979   1.186  0.0070 -0.2101 -0.0017
 7247SOL    HW133203   2.399   2.889   1.220  0.7911 -0.5074 -0.8560
 7247SOL    HW233204   2.418   2.963   1.094 -0.6303 -2.7098  0.2567
 7248SOL     OW33205   4.455   1.350   2.441  0.4628 -0.2010 -0.2693
 7248SOL    HW133206   4.417   1.297   2.511  0.9662  0.7394  0.7405
 7248SOL    HW233207   4.434   1.437   2.474 -2.1362 -0.7430 -0.5542
 7249SOL     OW33208   4.376   0.905  11.634 -0.0669 -0.5815  0.4288
 7249SOL    HW133209   4.379   0.951  11.717 -1.2871 -0.5644  0.4625
 7249SOL    HW233210   4.281   0.895  11.627  0.1170 -0.7662 -2.0642
 7250SOL     OW33211   2.996   4.329   7.006  0.2171  0.4358  0.1517
 7250SOL    HW133212   2.908   4.295   6.988 -0.0228  0.2151  1.6960
 7250SOL    HW233213   2.980   4.394   7.074  0.8592  0.7463  0.0072
 7251SOL     OW33214   1.527   0.458   6.464  0.0191 -0.3115  0.0560
 7251SOL    HW133215   1.600   0.409   6.502  1.1384  0.0261 -1.6593
 7251SOL    HW233216   1.450   0.403   6.455 -0.3871  0.1171  0.8625
 7252SOL     OW33217   4.242   2.100   6.879 -0.3448  0.3352  0.6731
 7252SOL    HW133218   4.205   2.091   6.967 -0.7843  2.8030  0.7501
 7252SOL    HW233219   4.329   2.137   6.889  0.1528 -1.0606  1.4382
 7253SOL     OW33220   3.653   2.730   8.944  0.1591  0.8248  0.0386
 7253SOL    HW133221   3.712   2.767   8.878  2.1138  0.5764  1.6613
 7253SOL    HW233222   3.586   2.797   8.953  0.3253  1.2192 -1.6054
 7254SOL     OW33223   2.474   3.583   2.493  0.0428 -0.1359 -1.0179
 7254SOL    HW133224   2.564   3.614   2.501 -0.6811  1.8026 -0.4971
 7254SOL    HW233225   2.439   3.609   2.408  2.1459  1.8986 -1.2542
 7255SOL     OW33226   0.829   3.450   4.678 -0.1256 -0.2129 -0.1301
 7255SOL    HW133227   0.884   3.405   4.613  1.7984 -0.2910  1.5720
 7255SOL    HW233228   0.774   3.378   4.709  1.3961 -1.4859 -0.4211
 7256SOL     OW33229   0.750   1.490   3.728 -0.4037 -0.0998 -0.3633
 7256SOL    HW133230   0.777   1.398   3.730  1.9213  0.5986  0.3368
 7256SOL    HW233231   0.830   1.527   3.764 -1.3491  1.3286  0.2626
 7257SOL     OW33232   0.360   0.465   7.588 -0.0852  1.0996 -0.2438
 7257SOL    HW133233   0.421   0.495   7.655  1.5311  1.9635 -2.0953
 7257SOL    HW233234   0.280   0.516   7.602  0.8856  2.1270  1.4562
 7258SOL     OW33235   4.278   1.358  14.349  0.1725  0.6294 -0.5487
 7258SOL    HW133236   4.214   1.357  14.279  0.3319 -0.2317 -0.6776
 7258SOL    HW233237   4.232   1.401  14.422 -2.0243 -0.6591 -1.1837
 7259SOL     OW33238   1.229   4.281   8.650 -0.6056 -0.0804  0.6061
 7259SOL    HW133239   1.182   4.355   8.688 -1.6149  0.1848 -1.1710
 7259SOL    HW233240   1.295   4.274   8.719 -0.4078 -0.7730  0.3437
 7260SOL     OW33241   4.285   3.956   8.600  0.1317  0.7608 -0.8134
 7260SOL    HW133242   4.313   4.028   8.544  2.4449  1.6993  1.5213
 7260SOL    HW233243   4.362   3.918   8.644 -1.7242 -2.5518 -0.4097
 7261SOL     OW33244   3.826   3.426  10.936  0.0697  0.0054 -0.3696
 7261SOL    HW133245   3.762   3.362  10.968  0.3852  0.8719  2.0236
 7261SOL    HW233246   3.765   3.499  10.919  0.3705  0.5071  0.7169
 7262SOL     OW33247   1.167   1.389   1.283 -0.2014  0.1332 -0.0347
 7262SOL    HW133248   1.255   1.401   1.246  0.1118 -2.3564 -0.0789
 7262SOL    HW233249   1.128   1.325   1.223  2.4270  0.5970 -2.2833
 7263SOL     OW33250   4.401   1.899   5.964 -0.4983 -0.1119  0.0333
 7263SOL    HW133251   4.341   1.834   6.002 -0.2959 -0.2063  0.1891
 7263SOL    HW233252   4.361   1.901   5.877  0.9591  1.4660 -0.5851
 7264SOL     OW33253   2.414   0.337   6.770 -0.5183 -0.3711  0.0894
 7264SOL    HW133254   2.468   0.282   6.827  0.3624  3.4048  2.8193
 7264SOL    HW233255   2.456   0.307   6.689  0.1046  1.9344 -0.4471
 7265SOL     OW33256   0.338   0.812  13.209 -0.1708 -0.3398 -0.3384
 7265SOL    HW133257   0.426   0.782  13.187  0.6518  0.2658  2.1160
 7265SOL    HW233258   0.295   0.728  13.219  0.3837 -0.8729 -2.3957
 7266SOL     OW33259   3.408   1.613  10.333  0.1836  0.8956  0.1642
 7266SOL    HW133260   3.438   1.539  10.281  0.1966  1.4463 -0.6204
 7266SOL    HW233261   3.403   1.576  10.421 -0.2687 -0.1340 -0.2914
 7267SOL     OW33262   3.548   3.194  17.091  0.2565 -0.2589 -0.4400
 7267SOL    HW133263   3.577   3.200  17.182 -3.2665  1.2314  0.5722
 7267SOL    HW233264   3.487   3.123  17.110 -0.3919  1.1475  2.7908
 7268SOL     OW33265   2.208   2.397   9.164  0.1255 -0.1619  0.1090
 7268SOL    HW133266   2.217   2.307   9.133 -1.0802 -0.3072  0.1904
 7268SOL    HW233267   2.260   2.394   9.244  2.1298 -1.1707 -1.2074
 7269SOL     OW33268   2.097   2.436   2.660  0.2299  0.3258 -0.3600
 7269SOL    HW133269   2.070   2.374   2.728  0.0345  1.0684  0.2408
 7269SOL    HW233270   2.023   2.496   2.650  0.7486  0.9346 -0.5608
 7270SOL     OW33271   0.109   2.078   4.928 -0.0516  0.8632  0.1014
 7270SOL    HW133272   0.144   2.110   4.845 -1.2259  1.3092 -0.2269
 7270SOL    HW233273   0.077   1.995   4.892 -0.8833  0.1707  2.4464
 7271SOL     OW33274   3.562   4.618   6.535 -0.5217  0.3691 -0.3571
 7271SOL    HW133275   3.653   4.598   6.512 -0.8972  1.1494 -2.5465
 7271SOL    HW233276   3.566   4.672   6.615 -2.0007 -0.1017  0.0216
 7272SOL     OW33277   2.643   0.752   6.075 -0.0550  0.0882 -0.1605
 7272SOL    HW133278   2.718   0.782   6.126  0.0337 -0.8026  0.2384
 7272SOL    HW233279   2.641   0.819   6.007  4.3066 -0.3498 -0.7067
 7273SOL     OW33280   2.193   1.918  12.101 -0.5219 -0.7761 -0.0660
 7273SOL    HW133281   2.117   1.873  12.063 -0.6740  0.5804 -1.3816
 7273SOL    HW233282   2.192   1.893  12.194  1.1285 -0.3987  0.0509
 7274SOL     OW33283   3.488   2.425   6.110  0.4329 -0.9256  0.5185
 7274SOL    HW133284   3.506   2.333   6.091 -3.0978 -1.1580 -1.5133
 7274SOL    HW233285   3.532   2.477   6.043  0.1889 -0.0957  0.9915
 7275SOL     OW33286   0.918   2.358   5.097 -0.8528 -0.1068 -1.0683
 7275SOL    HW133287   0.934   2.316   5.013  1.1158  0.1610 -0.8324
 7275SOL    HW233288   0.992   2.418   5.103 -0.0732 -1.1356 -0.3997
 7276SOL     OW33289   0.749   3.634   7.394  0.4111 -0.2807 -0.4179
 7276SOL    HW133290   0.686   3.660   7.462  1.9607  0.1000  0.8594
 7276SOL    HW233291   0.691   3.590   7.331 -0.5351 -0.1769  0.3876
 7277SOL     OW33292   1.436   0.209   7.002  0.2410 -0.4750  0.2006
 7277SOL    HW133293   1.409   0.270   7.070  2.2812  1.6549 -0.9043
 7277SOL    HW233294   1.394   0.250   6.926  2.0159 -0.5576 -0.8331
 7278SOL     OW33295   1.651   1.513  16.979 -0.2782 -0.2040 -0.6715
 7278SOL    HW133296   1.642   1.421  16.956 -0.0302 -0.4549  0.2305
 7278SOL    HW233297   1.615   1.503  17.067 -1.4580  0.2074 -1.1110
 7279SOL     OW33298   1.407   0.425  15.234  0.4460  0.2818  0.3672
 7279SOL    HW133299   1.436   0.335  15.221  2.6446  0.8540  1.2581
 7279SOL    HW233300   1.354   0.457  15.161  0.7655  0.0280  0.0216
 7280SOL     OW33301   0.047   1.333   6.824 -0.2191 -0.0241  0.0506
 7280SOL    HW133302   4.695   1.378   6.866  0.1351  0.4649  0.1388
 7280SOL    HW233303   0.070   1.267   6.889  0.6579 -1.1317 -1.3706
 7281SOL     OW33304   4.656   4.693   5.961  0.5657  0.0009 -0.6128
 7281SOL    HW133305   4.719   4.665   6.027  0.7143 -0.0495 -0.7753
 7281SOL    HW233306   4.714   0.040   5.927 -0.0845  0.0116 -1.6935
 7282SOL     OW33307   4.054   3.524  11.564 -0.4388  0.0899  0.8841
 7282SOL    HW133308   4.044   3.599  11.622 -0.4030  0.6578  0.1603
 7282SOL    HW233309   3.985   3.464  11.593  0.2400 -0.4740  1.3299
 7283SOL     OW33310   0.573   1.446   5.250 -0.0497 -0.1578  0.2813
 7283SOL    HW133311   0.643   1.491   5.204  0.7246 -0.6584  0.9657
 7283SOL    HW233312   0.571   1.505   5.325  0.2404 -1.1853  1.0999
 7284SOL     OW33313   0.631   0.277   7.767  0.5113  0.4532 -0.0525
 7284SOL    HW133314   0.563   0.221   7.728  2.2907 -1.2105 -0.7728
 7284SOL    HW233315   0.577   0.326   7.829  0.2749 -1.3376  1.1794
 7285SOL     OW33316   3.835   3.483  15.434 -0.1998 -0.0804  0.0114
 7285SOL    HW133317   3.777   3.409  15.451  1.5682 -1.7634 -1.2859
 7285SOL    HW233318   3.875   3.456  15.351 -2.2193 -1.4428 -0.5122
 7286SOL     OW33319   3.003   3.847  11.907 -0.3543 -0.2487  0.0309
 7286SOL    HW133320   2.974   3.809  11.825 -0.7964 -2.7631  1.3597
 7286SOL    HW233321   2.935   3.913  11.918 -0.7786 -0.3047 -2.3765
 7287SOL     OW33322   4.391   1.007  15.531 -0.1598  0.0222  0.7437
 7287SOL    HW133323   4.386   0.917  15.563 -2.5858 -0.6883 -1.6446
 7287SOL    HW233324   4.482   1.010  15.502 -0.4845 -0.9614 -0.3772
 7288SOL     OW33325   2.062   2.792   9.075 -0.2486  0.6418  0.0117
 7288SOL    HW133326   2.000   2.814   9.144 -0.9067 -2.3756  0.3452
 7288SOL    HW233327   2.048   2.700   9.056 -0.7890  1.1606 -2.1313
 7289SOL     OW33328   3.226   4.327   5.667  0.5790  0.7021  0.1585
 7289SOL    HW133329   3.229   4.422   5.678 -1.9409  0.7960  0.0511
 7289SOL    HW233330   3.189   4.309   5.753 -0.7358  0.3427 -0.4685
 7290SOL     OW33331   0.293   4.320  16.362 -0.0908  0.2008  0.7355
 7290SOL    HW133332   0.287   4.305  16.457  1.8189  1.2981  1.0232
 7290SOL    HW233333   0.223   4.385  16.353  0.6201  0.6319 -1.6906
 7291SOL     OW33334   2.381   2.901  16.598 -0.5548 -0.3246 -0.0014
 7291SOL    HW133335   2.418   2.989  16.607 -0.5597 -0.4954  1.6881
 7291SOL    HW233336   2.339   2.893  16.683 -2.5812 -0.3874 -1.0155
 7292SOL     OW33337   2.807   2.799   7.603  0.0942  0.1543  0.3919
 7292SOL    HW133338   2.902   2.812   7.605  0.1798 -0.4627  0.4322
 7292SOL    HW233339   2.786   2.765   7.516 -0.0732  1.6546 -0.1473
 7293SOL     OW33340   0.578   1.936  11.114 -0.3494  0.3102  0.2103
 7293SOL    HW133341   0.576   1.914  11.208  1.5958  1.2316  0.4686
 7293SOL    HW233342   0.596   1.849  11.079 -1.2003  0.0379  0.4516
 7294SOL     OW33343   1.041   1.687  14.150 -0.5248  0.1562  0.0148
 7294SOL    HW133344   0.961   1.740  14.151 -1.0413 -0.6371  0.4795
 7294SOL    HW233345   1.096   1.744  14.203  1.2221 -3.4078  1.9922
 7295SOL     OW33346   2.061   0.876   7.204 -0.5421  0.2129 -0.9297
 7295SOL    HW133347   1.967   0.884   7.186 -0.5600 -0.9910 -1.3881
 7295SOL    HW233348   2.067   0.781   7.205  1.3243  0.3000 -3.1162
 7296SOL     OW33349   3.909   3.621  17.436  0.1235 -0.1663 -0.3395
 7296SOL    HW133350   3.917   3.530  17.407  2.3553 -0.3388  0.8183
 7296SOL    HW233351   3.919   3.604  17.530 -0.5388 -1.8505 -0.5720
 7297SOL     OW33352   0.641   3.826   9.846  0.0088  0.2932  0.3740
 7297SOL    HW133353   0.585   3.757   9.882  0.3874 -0.3328 -0.2215
 7297SOL    HW233354   0.725   3.809   9.889 -0.8253 -0.8791  1.5483
 7298SOL     OW33355   1.822   2.143   8.860 -0.3298 -0.4165 -0.3348
 7298SOL    HW133356   1.859   2.205   8.923 -1.6159  1.1176 -1.0822
 7298SOL    HW233357   1.891   2.077   8.863  0.7260  0.8038  2.2756
 7299SOL     OW33358   3.325   2.948   8.935 -1.2559 -0.4186 -0.0466
 7299SOL    HW133359   3.360   2.941   9.024  1.6850 -1.7250 -1.2984
 7299SOL    HW233360   3.234   2.928   8.953 -1.2837 -0.8998 -0.7142
 7300SOL     OW33361   2.010   0.786   3.844  0.3340 -0.4955  0.3751
 7300SOL    HW133362   2.063   0.735   3.906 -0.4346  0.7012  2.0076
 7300SOL    HW233363   1.971   0.856   3.897  0.1955  0.3586 -0.8713
 7301SOL     OW33364   3.410   1.109  11.771  0.1669 -0.0648  0.2453
 7301SOL    HW133365   3.390   1.161  11.693  1.0526 -3.1717 -2.0792
 7301SOL    HW233366   3.461   1.167  11.829  0.7776 -1.9831  1.6295
 7302SOL     OW33367   1.473   3.661  17.571  0.1656 -0.3843  0.2984
 7302SOL    HW133368   1.551   3.688  17.523 -1.0483  0.1738 -1.3777
 7302SOL    HW233369   1.416   3.737  17.556  1.2015  0.4200  0.4423
 7303SOL     OW33370   3.061   0.855   7.438 -0.8085  0.5843  0.4870
 7303SOL    HW133371   2.968   0.876   7.428 -0.7302  0.4322 -0.5294
 7303SOL    HW233372   3.078   0.899   7.355  0.4775 -0.6420  0.1016
 7304SOL     OW33373   2.896   0.120   2.709 -0.1582  0.3740  0.0016
 7304SOL    HW133374   2.863   0.031   2.722 -0.6469  0.4730 -0.5464
 7304SOL    HW233375   2.991   0.121   2.711 -0.2002 -1.0219  2.1803
 7305SOL     OW33376   1.300   1.166   7.637 -0.4906 -0.3504  0.2329
 7305SOL    HW133377   1.312   1.209   7.553 -1.0335  1.3924  1.0615
 7305SOL    HW233378   1.226   1.110   7.613 -1.6032  2.6524 -3.3156
 7306SOL     OW33379   1.085   0.595   3.225  0.8761 -0.0688 -0.5438
 7306SOL    HW133380   1.153   0.528   3.234  0.9117 -0.0904 -0.9811
 7306SOL    HW233381   1.083   0.634   3.313 -2.3254  0.5274 -0.8666
 7307SOL     OW33382   2.323   2.035   4.064 -0.0136  0.3677  0.8717
 7307SOL    HW133383   2.289   1.946   4.068 -0.2888  0.3672 -1.6646
 7307SOL    HW233384   2.381   2.028   4.140 -1.2459  1.9429  1.9611
 7308SOL     OW33385   1.937   1.393   5.762 -0.0768 -0.6176 -0.1557
 7308SOL    HW133386   1.956   1.299   5.753  1.3192 -0.3058 -0.5180
 7308SOL    HW233387   2.012   1.428   5.713 -0.3876 -0.3825 -0.4620
 7309SOL     OW33388   2.709   3.673   1.716  0.2836 -0.6745  0.3373
 7309SOL    HW133389   2.620   3.654   1.745 -0.0600 -2.5932 -2.0545
 7309SOL    HW233390   2.757   3.698   1.795  0.5817  0.2874 -0.1483
 7310SOL     OW33391   0.928   3.002   5.250  0.4781  0.2656  0.2821
 7310SOL    HW133392   0.880   2.921   5.236  2.1055 -0.9179  1.5590
 7310SOL    HW233393   0.881   3.041   5.324 -0.1737  1.6657 -0.8681
 7311SOL     OW33394   3.760   3.822   4.536 -0.0497 -0.4182  0.4045
 7311SOL    HW133395   3.679   3.772   4.523  0.5501 -0.4738 -3.1582
 7311SOL    HW233396   3.772   3.813   4.631 -0.6641 -1.5839  0.3787
 7312SOL     OW33397   0.414   2.525   1.056  0.0690  0.1481 -0.0620
 7312SOL    HW133398   0.438   2.474   1.133 -2.3875  0.5727  1.0030
 7312SOL    HW233399   0.476   2.598   1.051  0.5150 -0.1640  0.8046
 7313SOL     OW33400   0.803   1.812  11.777 -0.5276 -0.4076 -0.1835
 7313SOL    HW133401   0.742   1.884  11.762  0.9896  1.2814  1.8397
 7313SOL    HW233402   0.834   1.798  11.688  0.5072  0.8266 -0.0222
 7314SOL     OW33403   2.384   0.839   0.897  0.3168  0.3378 -0.2982
 7314SOL    HW133404   2.335   0.763   0.930 -1.0957  0.9396 -1.0303
 7314SOL    HW233405   2.458   0.797   0.854  1.1015  1.3414  0.0953
 7315SOL     OW33406   1.069   3.871   5.710 -0.0301 -0.0839 -0.4158
 7315SOL    HW133407   1.134   3.878   5.640 -0.1680  0.8259 -0.4459
 7315SOL    HW233408   0.987   3.876   5.661 -0.5890  0.0341  0.5364
 7316SOL     OW33409   1.608   2.665   0.364 -0.5145 -0.0496  0.0088
 7316SOL    HW133410   1.565   2.732   0.416  0.1990 -1.5288  2.5025
 7316SOL    HW233411   1.558   2.672   0.282  1.4544 -0.3476 -1.2138
 7317SOL     OW33412   1.404   1.981  15.416 -0.1332  0.4438  0.2615
 7317SOL    HW133413   1.442   1.934  15.490 -0.3032 -0.9494 -0.5318
 7317SOL    HW233414   1.467   1.967  15.345  1.5321  0.8318  1.6547
 7318SOL     OW33415   2.024   1.026   4.558  0.1734 -0.0796 -0.3096
 7318SOL    HW133416   2.025   1.079   4.638  0.1875  0.1130 -0.4369
 7318SOL    HW233417   2.082   1.076   4.501  1.1714  0.3997  1.1406
 7319SOL     OW33418   0.382   4.414   5.960 -0.3517 -0.1252  0.3359
 7319SOL    HW133419   0.373   4.482   5.894 -0.2367 -0.9154 -0.4854
 7319SOL    HW233420   0.469   4.383   5.936 -1.3716 -2.9116  0.1444
 7320SOL     OW33421   1.004   3.480  16.310 -0.3702  0.4359 -0.0372
 7320SOL    HW133422   0.974   3.532  16.236 -0.1356  0.8822  0.1828
 7320SOL    HW233423   1.005   3.392  16.271  2.9719  0.5285 -0.1856
 7321SOL     OW33424   3.360   3.495  15.218 -1.0499 -0.1091  0.6286
 7321SOL    HW133425   3.317   3.549  15.285 -3.8191  0.6456 -1.7381
 7321SOL    HW233426   3.287   3.439  15.192 -1.0420 -0.8211  2.1412
 7322SOL     OW33427   3.934   2.541   5.262 -0.2203 -0.0064 -0.4100
 7322SOL    HW133428   3.845   2.517   5.289  0.1714  0.7386  1.5326
 7322SOL    HW233429   3.978   2.482   5.323  1.8863  1.4714 -0.4983
 7323SOL     OW33430   3.527   4.218   2.529  0.3647  0.0039  0.3488
 7323SOL    HW133431   3.610   4.175   2.547  1.4536  2.0188  0.0904
 7323SOL    HW233432   3.456   4.162   2.561  1.5938 -1.3871  0.6365
 7324SOL     OW33433   2.200   1.201   7.824  0.5413  0.0735 -0.1761
 7324SOL    HW133434   2.140   1.247   7.882  0.6332 -0.7784  0.5885
 7324SOL    HW233435   2.281   1.244   7.853  0.7143 -0.3217 -0.0734
 7325SOL     OW33436   2.530   0.011  10.786  0.4709 -0.3021 -0.5191
 7325SOL    HW133437   2.470   0.084  10.801 -0.7642 -1.6027  0.8485
 7325SOL    HW233438   2.486   4.678  10.721  1.5601 -0.8044 -0.8495
 7326SOL     OW33439   1.067   1.797   4.383  0.3809 -0.1182  0.2417
 7326SOL    HW133440   1.161   1.815   4.379  0.1917  0.2488 -2.2641
 7326SOL    HW233441   1.064   1.716   4.434 -1.3713  0.5663  1.2327
 7327SOL     OW33442   3.654   4.303   6.167 -0.7934 -0.0271  0.4111
 7327SOL    HW133443   3.692   4.234   6.113 -2.8929 -2.3012  1.8652
 7327SOL    HW233444   3.619   4.357   6.096  1.4023  1.2017  0.2490
 7328SOL     OW33445   2.466   2.076   8.648 -0.1876 -0.2794 -0.8771
 7328SOL    HW133446   2.378   2.069   8.685  0.0801 -1.1518 -0.4135
 7328SOL    HW233447   2.501   2.135   8.716 -2.2508 -0.4137  0.3027
 7329SOL     OW33448   1.438   0.284   3.857 -0.2149 -0.0382 -0.0923
 7329SOL    HW133449   1.509   0.248   3.804  1.1146  0.0309  1.6240
 7329SOL    HW233450   1.363   0.241   3.817 -1.1013  0.2921  1.1956
 7330SOL     OW33451   2.004   3.271   5.419 -0.1547 -0.0149  0.3847
 7330SOL    HW133452   2.024   3.200   5.359 -1.5281  2.6130 -3.2052
 7330SOL    HW233453   1.935   3.315   5.369 -0.0808 -1.2821 -0.8322
 7331SOL     OW33454   1.449   4.065   5.291 -0.3578  0.3670  0.1868
 7331SOL    HW133455   1.443   3.975   5.259 -2.5842  1.7311 -3.2297
 7331SOL    HW233456   1.536   4.073   5.329 -0.3785 -3.5884  1.0827
 7332SOL     OW33457   3.071   0.620   3.607 -0.3935 -0.4831 -0.1516
 7332SOL    HW133458   3.132   0.546   3.611 -0.7109 -0.7181  0.3620
 7332SOL    HW233459   3.019   0.591   3.533  0.6188 -1.9197 -0.2995
 7333SOL     OW33460   0.278   1.972   7.177 -0.5555  0.4516  0.3627
 7333SOL    HW133461   0.318   1.914   7.242  0.1510  0.5155 -0.0078
 7333SOL    HW233462   0.196   1.936   7.143 -0.4762  0.0053  0.6325
 7334SOL     OW33463   3.646   0.546   3.839  0.2029 -0.4645  0.2633
 7334SOL    HW133464   3.693   0.553   3.755  0.0768 -1.5849  0.1027
 7334SOL    HW233465   3.721   0.579   3.889 -0.4264  3.3837 -1.2706
 7335SOL     OW33466   2.076   4.656   6.433 -0.1664 -0.1234 -0.0255
 7335SOL    HW133467   1.997   4.710   6.439  0.1035  0.3009 -0.2863
 7335SOL    HW233468   2.038   4.571   6.452  1.0530 -0.9654 -1.3476
 7336SOL     OW33469   0.520   2.019  12.633  0.1475 -0.0517  0.0319
 7336SOL    HW133470   0.591   1.978  12.584  0.5108 -1.4740  1.7286
 7336SOL    HW233471   0.446   1.964  12.607 -0.4753  1.5008 -1.4527
 7337SOL     OW33472   0.016   3.005   8.669 -0.7302 -0.3934  0.1788
 7337SOL    HW133473   0.073   2.932   8.648  0.5567  0.5096  0.5249
 7337SOL    HW233474   4.665   3.002   8.606 -1.1156 -0.1975  0.6010
 7338SOL     OW33475   2.149   4.170   7.905  0.5016 -0.2547 -0.0221
 7338SOL    HW133476   2.160   4.205   7.817  1.3909 -1.3939 -0.3663
 7338SOL    HW233477   2.207   4.229   7.954  0.7712  0.5946 -1.3727
 7339SOL     OW33478   2.454   2.388   4.834 -0.2631  0.0015  0.3682
 7339SOL    HW133479   2.476   2.434   4.915  0.5470 -0.2991  0.3148
 7339SOL    HW233480   2.362   2.413   4.826 -0.4739 -0.5040  1.2394
 7340SOL     OW33481   4.011   2.152  13.990 -0.3074 -0.4607  0.4508
 7340SOL    HW133482   3.944   2.210  13.955 -0.3471 -1.1955 -0.6813
 7340SOL    HW233483   4.061   2.137  13.910 -0.0907  0.1703  0.4639
 7341SOL     OW33484   2.788   3.566   9.389 -0.5756 -0.1412 -0.2501
 7341SOL    HW133485   2.855   3.610   9.441  1.6124 -0.8124 -2.4557
 7341SOL    HW233486   2.729   3.640   9.374 -0.4234 -0.0463 -0.3950
 7342SOL     OW33487   3.236   2.878   3.299 -0.4014 -0.6682  0.0414
 7342SOL    HW133488   3.144   2.849   3.304 -0.8185  1.0702  3.0349
 7342SOL    HW233489   3.251   2.939   3.372  1.8969  0.1506 -1.1347
 7343SOL     OW33490   3.283   0.266   2.311  0.1535  0.1578 -0.6334
 7343SOL    HW133491   3.272   0.182   2.266 -0.4951 -0.5140  0.7912
 7343SOL    HW233492   3.332   0.320   2.249 -1.2322 -0.2810 -2.1247
 7344SOL     OW33493   0.611   2.385   8.619 -0.2701 -0.0511 -0.0421
 7344SOL    HW133494   0.681   2.390   8.554 -0.2891 -0.4535 -0.0956
 7344SOL    HW233495   0.606   2.479   8.639 -1.9864 -0.3165  0.8067
 7345SOL     OW33496   0.721   4.624   3.571 -0.1583 -0.1127  0.3651
 7345SOL    HW133497   0.645   4.608   3.628 -0.5961 -0.3884 -0.2942
 7345SOL    HW233498   0.751   4.533   3.569 -2.1124 -0.7674  0.2664
 7346SOL     OW33499   1.275   0.803  14.184  0.7201 -0.4549  0.2112
 7346SOL    HW133500   1.289   0.882  14.132 -2.3079  1.1324  1.8428
 7346SOL    HW233501   1.184   0.787  14.161  0.3445  1.0592  0.6922
 7347SOL     OW33502   2.380   3.279  16.988 -0.4284 -0.2524  0.3178
 7347SOL    HW133503   2.352   3.198  17.031  2.3971 -0.8064  1.1280
 7347SOL    HW233504   2.301   3.334  16.992 -0.7123 -0.6825  0.5885
 7348SOL     OW33505   0.726   0.559   7.176 -0.0411 -0.3888 -0.0905
 7348SOL    HW133506   0.657   0.615   7.211 -1.1537 -1.9556  0.2114
 7348SOL    HW233507   0.770   0.619   7.115  0.2962 -1.0798 -0.5303
 7349SOL     OW33508   0.728   3.082  17.518  0.2107  0.2499  0.4004
 7349SOL    HW133509   0.783   3.092  17.595  2.8376  0.1286 -1.4480
 7349SOL    HW233510   0.724   2.988  17.501  0.4417  0.3197 -0.0440
 7350SOL     OW33511   4.551   4.513   1.408  0.1623  0.1614 -0.1834
 7350SOL    HW133512   4.527   4.581   1.470 -0.5340  0.7120 -1.0603
 7350SOL    HW233513   4.471   4.501   1.357  0.4314 -2.7767  0.0901
 7351SOL     OW33514   1.437   3.930   7.869 -0.1173 -0.1899 -0.2883
 7351SOL    HW133515   1.363   3.954   7.813  0.5612  1.1506 -0.6192
 7351SOL    HW233516   1.489   4.011   7.871  1.4130 -1.1694 -0.3279
 7352SOL     OW33517   2.054   2.964   4.209  0.2920 -0.0568 -0.1357
 7352SOL    HW133518   2.094   2.901   4.148 -0.5053 -0.2512 -0.4640
 7352SOL    HW233519   2.126   2.983   4.269  0.0381  1.7362 -0.4078
 7353SOL     OW33520   0.064   2.381   7.648 -0.1977  0.2146 -0.0498
 7353SOL    HW133521   0.084   2.409   7.737  0.9049  0.8571 -0.5036
 7353SOL    HW233522   4.696   2.410   7.635 -0.3460 -1.6540 -3.3505
 7354SOL     OW33523   3.930   0.376   5.687 -0.1460  0.1287 -0.0428
 7354SOL    HW133524   3.914   0.315   5.759  2.6743 -1.4527 -0.7499
 7354SOL    HW233525   3.925   0.459   5.736 -0.2547  0.4106 -0.5287
 7355SOL     OW33526   2.508   1.556   9.035  0.0890 -0.7064 -0.1072
 7355SOL    HW133527   2.577   1.562   8.968  0.6032  0.3017  0.5030
 7355SOL    HW233528   2.530   1.471   9.073  0.8470 -0.8282 -0.7999
 7356SOL     OW33529   4.252   1.747   5.427  0.2308  0.3566  0.1758
 7356SOL    HW133530   4.195   1.824   5.420 -1.3749 -0.9154 -0.7360
 7356SOL    HW233531   4.329   1.779   5.379 -0.7068  2.4201  0.0215
 7357SOL     OW33532   3.068   0.041   8.396 -0.0519  0.2112 -0.0346
 7357SOL    HW133533   3.061   4.675   8.433 -0.0924  0.0838 -0.3396
 7357SOL    HW233534   2.992   0.080   8.439  0.2136  1.1365 -0.3994
 7358SOL     OW33535   0.982   4.139   2.428  0.0429 -0.2736  0.3349
 7358SOL    HW133536   0.892   4.108   2.441 -0.3401  1.3034  1.4622
 7358SOL    HW233537   1.012   4.088   2.352 -0.4009 -0.5460  0.3421
 7359SOL     OW33538   3.502   3.591   7.103  0.8083 -0.4048 -0.4954
 7359SOL    HW133539   3.593   3.572   7.128  0.2303 -1.2337  0.9834
 7359SOL    HW233540   3.512   3.582   7.008  2.3668 -3.9777 -0.0110
 7360SOL     OW33541   4.394   1.253  15.398  0.3778 -0.1277  0.3224
 7360SOL    HW133542   4.351   1.242  15.313  0.0231  1.3837  0.3028
 7360SOL    HW233543   4.375   1.173  15.447 -0.2563  1.3593  2.4487
 7361SOL     OW33544   3.802   2.952  15.072 -0.3688  0.0183  0.0431
 7361SOL    HW133545   3.791   3.010  15.148 -0.3459  1.0354 -0.7268
 7361SOL    HW233546   3.895   2.945  15.053  0.3103  0.7287  3.1492
 7362SOL     OW33547   0.772   2.408  11.570 -0.5015  0.5768  0.0208
 7362SOL    HW133548   0.778   2.313  11.565  0.9883  0.6991 -0.4369
 7362SOL    HW233549   0.858   2.436  11.540 -0.2588 -0.9319 -0.6646
 7363SOL     OW33550   0.945   4.573  11.927 -0.4481 -0.1111  0.3197
 7363SOL    HW133551   0.912   4.644  11.981  1.0489  0.3672  0.6048
 7363SOL    HW233552   1.035   4.569  11.959 -0.8139 -0.3034  1.3098
 7364SOL     OW33553   3.186   1.711   1.825  0.6313 -0.6452 -0.2329
 7364SOL    HW133554   3.189   1.734   1.732  0.4185  1.7743  0.3666
 7364SOL    HW233555   3.145   1.789   1.862 -0.5378 -0.8173 -1.1933
 7365SOL     OW33556   1.449   0.701   2.839  0.6365  0.4840 -0.4783
 7365SOL    HW133557   1.439   0.731   2.930 -0.5100 -0.6146 -0.2393
 7365SOL    HW233558   1.495   0.618   2.850 -0.0995 -0.1274 -2.0079
 7366SOL     OW33559   1.207   3.407   7.432 -0.1289  0.4508  0.2303
 7366SOL    HW133560   1.149   3.415   7.507 -2.4958 -0.7947 -1.4810
 7366SOL    HW233561   1.265   3.340   7.468 -2.0660 -0.9051  0.8311
 7367SOL     OW33562   0.229   0.946  11.472  0.6229 -0.5338 -0.5244
 7367SOL    HW133563   0.301   0.883  11.483  0.5046 -0.5130  0.3425
 7367SOL    HW233564   0.155   0.887  11.456  0.2377 -0.1693 -0.0788
 7368SOL     OW33565   3.478   0.074   1.175  0.1209  0.1755 -0.0736
 7368SOL    HW133566   3.439   4.709   1.191 -1.5449  1.3449  2.2496
 7368SOL    HW233567   3.570   0.055   1.192  0.0371  0.1977  0.4135
 7369SOL     OW33568   0.509   0.191   5.621 -0.3231  0.3532 -0.2781
 7369SOL    HW133569   0.519   0.120   5.685  1.5291  0.0853 -0.8615
 7369SOL    HW233570   0.599   0.223   5.630 -0.1134  0.0484 -1.2974
 7370SOL     OW33571   1.162   4.515   7.916  0.1546  0.0628 -0.0535
 7370SOL    HW133572   1.195   4.488   7.830 -0.6610  1.2606 -0.7482
 7370SOL    HW233573   1.235   4.551   7.965  0.6421 -0.6294 -0.2768
 7371SOL     OW33574   2.236   4.104   6.688 -0.2280  0.1992 -0.1564
 7371SOL    HW133575   2.213   4.053   6.766  0.3831  0.0541 -0.0729
 7371SOL    HW233576   2.148   4.139   6.676 -1.5657 -2.1071  2.7896
 7372SOL     OW33577   0.643   4.524  16.905  0.2074 -0.4141  0.5343
 7372SOL    HW133578   0.628   4.430  16.890  0.7134 -0.1892 -1.4047
 7372SOL    HW233579   0.732   4.545  16.933 -0.0776  0.2672  0.9168
 7373SOL     OW33580   2.642   3.458   6.259 -0.2210 -0.5740 -0.9607
 7373SOL    HW133581   2.691   3.444   6.340 -1.0553 -3.2723 -0.9069
 7373SOL    HW233582   2.581   3.521   6.298 -1.7162 -1.4709 -1.8505
 7374SOL     OW33583   3.027   2.576   4.732  0.7327  0.6734  0.0176
 7374SOL    HW133584   3.059   2.589   4.643 -1.3546 -4.2530 -1.4260
 7374SOL    HW233585   3.100   2.523   4.763 -0.1890 -0.0471  0.9769
 7375SOL     OW33586   1.837   3.748   8.494  0.3011 -0.0644 -0.1341
 7375SOL    HW133587   1.907   3.684   8.502 -0.7636 -1.2128 -0.0551
 7375SOL    HW233588   1.757   3.697   8.487 -0.6364  1.5502 -1.1083
 7376SOL     OW33589   4.281   0.315   5.897 -0.5775  0.3653 -0.2044
 7376SOL    HW133590   4.302   0.279   5.811  1.4338  0.5553  0.2020
 7376SOL    HW233591   4.281   0.405   5.866 -1.2784  0.6364  0.5663
 7377SOL     OW33592   2.198   3.601   4.995  0.3600  0.1447  0.4429
 7377SOL    HW133593   2.175   3.664   5.063 -0.7041  0.4000 -0.1474
 7377SOL    HW233594   2.225   3.519   5.036  0.1429  1.6695  3.6451
 7378SOL     OW33595   2.967   3.734   0.923  0.0818 -0.0986  0.2058
 7378SOL    HW133596   3.052   3.750   0.882  0.5052 -2.1396  0.3078
 7378SOL    HW233597   2.931   3.656   0.880 -0.1845  0.9270 -1.4457
 7379SOL     OW33598   2.406   4.363  10.011 -0.3794 -0.0590  0.7082
 7379SOL    HW133599   2.462   4.318   9.949 -0.6251  0.2142  0.2904
 7379SOL    HW233600   2.454   4.443  10.031 -0.9947  0.7854 -1.2104
 7380SOL     OW33601   1.989   2.643   4.247 -0.2296 -0.0586  0.2580
 7380SOL    HW133602   1.954   2.658   4.159 -0.9600 -0.4558  0.4790
 7380SOL    HW233603   2.055   2.712   4.256  2.7521 -2.7657 -0.8480
 7381SOL     OW33604   2.097   3.257   4.351 -0.2402 -0.1876  0.3107
 7381SOL    HW133605   2.048   3.309   4.288  0.9755 -0.0851 -0.5445
 7381SOL    HW233606   2.133   3.183   4.301 -1.7760  0.7920 -2.2546
 7382SOL     OW33607   4.062   1.229  11.760  0.4168 -0.2259  0.1503
 7382SOL    HW133608   4.011   1.309  11.749  1.8044  0.8386  1.4392
 7382SOL    HW233609   4.114   1.233  11.679  0.2364 -1.0921 -0.0002
 7383SOL     OW33610   3.008   3.320  17.094  0.1379 -0.1514 -0.3073
 7383SOL    HW133611   2.931   3.347  17.044 -1.4713 -0.4722  2.0441
 7383SOL    HW233612   2.986   3.230  17.119  0.6899  0.3191  1.8792
 7384SOL     OW33613   2.568   1.478   7.765 -0.2980 -0.2636  0.1191
 7384SOL    HW133614   2.524   1.556   7.732 -0.0908  0.1036  0.7164
 7384SOL    HW233615   2.638   1.522   7.813 -2.0030  0.5952  1.8162
 7385SOL     OW33616   1.709   4.265   4.385  0.3212 -0.1376  0.4673
 7385SOL    HW133617   1.705   4.354   4.419  1.0469  0.1110 -0.0982
 7385SOL    HW233618   1.658   4.272   4.304  0.2435  3.9726  0.8523
 7386SOL     OW33619   2.482   1.314   1.231 -0.1034 -0.1513 -0.5799
 7386SOL    HW133620   2.474   1.221   1.211 -0.9713  0.1923 -1.8471
 7386SOL    HW233621   2.402   1.347   1.272  0.7904  1.0472  0.1710
 7387SOL     OW33622   4.692   1.244   3.751 -0.0920 -0.3993  0.0301
 7387SOL    HW133623   0.044   1.301   3.729  0.0196 -0.9064 -0.8918
 7387SOL    HW233624   0.009   1.171   3.703  2.6572  1.3533 -0.4333
 7388SOL     OW33625   0.645   0.581   9.090  0.2317  0.0259 -0.4114
 7388SOL    HW133626   0.670   0.601   8.999 -1.2844 -1.6718 -1.2009
 7388SOL    HW233627   0.578   0.516   9.066  0.2548 -0.4619  0.8727
 7389SOL     OW33628   4.510   1.492  15.642  0.1143  0.1790 -0.4098
 7389SOL    HW133629   4.431   1.543  15.628  0.8683  1.0863 -1.3478
 7389SOL    HW233630   4.566   1.560  15.678  1.5538 -1.1267 -0.1638
 7390SOL     OW33631   1.820   0.742  11.747 -0.3051 -0.0130  0.0042
 7390SOL    HW133632   1.828   0.743  11.842  1.2892 -0.7829 -0.1166
 7390SOL    HW233633   1.843   0.650  11.738  0.2820 -0.0472  1.8850
 7391SOL     OW33634   2.047   3.699   4.216 -0.2426 -0.1670 -0.2396
 7391SOL    HW133635   2.132   3.659   4.232  0.0287  0.4479 -0.1476
 7391SOL    HW233636   2.038   3.743   4.300  2.4503 -0.2203  0.0786
 7392SOL     OW33637   0.620   2.452   5.348  0.4986  0.3871  0.1530
 7392SOL    HW133638   0.575   2.418   5.425  1.7969  0.7809  1.0837
 7392SOL    HW233639   0.541   2.440   5.296 -0.1988  2.4672  0.7547
 7393SOL     OW33640   1.900   2.941   9.708  0.4493 -0.0791  0.3050
 7393SOL    HW133641   1.931   2.869   9.654 -1.5853 -0.3116 -0.5101
 7393SOL    HW233642   1.881   2.992   9.629  0.6145 -0.4809  0.0055
 7394SOL     OW33643   4.342   3.064  11.350 -0.5215 -0.0281 -0.2747
 7394SOL    HW133644   4.416   3.012  11.317  0.7490  2.1680 -0.8712
 7394SOL    HW233645   4.284   2.989  11.356 -1.7895  0.8348 -1.8274
 7395SOL     OW33646   0.589   4.543   5.452  0.1980 -0.4384  0.0170
 7395SOL    HW133647   0.570   4.459   5.492 -1.2404 -0.3934 -0.5841
 7395SOL    HW233648   0.608   4.604   5.523  0.7555 -0.5584 -0.0276
 7396SOL     OW33649   3.844   1.097   9.318  0.5655 -0.3415 -0.2370
 7396SOL    HW133650   3.864   1.010   9.353  0.6344 -0.8251 -1.4686
 7396SOL    HW233651   3.920   1.150   9.343 -1.1843  1.9403  0.1704
 7397SOL     OW33652   4.276   2.775   8.056 -0.5629  0.2500  0.1843
 7397SOL    HW133653   4.297   2.866   8.034 -0.7495  0.7372  2.0042
 7397SOL    HW233654   4.354   2.744   8.101 -1.7941 -0.9768  1.4890
 7398SOL     OW33655   2.674   0.551   8.687 -0.1731  0.0371  0.0590
 7398SOL    HW133656   2.735   0.540   8.614  0.0910 -1.6498  0.5457
 7398SOL    HW233657   2.598   0.582   8.638  0.8413  1.4226 -0.6214
 7399SOL     OW33658   1.882   4.538   6.796 -0.0235  0.3085 -0.0720
 7399SOL    HW133659   1.884   4.532   6.700  0.0453 -0.7445  0.0011
 7399SOL    HW233660   1.929   4.622   6.799 -0.5172  0.5305  1.0293
 7400SOL     OW33661   0.185   2.022   1.769 -0.3292 -0.1880 -0.1490
 7400SOL    HW133662   0.237   2.053   1.695  1.4986 -1.2971  0.6549
 7400SOL    HW233663   0.150   1.937   1.741  0.1319  0.5758 -3.0428
 7401SOL     OW33664   1.064   0.294   0.346 -0.1179  0.4697  0.2212
 7401SOL    HW133665   1.109   0.266   0.426 -0.9326  0.4608  0.6774
 7401SOL    HW233666   0.993   0.355   0.368 -1.3717 -0.1980 -1.9172
 7402SOL     OW33667   2.342   3.137   3.803  0.2947  0.4157  0.0667
 7402SOL    HW133668   2.385   3.055   3.778 -1.9564 -1.2347  1.6050
 7402SOL    HW233669   2.371   3.199   3.736  1.4420 -0.6661 -0.4249
 7403SOL     OW33670   3.324   0.798   2.626  0.1930  0.0569  0.0150
 7403SOL    HW133671   3.244   0.764   2.586  0.1358  0.0136  0.1654
 7403SOL    HW233672   3.283   0.865   2.680 -3.9717 -2.9328  0.5286
 7404SOL     OW33673   1.403   2.124  11.654  0.3008 -0.0824  0.2753
 7404SOL    HW133674   1.470   2.057  11.639 -0.4214 -0.8732  0.6038
 7404SOL    HW233675   1.373   2.099  11.742  0.7629 -1.3382  0.0853
 7405SOL     OW33676   0.258   1.057  13.167  0.1768  0.4051 -0.2186
 7405SOL    HW133677   0.264   1.096  13.254 -0.5150 -1.1438  0.5284
 7405SOL    HW233678   0.291   0.968  13.170  2.1966  1.2034  0.8020
 7406SOL     OW33679   3.307   4.502  14.039  0.1741  0.3555 -0.1212
 7406SOL    HW133680   3.332   4.581  13.992  0.1602  1.3868  1.6225
 7406SOL    HW233681   3.386   4.448  14.041  0.8665  1.4844  2.2307
 7407SOL     OW33682   0.302   0.777  10.290 -0.2305 -0.1139 -0.3379
 7407SOL    HW133683   0.282   0.836  10.364  0.3022 -1.0601  0.5566
 7407SOL    HW233684   0.303   0.838  10.216 -2.3061  0.9464  0.4950
 7408SOL     OW33685   0.203   2.609   7.353 -0.4486 -0.1270  0.6936
 7408SOL    HW133686   0.277   2.666   7.335  0.3806 -1.4317  0.0021
 7408SOL    HW233687   0.173   2.667   7.423  0.7584 -0.7518  1.7124
 7409SOL     OW33688   0.943   4.677   2.142 -0.1852 -0.8971 -0.5162
 7409SOL    HW133689   1.006   4.613   2.173 -0.3587 -1.7725 -1.9376
 7409SOL    HW233690   0.916   4.639   2.058  0.9416 -1.6150 -0.5487
 7410SOL     OW33691   3.851   1.209   7.871 -0.1074  0.4702 -0.2072
 7410SOL    HW133692   3.810   1.230   7.955  2.2934  0.2948  0.9993
 7410SOL    HW233693   3.862   1.115   7.882  3.2043  0.6806 -1.5756
 7411SOL     OW33694   4.206   3.066  12.394  0.2718 -0.4803 -0.5850
 7411SOL    HW133695   4.213   3.056  12.299 -4.1931  0.8634 -1.0751
 7411SOL    HW233696   4.296   3.046  12.421  0.1816  0.8127  0.6170
 7412SOL     OW33697   2.276   1.325  10.003 -0.7545  0.4511 -0.3898
 7412SOL    HW133698   2.221   1.322   9.925 -3.7266  2.4978  1.6200
 7412SOL    HW233699   2.325   1.406   9.991  0.8368 -0.1440  1.9456
 7413SOL     OW33700   0.260   4.459   2.987  0.2323 -0.4315  0.1425
 7413SOL    HW133701   0.176   4.503   2.970  1.0718  0.8038 -0.7345
 7413SOL    HW233702   0.281   4.446   2.895 -0.8133 -1.7149  0.0780
 7414SOL     OW33703   1.616   0.888   9.279 -0.1438 -0.1258 -0.4725
 7414SOL    HW133704   1.608   0.812   9.336 -1.7045 -0.1200 -0.6817
 7414SOL    HW233705   1.544   0.937   9.319  0.0504  0.0511 -0.3374
 7415SOL     OW33706   2.221   1.050  10.680 -0.2547 -0.6834 -0.3858
 7415SOL    HW133707   2.143   1.080  10.725  0.9129  0.7667  0.6774
 7415SOL    HW233708   2.279   1.126  10.689  0.0080 -0.8529 -0.6296
 7416SOL     OW33709   2.251   1.226   3.124  0.1111 -0.1490  0.0262
 7416SOL    HW133710   2.276   1.134   3.118 -0.0635 -0.2954  1.3407
 7416SOL    HW233711   2.156   1.218   3.123  0.2316 -1.3645 -1.3019
 7417SOL     OW33712   4.242   0.265  11.670  0.2735 -0.4746 -0.1702
 7417SOL    HW133713   4.233   0.347  11.718 -0.8893  0.3190 -1.6995
 7417SOL    HW233714   4.261   0.205  11.742 -2.2524  0.7034  1.4881
 7418SOL     OW33715   3.560   4.142   6.889 -0.1416 -0.3794  0.3749
 7418SOL    HW133716   3.580   4.156   6.796 -0.2556 -0.6646  0.3092
 7418SOL    HW233717   3.638   4.184   6.925  0.7739 -0.6313 -1.3148
 7419SOL     OW33718   3.600   3.884  11.357  0.3315 -0.6609  0.6060
 7419SOL    HW133719   3.653   3.949  11.403 -0.8641  1.1849 -0.6801
 7419SOL    HW233720   3.668   3.817  11.351  1.9419  1.2514 -2.2818
 7420SOL     OW33721   4.663   1.818   3.276  0.1935 -0.0469 -0.4457
 7420SOL    HW133722   4.614   1.760   3.218 -1.0669 -0.4148  0.9814
 7420SOL    HW233723   4.659   1.902   3.230 -0.5090 -0.0130 -0.3300
 7421SOL     OW33724   0.339   2.993   6.487  0.0008 -0.1415 -0.4318
 7421SOL    HW133725   0.343   2.985   6.392  0.5826 -0.4492 -0.3871
 7421SOL    HW233726   0.410   3.056   6.501 -2.0781  2.2608 -0.8260
 7422SOL     OW33727   1.453   0.596   8.125  0.0253  0.6514 -0.5384
 7422SOL    HW133728   1.464   0.605   8.031  1.2746 -2.5053 -0.7077
 7422SOL    HW233729   1.363   0.564   8.117  0.5709 -1.3364  1.1552
 7423SOL     OW33730   1.418   3.092  17.398 -0.4595  0.2358 -0.2682
 7423SOL    HW133731   1.345   3.059  17.450  1.3401  0.4758  2.4157
 7423SOL    HW233732   1.461   3.153  17.458  1.3354  0.1673 -1.4558
 7424SOL     OW33733   4.451   1.607  11.334  0.1380 -0.0879  0.8537
 7424SOL    HW133734   4.498   1.534  11.294 -1.1174 -0.8612  0.7852
 7424SOL    HW233735   4.447   1.577  11.425 -0.0548 -2.0485  0.2002
 7425SOL     OW33736   2.168   2.428  15.772 -0.3842 -0.4468  0.5326
 7425SOL    HW133737   2.201   2.477  15.847 -1.8815  0.6813  0.4482
 7425SOL    HW233738   2.197   2.485  15.701 -0.1390  0.0985  1.0702
 7426SOL     OW33739   1.874   4.636  16.206 -0.2000  0.3758  0.0230
 7426SOL    HW133740   1.845   4.546  16.195  0.8536  0.0865 -0.3940
 7426SOL    HW233741   1.792   4.679  16.231 -0.6473  0.8009 -2.1453
 7427SOL     OW33742   1.959   1.373  14.851  0.5249  0.0470  0.3967
 7427SOL    HW133743   2.027   1.436  14.827  0.0353  0.0141 -1.0777
 7427SOL    HW233744   2.002   1.300  14.895  0.5215 -1.0191 -1.4002
 7428SOL     OW33745   2.973   3.158  12.460  0.3598  0.0345  0.2041
 7428SOL    HW133746   2.890   3.146  12.505  1.5766  0.9644  2.7220
 7428SOL    HW233747   2.988   3.252  12.471 -0.8146  0.7529 -4.2367
 7429SOL     OW33748   2.696   4.296   2.337 -0.3860 -0.3642 -0.1401
 7429SOL    HW133749   2.689   4.290   2.242 -0.5901  2.0748 -0.2817
 7429SOL    HW233750   2.773   4.244   2.358  0.0799  0.0085 -0.9575
 7430SOL     OW33751   2.576   4.234   9.866 -0.1650  0.2597  0.1458
 7430SOL    HW133752   2.670   4.231   9.887  0.0794 -0.8422 -1.0630
 7430SOL    HW233753   2.583   4.195   9.779  1.0848  0.7002  0.0386
 7431SOL     OW33754   2.003   0.452  13.214 -0.2654  0.4466  0.2593
 7431SOL    HW133755   1.953   0.374  13.192  0.9167 -0.1292 -0.4170
 7431SOL    HW233756   2.037   0.421  13.297 -0.0329  3.4699  1.3115
 7432SOL     OW33757   3.644   1.911   9.158 -0.7057  0.5731 -0.1624
 7432SOL    HW133758   3.701   1.843   9.121  0.7740  2.4454 -1.3338
 7432SOL    HW233759   3.663   1.981   9.095  2.3021 -0.0481  0.0379
 7433SOL     OW33760   3.536   2.913   4.220 -0.1024  0.5954  0.5889
 7433SOL    HW133761   3.572   2.921   4.131 -0.2507 -1.9340  0.3211
 7433SOL    HW233762   3.611   2.909   4.280 -0.6106 -0.2299  1.1489
 7434SOL     OW33763   1.903   4.511   9.264 -0.3241  0.0340  0.0185
 7434SOL    HW133764   1.905   4.439   9.327 -0.3682 -0.1406 -0.1821
 7434SOL    HW233765   1.954   4.468   9.196  1.9944 -0.4886  2.0791
 7435SOL     OW33766   4.226   2.532   8.226  0.0913 -0.1876  0.3475
 7435SOL    HW133767   4.246   2.584   8.148  0.0464 -0.9840 -0.1887
 7435SOL    HW233768   4.131   2.542   8.221  0.2150  0.5652 -0.5707
 7436SOL     OW33769   2.506   0.208  10.155  0.6174  0.6043  0.0656
 7436SOL    HW133770   2.575   0.243  10.099  1.2750 -3.3827 -1.6403
 7436SOL    HW233771   2.543   0.202  10.243  0.8638  1.6893  0.0306
 7437SOL     OW33772   4.415   4.526   3.296 -0.1973 -0.6794 -0.1148
 7437SOL    HW133773   4.461   4.586   3.355 -1.3793 -0.6851  0.7959
 7437SOL    HW233774   4.423   4.575   3.214  1.9432  0.9199  1.0254
 7438SOL     OW33775   1.485   2.291   7.538 -0.1017  0.4525  0.1082
 7438SOL    HW133776   1.523   2.372   7.571  2.8758 -1.2499  0.8623
 7438SOL    HW233777   1.558   2.243   7.499 -1.1965  0.6844 -2.2129
 7439SOL     OW33778   3.688   4.221  13.796 -0.2742  0.7846  0.6167
 7439SOL    HW133779   3.748   4.279  13.748 -2.5659  1.8105 -1.0017
 7439SOL    HW233780   3.606   4.242  13.751  0.5579 -0.0867 -1.2842
 7440SOL     OW33781   4.162   4.058   8.339  0.0569  0.2495 -0.3663
 7440SOL    HW133782   4.108   3.979   8.331 -2.1132  1.5800  1.0605
 7440SOL    HW233783   4.184   4.063   8.245  0.2842 -1.5348 -0.3950
 7441SOL     OW33784   0.083   2.723   2.956  0.8304  0.2724 -0.0954
 7441SOL    HW133785   4.719   2.766   2.949  0.0991 -1.3718 -1.4498
 7441SOL    HW233786   0.096   2.731   3.050 -1.1399  1.3418  0.0928
 7442SOL     OW33787   1.521   0.088   6.637 -0.2809 -0.2938  0.3877
 7442SOL    HW133788   1.559   0.171   6.608 -0.2629 -0.2273  0.6056
 7442SOL    HW233789   1.443   0.127   6.676 -1.1011 -1.0064 -0.5107
 7443SOL     OW33790   1.444   1.527   7.035 -0.4390 -0.2535  0.0449
 7443SOL    HW133791   1.423   1.606   6.986  2.3305  0.4687  0.0210
 7443SOL    HW233792   1.482   1.566   7.114 -0.7598  3.1933 -1.5339
 7444SOL     OW33793   4.023   1.890   7.809  0.0173  0.0414  0.2574
 7444SOL    HW133794   3.971   1.960   7.769 -0.1526  1.3200  2.7084
 7444SOL    HW233795   4.068   1.931   7.882 -0.6818  0.9109  0.2019
 7445SOL     OW33796   2.454   3.884   2.474 -0.7263  0.0884 -0.9700
 7445SOL    HW133797   2.448   3.941   2.397  1.8711  1.0701 -0.4281
 7445SOL    HW233798   2.548   3.871   2.482 -0.6542  1.6366  0.5415
 7446SOL     OW33799   3.731   4.195   0.691  0.0826 -0.1065 -0.9872
 7446SOL    HW133800   3.717   4.254   0.617  0.1050 -0.7661 -1.5192
 7446SOL    HW233801   3.668   4.126   0.667  0.6619 -1.6096  1.7589
 7447SOL     OW33802   4.166   3.310   8.154 -0.2644  0.2017 -0.4271
 7447SOL    HW133803   4.200   3.397   8.137  0.2654  0.3403  1.3352
 7447SOL    HW233804   4.096   3.321   8.219 -0.5055 -2.9407 -0.1512
 7448SOL     OW33805   3.409   3.837   8.172  0.0376  0.0273  0.0241
 7448SOL    HW133806   3.359   3.913   8.143  1.9037  1.2215 -0.0194
 7448SOL    HW233807   3.342   3.771   8.193  0.6370 -0.6887 -0.3017
 7449SOL     OW33808   0.570   1.297   2.356 -0.2324  0.6054  0.0603
 7449SOL    HW133809   0.616   1.335   2.431  2.2720 -0.9993 -0.6683
 7449SOL    HW233810   0.632   1.310   2.284  0.2134  1.7013  0.6431
 7450SOL     OW33811   0.421   3.437   7.488 -0.5254 -0.2951 -0.6175
 7450SOL    HW133812   0.484   3.508   7.488  0.4706 -1.1776 -1.4016
 7450SOL    HW233813   0.406   3.435   7.583 -0.9160  0.7207 -0.6616
 7451SOL     OW33814   2.915   3.736   2.739 -0.4924 -0.3470  0.6802
 7451SOL    HW133815   2.966   3.799   2.789 -0.7060 -1.3100  2.0968
 7451SOL    HW233816   2.965   3.656   2.759 -1.8403 -1.5736 -0.8224
 7452SOL     OW33817   1.048   1.588   5.054 -0.0672 -0.2582  0.5165
 7452SOL    HW133818   1.050   1.509   5.000 -0.6760  0.5532 -0.6849
 7452SOL    HW233819   1.041   1.656   4.987  2.7418 -0.5981 -0.1296
 7453SOL     OW33820   3.348   1.655  13.212  0.2781 -0.1734 -0.4642
 7453SOL    HW133821   3.422   1.691  13.261 -0.4662 -0.8562  1.1731
 7453SOL    HW233822   3.328   1.722  13.147 -2.5652  1.1556  1.7588
 7454SOL     OW33823   3.077   4.682   2.433 -0.0220  0.0232 -0.2894
 7454SOL    HW133824   3.007   4.657   2.373 -0.3820  1.2185 -0.3720
 7454SOL    HW233825   3.145   4.699   2.368  0.5769  0.3117  0.4275
 7455SOL     OW33826   0.795   0.674   2.655 -0.2561 -0.4104  0.2998
 7455SOL    HW133827   0.718   0.617   2.657 -0.8334  0.4416  2.7387
 7455SOL    HW233828   0.773   0.738   2.587 -3.6569 -1.4810  0.3747
 7456SOL     OW33829   1.893   3.571  12.471 -0.3420 -0.2021  0.3953
 7456SOL    HW133830   1.824   3.533  12.417 -1.1237 -1.4584  2.2779
 7456SOL    HW233831   1.840   3.618  12.535 -0.2632 -0.2885  0.5237
 7457SOL     OW33832   3.241   0.186   4.453  0.2908  0.2249 -0.0201
 7457SOL    HW133833   3.291   0.197   4.534 -0.9930 -1.5367  1.0165
 7457SOL    HW233834   3.214   0.097   4.476 -0.4408  0.7045  0.9838
 7458SOL     OW33835   1.346   0.901  12.483 -0.5512 -0.0540 -0.0870
 7458SOL    HW133836   1.345   0.942  12.396 -3.0123  0.3236  0.1048
 7458SOL    HW233837   1.425   0.939  12.523 -0.9354  1.0939 -0.4164
 7459SOL     OW33838   2.601   1.596   7.361  0.3894 -0.1725 -0.6820
 7459SOL    HW133839   2.550   1.647   7.298 -0.0226  0.8152  0.4467
 7459SOL    HW233840   2.600   1.668   7.423  1.2529 -3.4409  3.1036
 7460SOL     OW33841   4.277   1.149  17.323  0.0268 -0.2284  0.0899
 7460SOL    HW133842   4.315   1.092  17.390 -1.6289 -1.1627  0.2363
 7460SOL    HW233843   4.200   1.169  17.376 -0.6489  2.7905 -2.0447
 7461SOL     OW33844   3.888   0.844   4.738  0.1487  0.7905  0.2446
 7461SOL    HW133845   3.914   0.881   4.822  0.7521  2.0571 -0.5090
 7461SOL    HW233846   3.924   0.904   4.673  1.1814 -1.9634 -1.7129
 7462SOL     OW33847   1.976   3.072  12.653 -0.0812 -0.0691 -0.1846
 7462SOL    HW133848   1.923   3.008  12.605 -2.1072  2.3496 -1.2099
 7462SOL    HW233849   2.021   3.121  12.584  0.3166  2.4286  1.8570
 7463SOL     OW33850   0.546   1.620  11.626  0.1875 -0.4130 -0.4463
 7463SOL    HW133851   0.532   1.624  11.532 -0.2583  1.8653 -0.2819
 7463SOL    HW233852   0.522   1.709  11.652 -1.1624 -1.1299  0.7583
 7464SOL     OW33853   4.250   4.435   5.798  0.7154 -0.2876 -0.2881
 7464SOL    HW133854   4.262   4.493   5.874  0.3066 -0.6026  0.0173
 7464SOL    HW233855   4.335   4.456   5.759  1.3675 -0.3868  1.0537
 7465SOL     OW33856   1.649   4.119   3.053 -0.1154 -0.1590  0.3381
 7465SOL    HW133857   1.695   4.036   3.067  2.3499  1.1709  0.1902
 7465SOL    HW233858   1.632   4.104   2.960 -0.2998  0.8291  0.2171
 7466SOL     OW33859   0.993   2.140  11.006  0.1141  0.1806 -0.2714
 7466SOL    HW133860   0.900   2.164  11.002  0.0066 -0.4752 -1.9151
 7466SOL    HW233861   0.986   2.059  11.057 -0.4473 -0.3426 -1.1740
 7467SOL     OW33862   1.714   4.013   5.105  0.3022  0.2573 -0.1168
 7467SOL    HW133863   1.740   4.007   5.013 -1.4823 -2.6966 -0.4347
 7467SOL    HW233864   1.675   4.100   5.109  1.7006  0.8655 -0.0705
 7468SOL     OW33865   0.335   2.802  11.082  0.0294 -0.4846  0.2845
 7468SOL    HW133866   0.296   2.718  11.108  0.0891 -1.1284 -1.6895
 7468SOL    HW233867   0.401   2.772  11.020  0.2083  2.1120 -0.8051
 7469SOL     OW33868   2.837   4.252   3.307  0.2465  0.7100  0.3664
 7469SOL    HW133869   2.900   4.317   3.338  0.5629  0.7248 -0.3100
 7469SOL    HW233870   2.813   4.282   3.220 -1.9856  0.3403  0.8615
 7470SOL     OW33871   4.551   3.996   9.103 -0.1605  0.8107  0.0629
 7470SOL    HW133872   4.604   3.950   9.168  1.7187  0.8715 -1.4418
 7470SOL    HW233873   4.468   3.999   9.152 -0.9097  2.7582 -1.3450
 7471SOL     OW33874   2.919   4.327   1.874  0.1268 -0.3575 -0.0278
 7471SOL    HW133875   2.871   4.248   1.897  0.7340 -0.9092 -0.6784
 7471SOL    HW233876   2.862   4.397   1.908  2.0447  1.7885 -1.2612
 7472SOL     OW33877   2.727   1.605   8.634  0.4102 -0.5103  0.1825
 7472SOL    HW133878   2.721   1.524   8.584 -1.1154 -0.2249 -0.1027
 7472SOL    HW233879   2.662   1.653   8.584  1.7615 -0.2396 -1.3248
 7473SOL     OW33880   0.172   4.110  12.504  0.2235  0.0479 -0.6859
 7473SOL    HW133881   0.262   4.117  12.473  0.3511  1.1537 -0.0431
 7473SOL    HW233882   0.130   4.075  12.425  0.5278 -1.0251 -0.3633
 7474SOL     OW33883   3.947   3.415   5.409 -0.4012 -0.1862 -0.8322
 7474SOL    HW133884   4.038   3.435   5.388 -1.1255  1.9881 -1.9151
 7474SOL    HW233885   3.950   3.323   5.383 -2.4215 -1.1438  2.3107
 7475SOL     OW33886   0.712   2.017   5.217 -0.0946  0.2692 -0.2209
 7475SOL    HW133887   0.704   2.099   5.266 -2.2982 -0.8315  1.2443
 7475SOL    HW233888   0.804   1.994   5.229  0.0114  0.2770 -1.0081
 7476SOL     OW33889   4.356   2.309   4.546 -0.1344 -0.2448  0.6354
 7476SOL    HW133890   4.319   2.257   4.474  1.1836 -0.1165 -0.1450
 7476SOL    HW233891   4.438   2.342   4.507 -0.8221  1.0024  0.2602
 7477SOL     OW33892   4.297   2.237   8.285  0.5104 -0.2070 -0.2488
 7477SOL    HW133893   4.335   2.249   8.198  0.4979 -2.0048 -0.5015
 7477SOL    HW233894   4.309   2.144   8.302  0.1901 -0.4937 -1.6326
 7478SOL     OW33895   3.666   4.678   2.908  0.1783 -0.2530 -0.1466
 7478SOL    HW133896   3.653   0.021   2.838 -0.6512  0.4454  0.6397
 7478SOL    HW233897   3.579   4.686   2.948  0.5048 -0.4962  0.6226
 7479SOL     OW33898   3.923   0.233  17.135  0.4116 -0.1973 -0.5015
 7479SOL    HW133899   3.864   0.288  17.083  0.3219  0.7513  0.6031
 7479SOL    HW233900   3.938   0.180  17.057  1.2807 -0.1157 -0.3833
 7480SOL     OW33901   2.623   0.345  13.265  0.0391  0.1148  0.3811
 7480SOL    HW133902   2.643   0.300  13.347 -1.2849 -0.4985  0.3616
 7480SOL    HW233903   2.548   0.296  13.234 -1.2432  1.7691  0.8604
 7481SOL     OW33904   3.613   4.113   2.063  0.0880 -0.1350  0.8016
 7481SOL    HW133905   3.547   4.100   2.131 -0.4649  1.2185  0.5321
 7481SOL    HW233906   3.629   4.206   2.079  0.0663  0.1718 -0.9742
 7482SOL     OW33907   0.742   4.081   8.749  1.1827 -0.1325 -0.4582
 7482SOL    HW133908   0.738   4.139   8.825 -0.9210  1.0643 -1.4870
 7482SOL    HW233909   0.837   4.071   8.741  1.4009  2.2283 -0.7466
 7483SOL     OW33910   3.157   2.353  10.721 -0.1464 -0.1744 -0.0949
 7483SOL    HW133911   3.155   2.269  10.673  1.2102  1.1875 -2.5211
 7483SOL    HW233912   3.067   2.371  10.749  0.4996 -0.2099  1.9655
 7484SOL     OW33913   3.914   0.538   5.132  0.1773 -0.5756  0.1312
 7484SOL    HW133914   3.931   0.560   5.040  1.5876 -0.4135  0.4335
 7484SOL    HW233915   3.927   0.444   5.145  0.6679 -0.5753 -0.3743
 7485SOL     OW33916   4.270   1.564   5.656  0.4325 -0.1796  0.7450
 7485SOL    HW133917   4.228   1.603   5.732  1.0903  1.2952  0.3541
 7485SOL    HW233918   4.258   1.631   5.588 -2.7724 -0.3134  1.1992
 7486SOL     OW33919   1.662   2.649   2.061  0.7560 -0.1799 -0.4070
 7486SOL    HW133920   1.614   2.666   2.142  0.6470 -0.2219 -0.4626
 7486SOL    HW233921   1.724   2.583   2.091  1.1328  0.0409 -0.7036
 7487SOL     OW33922   2.112   3.815   6.639  0.5660 -0.7523 -0.4028
 7487SOL    HW133923   2.166   3.856   6.707 -1.4229  2.5420 -0.7949
 7487SOL    HW233924   2.043   3.770   6.688  0.4304  0.5153  0.5843
 7488SOL     OW33925   1.545   4.554   6.734  0.2008  0.4095 -0.4946
 7488SOL    HW133926   1.534   4.648   6.721  2.0675  0.5409 -1.2366
 7488SOL    HW233927   1.455   4.522   6.731  0.9345 -1.3533 -2.9042
 7489SOL     OW33928   2.488   3.692  11.677 -0.4686 -0.3480  0.1766
 7489SOL    HW133929   2.399   3.697  11.641 -1.3693  1.0865  2.6121
 7489SOL    HW233930   2.537   3.750  11.618  1.5287  0.7367  2.9417
 7490SOL     OW33931   2.798   2.844  17.357 -0.2892 -0.0990 -0.0507
 7490SOL    HW133932   2.721   2.887  17.320 -0.4996  0.2662  0.8255
 7490SOL    HW233933   2.762   2.833  17.445 -0.0360  1.4158  0.2430
 7491SOL     OW33934   0.704   0.670  16.719 -0.0909 -0.2335  0.1406
 7491SOL    HW133935   0.752   0.712  16.648 -0.7250  0.6803  0.2483
 7491SOL    HW233936   0.723   0.577  16.706 -3.2204 -1.1289  1.9996
 7492SOL     OW33937   0.539   0.170   0.869 -0.0470 -0.5666  0.0583
 7492SOL    HW133938   0.495   0.119   0.800 -1.4592 -1.1712  1.4073
 7492SOL    HW233939   0.465   0.187   0.927  1.2116 -0.0453  1.4760
 7493SOL     OW33940   2.901   3.109   2.066 -0.8857  0.0091 -0.2874
 7493SOL    HW133941   2.824   3.127   2.012 -0.9647 -0.3958 -0.3104
 7493SOL    HW233942   2.915   3.016   2.052  2.0316  0.2331  1.0946
 7494SOL     OW33943   4.704   3.156   9.146  0.0067  0.2057 -0.3600
 7494SOL    HW133944   0.053   3.205   9.103  0.8804  1.2208  2.2486
 7494SOL    HW233945   0.029   3.142   9.228 -0.1849  1.0201 -0.1137
 7495SOL     OW33946   1.345   1.015  12.208  0.1516 -0.2448 -0.8302
 7495SOL    HW133947   1.349   0.972  12.123 -4.0439 -2.3509  0.0136
 7495SOL    HW233948   1.289   1.089  12.182  2.3492  0.2817 -4.0450
 7496SOL     OW33949   0.959   0.091   1.870 -0.8212  0.9364  0.1554
 7496SOL    HW133950   0.866   0.114   1.860 -1.0369  0.0419  0.0257
 7496SOL    HW233951   0.961   0.001   1.836  0.1737  1.8159 -2.1354
 7497SOL     OW33952   1.824   4.059   0.602 -0.2774  0.1366 -0.0890
 7497SOL    HW133953   1.810   4.120   0.530 -1.3156 -1.9079 -1.6210
 7497SOL    HW233954   1.772   4.099   0.671 -1.9576 -0.8058 -0.8027
 7498SOL     OW33955   0.632   3.505   6.709  0.0566  0.1557 -0.2745
 7498SOL    HW133956   0.672   3.592   6.701  0.2950  0.2222  1.7160
 7498SOL    HW233957   0.578   3.521   6.632 -0.2079 -0.4743 -0.2200
 7499SOL     OW33958   3.437   1.630   1.738  0.5137 -0.0474  0.0578
 7499SOL    HW133959   3.453   1.548   1.785 -0.9678  0.5402  1.6222
 7499SOL    HW233960   3.394   1.692   1.798  1.0803  1.4223 -1.0499
 7500SOL     OW33961   3.565   1.833   5.359  0.1692  0.5183 -0.5798
 7500SOL    HW133962   3.501   1.903   5.369  1.1305  1.1264  1.1240
 7500SOL    HW233963   3.514   1.754   5.376 -0.3350  0.9057 -0.3097
 7501SOL     OW33964   0.606   2.513   0.246  0.4017 -0.0837  0.6787
 7501SOL    HW133965   0.660   2.592   0.250  0.9457 -0.4433  0.3921
 7501SOL    HW233966   0.630   2.456   0.320  1.5033  1.0119  1.1687
 7502SOL     OW33967   2.148   3.634   2.307  0.1878 -0.2689  0.0849
 7502SOL    HW133968   2.164   3.723   2.338  1.6969 -1.0637  1.6078
 7502SOL    HW233969   2.076   3.652   2.247  1.3178 -2.1124 -1.8349
 7503SOL     OW33970   3.229   2.352  14.999 -0.8546  0.3962 -0.2807
 7503SOL    HW133971   3.136   2.329  15.005 -0.5117 -1.1375 -0.9089
 7503SOL    HW233972   3.259   2.357  15.090  0.5400  0.1280 -0.7407
 7504SOL     OW33973   1.272   0.965   4.342  0.7012  0.4009 -0.1777
 7504SOL    HW133974   1.239   0.909   4.412 -2.1494  0.0642 -1.7921
 7504SOL    HW233975   1.198   0.962   4.281  2.6077  0.2505 -2.4605
 7505SOL     OW33976   1.540   0.129   5.410  0.1016 -0.5221  0.3182
 7505SOL    HW133977   1.632   0.130   5.436  0.2393 -2.9973 -0.0690
 7505SOL    HW233978   1.542   0.163   5.321  0.2713  0.1342  0.5668
 7506SOL     OW33979   4.294   4.563   6.026  0.1543 -0.7027 -0.0705
 7506SOL    HW133980   4.329   4.541   6.113  1.1055 -0.0493 -0.2940
 7506SOL    HW233981   4.330   4.651   6.015  0.4727 -0.8628 -0.3244
 7507SOL     OW33982   1.326   3.224  13.821  0.5001  0.3207 -0.0368
 7507SOL    HW133983   1.365   3.186  13.743 -0.8330 -0.8903 -0.1030
 7507SOL    HW233984   1.398   3.226  13.885  1.2511  0.2436 -0.8839
 7508SOL     OW33985   3.704   2.603   4.057  0.3199 -0.1437 -0.6833
 7508SOL    HW133986   3.694   2.529   3.997  0.8526  0.1458 -1.1209
 7508SOL    HW233987   3.663   2.572   4.138 -0.5447  0.3885 -0.9183
 7509SOL     OW33988   4.264   1.198   4.423  0.0271  0.3013 -0.8718
 7509SOL    HW133989   4.351   1.238   4.429  0.7980 -1.2313 -1.8986
 7509SOL    HW233990   4.213   1.276   4.399 -4.2804 -2.5291 -0.9628
 7510SOL     OW33991   3.290   2.139   7.310 -0.6570 -0.0816 -0.1482
 7510SOL    HW133992   3.294   2.094   7.394 -0.4150  1.6247  0.7601
 7510SOL    HW233993   3.278   2.059   7.259  1.0983 -0.5367  0.1253
 7511SOL     OW33994   3.196   2.719   6.910 -0.0834  0.5495  0.0237
 7511SOL    HW133995   3.116   2.742   6.958  0.3845  0.3170  0.8983
 7511SOL    HW233996   3.210   2.637   6.956 -1.8795  0.6356  0.7390
 7512SOL     OW33997   0.482   0.245   1.772  0.8524 -0.1741  0.3901
 7512SOL    HW133998   0.481   0.296   1.690  0.1225  0.5456  0.8375
 7512SOL    HW233999   0.428   0.168   1.755  0.4629  0.1267  0.2556
 7513SOL     OW34000   3.952   4.671  12.789  0.3236  0.3806 -0.0131
 7513SOL    HW134001   3.973   4.578  12.790  0.5976  0.4622  1.6638
 7513SOL    HW234002   4.041   4.699  12.771  1.4111 -1.6061  2.3012
 7514SOL     OW34003   4.151   0.288  13.772  0.0643  0.0410 -0.4990
 7514SOL    HW134004   4.109   0.238  13.702 -1.1428 -0.3997  0.5372
 7514SOL    HW234005   4.162   0.378  13.741 -0.2577  0.6008  0.9946
 7515SOL     OW34006   3.120   2.998  15.859 -0.2152  0.1193 -0.0105
 7515SOL    HW134007   3.051   3.023  15.920 -0.5707 -0.3697 -0.2144
 7515SOL    HW234008   3.063   2.962  15.790  0.0353  0.4137 -0.3710
 7516SOL     OW34009   2.861   0.223   4.786 -0.3990  0.4102 -0.0376
 7516SOL    HW134010   2.806   0.275   4.845 -1.9357 -0.2491 -0.8730
 7516SOL    HW234011   2.950   0.249   4.807 -0.1475 -1.1782  0.8637
 7517SOL     OW34012   0.279   2.693   1.398  0.2118 -0.2912  0.0430
 7517SOL    HW134013   0.261   2.714   1.306  0.0106 -2.3894 -0.3944
 7517SOL    HW234014   0.192   2.707   1.433 -0.8824 -0.8076 -2.4531
 7518SOL     OW34015   4.353   3.995   8.898 -0.1517  0.1888  0.1514
 7518SOL    HW134016   4.277   4.052   8.901  0.2361  0.6151  1.5525
 7518SOL    HW234017   4.421   4.050   8.937  1.9218 -2.4815  0.3586
 7519SOL     OW34018   3.373   3.962   4.910 -0.0379 -0.1361  0.1549
 7519SOL    HW134019   3.347   3.886   4.963 -0.2330 -0.0840  0.1339
 7519SOL    HW234020   3.352   4.036   4.967 -2.7096 -1.2708  0.6401
 7520SOL     OW34021   3.154   3.785   0.547  0.4996  0.9980  0.5626
 7520SOL    HW134022   3.148   3.787   0.642  0.3627 -1.6601  0.5999
 7520SOL    HW234023   3.218   3.715   0.537  0.1223  0.8055 -0.6185
 7521SOL     OW34024   1.231   3.082   4.919 -0.1473 -0.3705  0.6100
 7521SOL    HW134025   1.210   3.045   4.833 -2.3050  2.5136 -0.1320
 7521SOL    HW234026   1.147   3.124   4.940  1.0339  0.8861  2.8225
 7522SOL     OW34027   1.683   1.105   9.631 -0.5624  0.3142 -0.1338
 7522SOL    HW134028   1.615   1.170   9.651 -0.4001  0.6728 -0.7497
 7522SOL    HW234029   1.632   1.025   9.619  0.2963 -0.3599  0.6510
 7523SOL     OW34030   4.040   1.652   4.759  0.1734  0.2269 -0.5656
 7523SOL    HW134031   4.032   1.701   4.841 -0.5250  0.3686 -0.7148
 7523SOL    HW234032   4.123   1.609   4.781 -1.3556 -0.0307  4.5567
 7524SOL     OW34033   0.545   0.795   8.403  0.7319  0.4875  0.4308
 7524SOL    HW134034   0.529   0.889   8.399 -0.4483  0.3689  2.5374
 7524SOL    HW234035   0.555   0.779   8.309 -1.5662 -1.9175  0.5721
 7525SOL     OW34036   3.350   4.186   7.378  0.3420  0.0881 -0.6444
 7525SOL    HW134037   3.277   4.212   7.322 -0.5288 -0.1265  0.3901
 7525SOL    HW234038   3.331   4.092   7.376 -1.2904  0.4036 -0.3353
 7526SOL     OW34039   2.441   1.934  11.560 -0.6358 -0.0475  0.3236
 7526SOL    HW134040   2.430   1.982  11.642  0.5990  0.2059  0.3385
 7526SOL    HW234041   2.536   1.937  11.549 -0.6122 -1.4800  0.1228
 7527SOL     OW34042   1.973   3.122  14.722  0.0992  0.0877 -0.5255
 7527SOL    HW134043   1.936   3.073  14.796  0.8921  0.8623  0.3704
 7527SOL    HW234044   1.939   3.071  14.648  3.2036 -1.4446 -0.8991
 7528SOL     OW34045   1.289   1.756  10.172 -0.2904 -0.1449 -0.4900
 7528SOL    HW134046   1.265   1.684  10.231 -1.0645 -1.0518 -1.9321
 7528SOL    HW234047   1.383   1.749  10.186 -0.3913  1.1266  0.8063
 7529SOL     OW34048   4.135   2.278   8.814  0.3212  0.4611  0.0776
 7529SOL    HW134049   4.139   2.373   8.823 -1.0650  0.5484 -0.1835
 7529SOL    HW234050   4.216   2.265   8.765  0.1391  1.7362 -0.5513
 7530SOL     OW34051   1.267   4.082   4.025  0.5808  0.0299  0.1942
 7530SOL    HW134052   1.326   4.092   4.099  1.6764  3.5515 -1.1400
 7530SOL    HW234053   1.321   4.027   3.969  0.2284  0.5285 -0.6438
 7531SOL     OW34054   1.394   2.219   3.103 -0.5926  0.1028 -0.0378
 7531SOL    HW134055   1.343   2.194   3.026  1.5611 -0.5593 -1.2593
 7531SOL    HW234056   1.458   2.283   3.073  0.4373 -2.0849 -2.4784
 7532SOL     OW34057   2.374   2.768  12.362  0.2146  0.4825  0.3224
 7532SOL    HW134058   2.375   2.758  12.457  1.5437 -0.9580  0.1476
 7532SOL    HW234059   2.318   2.846  12.354 -1.4068 -0.7607 -0.4687
 7533SOL     OW34060   1.135   2.951  10.123  0.0694 -0.2088  0.6164
 7533SOL    HW134061   1.065   2.962  10.060  1.0471  0.8518 -0.2854
 7533SOL    HW234062   1.193   2.886  10.083  0.6198  0.4652  0.3106
 7534SOL     OW34063   2.828   0.495  13.834  0.1994 -0.1704 -0.0117
 7534SOL    HW134064   2.767   0.435  13.878  0.1870 -0.6433 -0.6663
 7534SOL    HW234065   2.835   0.446  13.751  0.5655 -0.5869  0.2659
 7535SOL     OW34066   4.241   0.708   7.726 -0.1984 -1.1733 -0.3563
 7535SOL    HW134067   4.218   0.636   7.667 -1.1651 -1.6075  0.5634
 7535SOL    HW234068   4.245   0.672   7.814 -0.5845  1.3037  0.6881
 7536SOL     OW34069   2.936   2.065   1.005 -0.0324 -0.2073 -0.6201
 7536SOL    HW134070   3.012   2.034   1.054 -1.7180 -1.2228  1.3354
 7536SOL    HW234071   2.869   1.997   1.011 -2.3156  2.2756  1.9540
 7537SOL     OW34072   4.317   3.369   2.603 -0.3846 -0.3432  0.3810
 7537SOL    HW134073   4.268   3.434   2.553  1.0166  0.3964 -0.0112
 7537SOL    HW234074   4.367   3.330   2.531  0.6892  1.0898  0.3658
 7538SOL     OW34075   3.251   2.727   5.432  0.2579  0.1415 -0.2981
 7538SOL    HW134076   3.287   2.677   5.506  1.1037  0.4791 -0.4852
 7538SOL    HW234077   3.269   2.816   5.463 -0.3366 -0.9328  3.1857
 7539SOL     OW34078   1.602   3.460   1.048 -0.0854  0.0084 -0.3179
 7539SOL    HW134079   1.669   3.508   0.999 -1.6375  2.6708  0.1870
 7539SOL    HW234080   1.642   3.373   1.048  4.3263  2.0201 -0.6238
 7540SOL     OW34081   3.073   3.030   7.381 -0.0479  0.0978  0.2650
 7540SOL    HW134082   3.095   2.989   7.465  0.1701 -0.4944 -0.0825
 7540SOL    HW234083   3.128   3.106   7.396 -1.5389  0.9383  1.4893
 7541SOL     OW34084   0.103   1.801   2.584  0.2145 -0.5801  0.3969
 7541SOL    HW134085   0.057   1.873   2.627 -1.5116 -1.1864 -0.4515
 7541SOL    HW234086   0.165   1.780   2.654 -1.1415 -1.2654  1.3749
 7542SOL     OW34087   2.848   0.728   7.199  0.0061  1.0484  0.0342
 7542SOL    HW134088   2.920   0.785   7.174  0.9577  0.4629  1.4399
 7542SOL    HW234089   2.884   0.640   7.184 -0.4301  0.9127 -0.2489
 7543SOL     OW34090   0.145   2.126   5.891 -0.0842  0.1816 -0.9200
 7543SOL    HW134091   0.072   2.162   5.942  1.8926  0.7873  1.4817
 7543SOL    HW234092   0.190   2.206   5.866  0.8260  0.2669  0.9535
 7544SOL     OW34093   1.266   0.243   8.175  0.1032 -0.2540  0.1104
 7544SOL    HW134094   1.354   0.211   8.158 -0.2539 -1.2737  0.1662
 7544SOL    HW234095   1.249   0.213   8.265  0.8157  1.2960  0.7481
 7545SOL     OW34096   0.652   1.419   4.167 -0.4093  0.1096 -0.5712
 7545SOL    HW134097   0.734   1.404   4.214  0.0539  2.6801 -0.5647
 7545SOL    HW234098   0.675   1.376   4.085 -1.0855  0.9859 -1.2256
 7546SOL     OW34099   3.214   2.729   1.419 -0.3549  0.4686 -0.1997
 7546SOL    HW134100   3.270   2.802   1.445 -0.8608  1.3730 -1.6837
 7546SOL    HW234101   3.238   2.667   1.489  0.2483 -0.6775 -1.4022
 7547SOL     OW34102   2.736   3.403   3.593 -0.0878  0.6131  0.0351
 7547SOL    HW134103   2.763   3.318   3.627 -1.8746  1.3121  3.2325
 7547SOL    HW234104   2.817   3.429   3.551 -0.2149  2.9987  1.2741
 7548SOL     OW34105   0.191   1.823  10.238  0.4493  0.2765  0.0512
 7548SOL    HW134106   0.276   1.832  10.281  0.5815 -1.4116  0.1273
 7548SOL    HW234107   0.133   1.827  10.313  0.7140  1.8857  0.1806
 7549SOL     OW34108   2.897   2.980  12.246  0.1428  0.3416  0.0908
 7549SOL    HW134109   2.922   3.035  12.320  0.7342  1.1796 -0.7460
 7549SOL    HW234110   2.814   2.943  12.278  2.3174 -1.0612  4.0497
 7550SOL     OW34111   0.735   2.781  15.702  0.1396 -1.1841  0.1490
 7550SOL    HW134112   0.821   2.817  15.679  0.2559 -0.5858  1.4650
 7550SOL    HW234113   0.758   2.692  15.727 -1.2729 -1.2658  1.1391
 7551SOL     OW34114   3.872   1.241   2.426 -0.1768 -0.1592 -0.1556
 7551SOL    HW134115   3.919   1.291   2.494 -1.5448  1.3119 -0.2927
 7551SOL    HW234116   3.951   1.210   2.382 -0.3000  0.2611 -0.6689
 7552SOL     OW34117   2.740   4.288   3.586  0.2502 -0.0019 -0.5108
 7552SOL    HW134118   2.826   4.329   3.598  0.2305  0.1235 -0.7967
 7552SOL    HW234119   2.715   4.338   3.508  1.2330  0.1733 -0.7177
 7553SOL     OW34120   3.031   2.828   8.775 -0.4317 -0.6671 -0.2521
 7553SOL    HW134121   3.045   2.900   8.837  1.0902 -0.1687 -1.1731
 7553SOL    HW234122   2.967   2.868   8.716 -1.5721 -1.0478  0.7098
 7554SOL     OW34123   1.505   4.132   8.440  0.1647  0.0427 -0.2653
 7554SOL    HW134124   1.566   4.060   8.421  0.5401 -0.0428  1.2857
 7554SOL    HW234125   1.553   4.210   8.411 -0.6141  0.0114 -1.6157
 7555SOL     OW34126   4.166   0.656  10.479  0.1032 -0.1432 -0.0996
 7555SOL    HW134127   4.079   0.674  10.514  1.8204 -0.2423  4.2744
 7555SOL    HW234128   4.202   0.739  10.510 -3.3501  1.0524  0.7628
 7556SOL     OW34129   4.478   0.823   5.286  0.6455 -0.1980  0.6222
 7556SOL    HW134130   4.526   0.811   5.204 -1.4599 -4.5644  0.0561
 7556SOL    HW234131   4.402   0.874   5.258  0.7307  0.7791  2.1856
 7557SOL     OW34132   3.921   0.893   1.969 -0.1853 -0.1866 -0.3737
 7557SOL    HW134133   3.882   0.813   2.005 -0.6577  0.4352  0.5154
 7557SOL    HW234134   3.926   0.874   1.875  0.7099  1.7722 -0.7268
 7558SOL     OW34135   2.391   2.874   3.700 -0.5322  0.5445  0.1498
 7558SOL    HW134136   2.484   2.850   3.692 -0.7620 -0.4860  0.6962
 7558SOL    HW234137   2.375   2.904   3.610 -2.6988 -0.4925  0.2086
 7559SOL     OW34138   0.273   1.654   1.755 -0.3162  0.2242  0.0632
 7559SOL    HW134139   0.179   1.638   1.745 -0.5194  0.5412  1.3867
 7559SOL    HW234140   0.294   1.668   1.663  1.9703 -1.6328  0.3083
 7560SOL     OW34141   1.840   3.222  15.632 -0.7164 -0.1035 -0.1918
 7560SOL    HW134142   1.775   3.247  15.698  1.4966  0.7155  1.7084
 7560SOL    HW234143   1.852   3.301  15.580 -1.0037  0.8708  1.2349
 7561SOL     OW34144   2.291   0.907   7.025  0.2354 -0.3371 -0.3668
 7561SOL    HW134145   2.223   0.933   7.087  0.4893 -0.1247 -0.1765
 7561SOL    HW234146   2.369   0.938   7.071 -1.4384  0.9557  1.5980
 7562SOL     OW34147   2.833   4.523  10.469 -0.1978 -0.0049  0.2598
 7562SOL    HW134148   2.797   4.503  10.382 -0.9807 -1.1848  0.8533
 7562SOL    HW234149   2.906   4.582  10.452 -0.8999  1.2147  1.5428
 7563SOL     OW34150   1.985   1.599   6.127  0.2177 -0.2242 -0.5728
 7563SOL    HW134151   2.043   1.668   6.096  0.8987 -0.9824 -0.9957
 7563SOL    HW234152   1.925   1.659   6.171  0.7649  1.7368 -2.5195
 7564SOL     OW34153   2.321   1.341   5.373  0.3802  0.6820  0.0805
 7564SOL    HW134154   2.314   1.262   5.427 -0.7042  0.7959  0.1056
 7564SOL    HW234155   2.358   1.414   5.422 -1.4064  2.3921 -1.1414
 7565SOL     OW34156   3.960   4.392   7.389  0.1759 -0.2493 -0.0135
 7565SOL    HW134157   3.917   4.433   7.315  1.9116  0.2804 -0.7391
 7565SOL    HW234158   3.882   4.344   7.415 -0.1407  0.2365 -0.0778
 7566SOL     OW34159   0.615   3.855   5.526  0.0946 -0.9477  0.0556
 7566SOL    HW134160   0.665   3.865   5.445 -0.5765  2.6434  0.0522
 7566SOL    HW234161   0.568   3.772   5.522  0.4018 -1.1714  0.9771
 7567SOL     OW34162   1.187   0.223   1.859 -0.6015  0.1757 -0.1890
 7567SOL    HW134163   1.114   0.162   1.843 -0.2803  0.2839 -2.0405
 7567SOL    HW234164   1.181   0.218   1.955 -1.5696  1.6862 -0.1621
 7568SOL     OW34165   3.373   1.198   7.382 -0.2529 -0.0322  0.5300
 7568SOL    HW134166   3.373   1.109   7.348  0.7563 -0.5376  1.8802
 7568SOL    HW234167   3.458   1.226   7.348 -0.2222  1.0165  1.4778
 7569SOL     OW34168   3.755   0.946   8.909  0.3881  0.0554  0.4747
 7569SOL    HW134169   3.841   0.914   8.936 -0.8682 -1.5163  2.6809
 7569SOL    HW234170   3.780   1.034   8.883 -0.3818 -0.0390 -0.6074
 7570SOL     OW34171   2.222   2.860  15.777  0.0923  0.4527 -0.0924
 7570SOL    HW134172   2.181   2.859  15.863  0.0011 -1.1170 -0.1460
 7570SOL    HW234173   2.288   2.790  15.787  0.7277  0.7633 -2.1544
 7571SOL     OW34174   1.773   3.266   1.926  0.1164 -0.7751  0.1216
 7571SOL    HW134175   1.844   3.229   1.873  1.4025  1.5935  0.2268
 7571SOL    HW234176   1.827   3.310   1.991 -1.9413  0.6242  0.8920
 7572SOL     OW34177   4.251   0.371   6.864  0.8845 -0.3123 -0.1989
 7572SOL    HW134178   4.233   0.277   6.869 -0.3186 -0.1701 -1.8404
 7572SOL    HW234179   4.199   0.398   6.941 -0.8531  2.9015 -2.5010
 7573SOL     OW34180   4.226   3.860   4.912  0.3316 -0.4609  0.0138
 7573SOL    HW134181   4.201   3.920   4.842  0.6156 -0.2261  0.1148
 7573SOL    HW234182   4.193   3.903   4.990  0.0329 -0.7841  0.0647
 7574SOL     OW34183   1.073   1.359  11.493  0.7422 -0.6491 -0.6432
 7574SOL    HW134184   1.158   1.332  11.458  1.0275  0.5601 -0.8491
 7574SOL    HW234185   1.099   1.439  11.537 -1.3742 -0.3084 -0.0234
 7575SOL     OW34186   0.553   2.081   8.243 -0.3131 -0.3243 -0.4760
 7575SOL    HW134187   0.611   2.006   8.253  1.4918  1.0012 -0.9212
 7575SOL    HW234188   0.479   2.052   8.297 -0.8821 -1.9848 -2.1715
 7576SOL     OW34189   2.531   2.413   0.608  0.3026 -0.6074  0.0064
 7576SOL    HW134190   2.545   2.355   0.684 -1.1238 -0.6139  0.2565
 7576SOL    HW234191   2.462   2.361   0.567 -0.0893  0.7793 -1.0748
 7577SOL     OW34192   3.183   2.835  17.089  0.1015  0.0930  0.0332
 7577SOL    HW134193   3.111   2.886  17.051 -1.1044 -0.3154  1.7617
 7577SOL    HW234194   3.138   2.796  17.165  0.6942  2.6975  1.7281
 7578SOL     OW34195   1.561   1.808  14.957  0.2898  0.2926 -0.0899
 7578SOL    HW134196   1.528   1.719  14.970 -1.4365  1.0684  0.9252
 7578SOL    HW234197   1.605   1.798  14.873  0.4722  1.8024 -0.1686
 7579SOL     OW34198   3.982   0.996   5.392  0.1318 -0.1270 -0.1191
 7579SOL    HW134199   3.998   0.950   5.310  1.6067  0.0413  0.0763
 7579SOL    HW234200   3.932   1.074   5.367 -0.6981 -0.0083  1.8373
 7580SOL     OW34201   2.776   2.582   4.719 -0.2532 -0.0300 -0.2103
 7580SOL    HW134202   2.870   2.565   4.724 -0.4162 -0.3756  1.8903
 7580SOL    HW234203   2.751   2.545   4.804  1.6289 -0.2793  0.2475
 7581SOL     OW34204   2.142   3.918  12.016  0.2204 -0.5407  0.4880
 7581SOL    HW134205   2.077   3.977  11.978  0.5954  0.4072  1.3080
 7581SOL    HW234206   2.083   3.843  12.022 -1.7314  0.9112 -0.7207
 7582SOL     OW34207   4.621   4.069   8.843  0.0230  0.2819  0.3795
 7582SOL    HW134208   4.605   4.020   8.924  3.2303 -1.6113 -0.0948
 7582SOL    HW234209   4.706   4.104   8.869 -0.1920  0.5158  0.7670
 7583SOL     OW34210   2.121   1.518   3.392 -0.4854  0.1030 -0.2860
 7583SOL    HW134211   2.065   1.516   3.314 -0.7290 -1.3146 -0.0840
 7583SOL    HW234212   2.154   1.606   3.407 -0.8159 -0.4773  4.1090
 7584SOL     OW34213   1.428   2.513  17.567  0.1736  0.2526  0.4465
 7584SOL    HW134214   1.490   2.583  17.549  1.0877 -0.5266  0.5828
 7584SOL    HW234215   1.376   2.515  17.487  1.9116 -0.0293 -0.6928
 7585SOL     OW34216   2.479   3.394   7.292  0.1195 -0.0690 -0.5704
 7585SOL    HW134217   2.498   3.482   7.259 -0.1655 -0.1678 -0.9854
 7585SOL    HW234218   2.568   3.371   7.318 -0.3025  0.0966  1.0855
 7586SOL     OW34219   1.242   0.946   2.969  0.3984 -0.3510 -0.7187
 7586SOL    HW134220   1.284   0.861   2.985 -1.7363 -0.7473  2.6574
 7586SOL    HW234221   1.156   0.911   2.944  0.8012 -0.7993 -1.4809
 7587SOL     OW34222   3.025   4.268  14.151  0.3813  0.4537 -0.5179
 7587SOL    HW134223   3.010   4.318  14.071  0.5148  1.2920 -0.0168
 7587SOL    HW234224   3.066   4.190  14.114  1.6439  0.0672  1.6524
 7588SOL     OW34225   0.494   1.885   7.016  0.1269  0.3129 -0.3492
 7588SOL    HW134226   0.529   1.974   7.010  3.2874 -0.9005  0.3712
 7588SOL    HW234227   0.426   1.898   7.082 -0.2025 -2.8504 -0.0754
 7589SOL     OW34228   0.416   0.672  16.294 -0.3606 -0.1741  0.7430
 7589SOL    HW134229   0.441   0.678  16.202  0.0796  0.8670  0.9332
 7589SOL    HW234230   0.461   0.750  16.328 -0.2210 -0.2841  0.8088
 7590SOL     OW34231   2.391   0.814   8.643 -0.6249 -0.2144 -0.0315
 7590SOL    HW134232   2.338   0.783   8.716 -1.2056  0.8055 -0.0140
 7590SOL    HW234233   2.362   0.905   8.642 -2.2800 -0.7585 -2.8255
 7591SOL     OW34234   1.719   0.191   5.136  0.1616 -0.0088  0.3281
 7591SOL    HW134235   1.771   0.132   5.082  0.6559 -1.2676  2.1806
 7591SOL    HW234236   1.785   0.255   5.164 -2.1227  2.2579  0.5398
 7592SOL     OW34237   0.310   0.329  15.619 -0.6978  0.3529 -0.0454
 7592SOL    HW134238   0.306   0.269  15.693  0.0729 -1.4638 -1.4919
 7592SOL    HW234239   0.317   0.418  15.656 -4.9156  1.6737 -2.4241
 7593SOL     OW34240   2.374   1.367   5.081  0.0264  0.2938 -0.2830
 7593SOL    HW134241   2.442   1.433   5.094  1.6525 -1.8372  2.1374
 7593SOL    HW234242   2.296   1.420   5.064  0.0844  0.4268 -0.1405
 7594SOL     OW34243   2.986   3.733  11.661 -0.4669 -0.1374  0.2542
 7594SOL    HW134244   2.908   3.703  11.613 -1.4373  0.6547  1.3494
 7594SOL    HW234245   3.028   3.647  11.665  2.7762  1.5026  1.7014
 7595SOL     OW34246   3.514   3.526   8.357  0.0271  0.2625 -0.0685
 7595SOL    HW134247   3.474   3.449   8.398 -1.3471  1.7660  1.4119
 7595SOL    HW234248   3.462   3.588   8.407  2.4026  0.2554  2.4050
 7596SOL     OW34249   3.001   1.141   6.591 -0.1446 -0.7760  0.2697
 7596SOL    HW134250   2.987   1.148   6.685  1.1938 -1.1117  0.4920
 7596SOL    HW234251   3.091   1.170   6.581 -0.2967 -0.8525 -1.4075
 7597SOL     OW34252   4.629   1.381  13.537  0.2509  0.2519  0.6974
 7597SOL    HW134253   4.633   1.398  13.443  0.8888  2.0387  1.0400
 7597SOL    HW234254   4.711   1.333  13.546  0.6775  0.8330 -0.0820
 7598SOL     OW34255   0.221   1.184   2.943 -0.1833 -0.4694  0.1511
 7598SOL    HW134256   0.284   1.115   2.966  0.0771  0.3637  1.9768
 7598SOL    HW234257   0.179   1.151   2.864  2.0794  1.8896 -2.0126
 7599SOL     OW34258   1.804   1.049   7.469 -0.0759 -0.0181  0.0889
 7599SOL    HW134259   1.752   0.997   7.531  0.6396 -0.1799  0.5486
 7599SOL    HW234260   1.737   1.087   7.413  0.1757 -0.4845 -0.5300
 7600SOL     OW34261   2.634   3.715   3.906 -0.3625 -0.7408 -0.6810
 7600SOL    HW134262   2.710   3.657   3.894 -0.1398 -0.6041  0.0901
 7600SOL    HW234263   2.663   3.801   3.874  0.6542 -0.4130  1.1271
 7601SOL     OW34264   2.235   1.560  11.828 -0.4363 -0.2557 -0.3632
 7601SOL    HW134265   2.324   1.572  11.862 -0.4829 -2.4724  0.5904
 7601SOL    HW234266   2.238   1.579  11.734  1.4066  0.8706 -0.0775
 7602SOL     OW34267   0.239   0.987   1.144 -0.3385 -0.1487  0.6753
 7602SOL    HW134268   0.150   1.020   1.157 -0.1820  0.3554  0.4708
 7602SOL    HW234269   0.281   1.062   1.101 -1.9062  1.6237  2.2694
 7603SOL     OW34270   1.162   3.394   0.046  0.0463  0.2712  0.1643
 7603SOL    HW134271   1.098   3.414   0.114 -0.9116  2.7351 -1.4623
 7603SOL    HW234272   1.240   3.363   0.090  0.3200 -0.1281 -0.5964
 7604SOL     OW34273   0.292   1.144   4.114  0.3832  0.2348  0.5976
 7604SOL    HW134274   0.200   1.155   4.090  1.2890  2.7138 -1.7142
 7604SOL    HW234275   0.314   1.237   4.111  1.8544 -0.1292  0.3321
 7605SOL     OW34276   0.630   1.457   3.474  0.3952 -0.7329 -0.3996
 7605SOL    HW134277   0.620   1.361   3.478 -0.0420 -0.6940 -0.5425
 7605SOL    HW234278   0.672   1.468   3.559  0.6554  3.6986 -1.1336
 7606SOL     OW34279   1.722   1.792   8.216 -0.1593  0.0190 -0.0470
 7606SOL    HW134280   1.759   1.880   8.227 -2.2620  0.9401 -0.4555
 7606SOL    HW234281   1.643   1.813   8.167  1.1382  2.1520 -1.2549
 7607SOL     OW34282   0.800   2.370   1.100  0.1103 -0.0700  0.2851
 7607SOL    HW134283   0.807   2.334   1.188  0.7564 -1.6082 -0.3965
 7607SOL    HW234284   0.833   2.460   1.107 -2.1422  0.6822  1.1893
 7608SOL     OW34285   0.582   3.995   8.361 -0.1127  0.4792 -0.1859
 7608SOL    HW134286   0.581   3.921   8.421  0.3966  0.1424 -0.6071
 7608SOL    HW234287   0.579   4.077   8.412 -1.0521  0.4447 -0.1873
 7609SOL     OW34288   4.308   0.239   1.783  0.0362  0.3821  0.3176
 7609SOL    HW134289   4.330   0.149   1.806 -0.7175  0.1036 -0.0599
 7609SOL    HW234290   4.215   0.236   1.807 -0.4001 -1.6413 -1.6025
 7610SOL     OW34291   3.007   3.337   2.981  0.6125 -0.0688 -0.8048
 7610SOL    HW134292   2.925   3.303   2.945 -1.5786  3.2786  1.0182
 7610SOL    HW234293   3.055   3.264   3.020 -1.0498 -0.1275  1.1505
 7611SOL     OW34294   3.723   2.908  11.251  0.3475  0.1291  0.1794
 7611SOL    HW134295   3.667   2.981  11.278 -2.3311 -1.2744 -1.5484
 7611SOL    HW234296   3.668   2.834  11.222  0.5640 -0.0568  0.2440
 7612SOL     OW34297   0.009   1.450   1.975  0.3701  0.5625 -0.2461
 7612SOL    HW134298   4.669   1.448   2.048  2.3602  1.7343  1.4511
 7612SOL    HW234299   0.084   1.403   2.011 -0.8129 -1.5226 -0.5147
 7613SOL     OW34300   1.819   1.866   3.037 -0.1010  0.4027 -0.0010
 7613SOL    HW134301   1.751   1.863   2.969 -1.5949  0.2021  1.5006
 7613SOL    HW234302   1.780   1.820   3.112 -0.1939  0.4061 -0.0468
 7614SOL     OW34303   1.595   3.593   8.224 -0.0071 -0.2373  0.4182
 7614SOL    HW134304   1.609   3.578   8.318 -0.9101  0.3868  0.6589
 7614SOL    HW234305   1.663   3.538   8.187 -0.4535 -0.1892 -0.4692
 7615SOL     OW34306   1.330   3.084  10.269 -0.8001 -0.5453 -0.1146
 7615SOL    HW134307   1.277   3.030  10.211 -0.7598 -0.5503 -0.1468
 7615SOL    HW234308   1.279   3.166  10.268  2.2860  1.3450 -1.3911
 7616SOL     OW34309   1.434   0.690  15.267  0.0299  0.2341  0.2156
 7616SOL    HW134310   1.506   0.722  15.213  0.9569 -1.8412  0.2437
 7616SOL    HW234311   1.464   0.600  15.278 -1.7611 -0.1267  2.1806
 7617SOL     OW34312   4.015   3.340   6.494 -0.5561 -0.0554 -0.2527
 7617SOL    HW134313   3.959   3.386   6.556 -0.7490  0.8583 -1.1060
 7617SOL    HW234314   4.095   3.392   6.495 -1.0451  0.6774  0.0914
 7618SOL     OW34315   0.686   3.137   0.380  0.1835 -0.3324  0.0863
 7618SOL    HW134316   0.664   3.154   0.472 -1.1648  1.0090 -0.4720
 7618SOL    HW234317   0.626   3.186   0.323 -0.8795 -1.9918 -0.2335
 7619SOL     OW34318   1.325   3.004   2.326  0.0359 -0.1275 -0.1077
 7619SOL    HW134319   1.270   2.927   2.339  1.4790 -1.0313  0.5726
 7619SOL    HW234320   1.284   3.068   2.384 -1.5344 -0.1504 -1.1857
 7620SOL     OW34321   3.615   0.954   6.825  0.6900 -0.0249  0.6860
 7620SOL    HW134322   3.553   1.000   6.769  0.2166 -0.8863  0.5094
 7620SOL    HW234323   3.695   1.005   6.808  0.5586  0.6665  2.1831
 7621SOL     OW34324   0.859   3.706   4.776 -0.4594 -0.0860 -0.2529
 7621SOL    HW134325   0.860   3.613   4.753 -2.4969 -0.8974  2.8567
 7621SOL    HW234326   0.860   3.686   4.870  3.3992  1.1674 -0.0177
 7622SOL     OW34327   4.238   0.573  13.774 -0.0247  0.5604 -0.0073
 7622SOL    HW134328   4.163   0.629  13.754 -0.4860  0.3413  1.1012
 7622SOL    HW234329   4.302   0.593  13.706  0.9926 -0.3551  0.6798
 7623SOL     OW34330   1.807   4.348   5.909  0.3338  0.2781  0.3885
 7623SOL    HW134331   1.864   4.314   5.979  0.6138  2.7415  1.3659
 7623SOL    HW234332   1.735   4.286   5.916  0.4544  0.2455  1.3174
 7624SOL     OW34333   1.422   4.016   6.838 -0.3470  0.1945  0.3555
 7624SOL    HW134334   1.347   4.071   6.862  0.6583  1.7687 -0.1043
 7624SOL    HW234335   1.431   3.962   6.916  2.5630 -0.8145 -0.6946
 7625SOL     OW34336   4.283   1.062   3.079 -0.4730 -0.4206 -0.0581
 7625SOL    HW134337   4.353   1.006   3.113  0.8054 -0.8472 -3.4684
 7625SOL    HW234338   4.215   1.061   3.147 -0.0179  0.5105  0.4189
 7626SOL     OW34339   2.257   4.529   2.918 -0.0442 -0.1080  0.2269
 7626SOL    HW134340   2.269   4.496   3.008  1.9242 -0.7803 -0.2697
 7626SOL    HW234341   2.268   4.448   2.869  0.3719  1.0124 -1.4984
 7627SOL     OW34342   4.621   4.697   2.807  0.1069  0.0008  0.8605
 7627SOL    HW134343   4.604   0.024   2.888 -0.8693  0.2001  0.5354
 7627SOL    HW234344   4.717   4.701   2.801 -0.0499  1.7724 -0.2906
 7628SOL     OW34345   1.411   1.996   7.530 -0.5557  0.6685  0.1808
 7628SOL    HW134346   1.438   2.032   7.446  0.1295 -1.8841 -0.6992
 7628SOL    HW234347   1.415   2.077   7.580 -2.6485 -0.7699  2.6883
 7629SOL     OW34348   0.536   4.109   9.049 -0.1384  0.6446  0.5331
 7629SOL    HW134349   0.498   4.195   9.034 -0.5737  0.1033 -1.4991
 7629SOL    HW234350   0.461   4.050   9.060  0.1650  0.2190  0.3215
 7630SOL     OW34351   0.652   1.104  12.113 -0.9907  0.1626  0.3350
 7630SOL    HW134352   0.574   1.145  12.151 -0.7342 -0.8230  1.9403
 7630SOL    HW234353   0.677   1.052  12.189 -4.0532 -0.6557  0.7692
 7631SOL     OW34354   2.179   0.020   4.225  0.1362 -0.2656 -0.2641
 7631SOL    HW134355   2.159   0.092   4.285  1.7038 -0.3849  0.3919
 7631SOL    HW234356   2.252   4.694   4.265  0.4904 -0.9293 -1.6748
 7632SOL     OW34357   3.129   3.524  16.943 -0.4732 -0.1131 -0.1867
 7632SOL    HW134358   3.152   3.476  16.863 -1.4692  0.8857 -1.0696
 7632SOL    HW234359   3.094   3.453  16.996  0.1074  2.5321  3.7526
 7633SOL     OW34360   4.451   1.272  14.167  0.3251  0.3943 -0.0860
 7633SOL    HW134361   4.404   1.315  14.239 -1.2029 -0.3230 -0.6508
 7633SOL    HW234362   4.539   1.308  14.173  0.1652  0.7773 -0.0384
 7634SOL     OW34363   0.821   0.324   6.118  0.2851  0.0909 -0.3988
 7634SOL    HW134364   0.794   0.415   6.105 -0.7091 -0.6034 -3.1751
 7634SOL    HW234365   0.916   0.329   6.131  0.1489 -0.1699  0.6887
 7635SOL     OW34366   1.045   2.927   8.437  0.3358  0.2761  0.6853
 7635SOL    HW134367   0.956   2.940   8.470  0.6066  0.8680  1.1930
 7635SOL    HW234368   1.091   2.932   8.521  1.4341  0.1133  0.0917
 7636SOL     OW34369   1.869   0.351   8.491 -0.3057 -0.0673 -0.2024
 7636SOL    HW134370   1.779   0.381   8.480  0.0668  0.8123 -0.9195
 7636SOL    HW234371   1.857   0.328   8.583  0.6442 -2.9548 -0.7941
 7637SOL     OW34372   2.130   3.536  14.552  0.3952 -0.3816  0.0220
 7637SOL    HW134373   2.132   3.556  14.458  1.2944 -1.3036 -0.1562
 7637SOL    HW234374   2.037   3.555  14.564  0.5251  1.1490 -1.4412
 7638SOL     OW34375   2.393   2.847   8.573 -0.2152  0.7765  0.6746
 7638SOL    HW134376   2.299   2.833   8.562 -0.3355  1.2549  1.0961
 7638SOL    HW234377   2.417   2.805   8.490 -2.3295  1.9966 -0.5719
 7639SOL     OW34378   1.573   1.599   2.984 -0.1817  0.3233 -0.0291
 7639SOL    HW134379   1.564   1.602   2.889 -0.7676  0.6927  0.0384
 7639SOL    HW234380   1.489   1.635   3.015 -0.5388  0.2563 -0.9182
 7640SOL     OW34381   2.760   3.795   8.395  0.5476  0.1785  0.2079
 7640SOL    HW134382   2.841   3.844   8.405 -0.6256  1.7120  2.1735
 7640SOL    HW234383   2.792   3.707   8.378  1.4088  0.4954  0.1963
 7641SOL     OW34384   2.520   3.167   6.481 -0.1790 -0.6678  0.6696
 7641SOL    HW134385   2.509   3.246   6.533  0.0217 -0.0323 -0.2591
 7641SOL    HW234386   2.449   3.167   6.418  0.4498 -0.2910 -0.0345
 7642SOL     OW34387   2.089   1.185  12.250 -0.0517  0.7899 -0.0602
 7642SOL    HW134388   2.146   1.229  12.187  0.2501  0.9687  0.3359
 7642SOL    HW234389   2.071   1.261  12.305 -2.7310  0.8546 -1.0465
 7643SOL     OW34390   0.336   1.433  12.382 -0.3329  0.4615  0.0317
 7643SOL    HW134391   0.311   1.502  12.321 -0.9555  1.1939  1.1162
 7643SOL    HW234392   0.274   1.452  12.452  1.1317 -1.0914  1.7423
 7644SOL     OW34393   3.361   3.817  11.527 -0.0058  0.3402 -0.0202
 7644SOL    HW134394   3.289   3.816  11.463 -1.0261  0.3302  1.1144
 7644SOL    HW234395   3.435   3.843  11.474  0.4496 -0.0054  0.4472
 7645SOL     OW34396   4.140   2.990   3.553 -0.2065 -0.3535  0.8719
 7645SOL    HW134397   4.046   2.972   3.557 -0.3131  0.7342  2.8389
 7645SOL    HW234398   4.151   3.027   3.465  0.1888  0.9628  1.4880
 7646SOL     OW34399   0.506   1.890   4.461  0.2788 -0.1877  0.5682
 7646SOL    HW134400   0.452   1.864   4.537  0.1712  0.5289  0.7339
 7646SOL    HW234401   0.579   1.931   4.506  0.6780  1.4771 -1.6199
 7647SOL     OW34402   3.868   3.263   3.036  0.1003 -0.5852  0.4580
 7647SOL    HW134403   3.844   3.321   3.108 -3.7359 -1.7599  0.1354
 7647SOL    HW234404   3.831   3.177   3.056 -2.1771  0.5564  1.2125
 7648SOL     OW34405   2.896   1.604   0.935 -0.0407  0.2910 -0.2588
 7648SOL    HW134406   2.835   1.590   0.863 -0.2338 -1.0213  0.1474
 7648SOL    HW234407   2.899   1.517   0.976  1.6870  1.3744  1.8882
 7649SOL     OW34408   4.481   1.414   8.762 -0.1786  0.1415  0.2888
 7649SOL    HW134409   4.444   1.500   8.747  0.0364  0.1169 -0.3716
 7649SOL    HW234410   4.480   1.410   8.858  1.0859  0.5862  0.3264
 7650SOL     OW34411   0.239   0.447   7.036  0.4840  0.2591 -0.0306
 7650SOL    HW134412   0.269   0.469   7.124 -2.3891 -0.0388  1.0052
 7650SOL    HW234413   0.199   0.361   7.052 -2.5196  1.9775  1.5980
 7651SOL     OW34414   3.855   4.473  12.271  0.2273 -0.0524  0.4333
 7651SOL    HW134415   3.851   4.450  12.364 -0.2899  3.2035  1.2049
 7651SOL    HW234416   3.773   4.437  12.237 -0.0887  0.7754  0.3375
 7652SOL     OW34417   2.865   1.816   3.622  0.2993 -0.2239 -0.4373
 7652SOL    HW134418   2.874   1.726   3.591 -0.1921 -0.2474 -0.5197
 7652SOL    HW234419   2.772   1.827   3.645  0.9880  0.6688  1.9658
 7653SOL     OW34420   2.865   1.827   7.405  0.1016 -0.0277 -0.4839
 7653SOL    HW134421   2.816   1.804   7.484 -0.8477  0.4196 -0.9391
 7653SOL    HW234422   2.894   1.744   7.367  0.0423 -0.0478 -0.4847
 7654SOL     OW34423   1.897   3.909   6.996 -0.4078  0.3372 -0.4661
 7654SOL    HW134424   1.897   3.995   7.039  0.3330 -0.0105  0.2206
 7654SOL    HW234425   1.804   3.885   6.996 -0.2965 -0.0989  2.1666
 7655SOL     OW34426   1.840   4.175   6.917 -0.3587  0.2949  0.0957
 7655SOL    HW134427   1.838   4.204   7.008 -4.1277 -3.1268  1.1270
 7655SOL    HW234428   1.751   4.168   6.883  0.2545 -0.6147 -1.3160
 7656SOL     OW34429   2.732   1.949   4.904 -0.3425  0.0456 -0.0796
 7656SOL    HW134430   2.663   2.015   4.891 -0.9037 -0.1470  2.0583
 7656SOL    HW234431   2.803   1.986   4.851 -0.1202  1.7784  1.4241
 7657SOL     OW34432   1.948   0.754   6.282 -0.1780 -0.5611  0.0202
 7657SOL    HW134433   2.016   0.687   6.282 -0.0038 -0.3844  1.2709
 7657SOL    HW234434   1.908   0.727   6.199  1.3480 -0.3322 -0.7835
 7658SOL     OW34435   3.841   1.693   3.276  0.2096 -0.1021 -0.4707
 7658SOL    HW134436   3.918   1.694   3.334  0.4607  0.6567 -0.8179
 7658SOL    HW234437   3.806   1.606   3.295 -0.1666  0.0892 -0.2977
 7659SOL     OW34438   3.322   1.315   5.834 -0.8123 -0.2386 -0.4434
 7659SOL    HW134439   3.258   1.244   5.827 -0.5408 -0.5176 -0.0593
 7659SOL    HW234440   3.388   1.298   5.901 -1.0209  0.4832 -0.0502
 7660SOL     OW34441   2.211   2.399  16.252 -0.0563  0.5793 -0.0486
 7660SOL    HW134442   2.177   2.329  16.307 -1.2263  1.7940  0.7916
 7660SOL    HW234443   2.305   2.398  16.271  0.3565  2.4138 -1.9537
 7661SOL     OW34444   1.480   3.830   5.167 -0.1532  0.1463 -0.3856
 7661SOL    HW134445   1.489   3.751   5.221 -3.2317  0.7129  0.9653
 7661SOL    HW234446   1.571   3.857   5.158 -0.5598  0.8280 -2.4060
 7662SOL     OW34447   0.694   4.151   5.079  0.2370 -0.1432  0.3862
 7662SOL    HW134448   0.684   4.237   5.040  0.4515 -0.0033  0.6411
 7662SOL    HW234449   0.747   4.111   5.010  1.6391  0.3436  1.1756
 7663SOL     OW34450   3.848   3.157  11.118 -0.7293  0.0265  0.1267
 7663SOL    HW134451   3.938   3.182  11.097 -0.9542  2.0287  1.5369
 7663SOL    HW234452   3.848   3.137  11.212 -1.6509  0.4147  0.2089
 7664SOL     OW34453   1.509   2.831  13.261 -0.3992 -0.2724  0.1486
 7664SOL    HW134454   1.422   2.864  13.237 -0.9066 -0.6618  1.4660
 7664SOL    HW234455   1.527   2.867  13.347  1.5146  2.9648 -1.6279
 7665SOL     OW34456   2.832   3.757   5.019 -0.5782 -0.0591 -0.8260
 7665SOL    HW134457   2.752   3.781   4.973 -1.2668 -1.3850 -0.3252
 7665SOL    HW234458   2.830   3.823   5.089  2.2621  1.3188 -2.0510
 7666SOL     OW34459   0.956   2.958   2.108  0.0616 -0.2592  0.0821
 7666SOL    HW134460   0.963   3.009   2.188 -1.2784  0.5716 -0.3316
 7666SOL    HW234461   0.861   2.957   2.096  0.2416  1.2761 -1.4517
 7667SOL     OW34462   1.019   2.912  13.560 -0.2502 -0.2192  0.6172
 7667SOL    HW134463   0.946   2.917  13.623 -1.7583  0.0340 -1.1349
 7667SOL    HW234464   1.060   2.989  13.599  0.9304  0.4834 -2.0130
 7668SOL     OW34465   4.716   0.971   7.958  0.4087  0.0012 -0.1017
 7668SOL    HW134466   0.037   1.055   7.976  1.2201 -0.5278  0.4943
 7668SOL    HW234467   0.032   0.909   8.021  1.7717  0.0597 -0.8626
 7669SOL     OW34468   2.067   2.800   6.249  0.5281 -0.2849  1.2248
 7669SOL    HW134469   2.117   2.871   6.208  0.3713  0.3719  2.1507
 7669SOL    HW234470   2.104   2.735   6.189  0.3039  0.8816 -0.1877
 7670SOL     OW34471   0.883   0.734  17.247 -0.6495  0.1463 -0.3476
 7670SOL    HW134472   0.855   0.785  17.323  1.0960 -1.9511  1.7042
 7670SOL    HW234473   0.803   0.740  17.196 -0.1291  0.1991 -1.1629
 7671SOL     OW34474   1.365   3.448   4.590 -0.1311 -0.0314  0.0712
 7671SOL    HW134475   1.382   3.354   4.596 -3.3313 -0.6472 -0.7582
 7671SOL    HW234476   1.455   3.477   4.571  0.3792 -1.6232  0.0446
 7672SOL     OW34477   1.929   1.278  11.044 -0.5671  0.3679 -0.2773
 7672SOL    HW134478   1.958   1.221  10.973 -1.3798 -0.2679 -0.1009
 7672SOL    HW234479   1.838   1.284  11.015 -1.2233 -1.8205  1.3108
 7673SOL     OW34480   4.583   0.817   5.048 -0.1273 -0.3404 -1.0036
 7673SOL    HW134481   4.666   0.857   5.076 -0.7195  0.0740  0.1650
 7673SOL    HW234482   4.540   0.899   5.023 -0.2234 -0.2353 -0.4893
 7674SOL     OW34483   0.835   0.377   5.387 -0.3213 -0.2276 -0.5693
 7674SOL    HW134484   0.784   0.458   5.387 -0.5989 -0.4020 -0.5331
 7674SOL    HW234485   0.877   0.373   5.301  2.1305  0.9461  0.5751
 7675SOL     OW34486   0.302   3.919   2.708 -0.0705 -0.5897 -0.7228
 7675SOL    HW134487   0.277   3.831   2.738  0.3651 -0.9929 -1.5417
 7675SOL    HW234488   0.364   3.899   2.638  3.3668 -1.3803  2.5960
 7676SOL     OW34489   2.623   2.503   6.308 -0.1211  0.3747  0.1176
 7676SOL    HW134490   2.669   2.443   6.366  1.4320  0.2363 -1.2519
 7676SOL    HW234491   2.661   2.483   6.223 -0.7308 -0.4074  0.0260
 7677SOL     OW34492   0.085   3.330   4.821 -0.1665 -0.9507  0.3555
 7677SOL    HW134493   0.028   3.296   4.890 -1.6351 -0.3527 -0.5496
 7677SOL    HW234494   0.058   3.422   4.825  0.5882 -0.7535  0.8834
 7678SOL     OW34495   1.800   2.747   0.597  0.2669 -0.1703 -0.2679
 7678SOL    HW134496   1.820   2.694   0.519  0.6529  0.5280 -0.6424
 7678SOL    HW234497   1.778   2.829   0.553 -0.4038 -0.6052 -0.7469
 7679SOL     OW34498   2.037   2.358  11.971  0.1673 -0.1434 -0.3830
 7679SOL    HW134499   1.970   2.389  12.033 -1.3567 -4.6193  0.1839
 7679SOL    HW234500   2.086   2.301  12.030 -1.3563  1.3871  2.4053
 7680SOL     OW34501   2.082   0.727  17.551  0.2255  0.3778 -0.2051
 7680SOL    HW134502   1.987   0.712  17.557  0.9020 -3.2178  1.6008
 7680SOL    HW234503   2.129   0.658  17.598  1.5049 -0.1590 -2.2929
 7681SOL     OW34504   2.506   3.910   9.048  0.6165 -0.2464 -0.0903
 7681SOL    HW134505   2.581   3.885   8.994  0.8054 -1.6615  0.8372
 7681SOL    HW234506   2.514   4.005   9.053 -2.8044  0.0731 -0.3334
 7682SOL     OW34507   0.277   0.621   6.160 -0.0360  0.0114 -0.3380
 7682SOL    HW134508   0.256   0.638   6.251 -0.2284 -1.0767 -0.1795
 7682SOL    HW234509   0.369   0.593   6.162 -0.9566 -3.0717 -0.7590
 7683SOL     OW34510   1.579   0.388   1.096  0.0746  0.1958 -0.1145
 7683SOL    HW134511   1.585   0.444   1.173 -0.1007  0.6269 -0.4144
 7683SOL    HW234512   1.577   0.299   1.133 -0.6017  1.6878  3.4246
 7684SOL     OW34513   2.112   3.407   8.261 -0.2824 -0.5920  0.1204
 7684SOL    HW134514   2.106   3.312   8.252  1.0177 -0.7974  1.4870
 7684SOL    HW234515   2.184   3.415   8.323  0.6848  0.1153 -1.0788
 7685SOL     OW34516   3.352   4.071  13.105 -0.1096 -0.5050 -0.0416
 7685SOL    HW134517   3.350   4.152  13.155  0.1636 -0.2643 -0.4214
 7685SOL    HW234518   3.448   4.067  13.112  0.0518  2.3984 -0.5667
 7686SOL     OW34519   2.647   0.454   8.107 -0.2503 -0.2561  0.0532
 7686SOL    HW134520   2.557   0.421   8.101 -0.7473  1.0587  0.1203
 7686SOL    HW234521   2.694   0.371   8.099 -2.0801 -1.1985 -1.0374
 7687SOL     OW34522   4.211   0.522   5.742 -1.5067  0.0625 -0.4640
 7687SOL    HW134523   4.156   0.591   5.781 -1.8803 -0.0875 -0.7228
 7687SOL    HW234524   4.235   0.574   5.666  0.6225 -0.4764 -0.1528
 7688SOL     OW34525   0.807   1.085  11.849  0.0535  0.3837 -0.1727
 7688SOL    HW134526   0.783   1.095  11.941  0.4222  0.0269 -0.0394
 7688SOL    HW234527   0.812   1.173  11.810 -3.2978  1.0611  0.9378
 7689SOL     OW34528   3.228   2.404   4.879 -0.9050 -0.2076  0.6832
 7689SOL    HW134529   3.182   2.413   4.962 -1.5964 -0.5781  0.3384
 7689SOL    HW234530   3.247   2.310   4.877  1.1070  0.2904 -2.8325
 7690SOL     OW34531   0.911   2.232   9.187  0.2009  0.2629  0.1529
 7690SOL    HW134532   0.969   2.179   9.132 -0.6488 -0.7722  0.2414
 7690SOL    HW234533   0.855   2.281   9.126  0.6729  0.5209 -0.0749
 7691SOL     OW34534   3.843   1.420   5.866  0.1908 -0.1363  0.0247
 7691SOL    HW134535   3.796   1.360   5.808  1.7273 -1.2314 -0.1139
 7691SOL    HW234536   3.778   1.406   5.935 -4.2564 -0.4951 -4.2719
 7692SOL     OW34537   3.857   0.594   8.421 -0.3899 -0.1356  0.2193
 7692SOL    HW134538   3.829   0.574   8.332 -1.4963  0.5382  0.4149
 7692SOL    HW234539   3.902   0.511   8.436 -1.8760 -1.0295 -0.2290
 7693SOL     OW34540   2.759   2.955  16.730 -0.0062 -0.0436  1.2612
 7693SOL    HW134541   2.697   2.994  16.791 -0.1462 -0.8627  1.6484
 7693SOL    HW234542   2.814   2.898  16.784  1.5776 -0.7855 -1.1628
 7694SOL     OW34543   2.443   1.235   7.530 -0.2324  0.3754 -0.1809
 7694SOL    HW134544   2.442   1.284   7.448  2.8407  2.2343  0.8907
 7694SOL    HW234545   2.518   1.276   7.574 -0.1762 -0.9246  0.9357
 7695SOL     OW34546   3.712   3.563   9.347 -0.3948 -0.8064  0.7666
 7695SOL    HW134547   3.642   3.582   9.410  0.2936  0.3326  1.1870
 7695SOL    HW234548   3.762   3.644   9.351 -1.8239  0.1006  0.0079
 7696SOL     OW34549   4.348   0.818   2.338 -0.5608  0.1593 -0.0761
 7696SOL    HW134550   4.323   0.733   2.374 -0.3986  1.5120  3.2080
 7696SOL    HW234551   4.261   0.851   2.318 -1.0104 -1.2360 -0.4592
 7697SOL     OW34552   0.020   3.128  14.802  0.1209  0.5620  0.4281
 7697SOL    HW134553   0.050   3.198  14.860  0.7616 -0.5823  1.4895
 7697SOL    HW234554   0.031   3.171  14.717 -0.7920 -1.3032 -0.6294
 7698SOL     OW34555   1.945   2.850   0.802  0.0089 -0.5288  0.5729
 7698SOL    HW134556   1.900   2.808   0.728  0.5318 -0.0888 -0.0000
 7698SOL    HW234557   2.036   2.846   0.771 -0.2194  0.3577 -0.2351
 7699SOL     OW34558   0.382   0.175  17.330 -0.4705  1.0753  0.3817
 7699SOL    HW134559   0.423   0.235  17.269  1.3644 -1.9237 -1.3329
 7699SOL    HW234560   0.417   0.091  17.299  1.4450  2.2757 -0.6322
 7700SOL     OW34561   1.568   4.020  17.296  0.0562 -0.0087  1.0117
 7700SOL    HW134562   1.632   4.085  17.266 -1.2778  1.1796  0.7839
 7700SOL    HW234563   1.534   3.997  17.210  1.3620  1.5241  0.0784
 7701SOL     OW34564   4.051   0.774   8.483  0.3885  0.1832 -0.2278
 7701SOL    HW134565   3.974   0.720   8.466  0.0315  0.3492  0.8414
 7701SOL    HW234566   4.115   0.741   8.420 -0.8246 -0.2074 -1.2533
 7702SOL     OW34567   2.577   3.920  15.651 -0.4555  0.3676  0.3714
 7702SOL    HW134568   2.537   4.000  15.616 -1.9373 -0.5947 -0.1367
 7702SOL    HW234569   2.661   3.953  15.681 -0.2157 -1.5947  1.8507
 7703SOL     OW34570   4.118   3.187   4.702 -0.0834 -0.0874  0.6073
 7703SOL    HW134571   4.060   3.142   4.763 -1.1969 -1.2484 -1.3205
 7703SOL    HW234572   4.200   3.175   4.749 -0.2203 -0.6488  0.7075
 7704SOL     OW34573   2.211   1.210   7.218  0.5873  0.1084 -0.1792
 7704SOL    HW134574   2.272   1.186   7.148  1.1439  3.2252 -0.7881
 7704SOL    HW234575   2.272   1.250   7.281 -0.6982  1.8844 -0.0429
 7705SOL     OW34576   2.760   2.694   7.019 -0.1179  0.3994  0.8591
 7705SOL    HW134577   2.814   2.771   7.033 -2.8638  2.2080  1.4447
 7705SOL    HW234578   2.825   2.628   7.044  1.5681  1.0862 -1.7365
 7706SOL     OW34579   0.740   0.268   6.375 -0.2900 -0.2365  0.0186
 7706SOL    HW134580   0.765   0.262   6.282  1.5189 -1.3652  0.5799
 7706SOL    HW234581   0.805   0.206   6.406  0.3769  1.5377  2.1833
 7707SOL     OW34582   2.821   3.399   7.330  0.3920  0.2968  0.0402
 7707SOL    HW134583   2.905   3.444   7.323  0.2212  0.8373  1.4348
 7707SOL    HW234584   2.783   3.421   7.245 -0.0851  1.9525  0.6777
 7708SOL     OW34585   4.678   0.210   2.035  0.0248 -0.0201 -0.6316
 7708SOL    HW134586   4.598   0.257   2.014 -1.2975 -1.4415  1.2082
 7708SOL    HW234587   0.012   0.208   1.957  3.6805 -0.1308  1.9111
 7709SOL     OW34588   2.375   1.431   8.733  0.4765  0.2369  0.1849
 7709SOL    HW134589   2.280   1.435   8.736  0.4175  0.6072 -2.0977
 7709SOL    HW234590   2.386   1.353   8.787 -0.3506  1.2512  1.8008
 7710SOL     OW34591   2.186   0.047  11.441  0.0894  0.2405 -0.1161
 7710SOL    HW134592   2.276   0.057  11.473  0.5547  0.8504 -1.6120
 7710SOL    HW234593   2.126   0.108  11.483  2.0798  1.4254  0.9868
 7711SOL     OW34594   1.941   3.716   7.278  0.1283 -0.6154  0.2159
 7711SOL    HW134595   1.929   3.662   7.199  1.1318 -0.7000  0.1260
 7711SOL    HW234596   1.862   3.688   7.324 -0.5502  0.1226 -0.4949
 7712SOL     OW34597   1.659   3.359  14.980  0.3932  0.2004  0.4538
 7712SOL    HW134598   1.599   3.304  15.031  2.0832 -1.4443  0.6681
 7712SOL    HW234599   1.725   3.379  15.046  0.7499 -0.5920  0.3476
 7713SOL     OW34600   2.826   2.275   4.808 -0.1944  0.4871  0.4176
 7713SOL    HW134601   2.776   2.333   4.865 -1.1888 -0.0493  0.0963
 7713SOL    HW234602   2.777   2.277   4.726  1.5842  2.4065 -0.5993
 7714SOL     OW34603   3.279   1.945   0.221  0.2899 -0.1919  0.2092
 7714SOL    HW134604   3.223   1.871   0.245 -0.1293  0.0849  0.0697
 7714SOL    HW234605   3.219   2.018   0.232 -0.3090 -0.9256  1.8743
 7715SOL     OW34606   1.250   3.105   2.830 -0.1467  0.2311  0.6806
 7715SOL    HW134607   1.278   3.082   2.918  1.8559 -2.2550 -0.5825
 7715SOL    HW234608   1.289   3.192   2.816 -0.1564  0.0207 -0.7167
 7716SOL     OW34609   2.065   3.698   3.520  0.0794  0.3107  0.0615
 7716SOL    HW134610   2.082   3.626   3.459  0.6124 -0.7934  1.5105
 7716SOL    HW234611   1.970   3.695   3.524  0.0801  1.1533  0.4562
 7717SOL     OW34612   1.967   4.450  10.168  0.0148  0.1781 -0.0661
 7717SOL    HW134613   2.023   4.396  10.112  0.8849  0.4714  0.5157
 7717SOL    HW234614   2.020   4.529  10.158  1.0944 -0.4121  1.0257
 7718SOL     OW34615   1.494   4.542   1.062 -0.2914  0.2265  0.4734
 7718SOL    HW134616   1.531   4.620   1.102 -0.0657 -0.1982  1.0897
 7718SOL    HW234617   1.414   4.576   1.020 -0.7329  0.1211  1.2330
 7719SOL     OW34618   2.516   2.959   0.489  0.4290  0.0133  0.3389
 7719SOL    HW134619   2.514   2.894   0.419 -1.3996  0.6806 -0.2257
 7719SOL    HW234620   2.549   3.030   0.433  0.6808 -0.6049 -0.2923
 7720SOL     OW34621   0.862   3.717   4.300 -0.0653 -0.5636 -0.3635
 7720SOL    HW134622   0.902   3.727   4.386 -2.5418 -0.0252  0.7308
 7720SOL    HW234623   0.930   3.697   4.236 -2.5263 -1.5243 -2.6834
 7721SOL     OW34624   3.967   2.335   2.974 -0.2527 -0.6825  0.1484
 7721SOL    HW134625   3.960   2.309   2.882  0.4630  0.9331 -0.3724
 7721SOL    HW234626   3.875   2.332   2.999 -0.9746  2.3754 -2.1030
 7722SOL     OW34627   2.806   0.275   6.846 -0.5778 -0.6201  0.8358
 7722SOL    HW134628   2.831   0.367   6.846  0.4849 -0.9089  0.6592
 7722SOL    HW234629   2.895   0.239   6.844 -0.4756 -0.2953 -0.5327
 7723SOL     OW34630   3.868   4.697   5.036  0.1096 -0.3338 -0.0588
 7723SOL    HW134631   3.812   0.045   5.002  0.8074 -0.1692 -0.8796
 7723SOL    HW234632   3.822   4.614   5.023 -0.7198  0.3013 -1.1289
 7724SOL     OW34633   1.657   3.800   8.007 -0.5416 -0.7198  0.4759
 7724SOL    HW134634   1.594   3.842   7.948  2.7780  1.1224 -1.7784
 7724SOL    HW234635   1.610   3.734   8.058 -0.6186 -0.6861  0.4488
 7725SOL     OW34636   0.152   0.987   8.652 -0.5633 -0.8197 -0.0405
 7725SOL    HW134637   0.178   0.901   8.684  3.6209 -0.1231 -1.5575
 7725SOL    HW234638   0.164   1.035   8.734 -1.5827 -2.4762  1.0821
 7726SOL     OW34639   2.411   3.862   6.137  1.1326 -0.2411  0.1101
 7726SOL    HW134640   2.421   3.767   6.149 -0.4091 -0.4066  0.0349
 7726SOL    HW234641   2.345   3.874   6.204  0.0501 -1.2708 -0.7653
 7727SOL     OW34642   2.145   2.261  14.382  0.3304  0.7516  0.3444
 7727SOL    HW134643   2.210   2.191  14.370 -0.6942 -0.1744  0.1372
 7727SOL    HW234644   2.184   2.302  14.458  1.5721 -0.2979  0.2655
 7728SOL     OW34645   0.407   0.113  14.204 -0.5994 -0.0981  0.0901
 7728SOL    HW134646   0.376   0.106  14.295 -0.7121 -1.9813 -0.0804
 7728SOL    HW234647   0.459   0.193  14.211 -1.5915  0.6009 -0.6460
 7729SOL     OW34648   3.091   0.079   7.702  0.5067 -0.3685 -0.4713
 7729SOL    HW134649   3.072   4.707   7.690  0.1474 -0.0591 -2.2866
 7729SOL    HW234650   3.178   0.070   7.663  1.6185  0.1553  1.9440
 7730SOL     OW34651   1.042   0.739   3.003  0.5229 -0.0019  0.6634
 7730SOL    HW134652   0.992   0.803   3.054 -0.9075  0.1135 -0.8863
 7730SOL    HW234653   1.086   0.695   3.076  3.0205 -2.4640 -2.3246
 7731SOL     OW34654   4.535   2.034   5.524  0.0246 -0.3206 -0.0699
 7731SOL    HW134655   4.541   1.964   5.459  2.6858 -0.5025  0.3425
 7731SOL    HW234656   4.535   2.108   5.464  2.6234  0.5905  1.0075
 7732SOL     OW34657   3.585   1.203   3.346  0.5279 -0.0630  0.2666
 7732SOL    HW134658   3.520   1.242   3.288 -0.7610 -3.8312 -0.7839
 7732SOL    HW234659   3.583   1.280   3.403  3.4987 -0.0331  0.3552
 7733SOL     OW34660   0.391   4.127  14.670  0.1458 -0.4263  0.1199
 7733SOL    HW134661   0.398   4.144  14.763  2.3015 -0.3532 -0.0559
 7733SOL    HW234662   0.476   4.087  14.653 -0.4190 -1.4930 -0.2000
 7734SOL     OW34663   1.701   4.200   5.420  0.0149 -0.2514  0.5416
 7734SOL    HW134664   1.796   4.206   5.426  0.0287  0.5053 -0.4326
 7734SOL    HW234665   1.678   4.215   5.512 -0.2056 -1.6204  0.7155
 7735SOL     OW34666   1.990   3.045   8.023 -0.4127 -0.1355 -0.1162
 7735SOL    HW134667   1.947   2.962   8.041  0.1640 -0.8033 -1.8164
 7735SOL    HW234668   1.936   3.082   7.953  1.8569  1.4762 -1.0164
 7736SOL     OW34669   3.711   0.423  15.490  0.3650 -0.2409 -0.3775
 7736SOL    HW134670   3.685   0.469  15.570 -0.4280  3.1797 -2.6010
 7736SOL    HW234671   3.730   0.497  15.432  0.6000  0.4149  0.5407
 7737SOL     OW34672   1.529   2.922   9.666 -0.5486  0.0385  0.6540
 7737SOL    HW134673   1.599   2.938   9.604 -0.6523  1.5182  0.9167
 7737SOL    HW234674   1.496   2.836   9.638 -1.0352  0.4662 -0.0942
 7738SOL     OW34675   1.098   3.016  13.061  0.1558  0.3367 -0.3698
 7738SOL    HW134676   1.010   2.978  13.063  1.7345 -3.2396  0.1930
 7738SOL    HW234677   1.069   3.107  13.054 -0.4937  0.2746  1.4165
 7739SOL     OW34678   1.590   2.024   7.163  0.4261 -0.1753 -0.3824
 7739SOL    HW134679   1.538   2.094   7.122 -0.7671 -0.5106  0.5813
 7739SOL    HW234680   1.616   2.067   7.245 -0.0111  2.9255 -1.8418
 7740SOL     OW34681   1.459   0.945   9.727 -0.0431  0.4592  0.4768
 7740SOL    HW134682   1.417   0.861   9.710 -0.9477  0.8079  0.9287
 7740SOL    HW234683   1.407   0.993   9.662  0.3784 -0.7417 -0.7447
 7741SOL     OW34684   0.302   2.231   2.199 -0.2294  0.5013  0.0931
 7741SOL    HW134685   0.291   2.140   2.228 -0.8423  0.4657 -0.2585
 7741SOL    HW234686   0.250   2.242   2.119  2.3397 -0.8349 -1.7657
 7742SOL     OW34687   4.177   0.527   9.171 -0.0087 -0.5230 -0.5234
 7742SOL    HW134688   4.143   0.501   9.086 -3.3433  1.4692  0.2097
 7742SOL    HW234689   4.097   0.543   9.221  0.7365 -0.6305  0.7245
 7743SOL     OW34690   2.529   3.338   3.413  0.1749  0.3524  0.8897
 7743SOL    HW134691   2.474   3.416   3.415  0.4916  0.5714  1.0704
 7743SOL    HW234692   2.585   3.359   3.487  1.0713 -2.1303  0.9412
 7744SOL     OW34693   0.850   1.045   4.217 -0.1392 -0.0226  0.5095
 7744SOL    HW134694   0.934   1.017   4.179  0.1067  0.4235  0.7194
 7744SOL    HW234695   0.814   1.107   4.154  1.8684 -0.7775 -1.3822
 7745SOL     OW34696   1.481   1.040  14.373  0.3500  0.1673  0.3232
 7745SOL    HW134697   1.524   1.031  14.458 -0.5763 -3.7500  0.3533
 7745SOL    HW234698   1.538   0.980  14.325 -1.3685  1.9449 -3.9199
 7746SOL     OW34699   3.138   3.216   5.890 -0.0988  0.4546  0.2506
 7746SOL    HW134700   3.139   3.307   5.860  2.4471  0.0613 -0.8436
 7746SOL    HW234701   3.057   3.216   5.942 -0.3905  1.1724 -0.2009
 7747SOL     OW34702   1.762   3.310   4.116  0.1091  0.2218  0.1502
 7747SOL    HW134703   1.848   3.340   4.145 -0.1502  1.2989 -0.1976
 7747SOL    HW234704   1.719   3.394   4.130  0.0342 -0.0730  1.6712
 7748SOL     OW34705   3.558   2.036   4.652  0.0421  0.2996  0.1437
 7748SOL    HW134706   3.580   1.944   4.641  1.7859  0.6138  0.9454
 7748SOL    HW234707   3.641   2.081   4.633 -0.3543  1.0818  0.2533
 7749SOL     OW34708   2.667   0.281  11.865 -0.1604  0.1486 -0.8646
 7749SOL    HW134709   2.755   0.319  11.877  0.5678 -1.8422  0.0928
 7749SOL    HW234710   2.690   0.193  11.894 -1.4326  0.2966  0.5667
 7750SOL     OW34711   2.225   3.580   6.555 -0.2110 -0.1633  0.1560
 7750SOL    HW134712   2.178   3.646   6.606 -0.0572  0.0014  0.0830
 7750SOL    HW234713   2.172   3.558   6.479  1.0964  0.9875 -1.0854
 7751SOL     OW34714   2.863   2.700   5.358 -0.0247 -0.2579 -0.3419
 7751SOL    HW134715   2.809   2.621   5.366  1.4490 -0.9250  2.7063
 7751SOL    HW234716   2.937   2.684   5.417  2.1169  1.5677 -2.5153
 7752SOL     OW34717   0.535   3.272  13.401  0.0512 -0.4598  0.8479
 7752SOL    HW134718   0.570   3.191  13.365 -1.8601 -0.8374 -0.1534
 7752SOL    HW234719   0.545   3.316  13.317  1.7473 -1.6137  0.4664
 7753SOL     OW34720   0.207   3.893   7.153 -0.2104 -0.4406 -0.0984
 7753SOL    HW134721   0.212   3.798   7.144 -2.0195 -0.4795 -0.8786
 7753SOL    HW234722   0.166   3.903   7.067  1.7188 -0.6049 -1.0247
 7754SOL     OW34723   4.434   3.895   9.718 -0.2112 -0.0116 -0.0127
 7754SOL    HW134724   4.366   3.875   9.782  0.5017 -0.8288  0.4884
 7754SOL    HW234725   4.471   3.979   9.747  1.1139 -0.1235 -1.3969
 7755SOL     OW34726   2.970   2.755   0.127  0.1149 -0.8994 -0.0048
 7755SOL    HW134727   2.893   2.699   0.116  0.7687 -1.6431 -0.8457
 7755SOL    HW234728   2.983   2.737   0.220 -0.4931 -0.4192  0.1679
 7756SOL     OW34729   3.689   1.951   7.806 -0.1800  0.0661 -0.4557
 7756SOL    HW134730   3.749   2.017   7.773 -0.0518  0.9902  1.5764
 7756SOL    HW234731   3.734   1.918   7.884  1.3025  0.6789 -1.0633
 7757SOL     OW34732   0.159   2.719  10.164  0.0694 -0.1753  0.5310
 7757SOL    HW134733   0.241   2.755  10.131  0.6224 -0.4075  1.6548
 7757SOL    HW234734   0.127   2.672  10.088  0.2270  0.4086  0.1025
 7758SOL     OW34735   1.181   0.494   8.178 -0.4280 -0.2710 -0.2817
 7758SOL    HW134736   1.206   0.402   8.171  0.2594  0.1794 -3.7943
 7758SOL    HW234737   1.201   0.513   8.270  3.2893 -5.1090 -0.0593
 7759SOL     OW34738   0.052   1.791   5.578 -0.5823 -0.0089  0.6244
 7759SOL    HW134739   4.720   1.774   5.500  1.1600  0.6524 -0.7158
 7759SOL    HW234740   4.705   1.804   5.643 -0.3291  1.2679  0.6402
 7760SOL     OW34741   2.435   3.570   9.467  0.2553 -0.0357 -0.5062
 7760SOL    HW134742   2.398   3.596   9.552 -1.4352  0.5173 -1.4307
 7760SOL    HW234743   2.434   3.658   9.431  1.5111 -0.1830 -0.9116
 7761SOL     OW34744   2.601   1.013  14.064 -0.2975 -0.2127  0.3058
 7761SOL    HW134745   2.554   0.953  14.007 -0.6560  0.4542 -0.1049
 7761SOL    HW234746   2.682   1.035  14.017 -0.4010 -0.4985  0.0035
 7762SOL     OW34747   0.247   4.526   2.014  0.0649  0.0554  0.5798
 7762SOL    HW134748   0.307   4.488   2.078  0.4320  0.3393  0.4091
 7762SOL    HW234749   0.246   4.617   2.045 -2.2066  0.0992  0.3340
 7763SOL     OW34750   0.468   2.661  12.315  0.4129  0.3665 -0.6981
 7763SOL    HW134751   0.494   2.600  12.246 -0.9819 -0.4521 -0.5001
 7763SOL    HW234752   0.407   2.722  12.273 -2.1249 -3.5944 -2.7094
 7764SOL     OW34753   1.346   0.692   9.647  0.1491  0.1238 -0.1852
 7764SOL    HW134754   1.269   0.678   9.592 -0.5632 -0.9517  1.0754
 7764SOL    HW234755   1.316   0.671   9.736  0.2710  0.6231 -0.0291
 7765SOL     OW34756   4.492   0.998   9.472  0.0332 -0.1973  0.0670
 7765SOL    HW134757   4.418   1.032   9.422  0.8126  0.0396 -0.9242
 7765SOL    HW234758   4.476   1.024   9.563 -3.4991 -3.2996  0.3525
 7766SOL     OW34759   1.039   3.822   0.212 -0.5676 -0.4523  0.4863
 7766SOL    HW134760   1.073   3.783   0.131  1.5335  3.2556 -0.4031
 7766SOL    HW234761   1.101   3.804   0.283  0.3781 -1.2106 -0.5178
 7767SOL     OW34762   0.208   2.272   3.028  0.0670  0.3529 -0.3336
 7767SOL    HW134763   0.115   2.269   3.006  0.0208  1.6906 -0.3372
 7767SOL    HW234764   0.229   2.186   2.991  0.7137  0.3553  0.0336
 7768SOL     OW34765   1.616   2.215   1.175  0.6534  0.1422 -0.1141
 7768SOL    HW134766   1.707   2.228   1.148  0.5987 -0.0660 -0.4004
 7768SOL    HW234767   1.572   2.222   1.090 -0.7270 -1.6805  0.4440
 7769SOL     OW34768   1.389   4.621  11.290 -0.6284 -0.0755 -0.1740
 7769SOL    HW134769   1.458   4.668  11.337 -0.0131  0.5306 -1.7028
 7769SOL    HW234770   1.321   4.634  11.356  0.5734 -0.2340  1.1093
 7770SOL     OW34771   2.849   0.941   8.065  0.3652  0.0380  0.4032
 7770SOL    HW134772   2.764   0.941   8.020 -0.1024 -1.6920  1.2893
 7770SOL    HW234773   2.823   0.936   8.157 -1.0900  0.4526  0.0214
 7771SOL     OW34774   0.461   4.232   9.715 -0.2444  0.0774  0.2753
 7771SOL    HW134775   0.451   4.322   9.747  1.4576  0.8906 -1.4937
 7771SOL    HW234776   0.555   4.225   9.726 -0.5513 -0.7134  2.3071
 7772SOL     OW34777   4.641   1.348  15.414  1.0747 -0.1698  0.2424
 7772SOL    HW134778   4.557   1.304  15.408  1.1985  0.0538 -3.0386
 7772SOL    HW234779   4.629   1.397  15.495  1.0152  1.7095 -0.9134
 7773SOL     OW34780   3.429   4.436   7.117 -0.1765  0.3500  0.1571
 7773SOL    HW134781   3.377   4.456   7.195 -1.6567 -0.5329 -0.6005
 7773SOL    HW234782   3.477   4.518   7.109 -0.4323  0.5381  0.5129
 7774SOL     OW34783   1.433   0.583   4.192  1.0179  0.8669  0.7872
 7774SOL    HW134784   1.368   0.654   4.201 -0.8261 -0.9940  2.0722
 7774SOL    HW234785   1.407   0.551   4.106 -0.1860 -0.3684  1.6081
 7775SOL     OW34786   4.370   4.044   7.809  0.2473 -0.1479  0.4426
 7775SOL    HW134787   4.307   4.098   7.856  0.6071  0.3390  0.3711
 7775SOL    HW234788   4.332   4.058   7.722 -0.2835  0.5182  0.7843
 7776SOL     OW34789   4.104   2.349   2.009  0.3407  0.0302 -0.0137
 7776SOL    HW134790   4.037   2.361   1.942 -1.0144 -1.3643  1.0927
 7776SOL    HW234791   4.051   2.325   2.085  3.8423 -0.7039  2.2338
 7777SOL     OW34792   2.043   4.517   4.512  0.8503  0.1630  1.0258
 7777SOL    HW134793   2.083   4.595   4.550  0.9374  0.1695  0.9187
 7777SOL    HW234794   2.121   4.482   4.470 -0.3895  0.0764 -1.2550
 7778SOL     OW34795   0.961   3.307   0.870  0.2268  0.3694  0.1118
 7778SOL    HW134796   0.910   3.275   0.944 -0.8078 -0.0206 -0.7649
 7778SOL    HW234797   0.893   3.346   0.814 -2.7517 -1.8310  2.2414
 7779SOL     OW34798   0.784   4.406  12.752 -0.3281 -0.1150 -0.2244
 7779SOL    HW134799   0.878   4.423  12.763 -0.0893 -0.7767 -1.2417
 7779SOL    HW234800   0.787   4.321  12.709 -0.4073  0.3214 -1.1001
 7780SOL     OW34801   1.594   3.785   4.755  0.3953  0.0645 -0.0579
 7780SOL    HW134802   1.561   3.858   4.701 -1.1382 -0.4501  0.1668
 7780SOL    HW234803   1.667   3.831   4.796  1.8266 -0.3271 -2.1680
 7781SOL     OW34804   3.222   1.881   1.541 -0.1557  0.6023 -0.3168
 7781SOL    HW134805   3.202   1.788   1.531  1.6124  0.0087  1.6869
 7781SOL    HW234806   3.277   1.888   1.462  2.3696 -0.4598  1.3610
 7782SOL     OW34807   3.097   2.741   8.290 -0.4232 -0.1161  0.2978
 7782SOL    HW134808   3.010   2.783   8.286 -0.4445 -0.5149 -2.6801
 7782SOL    HW234809   3.111   2.735   8.385  2.4151 -0.2297 -0.1499
 7783SOL     OW34810   1.840   2.681  13.997  0.4758 -0.0444  0.1612
 7783SOL    HW134811   1.922   2.651  13.958  0.0467 -1.2087  0.1605
 7783SOL    HW234812   1.818   2.742  13.926  0.8091 -0.5794 -0.4051
 7784SOL     OW34813   0.763   1.841   0.722 -0.1769 -0.1035  0.1538
 7784SOL    HW134814   0.713   1.851   0.641  1.7042 -1.0802 -1.1298
 7784SOL    HW234815   0.802   1.923   0.753  0.5322 -1.0167  1.7045
 7785SOL     OW34816   2.452   2.498   7.625 -0.7302 -0.4693 -0.0228
 7785SOL    HW134817   2.473   2.591   7.624  1.4858 -0.9616  0.7285
 7785SOL    HW234818   2.384   2.504   7.557 -1.0934  1.8662  0.5614
 7786SOL     OW34819   3.189   0.803   8.292  0.0692  0.3317  0.1329
 7786SOL    HW134820   3.099   0.790   8.261 -0.3702  0.4617  1.3396
 7786SOL    HW234821   3.236   0.726   8.260  1.6957  1.5856 -0.5327
 7787SOL     OW34822   4.553   1.102   9.750 -0.1221 -0.9466  0.3578
 7787SOL    HW134823   4.530   1.193   9.768  2.0870 -0.3415  0.1961
 7787SOL    HW234824   4.645   1.090   9.776 -0.3949 -0.7945  1.3890
 7788SOL     OW34825   4.572   3.596   8.549  0.2311 -0.0422 -0.0986
 7788SOL    HW134826   4.604   3.509   8.574 -2.2446 -0.9833 -0.2055
 7788SOL    HW234827   4.586   3.637   8.634 -1.4057 -0.0811  0.1841
 7789SOL     OW34828   3.507   3.777   3.703 -1.3226 -0.0238  0.1385
 7789SOL    HW134829   3.523   3.731   3.785 -0.2881 -2.5096 -1.4535
 7789SOL    HW234830   3.451   3.707   3.669 -1.7545 -0.6262  2.1055
 7790SOL     OW34831   1.957   3.218   5.061 -0.3297 -0.2343  0.3625
 7790SOL    HW134832   1.998   3.156   5.121  0.5594 -0.7694 -0.7936
 7790SOL    HW234833   2.024   3.228   4.994 -0.0367 -0.5594  0.6111
 7791SOL     OW34834   1.358   4.311   6.568 -0.5835  0.2582  0.0302
 7791SOL    HW134835   1.315   4.393   6.592 -0.6814  0.5107 -1.0301
 7791SOL    HW234836   1.349   4.253   6.644  0.0705 -0.4337 -0.4218
 7792SOL     OW34837   4.334   1.608   7.505 -0.5460  0.0164 -0.1661
 7792SOL    HW134838   4.352   1.570   7.420  1.1725 -1.1787  0.7353
 7792SOL    HW234839   4.239   1.609   7.501 -0.5769  2.7547  0.5568
 7793SOL     OW34840   3.338   1.589  17.130 -0.3517  0.4126  0.3387
 7793SOL    HW134841   3.351   1.501  17.165  1.0269  1.0746  1.4807
 7793SOL    HW234842   3.253   1.608  17.170  0.3243 -0.8845  2.4219
 7794SOL     OW34843   3.957   0.560  17.309 -0.5714 -0.1862 -0.4506
 7794SOL    HW134844   3.879   0.542  17.362 -1.3454  0.9717 -1.1948
 7794SOL    HW234845   4.001   0.620  17.370 -0.2557  0.9904 -1.8455
 7795SOL     OW34846   0.807   4.273   1.085  0.0513 -0.2581  0.1582
 7795SOL    HW134847   0.844   4.193   1.049  1.2476 -0.5644  2.0411
 7795SOL    HW234848   0.821   4.335   1.013  0.4082  0.5511  0.9227
 7796SOL     OW34849   4.147   0.148   8.948 -0.4217 -0.0406 -0.2365
 7796SOL    HW134850   4.184   0.116   9.031 -0.6005  1.0847  0.2759
 7796SOL    HW234851   4.194   0.231   8.943  1.4557 -0.9564  1.8725
 7797SOL     OW34852   3.560   2.955   0.494 -0.3252 -0.4225  0.0486
 7797SOL    HW134853   3.602   2.874   0.466  1.1630  0.9848 -1.7804
 7797SOL    HW234854   3.588   2.966   0.585  3.3993 -0.1299 -1.1187
 7798SOL     OW34855   2.283   2.857   5.183  0.1868  0.0390  0.0098
 7798SOL    HW134856   2.364   2.897   5.215  0.5595 -1.2639  0.6956
 7798SOL    HW234857   2.300   2.842   5.090  1.8543 -0.8966  0.4628
 7799SOL     OW34858   4.031   2.286   2.444 -0.4746 -0.4232  0.4190
 7799SOL    HW134859   4.118   2.293   2.405 -0.2614 -1.0832  0.7824
 7799SOL    HW234860   3.972   2.285   2.369  1.4331  0.8633 -1.1110
 7800SOL     OW34861   0.702   2.151  10.993  0.4053  0.4943 -0.4629
 7800SOL    HW134862   0.673   2.076  11.045  1.4376 -0.8664 -1.8648
 7800SOL    HW234863   0.652   2.141  10.912  2.0019 -1.7667 -1.1559
 7801SOL     OW34864   4.633   4.228  11.890 -0.1361 -0.2928 -0.2951
 7801SOL    HW134865   4.542   4.256  11.896 -0.1719 -0.7092  1.2544
 7801SOL    HW234866   4.647   4.236  11.796 -0.2308 -3.3169 -0.5707
 7802SOL     OW34867   2.024   0.058  17.376 -0.1140 -0.0556  0.0673
 7802SOL    HW134868   1.946   0.086  17.329  0.4383  0.8321 -0.3026
 7802SOL    HW234869   2.082   0.133  17.385  1.3384 -1.1800  0.1779
 7803SOL     OW34870   0.576   4.221   5.791  0.5253 -0.6382 -0.0285
 7803SOL    HW134871   0.619   4.277   5.856 -1.9354 -1.8059  2.6063
 7803SOL    HW234872   0.581   4.145   5.849 -1.0153  1.3161  2.6742
 7804SOL     OW34873   1.922   3.337   3.785  0.1585  0.7646 -0.3352
 7804SOL    HW134874   1.870   3.411   3.816 -1.4171 -1.0615  1.3375
 7804SOL    HW234875   1.858   3.294   3.727  1.7824  0.1850 -1.7060
 7805SOL     OW34876   0.956   3.121  14.780 -0.0164  0.4790  0.2600
 7805SOL    HW134877   0.913   3.196  14.821 -0.5737 -0.3353  1.1536
 7805SOL    HW234878   0.888   3.086  14.723 -1.2957  0.6096  1.7045
 7806SOL     OW34879   3.797   3.767   5.851 -0.0631 -0.4797 -0.3613
 7806SOL    HW134880   3.834   3.696   5.799 -1.8910 -1.0625 -0.8845
 7806SOL    HW234881   3.792   3.718   5.933  0.6581  1.3822  0.8086
 7807SOL     OW34882   3.950   1.465   0.610 -0.0625 -0.1622  0.0987
 7807SOL    HW134883   3.958   1.521   0.687  0.6539 -1.2010  0.7794
 7807SOL    HW234884   3.882   1.510   0.558  2.7269  2.9575 -0.8356
 7808SOL     OW34885   1.232   4.115   2.665  0.1634  0.3484  0.0030
 7808SOL    HW134886   1.258   4.030   2.629  1.1528  0.3661  0.6775
 7808SOL    HW234887   1.251   4.172   2.590  0.6973 -0.0230 -0.1476
 7809SOL     OW34888   1.182   4.560   9.208 -0.3810  0.2601 -0.2906
 7809SOL    HW134889   1.207   4.651   9.224  1.4974 -0.4827  0.8959
 7809SOL    HW234890   1.270   4.523   9.206 -0.3168  0.4459 -1.1112
 7810SOL     OW34891   4.044   1.417   1.505 -0.1652  0.4843 -0.3989
 7810SOL    HW134892   3.957   1.432   1.470 -0.2538 -0.6985 -0.6782
 7810SOL    HW234893   4.059   1.473   1.582  0.3587 -0.1224 -0.0565
 7811SOL     OW34894   2.241   2.484   1.871  0.0277  0.5877  0.2261
 7811SOL    HW134895   2.300   2.466   1.944  2.5287 -1.6616 -2.3711
 7811SOL    HW234896   2.308   2.501   1.805 -0.6387 -2.1013 -1.1147
 7812SOL     OW34897   0.280   1.373   2.331 -0.3242 -0.2822  0.3145
 7812SOL    HW134898   0.274   1.325   2.413  1.3296  1.3985  1.4288
 7812SOL    HW234899   0.375   1.376   2.326 -0.1897 -1.4350  2.0808
 7813SOL     OW34900   1.691   3.298  11.767  1.2792 -0.0045  0.4838
 7813SOL    HW134901   1.671   3.244  11.690 -0.7212 -0.8203  1.5950
 7813SOL    HW234902   1.690   3.227  11.830  0.8452  0.3914  0.9213
 7814SOL     OW34903   2.417   2.886   6.020 -0.7062  0.1353 -0.1822
 7814SOL    HW134904   2.379   2.800   6.000  1.8372 -1.1711  0.6141
 7814SOL    HW234905   2.497   2.897   5.969 -0.6034 -0.7850 -0.2233
 7815SOL     OW34906   2.270   1.168   4.944 -0.2126  0.3818  0.4417
 7815SOL    HW134907   2.277   1.098   5.009  0.0240  0.9971  1.0749
 7815SOL    HW234908   2.304   1.239   4.998  0.4688 -0.0085  0.5217
 7816SOL     OW34909   2.927   3.990   0.979 -0.2795  0.0500  0.0845
 7816SOL    HW134910   3.011   4.036   0.987  0.4657 -1.0623 -1.3563
 7816SOL    HW234911   2.951   3.898   0.987 -0.9207 -0.4384 -3.5170
 7817SOL     OW34912   3.429   0.520   8.911 -0.1810 -0.4804  0.2634
 7817SOL    HW134913   3.408   0.613   8.919 -0.6418 -0.6109  0.5645
 7817SOL    HW234914   3.466   0.521   8.823 -0.4182  1.0525  0.1658
 7818SOL     OW34915   3.352   1.898   2.784  0.3081 -0.1834  0.9579
 7818SOL    HW134916   3.354   1.832   2.853  1.7679  1.7231  2.7498
 7818SOL    HW234917   3.421   1.871   2.723  0.4684  2.8511 -0.2413
 7819SOL     OW34918   1.013   2.245   0.937  0.7872  0.5406  0.0754
 7819SOL    HW134919   0.946   2.289   0.990  1.6234  0.6119  1.0580
 7819SOL    HW234920   1.082   2.237   1.002 -0.2363 -0.6758  1.0133
 7820SOL     OW34921   1.078   2.790  14.760 -0.1845 -0.3000 -0.5465
 7820SOL    HW134922   1.027   2.711  14.740  2.6304 -2.5501  1.1924
 7820SOL    HW234923   1.168   2.759  14.766  0.7850  2.5786 -0.2093
 7821SOL     OW34924   1.091   0.555  12.009 -0.0527 -0.5550  0.7966
 7821SOL    HW134925   1.164   0.574  11.949 -1.7551  1.9998 -0.5198
 7821SOL    HW234926   1.016   0.581  11.955  2.8694  3.0389 -1.5510
 7822SOL     OW34927   4.445   2.341   9.523  0.2785  0.2007 -0.7370
 7822SOL    HW134928   4.440   2.296   9.439  1.8634  3.2896 -2.4799
 7822SOL    HW234929   4.358   2.379   9.534  0.1365 -0.3794  0.1756
 7823SOL     OW34930   0.887   0.072  14.612 -0.6785  0.0812 -0.2133
 7823SOL    HW134931   0.928   0.151  14.648  1.5088 -1.5466  0.8285
 7823SOL    HW234932   0.828   0.103  14.543 -0.1566  0.1414 -0.6313
 7824SOL     OW34933   2.415   3.384   8.082 -0.4422  0.3973  0.0709
 7824SOL    HW134934   2.469   3.456   8.050 -1.8293  1.0239 -0.8850
 7824SOL    HW234935   2.389   3.432   8.161  1.5364 -0.2231  1.1027
 7825SOL     OW34936   0.553   0.869  17.547 -0.3624  0.2490 -0.2662
 7825SOL    HW134937   0.516   0.867  17.635 -0.8932  0.6209 -0.4755
 7825SOL    HW234938   0.473   0.871  17.495 -1.5386 -0.6583  1.4969
 7826SOL     OW34939   3.369   1.459   2.691  0.8896 -0.6097 -0.2794
 7826SOL    HW134940   3.456   1.453   2.731  0.8861  2.2448  0.1421
 7826SOL    HW234941   3.376   1.547   2.656  0.5559 -0.1858  0.7184
 7827SOL     OW34942   1.132   3.325  14.407  0.0456 -0.4904  0.4729
 7827SOL    HW134943   1.180   3.340  14.326 -0.9905 -0.1918 -0.0824
 7827SOL    HW234944   1.043   3.301  14.381 -0.2442  0.7370  0.3626
 7828SOL     OW34945   0.222   2.734   1.122  0.9981 -0.6601  0.0030
 7828SOL    HW134946   0.169   2.800   1.078  0.2411 -0.8323  0.6643
 7828SOL    HW234947   0.235   2.669   1.053  2.1940 -1.8932  1.3938
 7829SOL     OW34948   0.300   1.457   2.968 -0.7932  0.0988  0.1650
 7829SOL    HW134949   0.267   1.476   2.880  1.7559  1.3253 -0.5488
 7829SOL    HW234950   0.271   1.366   2.964  0.3694 -0.3411  2.0537
 7830SOL     OW34951   2.289   4.068   7.299 -0.3573  0.0715  0.5207
 7830SOL    HW134952   2.247   4.149   7.270  1.8703  1.8754  2.2805
 7830SOL    HW234953   2.234   3.999   7.261 -0.6747  2.1211 -2.6790
 7831SOL     OW34954   3.392   1.861   9.236 -0.0699  0.1785 -0.3278
 7831SOL    HW134955   3.486   1.868   9.219  0.5171 -2.4335  1.8136
 7831SOL    HW234956   3.359   1.943   9.200  0.6543  0.5822 -0.0774
 7832SOL     OW34957   4.041   1.310   8.474  0.5844 -0.0580 -0.5249
 7832SOL    HW134958   4.093   1.240   8.435 -1.9870 -1.5563 -1.2854
 7832SOL    HW234959   3.959   1.294   8.425 -0.6762 -1.0537  1.9324
 7833SOL     OW34960   4.355   0.283   6.511  0.4572  0.2919 -0.5260
 7833SOL    HW134961   4.326   0.204   6.555 -0.7033  0.1596 -1.5269
 7833SOL    HW234962   4.354   0.257   6.419 -2.9280 -2.6792  0.3838
 7834SOL     OW34963   0.327   4.176   2.277 -0.2749  0.4967 -0.0649
 7834SOL    HW134964   0.303   4.268   2.272 -1.0537  0.2470 -1.0875
 7834SOL    HW234965   0.265   4.146   2.343 -0.5171 -0.8314 -0.8846
 7835SOL     OW34966   2.549   0.811   7.550 -0.3320 -0.7894 -0.0160
 7835SOL    HW134967   2.577   0.861   7.473  2.3391 -0.1973  1.3423
 7835SOL    HW234968   2.473   0.857   7.585  0.3365  1.1168 -1.0608
 7836SOL     OW34969   3.749   0.794   5.383  0.5478 -0.0169 -0.0372
 7836SOL    HW134970   3.717   0.827   5.468  0.7663 -2.1381  0.8730
 7836SOL    HW234971   3.841   0.814   5.401 -0.1252  1.8289  1.4326
 7837SOL     OW34972   2.493   2.231  14.403 -0.3875  0.0707  0.0669
 7837SOL    HW134973   2.452   2.312  14.431 -1.5542 -0.1168 -1.1141
 7837SOL    HW234974   2.495   2.190  14.490 -2.2337  0.4775  0.2896
 7838SOL     OW34975   2.236   1.479   6.049 -0.6370 -0.3890  0.0241
 7838SOL    HW134976   2.169   1.417   6.077  0.6692 -1.9476 -0.2733
 7838SOL    HW234977   2.185   1.560   6.055 -0.1746 -0.2650  2.2791
 7839SOL     OW34978   0.467   0.329  17.104  0.4224  0.4773  0.0335
 7839SOL    HW134979   0.432   0.347  17.016 -3.5448  0.6472  1.6626
 7839SOL    HW234980   0.467   0.421  17.130 -1.1098  0.5343 -0.1176
 7840SOL     OW34981   0.203   2.708  17.669  0.0654  0.3778 -0.0476
 7840SOL    HW134982   0.204   2.666  17.583  3.0810 -1.1407  0.7284
 7840SOL    HW234983   0.172   2.637   0.037 -0.3798  2.0596  1.8425
 7841SOL     OW34984   3.781   3.410   9.973  0.0422 -0.1159  0.2586
 7841SOL    HW134985   3.854   3.432  10.030  0.4329 -2.2501  0.5905
 7841SOL    HW234986   3.708   3.447  10.022  0.7440 -0.6207  1.6711
 7842SOL     OW34987   0.496   1.778   1.795  0.1359  0.5057  0.5733
 7842SOL    HW134988   0.557   1.720   1.841 -1.2818 -3.7308 -2.8960
 7842SOL    HW234989   0.425   1.715   1.799  0.1736  0.4811  0.8633
 7843SOL     OW34990   2.610   0.572   4.267  0.1908 -0.2376 -0.0277
 7843SOL    HW134991   2.650   0.532   4.189 -3.2921 -2.4664 -0.6849
 7843SOL    HW234992   2.688   0.582   4.322 -1.7687 -1.8246  3.0415
 7844SOL     OW34993   2.384   0.149   9.267 -0.5319 -0.0659  0.9640
 7844SOL    HW134994   2.468   0.193   9.280 -0.2176 -0.2357 -0.4797
 7844SOL    HW234995   2.368   0.176   9.177  1.2114 -0.0492  0.6515
 7845SOL     OW34996   2.945   3.925   8.163  0.2504 -0.1212  0.0991
 7845SOL    HW134997   3.004   3.888   8.097 -0.1650  1.3135 -1.0812
 7845SOL    HW234998   2.992   3.897   8.241  0.5399 -0.1002 -0.0666
 7846SOL     OW34999   3.323   2.277   7.915  0.1876  0.3487 -0.4980
 7846SOL    HW135000   3.386   2.207   7.934 -0.7920 -0.6611 -0.9434
 7846SOL    HW235001   3.277   2.287   7.998  2.5449 -2.9802  1.1801
 7847SOL     OW35002   2.186   2.408   8.295 -0.0058 -0.4073  0.0486
 7847SOL    HW135003   2.239   2.423   8.216 -0.7517 -0.4937 -0.4661
 7847SOL    HW235004   2.143   2.326   8.270 -0.5183 -0.3176  0.6348
 7848SOL     OW35005   1.933   3.494   7.574 -0.4286  1.0468  0.2842
 7848SOL    HW135006   1.959   3.421   7.630  0.6701  1.1160 -0.1318
 7848SOL    HW235007   1.938   3.574   7.625  1.3969  1.5517 -0.7221
 7849SOL     OW35008   2.217   0.670  14.115  0.1525 -0.5572 -0.3505
 7849SOL    HW135009   2.276   0.635  14.182 -0.1623  0.0580  0.2363
 7849SOL    HW235010   2.130   0.635  14.133 -1.2631  2.2874 -1.7644
 7850SOL     OW35011   0.403   3.354  10.488 -0.0380  0.8905 -0.1400
 7850SOL    HW135012   0.357   3.420  10.540 -0.8848  1.8282 -2.0958
 7850SOL    HW235013   0.454   3.312  10.558  0.4461 -0.8623 -1.5458
 7851SOL     OW35014   4.626   1.106   4.090  0.1162  0.2358  0.4052
 7851SOL    HW135015   4.630   1.073   4.180  1.3433 -0.3574  0.1339
 7851SOL    HW235016   4.681   1.039   4.049  0.6052  0.7236  0.2693
 7852SOL     OW35017   3.259   3.209   7.459 -0.1939 -0.7538 -0.5213
 7852SOL    HW135018   3.223   3.245   7.540 -1.0596 -0.8776 -0.8585
 7852SOL    HW235019   3.345   3.250   7.450  0.2330 -1.4076  0.5217
 7853SOL     OW35020   1.148   2.176   4.399 -0.6438  0.5768 -0.0849
 7853SOL    HW135021   1.149   2.164   4.304  0.3383  1.7780 -0.2104
 7853SOL    HW235022   1.241   2.175   4.420 -0.6021 -1.6573 -0.3205
 7854SOL     OW35023   3.029   2.552   9.553 -0.1534  1.3948  0.8159
 7854SOL    HW135024   2.935   2.569   9.544 -0.2216  0.1111 -0.8587
 7854SOL    HW235025   3.066   2.630   9.513 -1.2084  0.9112 -1.1292
 7855SOL     OW35026   3.068   3.829   4.659 -1.1239  0.3249 -0.3439
 7855SOL    HW135027   2.981   3.797   4.683 -0.9479  0.2524  0.2045
 7855SOL    HW235028   3.096   3.765   4.595 -0.2051  1.1055 -0.7227
 7856SOL     OW35029   0.042   1.459   0.285  0.4402 -0.3617 -0.3032
 7856SOL    HW135030   4.693   1.503   0.237  0.8056 -0.3127 -0.7892
 7856SOL    HW235031   0.029   1.505   0.368  0.7250 -1.6649  0.4737
 7857SOL     OW35032   3.722   3.079  10.802  0.8176  0.3424  0.3568
 7857SOL    HW135033   3.799   3.039  10.761  0.6704  1.2664 -0.8273
 7857SOL    HW235034   3.696   3.009  10.862  0.1733  0.5581  0.3261
 7858SOL     OW35035   2.918   3.059  14.441 -0.2898 -0.5621 -0.3680
 7858SOL    HW135036   2.955   2.993  14.500 -0.6068 -0.0255  0.4270
 7858SOL    HW235037   2.829   3.063  14.476 -0.3512 -0.3714 -0.5462
 7859SOL     OW35038   4.474   2.079   6.441 -0.3655  0.3892 -1.0981
 7859SOL    HW135039   4.454   2.167   6.408  1.5223  1.0579 -0.4456
 7859SOL    HW235040   4.453   2.025   6.364  2.5442  0.1558 -1.7171
 7860SOL     OW35041   3.083   1.681   8.734  0.0263 -0.2947  0.1270
 7860SOL    HW135042   3.155   1.742   8.752 -1.0170  0.9164  0.1875
 7860SOL    HW235043   3.117   1.592   8.742  0.5323  0.0136  1.3982
 7861SOL     OW35044   1.548   3.100   2.649 -0.1643  0.4606  0.3036
 7861SOL    HW135045   1.524   3.176   2.703  0.4231  2.3188 -2.0177
 7861SOL    HW235046   1.529   3.028   2.708  2.5952 -0.9218 -0.4866
 7862SOL     OW35047   0.329   0.397  11.078  1.1030  0.3924  0.0575
 7862SOL    HW135048   0.354   0.489  11.083  0.9069  0.4061  0.7334
 7862SOL    HW235049   0.263   0.387  11.147  0.0747 -2.2014 -1.3065
 7863SOL     OW35050   4.426   2.421   0.661 -0.3932  0.4884  0.9046
 7863SOL    HW135051   4.406   2.345   0.607 -1.6472  0.2838  1.6823
 7863SOL    HW235052   4.379   2.485   0.607  0.2684  1.3924  1.4059
 7864SOL     OW35053   4.417   3.929  17.096  0.3699 -0.0571  0.0745
 7864SOL    HW135054   4.424   3.908  17.003 -0.3420  0.1422 -0.0193
 7864SOL    HW235055   4.379   3.847  17.127  1.7192  0.2429  2.5731
 7865SOL     OW35056   0.741   2.440  13.043  0.5211 -0.1087 -0.2142
 7865SOL    HW135057   0.706   2.396  12.966 -2.5622  2.6589 -0.3827
 7865SOL    HW235058   0.682   2.402  13.108 -1.9034  0.0972 -2.3459
 7866SOL     OW35059   3.038   3.604   3.047  0.4796 -0.3313  0.3024
 7866SOL    HW135060   3.055   3.516   3.014 -1.8541 -0.5974 -0.1823
 7866SOL    HW235061   3.086   3.658   2.984 -2.8086  2.4384  0.1724
 7867SOL     OW35062   2.643   3.561  11.848  0.4329 -0.2008  0.4785
 7867SOL    HW135063   2.731   3.572  11.814  0.2187 -0.3573 -0.1153
 7867SOL    HW235064   2.587   3.600  11.781 -0.7209 -0.1342  1.4636
 7868SOL     OW35065   0.736   1.915  17.501 -0.3893 -0.6317  0.1293
 7868SOL    HW135066   0.790   1.909  17.422  0.1901 -1.6662  0.6022
 7868SOL    HW235067   0.647   1.934  17.473 -1.1561  0.1449  3.0798
 7869SOL     OW35068   1.808   2.066   6.947  0.2688  0.5558 -0.5306
 7869SOL    HW135069   1.768   1.996   6.896  1.1875 -1.8067  1.9926
 7869SOL    HW235070   1.769   2.021   7.022  1.3003  0.9754  0.2628
 7870SOL     OW35071   4.620   3.829   9.555  0.0995 -0.1201 -0.1959
 7870SOL    HW135072   4.700   3.842   9.606 -0.5949 -1.9619  1.3571
 7870SOL    HW235073   4.546   3.836   9.616  1.0092  1.7627  0.6926
 7871SOL     OW35074   2.223   1.999   6.603 -0.6727  0.1003  0.0148
 7871SOL    HW135075   2.144   1.994   6.657  0.1635  1.0788  1.3155
 7871SOL    HW235076   2.239   2.093   6.600 -0.4954  0.0445 -0.6551
 7872SOL     OW35077   3.754   2.264   3.646  0.9452 -0.0052  0.6709
 7872SOL    HW135078   3.847   2.287   3.644  0.8788  0.1082 -0.7902
 7872SOL    HW235079   3.756   2.168   3.650  0.9908 -0.0341 -0.2659
 7873SOL     OW35080   2.716   4.146   4.393 -0.1908 -0.1480  0.7746
 7873SOL    HW135081   2.687   4.237   4.403 -0.6848 -0.1512 -0.7013
 7873SOL    HW235082   2.672   4.127   4.310 -1.3073 -0.2640  1.3934
 7874SOL     OW35083   1.096   4.679   6.268  0.1737  0.6614  0.5646
 7874SOL    HW135084   1.189   4.660   6.253 -1.3600 -4.3641 -2.6514
 7874SOL    HW235085   1.051   4.607   6.224  0.6840  0.7980 -0.1833
 7875SOL     OW35086   0.276   1.630   4.417  0.2587 -0.2508  0.0933
 7875SOL    HW135087   0.367   1.608   4.435 -0.2870  0.4069  3.6485
 7875SOL    HW235088   0.261   1.567   4.346 -2.7824 -1.6789  2.0046
 7876SOL     OW35089   1.685   3.983   4.137  0.0242  0.1951  0.1151
 7876SOL    HW135090   1.711   4.044   4.067 -1.6870 -0.5064 -1.1045
 7876SOL    HW235091   1.601   4.024   4.155  0.8934  2.2789 -0.5542
 7877SOL     OW35092   2.744   4.452   5.934 -0.6411  0.0265  0.1663
 7877SOL    HW135093   2.734   4.359   5.955  1.1290 -0.0545  0.6203
 7877SOL    HW235094   2.839   4.450   5.941 -0.7348 -2.3250  0.8113
 7878SOL     OW35095   2.922   2.824   1.565  0.3278 -0.5270 -0.1179
 7878SOL    HW135096   2.897   2.833   1.657  1.2905 -0.6342  0.1550
 7878SOL    HW235097   3.005   2.776   1.569  0.5945 -0.1318 -1.0419
 7879SOL     OW35098   1.449   0.392   5.844 -0.2599  0.4814 -0.2009
 7879SOL    HW135099   1.484   0.477   5.870 -0.2676  0.3378  0.2638
 7879SOL    HW235100   1.494   0.330   5.901 -1.3676 -3.8121 -4.0143
 7880SOL     OW35101   0.209   2.874   3.153  0.0357 -0.4482 -0.4731
 7880SOL    HW135102   0.276   2.923   3.201 -1.1355 -0.7825  1.5055
 7880SOL    HW235103   0.127   2.888   3.200 -0.6607 -0.7801 -1.5907
 7881SOL     OW35104   0.027   2.940  10.205  0.5900  0.2485 -0.3258
 7881SOL    HW135105   0.076   2.858  10.195  1.3954  0.7875 -0.8398
 7881SOL    HW235106   0.100   2.998  10.182  0.4387  1.3178  1.8430
 7882SOL     OW35107   1.499   1.674   9.929  0.1064  0.3187 -0.0687
 7882SOL    HW135108   1.455   1.756   9.951 -2.2664 -1.8628  3.2607
 7882SOL    HW235109   1.527   1.644  10.015 -0.1401  1.2764  0.3479
 7883SOL     OW35110   4.395   3.030   5.332  0.1838 -0.5705 -0.6794
 7883SOL    HW135111   4.327   2.988   5.385 -1.8258 -0.0355 -2.8377
 7883SOL    HW235112   4.340   3.079   5.272  0.2024  2.0979  1.4963
 7884SOL     OW35113   3.758   4.077   6.358  0.2614  0.0594 -0.1957
 7884SOL    HW135114   3.810   4.026   6.420  1.1945  1.0606 -0.1593
 7884SOL    HW235115   3.678   4.026   6.353 -0.5307  1.4114 -1.2904
 7885SOL     OW35116   1.503   3.484   3.871 -0.0106 -0.4577 -0.1206
 7885SOL    HW135117   1.539   3.503   3.958 -0.9411  0.5570  0.0403
 7885SOL    HW235118   1.415   3.460   3.901  0.2838  1.5951  2.3814
 7886SOL     OW35119   2.848   2.529   3.065 -0.1918 -0.7564 -0.2465
 7886SOL    HW135120   2.761   2.491   3.049  0.0988 -1.4875 -0.0887
 7886SOL    HW235121   2.867   2.543   2.972 -1.6670 -0.9165 -0.5717
 7887SOL     OW35122   3.412   1.940  16.782  0.4733  0.3201  0.5376
 7887SOL    HW135123   3.371   1.856  16.800  0.3470  0.0358 -1.0894
 7887SOL    HW235124   3.432   1.936  16.689 -0.0887  1.1517  0.3844
 7888SOL     OW35125   2.076   2.299   3.778  0.5212 -1.0481 -0.2145
 7888SOL    HW135126   2.129   2.349   3.840  2.0551 -0.6509 -1.8337
 7888SOL    HW235127   2.144   2.261   3.722  0.4206 -1.1689 -0.2550
 7889SOL     OW35128   2.881   3.634  14.633 -0.2099  0.0052  0.7489
 7889SOL    HW135129   2.911   3.590  14.713  2.4294 -1.3405 -0.9712
 7889SOL    HW235130   2.852   3.561  14.578 -0.4553 -0.4156  1.4327
 7890SOL     OW35131   4.162   4.567  14.295  0.3999  0.1826  0.2706
 7890SOL    HW135132   4.210   4.639  14.255 -1.4166  1.0935 -0.2651
 7890SOL    HW235133   4.097   4.548  14.228 -0.9054 -1.0596  1.8822
 7891SOL     OW35134   3.250   4.285  17.120  0.1794  0.5584  0.0395
 7891SOL    HW135135   3.322   4.348  17.113 -1.5167  2.4581 -0.3195
 7891SOL    HW235136   3.244   4.277  17.216  0.7213  0.6134  0.0778
 7892SOL     OW35137   4.049   4.717   6.721  0.2020  0.2132 -0.1317
 7892SOL    HW135138   4.015   4.628   6.715  2.1077 -0.6112  1.5626
 7892SOL    HW235139   4.109   4.711   6.647 -2.6914 -0.7339 -2.4347
 7893SOL     OW35140   1.206   0.886  11.984 -0.3799 -0.4023 -0.1118
 7893SOL    HW135141   1.137   0.883  12.050  0.3878  0.6577  0.7324
 7893SOL    HW235142   1.213   0.796  11.951 -2.9422 -0.3162 -0.9169
 7894SOL     OW35143   4.459   0.920   8.271  0.0981  0.0373 -0.3171
 7894SOL    HW135144   4.531   0.908   8.332 -0.1756  0.0923  0.0206
 7894SOL    HW235145   4.479   0.850   8.210  0.9448 -2.7948  3.1966
 7895SOL     OW35146   2.440   3.866  14.285 -0.1704  0.3712  0.3975
 7895SOL    HW135147   2.455   3.771  14.288 -2.4422  0.0182  0.5960
 7895SOL    HW235148   2.393   3.882  14.203  0.6735  0.4920 -0.0745
 7896SOL     OW35149   2.261   2.439   3.929  0.1246 -0.2158  0.6151
 7896SOL    HW135150   2.259   2.534   3.930  1.9123 -0.1491 -0.5793
 7896SOL    HW235151   2.353   2.423   3.905 -0.3402  0.1713 -1.4000
 7897SOL     OW35152   3.276   0.202   1.557 -0.6268  0.6876  0.2259
 7897SOL    HW135153   3.331   0.141   1.605 -2.4498 -1.3145 -0.2602
 7897SOL    HW235154   3.245   0.141   1.491  2.0696 -0.1409 -0.2844
 7898SOL     OW35155   0.222   3.537   7.999 -0.0639 -0.1760  0.4244
 7898SOL    HW135156   0.146   3.479   8.010  0.0939 -0.6784 -1.1513
 7898SOL    HW235157   0.299   3.481   8.013 -0.7116 -1.1604  0.0495
 7899SOL     OW35158   4.124   1.650   8.882  0.1573 -0.3138  0.5355
 7899SOL    HW135159   4.091   1.718   8.941 -1.0881 -0.2847 -0.1978
 7899SOL    HW235160   4.040   1.625   8.843 -0.3234  0.4364  1.1078
 7900SOL     OW35161   3.943   4.234  15.218  0.0723  0.0217  0.1407
 7900SOL    HW135162   3.978   4.172  15.154 -0.7257  0.9349 -1.1894
 7900SOL    HW235163   3.877   4.171  15.245  1.9616 -1.0090  2.3587
 7901SOL     OW35164   4.607   2.890   5.804  0.0103  0.4104 -0.3611
 7901SOL    HW135165   4.618   2.978   5.768 -1.7922  1.0491  0.6493
 7901SOL    HW235166   4.533   2.905   5.863 -1.1001  0.3598 -1.7386
 7902SOL     OW35167   1.093   1.004   7.829 -0.1193  0.6151 -0.1092
 7902SOL    HW135168   1.093   0.911   7.851  3.0643  1.1312  2.0492
 7902SOL    HW235169   1.088   1.049   7.914  1.5219 -0.4201  0.5341
 7903SOL     OW35170   2.567   1.071   2.512  0.0821  0.0343  0.1284
 7903SOL    HW135171   2.662   1.060   2.507 -0.0978 -2.2373  1.1902
 7903SOL    HW235172   2.540   1.002   2.574  0.1389  0.1630  0.2967
 7904SOL     OW35173   4.045   3.460   5.985  0.2349 -0.2247 -0.2890
 7904SOL    HW135174   3.971   3.511   6.018  1.8635  1.7285  0.2973
 7904SOL    HW235175   4.033   3.462   5.890 -1.7543 -1.6825 -0.0660
 7905SOL     OW35176   2.277   2.354   9.425 -0.3608 -0.1146  0.2480
 7905SOL    HW135177   2.186   2.378   9.440  0.0770  0.9284  1.2293
 7905SOL    HW235178   2.288   2.282   9.487  1.4066  1.2180  1.4916
 7906SOL     OW35179   2.228   1.672  11.577  0.3564 -0.3093  0.2916
 7906SOL    HW135180   2.180   1.612  11.520 -0.4963  0.8548 -0.2213
 7906SOL    HW235181   2.199   1.757  11.542  0.9255 -0.1266  0.2472
 7907SOL     OW35182   0.711   2.558   4.132 -0.3358 -0.5993  0.0895
 7907SOL    HW135183   0.670   2.640   4.158 -0.1854 -0.5348  0.1267
 7907SOL    HW235184   0.642   2.506   4.092 -2.4565  0.9351  1.7354
 7908SOL     OW35185   4.437   3.212  10.865 -0.3296  0.5827  0.2878
 7908SOL    HW135186   4.446   3.125  10.825  0.4782 -0.0487  1.8535
 7908SOL    HW235187   4.472   3.187  10.951  0.8342  2.2849  0.2988
 7909SOL     OW35188   3.700   2.480  12.947 -0.3013  0.1920  0.1578
 7909SOL    HW135189   3.732   2.569  12.931 -0.4412 -0.0757 -1.6480
 7909SOL    HW235190   3.686   2.489  13.041 -0.4445 -2.3387  0.3710
 7910SOL     OW35191   2.394   1.470  16.235  0.1419 -0.1779 -0.1863
 7910SOL    HW135192   2.322   1.423  16.193 -0.0702 -0.8420  0.9368
 7910SOL    HW235193   2.351   1.498  16.316 -1.5122  1.0285 -1.4913
 7911SOL     OW35194   1.104   3.557   2.586 -0.1739 -0.2658  0.1206
 7911SOL    HW135195   1.193   3.579   2.558 -0.5033  0.0568 -0.6481
 7911SOL    HW235196   1.044   3.621   2.549  1.1347  1.1331  0.4359
 7912SOL     OW35197   1.618   2.432  15.499 -0.7829 -0.2618 -0.1483
 7912SOL    HW135198   1.634   2.339  15.511 -0.3210  0.3553  4.0433
 7912SOL    HW235199   1.694   2.464  15.549 -0.3869 -1.1692 -0.1723
 7913SOL     OW35200   0.527   4.405   4.217  0.6190 -0.1470  0.7092
 7913SOL    HW135201   0.477   4.422   4.297 -2.9619  0.4556 -1.6152
 7913SOL    HW235202   0.616   4.414   4.249  0.5931 -2.6222  1.4833
 7914SOL     OW35203   4.502   1.249   8.540  0.4805  0.2275  0.2521
 7914SOL    HW135204   4.508   1.332   8.587 -0.5215  0.1592  0.4873
 7914SOL    HW235205   4.456   1.201   8.609  0.2819  1.0126  0.6674
 7915SOL     OW35206   1.885   1.184  12.908 -0.5522  0.0120 -0.0733
 7915SOL    HW135207   1.974   1.161  12.881 -1.6407 -2.5038 -1.5886
 7915SOL    HW235208   1.897   1.203  13.001  0.2140 -0.1664 -0.1343
 7916SOL     OW35209   4.103   2.033   6.025  0.7758  0.1226 -0.3140
 7916SOL    HW135210   4.154   1.952   6.015 -1.0044 -1.1873  1.2573
 7916SOL    HW235211   4.173   2.095   6.048  0.4075  0.1817  0.6562
 7917SOL     OW35212   2.638   2.022   7.006  0.4613 -0.0112 -0.3137
 7917SOL    HW135213   2.621   2.101   6.955  1.8996  1.9332  2.2094
 7917SOL    HW235214   2.575   1.969   6.958 -1.1806  2.4373 -0.8644
 7918SOL     OW35215   3.574   1.130   7.890 -0.3683 -0.2669  0.1655
 7918SOL    HW135216   3.636   1.080   7.943  1.1147 -0.5883 -1.8547
 7918SOL    HW235217   3.539   1.195   7.950  0.6356  0.0345  0.4304
 7919SOL     OW35218   1.504   3.846   6.606 -0.0162 -0.2414 -0.2335
 7919SOL    HW135219   1.452   3.766   6.610 -0.7656  0.2986  0.6592
 7919SOL    HW235220   1.452   3.904   6.662 -0.2643 -0.7640  0.0712
 7920SOL     OW35221   2.478   0.822   3.391 -0.2413  0.6587 -0.6606
 7920SOL    HW135222   2.506   0.868   3.470  2.8294 -2.4709  0.0500
 7920SOL    HW235223   2.520   0.736   3.401  0.3218  1.0979  0.7471
 7921SOL     OW35224   3.884   1.398   4.466 -0.0870  0.2769  0.4484
 7921SOL    HW135225   3.913   1.342   4.394  0.7683 -0.6658  1.5222
 7921SOL    HW235226   3.868   1.336   4.536 -0.3271 -2.4104 -1.9895
 7922SOL     OW35227   2.015   2.184   6.803  0.6931 -0.2401 -0.3014
 7922SOL    HW135228   2.095   2.147   6.840  0.6510  0.4463  0.4535
 7922SOL    HW235229   1.953   2.124   6.845 -0.2282 -0.0155 -1.3229
 7923SOL     OW35230   0.986   0.215   6.904 -0.5082  0.0612 -0.6459
 7923SOL    HW135231   1.033   0.160   6.965 -3.8931  0.6694  2.4851
 7923SOL    HW235232   0.915   0.247   6.959 -1.0277 -1.6543 -0.3323
 7924SOL     OW35233   4.056   0.212   1.912 -0.0368 -0.1633 -0.5609
 7924SOL    HW135234   3.998   0.153   1.959  0.3431  0.0166  0.1353
 7924SOL    HW235235   3.997   0.255   1.850 -0.5365  1.5204  1.0892
 7925SOL     OW35236   4.698   4.212   8.512  0.0946 -0.1210 -0.5868
 7925SOL    HW135237   0.032   4.262   8.452  1.9480  1.9012  2.7980
 7925SOL    HW235238   0.032   4.231   8.588 -0.1412  2.9712 -1.1646
 7926SOL     OW35239   3.836   4.013  15.335  0.3615  0.2657 -0.0737
 7926SOL    HW135240   3.893   4.019  15.412  0.3539  0.6649 -0.0979
 7926SOL    HW235241   3.832   3.919  15.318 -0.9444  0.1775  0.6679
 7927SOL     OW35242   3.599   1.900   2.584  0.3527  0.1599 -0.9645
 7927SOL    HW135243   3.572   1.990   2.565  2.9358  1.1483  0.0059
 7927SOL    HW235244   3.689   1.906   2.615 -0.1450  3.3817 -0.1571
 7928SOL     OW35245   4.338   1.130   8.707  0.3935 -0.3661  0.0088
 7928SOL    HW135246   4.403   1.079   8.756  1.2652  0.0955 -0.6737
 7928SOL    HW235247   4.259   1.077   8.719 -0.7965  1.3192 -0.5738
 7929SOL     OW35248   4.676   2.905   3.268 -0.3260 -0.4891 -0.1924
 7929SOL    HW135249   4.685   2.881   3.360  2.2873  0.1877 -0.2745
 7929SOL    HW235250   4.619   2.981   3.282  0.5379  0.1050  0.0899
 7930SOL     OW35251   2.600   3.273   2.721  0.4227 -0.6427 -0.3887
 7930SOL    HW135252   2.648   3.262   2.803 -3.1970  0.1260  1.8472
 7930SOL    HW235253   2.588   3.179   2.703 -0.2776 -0.0419 -3.0122
 7931SOL     OW35254   1.094   2.404   2.198 -0.0347  0.0236 -0.2014
 7931SOL    HW135255   1.114   2.336   2.262  1.1604  0.3846 -0.1942
 7931SOL    HW235256   1.150   2.478   2.223 -1.8233  1.0093  0.9047
 7932SOL     OW35257   0.665   4.369   5.993  0.3186  0.3758  0.1182
 7932SOL    HW135258   0.657   4.363   6.088 -0.2805  0.0377  0.0488
 7932SOL    HW235259   0.708   4.454   5.981  0.8167  0.2169  0.7952
 7933SOL     OW35260   4.120   1.394   3.649 -0.3131 -0.5891  0.0719
 7933SOL    HW135261   4.032   1.366   3.674 -0.1814  0.8650  2.2010
 7933SOL    HW235262   4.180   1.343   3.703  1.2848  3.7978  2.4640
 7934SOL     OW35263   0.635   2.576   6.301  0.1838 -0.1100  0.4225
 7934SOL    HW135264   0.702   2.644   6.305 -2.2057  2.2327  0.4955
 7934SOL    HW235265   0.682   2.502   6.262 -0.0898 -0.9261  1.6503
 7935SOL     OW35266   0.594   1.459   8.812 -0.2214  0.1486 -0.2837
 7935SOL    HW135267   0.565   1.550   8.808  1.8953  0.7353 -2.8944
 7935SOL    HW235268   0.683   1.466   8.845 -0.4216 -1.5140  0.5680
 7936SOL     OW35269   3.542   1.223   6.233  0.4678  0.6437  0.2630
 7936SOL    HW135270   3.599   1.162   6.279  1.4952  0.2971 -1.4597
 7936SOL    HW235271   3.505   1.274   6.305  1.6012  0.2370  1.1203
 7937SOL     OW35272   2.320   2.246  14.980  0.0326 -0.6134 -0.4071
 7937SOL    HW135273   2.237   2.254  15.027  0.0196  1.0171 -0.7142
 7937SOL    HW235274   2.357   2.173  15.029 -1.2406  0.4470  2.1437
 7938SOL     OW35275   3.345   3.143  16.562 -0.2494  0.1946 -0.4507
 7938SOL    HW135276   3.347   3.142  16.658 -0.4138  1.2651 -0.4329
 7938SOL    HW235277   3.273   3.203  16.543 -1.6933 -0.7298  2.1254
 7939SOL     OW35278   0.295   3.709   0.779 -0.5880 -0.1765  0.6571
 7939SOL    HW135279   0.238   3.775   0.739  1.3000  0.1806 -1.4243
 7939SOL    HW235280   0.246   3.697   0.860 -0.2215 -0.5771  0.8197
 7940SOL     OW35281   3.583   2.787  17.348 -0.6563  0.1075  0.1679
 7940SOL    HW135282   3.615   2.810  17.261 -1.3149 -0.8287 -0.3282
 7940SOL    HW235283   3.550   2.698  17.334 -1.9174  0.0112  3.7592
 7941SOL     OW35284   3.644   0.437   2.822 -0.5353 -0.0834 -0.4245
 7941SOL    HW135285   3.669   0.371   2.758  0.0559 -2.7996  2.5850
 7941SOL    HW235286   3.609   0.509   2.769  1.3066  1.8988  1.0234
 7942SOL     OW35287   2.569   4.072   8.702  0.1735 -0.1504  0.0326
 7942SOL    HW135288   2.606   4.093   8.616  1.9354 -1.5965  0.4396
 7942SOL    HW235289   2.549   4.159   8.737 -2.5564 -0.7190 -0.0556
 7943SOL     OW35290   3.922   1.173   8.800  0.1388 -0.0026  0.3372
 7943SOL    HW135291   3.924   1.258   8.845  2.3164 -1.2792  2.6016
 7943SOL    HW235292   3.871   1.204   8.724 -0.0516  1.3981  1.0264
 7944SOL     OW35293   4.466   0.572   4.987  0.2975 -0.2310  0.5153
 7944SOL    HW135294   4.501   0.518   5.058 -1.1030 -1.2629  0.4066
 7944SOL    HW235295   4.523   0.649   4.992  1.3116 -0.9752  0.3579
 7945SOL     OW35296   2.036   4.423  12.281  0.2196  0.1939 -0.3929
 7945SOL    HW135297   1.998   4.437  12.368  1.5279 -0.3926  0.2799
 7945SOL    HW235298   2.123   4.458  12.302  1.7394 -2.5697 -2.0388
 7946SOL     OW35299   2.478   2.463   4.163 -0.4827  0.6861 -0.1669
 7946SOL    HW135300   2.450   2.390   4.108  0.9904 -0.7467  1.0365
 7946SOL    HW235301   2.511   2.530   4.102  1.6800 -0.1069  0.1361
 7947SOL     OW35302   4.133   0.421   8.195  0.1134 -0.3330 -0.0456
 7947SOL    HW135303   4.053   0.374   8.219 -1.0373  1.1336 -1.0024
 7947SOL    HW235304   4.205   0.377   8.241 -0.9339  0.7281  2.6374
 7948SOL     OW35305   2.816   1.593   7.870  0.3228  0.3574  0.8155
 7948SOL    HW135306   2.778   1.679   7.891 -1.1507  0.6716 -3.1316
 7948SOL    HW235307   2.894   1.597   7.926 -0.5941  1.0060  2.0469
 7949SOL     OW35308   3.339   3.127   1.006  0.3990  0.1838 -0.2933
 7949SOL    HW135309   3.308   3.197   1.064 -0.5498 -0.4224 -0.0665
 7949SOL    HW235310   3.308   3.054   1.060 -1.2938  1.9574  1.1654
 7950SOL     OW35311   0.652   0.394   1.486  0.0401 -0.2229 -0.3712
 7950SOL    HW135312   0.619   0.357   1.404 -1.0446  2.1261 -1.0221
 7950SOL    HW235313   0.695   0.321   1.530 -1.7056 -0.4487  0.9743
 7951SOL     OW35314   0.094   0.422   2.893 -0.3160  0.0695  0.0896
 7951SOL    HW135315   0.038   0.407   2.969  0.0875  0.7240  0.5211
 7951SOL    HW235316   0.028   0.413   2.825  0.0899 -0.1640 -0.2712
 7952SOL     OW35317   2.098   1.504   5.305  0.1495  0.1165 -0.4945
 7952SOL    HW135318   2.011   1.471   5.324  0.0427 -0.3305 -1.7641
 7952SOL    HW235319   2.155   1.427   5.312  0.4969  0.2989 -1.2963
 7953SOL     OW35320   1.897   4.280  11.481 -0.2539  0.0502  0.4157
 7953SOL    HW135321   1.803   4.296  11.474  0.1818  2.1408 -0.7973
 7953SOL    HW235322   1.937   4.367  11.475 -0.5604  0.1173 -0.6842
 7954SOL     OW35323   0.953   2.523   8.519 -0.3661 -0.1154 -0.2659
 7954SOL    HW135324   0.947   2.477   8.436 -0.0750  0.4455 -0.5957
 7954SOL    HW235325   1.034   2.573   8.516  0.7062 -1.8716 -0.5745
 7955SOL     OW35326   4.310   3.131   8.415 -0.3248 -0.2759 -0.4659
 7955SOL    HW135327   4.340   3.162   8.500  2.4679 -0.2342 -1.4745
 7955SOL    HW235328   4.227   3.177   8.429 -1.3785 -2.9166  1.9091
 7956SOL     OW35329   4.634   2.949   1.884 -0.5088  0.1323 -0.6969
 7956SOL    HW135330   4.644   2.869   1.833  0.4448 -0.4737  0.4366
 7956SOL    HW235331   4.543   2.977   1.878 -1.2377 -2.1551 -0.5199
 7957SOL     OW35332   1.013   3.026   3.401 -0.8362  0.4586 -0.5088
 7957SOL    HW135333   1.009   3.084   3.477  2.3106  1.4319 -1.0842
 7957SOL    HW235334   0.954   3.073   3.342  1.0224  4.2322  0.6552
 7958SOL     OW35335   0.576   2.151   3.175  0.4603  0.1822 -0.3019
 7958SOL    HW135336   0.514   2.087   3.139 -0.3023  0.4358  0.5599
 7958SOL    HW235337   0.548   2.230   3.128  1.6919  1.6867  1.5329
 7959SOL     OW35338   3.971   3.958   6.514 -0.2050  0.3027  0.0788
 7959SOL    HW135339   4.029   3.999   6.578 -0.7090 -0.5373  1.0845
 7959SOL    HW235340   3.929   3.893   6.571  1.9848 -1.6143 -0.4719
 7960SOL     OW35341   1.746   2.199  13.121 -0.3884 -0.0648 -0.0021
 7960SOL    HW135342   1.686   2.142  13.073 -2.0145  0.9554  0.8207
 7960SOL    HW235343   1.765   2.275  13.067 -0.3869 -0.7971 -1.0221
 7961SOL     OW35344   0.368   3.691   4.698 -0.4060  0.1672 -0.0981
 7961SOL    HW135345   0.406   3.626   4.639  0.9414  0.7829  0.1011
 7961SOL    HW235346   0.450   3.713   4.741  0.0412 -0.4772 -0.6295
 7962SOL     OW35347   0.559   2.453   3.723 -0.0848  0.2356 -0.5299
 7962SOL    HW135348   0.481   2.408   3.690  0.4514  0.3439 -1.9400
 7962SOL    HW235349   0.568   2.400   3.803 -0.3167 -0.0506 -0.6915
 7963SOL     OW35350   2.000   2.782   4.976  0.1630  0.3825  0.4453
 7963SOL    HW135351   1.989   2.855   4.916  2.9554  0.3343 -0.1451
 7963SOL    HW235352   2.054   2.817   5.047  0.3804 -2.0878  1.5084
 7964SOL     OW35353   3.948   1.667   4.256 -0.6346  0.1722 -0.1933
 7964SOL    HW135354   3.949   1.681   4.351 -1.5607 -0.3518 -0.1101
 7964SOL    HW235355   3.855   1.687   4.245 -0.2728  1.6602 -0.4956
 7965SOL     OW35356   2.178   1.143   4.358 -0.1314 -0.2661  0.3354
 7965SOL    HW135357   2.204   1.146   4.265 -0.7583  1.8524  0.2310
 7965SOL    HW235358   2.262   1.179   4.388 -1.3070  2.7275  0.0430
 7966SOL     OW35359   2.705   3.816   7.593 -0.2519  0.4554  0.0455
 7966SOL    HW135360   2.691   3.722   7.598  0.4467  0.4043  1.0020
 7966SOL    HW235361   2.647   3.840   7.521  0.3187 -0.9406 -0.8828
 7967SOL     OW35362   3.164   2.334   7.141 -0.2937 -0.0158  0.2334
 7967SOL    HW135363   3.196   2.267   7.201  0.7587 -0.5172 -0.8942
 7967SOL    HW235364   3.214   2.407   7.179 -2.4711  0.1750  2.7689
 7968SOL     OW35365   3.067   3.808  15.124  0.0222 -0.1080 -0.0424
 7968SOL    HW135366   2.983   3.781  15.085 -0.2514  0.3674  0.2241
 7968SOL    HW235367   3.074   3.879  15.060  1.7692  0.3135  0.6200
 7969SOL     OW35368   2.727   3.490   5.004  0.2131  0.1110  0.2106
 7969SOL    HW135369   2.803   3.547   5.017 -0.5536  0.7928  1.7278
 7969SOL    HW235370   2.735   3.497   4.909 -0.8463 -0.5290  0.0740
 7970SOL     OW35371   1.914   1.676   5.672  0.5210  0.0650  0.0735
 7970SOL    HW135372   1.994   1.624   5.663  0.0039 -0.9013  1.1367
 7970SOL    HW235373   1.852   1.606   5.688 -2.5276  2.5149 -1.0441
 7971SOL     OW35374   3.026   1.876   0.621 -0.4521 -0.2534  0.2473
 7971SOL    HW135375   3.014   1.944   0.554  0.3378 -0.9036 -0.5421
 7971SOL    HW235376   3.089   1.920   0.678 -1.2998  1.2732  0.0087
 7972SOL     OW35377   1.966   2.679  10.886  0.4345  0.0041 -0.3385
 7972SOL    HW135378   2.047   2.697  10.934 -0.0096 -0.9463  0.7810
 7972SOL    HW235379   1.978   2.586  10.871 -0.4402 -0.2411  0.4305
 7973SOL     OW35380   3.021   4.700   7.290  0.5513  0.4747  0.4726
 7973SOL    HW135381   3.098   0.002   7.239 -1.3791  3.2195 -1.2482
 7973SOL    HW235382   2.978   4.649   7.221  1.2567 -0.3202  0.6223
 7974SOL     OW35383   2.863   4.344   7.879  0.3034 -0.2835  0.1628
 7974SOL    HW135384   2.780   4.341   7.831  0.1772 -2.0703  0.4980
 7974SOL    HW235385   2.853   4.428   7.924  0.1205  0.3571 -1.0661
 7975SOL     OW35386   3.648   1.528   7.953  0.5206  0.3464  0.0094
 7975SOL    HW135387   3.743   1.536   7.940  0.7902 -1.5919  0.7405
 7975SOL    HW235388   3.629   1.489   7.867  2.8350 -0.7309 -0.0337
 7976SOL     OW35389   2.289   2.885   9.467 -0.2794 -0.8236 -0.0771
 7976SOL    HW135390   2.332   2.970   9.455 -0.8308 -0.2508  1.8873
 7976SOL    HW235391   2.360   2.834   9.429  0.9429 -0.4513  1.7066
 7977SOL     OW35392   0.040   1.397   4.614 -0.3753  0.1614 -0.0974
 7977SOL    HW135393   0.096   1.414   4.538 -0.4869 -0.2511 -0.2754
 7977SOL    HW235394   0.081   1.457   4.677  0.7339  0.0607 -0.7198
 7978SOL     OW35395   1.277   4.352  15.580 -0.0829  0.0636 -0.0429
 7978SOL    HW135396   1.256   4.259  15.575  2.9012 -0.5922 -0.7900
 7978SOL    HW235397   1.222   4.380  15.653 -0.3843  1.3873 -0.7818
 7979SOL     OW35398   2.443   4.420   7.329  0.1043  0.2467 -0.0693
 7979SOL    HW135399   2.397   4.458   7.253 -0.7493  0.1308  0.3863
 7979SOL    HW235400   2.472   4.337   7.291 -2.6711 -0.7822  0.0255
 7980SOL     OW35401   4.491   0.315   7.940 -0.4686  0.1577  0.1381
 7980SOL    HW135402   4.539   0.255   7.884 -0.6125 -0.4166  0.6229
 7980SOL    HW235403   4.543   0.338   8.017 -0.7663  1.4188 -0.0475
 7981SOL     OW35404   1.410   4.227   6.322 -0.3211 -0.1040 -0.7990
 7981SOL    HW135405   1.337   4.167   6.310 -0.8981  0.1071  1.6471
 7981SOL    HW235406   1.386   4.276   6.401 -2.4349  0.4600 -1.7804
 7982SOL     OW35407   4.718   0.825   7.000 -0.5481  0.2338  0.2082
 7982SOL    HW135408   0.040   0.756   6.950 -0.3836  1.5485 -1.4821
 7982SOL    HW235409   0.025   0.795   7.086 -0.0585 -1.3775 -0.5234
 7983SOL     OW35410   2.402   3.703   4.855 -0.2701 -0.0719  0.3248
 7983SOL    HW135411   2.319   3.667   4.884 -0.5617 -0.4403 -0.9754
 7983SOL    HW235412   2.432   3.632   4.798  2.6625  0.6490  0.9331
 7984SOL     OW35413   3.075   1.441  13.104  0.5157 -0.4105  0.3930
 7984SOL    HW135414   3.147   1.424  13.043 -1.1161  2.1927 -2.2695
 7984SOL    HW235415   3.022   1.494  13.044  1.3802  0.1889  0.1624
 7985SOL     OW35416   1.091   2.565   5.115  0.0732  0.7139 -0.1384
 7985SOL    HW135417   1.091   2.648   5.068 -0.2561  0.6123 -0.3181
 7985SOL    HW235418   1.035   2.592   5.187 -1.8492 -0.0787 -1.3436
 7986SOL     OW35419   2.717   1.022   0.045 -0.1488 -0.0954 -0.0695
 7986SOL    HW135420   2.707   1.102  17.682  1.6882  0.5604  0.6314
 7986SOL    HW235421   2.669   1.050   0.123 -0.4029 -2.0894  0.4983
 7987SOL     OW35422   0.370   0.455   5.170 -0.3343 -0.3946  0.0091
 7987SOL    HW135423   0.352   0.403   5.248 -0.0611  0.7582  0.8412
 7987SOL    HW235424   0.370   0.390   5.099 -0.9094 -0.7956  0.3768
 7988SOL     OW35425   3.544   4.427   2.962 -0.6613  0.9278  0.3368
 7988SOL    HW135426   3.595   4.455   2.886 -0.9876  0.6180  0.0022
 7988SOL    HW235427   3.457   4.459   2.936 -0.5102  0.0825 -1.2590
 7989SOL     OW35428   4.536   3.741  10.900  0.6637  0.4554  0.1104
 7989SOL    HW135429   4.533   3.656  10.856  0.9207  0.2617  0.4632
 7989SOL    HW235430   4.460   3.793  10.874  0.2715  0.3723  1.1013
 7990SOL     OW35431   2.858   3.137   7.712  0.2647 -0.1594 -0.3672
 7990SOL    HW135432   2.866   3.084   7.633 -0.5700 -1.0319  0.1284
 7990SOL    HW235433   2.782   3.095   7.752  1.4054 -0.7725  1.1518
 7991SOL     OW35434   3.438   4.020  15.052 -0.8081  0.1812 -0.1007
 7991SOL    HW135435   3.432   3.937  15.005 -1.0705 -0.8834  1.8431
 7991SOL    HW235436   3.427   3.989  15.141  1.1958  0.0705  0.1081
 7992SOL     OW35437   0.377   3.223  14.517 -0.5106 -0.2567 -0.2883
 7992SOL    HW135438   0.340   3.175  14.443  1.2666  0.6436 -1.7910
 7992SOL    HW235439   0.304   3.253  14.570 -0.2300  0.3182 -0.2231
 7993SOL     OW35440   2.760   0.804   1.499 -0.4560  0.5539 -0.2117
 7993SOL    HW135441   2.759   0.845   1.586  0.5406 -1.3943  0.7207
 7993SOL    HW235442   2.853   0.782   1.499 -0.7987 -0.8946  1.0162
 7994SOL     OW35443   1.224   2.664   7.046  0.0935  0.1842 -0.2042
 7994SOL    HW135444   1.262   2.629   6.965 -1.9374 -0.5494 -0.8375
 7994SOL    HW235445   1.287   2.682   7.116  1.9031 -1.3441 -1.4180
 7995SOL     OW35446   3.869   1.192   4.260  0.1527 -0.5454 -0.1835
 7995SOL    HW135447   3.901   1.126   4.321 -1.6409 -0.1590  1.1829
 7995SOL    HW235448   3.847   1.129   4.192  1.4353 -1.1733 -0.0228
 7996SOL     OW35449   2.417   3.706   4.096  0.6022 -0.1941  0.4239
 7996SOL    HW135450   2.400   3.799   4.082  2.7298 -0.0929 -1.5161
 7996SOL    HW235451   2.504   3.703   4.056  0.8401 -1.5918  1.0590
 7997SOL     OW35452   0.482   1.450   5.746  0.3154 -0.0932 -0.2513
 7997SOL    HW135453   0.444   1.516   5.688 -0.5977 -0.2355  0.1877
 7997SOL    HW235454   0.559   1.502   5.771 -0.8559  2.4502 -1.9953
 7998SOL     OW35455   0.163   4.304   2.650  0.0693 -0.0668  0.6204
 7998SOL    HW135456   0.223   4.269   2.715  0.0500 -3.7406 -1.3694
 7998SOL    HW235457   0.162   4.234   2.585 -0.5125  1.0730 -0.5952
 7999SOL     OW35458   3.336   0.934  10.956  0.1287 -0.1124  0.5953
 7999SOL    HW135459   3.290   0.990  10.893  0.6738 -0.6382 -0.2596
 7999SOL    HW235460   3.293   0.962  11.037 -3.3041  0.5655 -1.4728
 8000SOL     OW35461   2.749   0.481   8.954  0.0976 -0.3597  0.0192
 8000SOL    HW135462   2.778   0.559   9.001  2.0557  1.4402 -4.1190
 8000SOL    HW235463   2.700   0.500   8.873  1.3375  1.4023 -0.3249
 8001SOL     OW35464   2.272   2.772  17.105 -0.3989 -0.1895 -0.4297
 8001SOL    HW135465   2.218   2.842  17.070 -0.5614 -0.7196 -1.2462
 8001SOL    HW235466   2.290   2.819  17.187  1.2226 -1.8754  0.1718
 8002SOL     OW35467   3.215   2.657   5.946  0.4561 -0.0402 -0.1139
 8002SOL    HW135468   3.303   2.689   5.962 -0.4010  2.6546 -0.8870
 8002SOL    HW235469   3.159   2.734   5.949  1.9740  1.1039 -1.3721
 8003SOL     OW35470   2.239   1.202   6.916  0.1497  0.1557  0.2450
 8003SOL    HW135471   2.167   1.160   6.964 -0.9907  2.7239  0.7887
 8003SOL    HW235472   2.208   1.178   6.828 -2.3058  0.0758  1.1308
 8004SOL     OW35473   1.893   0.832   4.747 -0.2182  0.4592  0.0802
 8004SOL    HW135474   1.807   0.837   4.707 -0.3052 -0.9144  0.1094
 8004SOL    HW235475   1.942   0.872   4.676  1.4723  0.3026  1.1482
 8005SOL     OW35476   4.046   1.588   6.195  0.4210 -0.4774 -0.2228
 8005SOL    HW135477   4.053   1.501   6.233 -1.1240 -0.4924  0.0154
 8005SOL    HW235478   3.980   1.621   6.256  1.0855  2.0503 -0.8636
 8006SOL     OW35479   4.533   3.950  11.102  0.2671  0.2211 -0.2673
 8006SOL    HW135480   4.604   4.011  11.118  0.0998  0.1986  0.5407
 8006SOL    HW235481   4.567   3.894  11.032 -1.9710 -0.4236 -0.8704
 8007SOL     OW35482   3.159   4.106  15.464  0.4910  0.2161  0.6544
 8007SOL    HW135483   3.090   4.125  15.528  1.0598 -1.1870  1.6729
 8007SOL    HW235484   3.206   4.189  15.463 -1.9783  1.6554  2.1268
 8008SOL     OW35485   2.473   0.423   0.020 -0.4635  0.0641 -0.0360
 8008SOL    HW135486   2.471   0.430  17.612  3.9197  0.3078 -0.1092
 8008SOL    HW235487   2.565   0.410   0.041  0.4464  1.1234 -3.4051
 8009SOL     OW35488   0.868   3.264  14.336 -0.1602 -0.0168 -0.6852
 8009SOL    HW135489   0.793   3.212  14.364  0.3543 -1.9067 -2.8551
 8009SOL    HW235490   0.879   3.248  14.242  2.6821 -0.0614 -0.3623
 8010SOL     OW35491   0.291   4.168   1.620 -0.4504 -0.8175  0.4983
 8010SOL    HW135492   0.235   4.232   1.664 -0.6937  0.4658 -1.6780
 8010SOL    HW235493   0.312   4.212   1.538  1.6442 -0.2425  1.3563
 8011SOL     OW35494   1.520   4.361  16.794  0.5131 -0.2621  0.5928
 8011SOL    HW135495   1.541   4.451  16.820 -1.6134  0.5572 -0.5041
 8011SOL    HW235496   1.594   4.341  16.737  0.8467 -1.1535  1.3399
 8012SOL     OW35497   4.094   3.706  11.354 -0.4675 -0.3185 -0.4336
 8012SOL    HW135498   4.096   3.637  11.420 -1.2830  1.2747  1.2464
 8012SOL    HW235499   4.171   3.684  11.302 -0.1668  1.0290 -0.5385
 8013SOL     OW35500   1.281   2.001   7.272  0.1678 -0.6575 -0.3464
 8013SOL    HW135501   1.361   1.952   7.254  0.3976 -0.3892 -0.0523
 8013SOL    HW235502   1.271   2.023   7.180  0.0317  0.9645  0.0515
 8014SOL     OW35503   0.373   2.250   7.195 -0.3603  1.3175  0.0345
 8014SOL    HW135504   0.313   2.178   7.173 -0.6155  1.3385  0.6592
 8014SOL    HW235505   0.400   2.223   7.283 -0.0772  0.3756 -0.3407
 8015SOL     OW35506   1.588   1.115  13.611  0.2163 -0.0986  0.1095
 8015SOL    HW135507   1.670   1.162  13.598 -0.5694  1.0350 -0.8112
 8015SOL    HW235508   1.619   1.071  13.690  2.1370  0.5634 -0.2736
 8016SOL     OW35509   3.877   4.522   9.400  0.3971 -0.6065 -0.5145
 8016SOL    HW135510   3.942   4.592   9.401  1.6794 -1.8119 -0.3261
 8016SOL    HW235511   3.864   4.516   9.306 -0.7991 -1.5249 -0.2923
 8017SOL     OW35512   0.983   2.084   4.578  0.2323  0.1501  0.2108
 8017SOL    HW135513   1.066   2.099   4.533  0.4594 -1.8193 -0.0140
 8017SOL    HW235514   0.962   2.175   4.602 -2.3804 -0.8535  1.7393
 8018SOL     OW35515   0.221   2.330   8.083 -0.7588 -0.0794 -0.3594
 8018SOL    HW135516   0.175   2.252   8.113  1.0333 -0.7872  0.5242
 8018SOL    HW235517   0.308   2.331   8.123 -0.8401  1.1374 -0.2089
 8019SOL     OW35518   2.891   2.540  13.573  0.5770  0.2782  0.1192
 8019SOL    HW135519   2.827   2.592  13.525  1.5501  1.3113 -0.0567
 8019SOL    HW235520   2.867   2.570  13.661 -0.6602 -0.0769 -0.0921
 8020SOL     OW35521   0.808   2.592  14.990  0.0009 -0.4737 -0.5706
 8020SOL    HW135522   0.883   2.595  15.049  2.3223 -1.4269 -3.4382
 8020SOL    HW235523   0.824   2.657  14.921 -1.3133 -0.5817 -0.9850
 8021SOL     OW35524   2.622   2.162   0.010  0.3458  0.5431 -0.1464
 8021SOL    HW135525   2.596   2.097  17.632 -0.4432  1.5904 -0.8626
 8021SOL    HW235526   2.530   2.177   0.033 -0.2148  0.2138 -2.2045
 8022SOL     OW35527   1.120   1.983   0.274 -0.2355 -0.3231  0.0500
 8022SOL    HW135528   1.168   1.976   0.191  1.4426 -1.5845  1.1182
 8022SOL    HW235529   1.036   2.025   0.259 -0.1994  0.0461  0.8913
 8023SOL     OW35530   4.311   1.558   7.915 -0.4446  0.2182  0.7198
 8023SOL    HW135531   4.370   1.488   7.942  1.5287  0.7930 -2.1223
 8023SOL    HW235532   4.239   1.496   7.901  0.0477  0.1093 -1.2731
 8024SOL     OW35533   2.475   4.522   6.002  0.2212 -0.0310 -0.4305
 8024SOL    HW135534   2.446   4.585   5.936  0.7006  1.9487  1.2644
 8024SOL    HW235535   2.569   4.516   5.982  0.4365 -0.2368  0.6737
 8025SOL     OW35536   3.400   3.343   1.669  0.2631  0.0888 -0.2637
 8025SOL    HW135537   3.316   3.333   1.714 -1.0113  0.4216 -2.5484
 8025SOL    HW235538   3.453   3.399   1.725 -0.3545  1.5346 -1.1229
 8026SOL     OW35539   3.096   3.375   4.707 -0.3245 -0.1334  0.0037
 8026SOL    HW135540   3.030   3.408   4.644 -0.2067 -1.4356 -0.8013
 8026SOL    HW235541   3.045   3.302   4.741  0.3128 -0.8367 -0.5470
 8027SOL     OW35542   1.549   3.626  11.061  0.5174 -0.7540  0.3026
 8027SOL    HW135543   1.551   3.719  11.039  0.1160 -0.6754  0.6011
 8027SOL    HW235544   1.636   3.606  11.027  0.5115  0.6093 -0.4984
 8028SOL     OW35545   1.792   1.712  16.846 -0.3905  0.0750  0.0911
 8028SOL    HW135546   1.778   1.620  16.866  1.7604 -0.2613  0.0212
 8028SOL    HW235547   1.710   1.753  16.873  1.4631  2.0780  2.6791
 8029SOL     OW35548   2.575   0.828  13.704  0.2368 -0.1883  0.6330
 8029SOL    HW135549   2.594   0.838  13.797  0.9057  0.2849  0.4421
 8029SOL    HW235550   2.479   0.821  13.696  0.2637  0.3048 -0.0959
 8030SOL     OW35551   1.275   2.408   2.638  0.0243 -0.7216 -0.0781
 8030SOL    HW135552   1.199   2.381   2.689  0.5937  0.8104  1.5556
 8030SOL    HW235553   1.332   2.343   2.678  0.2526  0.7973  2.0526
 8031SOL     OW35554   0.051   1.901   1.173  0.7769  0.0056  0.6696
 8031SOL    HW135555   0.016   1.990   1.163  0.2604 -0.5063 -1.9001
 8031SOL    HW235556   0.026   1.860   1.090 -1.3890  0.0256  1.2974
 8032SOL     OW35557   2.214   1.253   2.120 -0.4950 -0.1236  0.0437
 8032SOL    HW135558   2.275   1.317   2.155  0.2121 -0.6920 -0.1606
 8032SOL    HW235559   2.127   1.295   2.122 -0.2195  0.4402  0.1493
 8033SOL     OW35560   4.406   2.328   6.357  0.2801 -0.5529 -0.0117
 8033SOL    HW135561   4.330   2.380   6.331  0.1576 -0.6350  0.1755
 8033SOL    HW235562   4.481   2.351   6.304  1.1637  0.3665  1.6400
 8034SOL     OW35563   4.449   2.425   7.403  0.3216 -0.3897  0.3508
 8034SOL    HW135564   4.474   2.473   7.481  0.2636  1.0448 -0.5178
 8034SOL    HW235565   4.525   2.368   7.389 -0.1744 -0.7925 -0.7451
 8035SOL     OW35566   0.570   3.023  13.269  0.2181  0.0566  0.5520
 8035SOL    HW135567   0.556   2.942  13.319 -1.6146 -0.8400 -1.4101
 8035SOL    HW235568   0.542   2.985  13.186  1.1519  0.6767 -0.0441
 8036SOL     OW35569   4.588   1.367   4.117 -0.0280 -0.0896  0.1783
 8036SOL    HW135570   4.629   1.396   4.036 -1.6122  2.9869  0.5055
 8036SOL    HW235571   4.592   1.272   4.104  3.1926 -0.1685  1.7378
 8037SOL     OW35572   2.959   0.331   7.727 -0.1730 -0.5196  0.0410
 8037SOL    HW135573   2.912   0.332   7.643 -1.8890  0.4978  0.9971
 8037SOL    HW235574   3.023   0.261   7.714  1.1881  0.9245 -1.0525
 8038SOL     OW35575   2.520   3.340   6.858 -0.2886  0.3484  0.6326
 8038SOL    HW135576   2.451   3.352   6.793 -0.9536 -1.4229  1.0068
 8038SOL    HW235577   2.592   3.384   6.812 -1.0174 -0.4156 -1.2394
 8039SOL     OW35578   2.397   1.602   5.511  0.3858  0.1057  0.5778
 8039SOL    HW135579   2.372   1.633   5.598 -1.9007 -2.4486  0.8232
 8039SOL    HW235580   2.490   1.621   5.520  0.5737 -1.3479  1.5245
 8040SOL     OW35581   3.835   3.337   4.301  0.5079  0.0069  0.6949
 8040SOL    HW135582   3.804   3.255   4.339  1.4515 -0.7959 -0.2665
 8040SOL    HW235583   3.900   3.369   4.364  1.1236  0.8130 -0.3460
 8041SOL     OW35584   3.564   1.218   8.398  0.0368  0.3760  1.0148
 8041SOL    HW135585   3.586   1.279   8.327 -0.2658 -1.1541 -0.3755
 8041SOL    HW235586   3.495   1.166   8.358  1.1580 -0.3454  0.0039
 8042SOL     OW35587   1.944   2.468   9.187  0.0065  0.1009 -0.2889
 8042SOL    HW135588   1.945   2.499   9.096  1.8081 -0.4628 -0.4539
 8042SOL    HW235589   2.027   2.421   9.192 -0.6336 -0.7567  1.9382
 8043SOL     OW35590   1.923   0.165   7.891 -0.6638  0.1072 -0.5882
 8043SOL    HW135591   1.834   0.177   7.859 -0.1281  1.6301 -1.4948
 8043SOL    HW235592   1.938   0.251   7.931  0.3047  0.5701 -1.9385
 8044SOL     OW35593   1.826   3.866   0.879  0.0246  0.0463 -0.3869
 8044SOL    HW135594   1.801   3.837   0.967  0.6226  0.1567 -0.1787
 8044SOL    HW235595   1.918   3.839   0.886  0.2000  1.0593  1.2957
 8045SOL     OW35596   0.916   0.038   4.105  0.2858 -0.7652 -0.6683
 8045SOL    HW135597   0.831   4.715   4.106 -0.3101  0.3702 -1.2156
 8045SOL    HW235598   0.969   4.721   4.036  0.3869  0.4176 -1.2433
 8046SOL     OW35599   2.294   1.262   4.658 -0.0161 -0.5215 -0.1335
 8046SOL    HW135600   2.381   1.222   4.660 -0.5005 -1.5275  0.5632
 8046SOL    HW235601   2.263   1.220   4.738 -0.7032 -1.7433 -1.0389
 8047SOL     OW35602   2.970   0.011  16.861  0.0971  0.5326  0.1665
 8047SOL    HW135603   3.040   4.716  16.797 -0.1040  0.4549 -0.0325
 8047SOL    HW235604   2.957   4.649  16.907  0.5159  0.6651  0.5221
 8048SOL     OW35605   4.061   2.761   6.404 -0.0292 -0.2714  0.2158
 8048SOL    HW135606   4.110   2.834   6.366 -1.0582 -0.4815 -1.5348
 8048SOL    HW235607   4.090   2.766   6.495 -1.8575 -0.4319  0.8143
 8049SOL     OW35608   0.591   2.895   2.905 -0.4759  0.1114  0.0413
 8049SOL    HW135609   0.561   2.887   2.995 -1.0262 -0.2467 -0.1734
 8049SOL    HW235610   0.674   2.940   2.920 -1.7428  2.3571  0.3300
 8050SOL     OW35611   1.488   4.217   2.325  0.0336  0.0506 -0.6221
 8050SOL    HW135612   1.573   4.217   2.368 -0.2734  0.6696 -0.0253
 8050SOL    HW235613   1.516   4.255   2.242  0.3150 -1.1548 -1.0803
 8051SOL     OW35614   3.302   0.602   7.304  0.0975 -0.3599  1.0617
 8051SOL    HW135615   3.244   0.532   7.273 -0.6307  0.4116  0.6835
 8051SOL    HW235616   3.237   0.661   7.343 -0.0679  2.2663 -3.1993
 8052SOL     OW35617   0.757   0.604   8.398 -0.2587 -0.2037 -0.0555
 8052SOL    HW135618   0.830   0.630   8.454 -1.1368 -0.9676  1.4810
 8052SOL    HW235619   0.687   0.668   8.414 -0.4529 -0.2286 -0.8244
 8053SOL     OW35620   2.923   3.858   8.687  0.1425  0.5245 -0.2289
 8053SOL    HW135621   2.972   3.794   8.739 -1.3236 -1.3843 -1.2238
 8053SOL    HW235622   2.842   3.864   8.738  0.9322 -2.2915  1.3659
 8054SOL     OW35623   3.841   2.585  11.944 -0.0614 -0.2274 -0.5063
 8054SOL    HW135624   3.799   2.641  11.879 -0.2079 -2.5134 -2.3679
 8054SOL    HW235625   3.803   2.621  12.024  2.0920  2.9891 -0.9065
 8055SOL     OW35626   3.712   3.494   7.363  0.4259  0.3066 -0.4217
 8055SOL    HW135627   3.701   3.589   7.375 -0.2897  0.1823 -0.1322
 8055SOL    HW235628   3.700   3.469   7.454 -0.2113  0.5426 -0.4418
 8056SOL     OW35629   3.233   3.538   7.621  0.1510 -1.0851 -0.2556
 8056SOL    HW135630   3.212   3.455   7.664  0.5909 -1.1724 -0.2166
 8056SOL    HW235631   3.143   3.571   7.612  0.4401 -0.0366  0.6434
 8057SOL     OW35632   4.042   1.183  15.351 -0.1308  0.4319  0.0344
 8057SOL    HW135633   4.084   1.100  15.374  1.4591  1.3119  0.3176
 8057SOL    HW235634   4.029   1.178  15.256 -0.5321 -2.2554  0.2162
 8058SOL     OW35635   0.143   4.452  10.353 -0.3354 -0.5858 -0.3115
 8058SOL    HW135636   0.141   4.537  10.398  0.3344  0.0132 -1.4341
 8058SOL    HW235637   0.054   4.420  10.370 -0.5213  1.2544  2.2760
 8059SOL     OW35638   0.271   4.519  12.691  0.2120  0.1242 -0.3424
 8059SOL    HW135639   0.290   4.468  12.770 -0.5914 -0.1956 -0.3536
 8059SOL    HW235640   0.330   4.593  12.702 -0.1362  0.7260 -2.5222
 8060SOL     OW35641   3.592   1.613   2.001  0.6951  0.1766 -0.3718
 8060SOL    HW135642   3.546   1.529   1.999  2.4089 -0.8273  2.5289
 8060SOL    HW235643   3.650   1.593   1.928 -0.8438  0.3113 -1.6248
 8061SOL     OW35644   3.886   3.399   9.639 -0.0760  0.4146 -0.8873
 8061SOL    HW135645   3.894   3.490   9.612  0.1098  1.2272  1.8937
 8061SOL    HW235646   3.793   3.409   9.661 -0.3323  1.3872 -2.4236
 8062SOL     OW35647   2.381   1.747   8.831 -0.2299  0.5319  0.0447
 8062SOL    HW135648   2.288   1.726   8.827 -0.0959 -0.0286 -0.0952
 8062SOL    HW235649   2.424   1.673   8.875 -1.1806  0.0923  0.2182
 8063SOL     OW35650   3.130   0.057   7.983 -0.3494 -0.4662  0.1446
 8063SOL    HW135651   3.134   4.683   7.975 -0.0847 -0.5795  1.5654
 8063SOL    HW235652   3.075   0.087   7.911  0.6346  0.9683 -0.0072
 8064SOL     OW35653   4.564   3.251   4.947  0.3825  0.3085  0.2903
 8064SOL    HW135654   4.492   3.218   4.893 -1.4656  1.2268  2.2313
 8064SOL    HW235655   4.544   3.245   5.040  0.7017 -3.2258  0.1567
 8065SOL     OW35656   4.411   3.339   3.820  0.2655 -0.0023 -0.1529
 8065SOL    HW135657   4.352   3.267   3.799  0.0673  0.3419 -0.7855
 8065SOL    HW235658   4.490   3.298   3.784 -0.7502 -1.8788 -0.2245
 8066SOL     OW35659   3.133   3.353   2.524 -0.4235 -0.0208 -0.1063
 8066SOL    HW135660   3.135   3.321   2.434 -0.9319  1.2872 -0.5969
 8066SOL    HW235661   3.052   3.315   2.558  0.3562 -2.5764 -1.1710
 8067SOL     OW35662   3.210   1.661   0.587  0.5287 -0.5737  0.1973
 8067SOL    HW135663   3.208   1.599   0.660  0.3126  0.0063  0.6876
 8067SOL    HW235664   3.149   1.730   0.612 -0.2416 -0.8768 -0.8371
 8068SOL     OW35665   2.505   1.206   2.863  0.0000 -0.1445 -0.4794
 8068SOL    HW135666   2.518   1.184   2.955 -0.5200 -1.6880 -0.7750
 8068SOL    HW235667   2.595   1.211   2.832 -0.8580  0.5996 -2.8444
 8069SOL     OW35668   3.993   2.815   8.102 -0.2180  0.6944 -0.2181
 8069SOL    HW135669   3.952   2.808   8.016 -0.7382 -0.2656  0.1098
 8069SOL    HW235670   4.085   2.821   8.077  0.1129 -0.6655  0.6841
 8070SOL     OW35671   3.039   3.919   5.658  0.0855  0.1610 -0.0396
 8070SOL    HW135672   2.977   3.975   5.611 -0.4540 -1.2833 -1.0737
 8070SOL    HW235673   3.062   3.857   5.589 -0.5988  0.2871 -0.3834
 8071SOL     OW35674   1.543   0.148  15.842 -0.3790  0.0395  0.6501
 8071SOL    HW135675   1.489   0.113  15.771  0.6251 -0.0469 -0.0650
 8071SOL    HW235676   1.519   0.083  15.908 -0.9518  2.2274  2.5943
 8072SOL     OW35677   2.858   3.782   6.312 -0.3593  0.3690 -0.2315
 8072SOL    HW135678   2.836   3.808   6.223 -1.9369  0.6866  0.2490
 8072SOL    HW235679   2.865   3.871   6.346  1.9505  1.0193 -2.4079
 8073SOL     OW35680   0.932   3.011  11.766  0.3083  0.1774  0.5552
 8073SOL    HW135681   0.929   2.919  11.792  0.4310  0.0025 -0.0458
 8073SOL    HW235682   0.866   3.047  11.826 -0.8103  1.5023 -1.4475
 8074SOL     OW35683   1.952   2.348  10.382 -0.4460 -0.3714  0.4549
 8074SOL    HW135684   1.887   2.318  10.445 -0.5833 -0.7243  0.1430
 8074SOL    HW235685   2.032   2.337  10.433  1.2929  0.2853 -2.1447
 8075SOL     OW35686   0.144   0.820  16.979 -0.1856  0.1343  0.5714
 8075SOL    HW135687   0.064   0.847  16.934 -0.7539  0.9337  2.0547
 8075SOL    HW235688   0.184   0.744  16.937  0.6066 -0.0083  1.5728
 8076SOL     OW35689   0.800   3.276  14.061  0.2836 -0.1891  0.3148
 8076SOL    HW135690   0.712   3.286  14.097 -0.1237  0.0732 -0.7394
 8076SOL    HW235691   0.799   3.190  14.019  0.4677  0.1342 -0.3603
 8077SOL     OW35692   2.419   4.148   8.166  0.0792  0.1273  0.3123
 8077SOL    HW135693   2.432   4.215   8.234  1.1862 -0.7273  0.9399
 8077SOL    HW235694   2.510   4.120   8.174  0.5598  1.5620 -0.0124
 8078SOL     OW35695   0.251   1.707   2.037 -0.1758 -0.0085 -0.4202
 8078SOL    HW135696   0.337   1.677   2.064 -1.2772 -3.5305 -0.7916
 8078SOL    HW235697   0.244   1.666   1.950  0.4312 -0.5397 -0.2186
 8079SOL     OW35698   0.927   3.833   2.690 -0.1056  0.1767 -0.1310
 8079SOL    HW135699   0.953   3.845   2.598  0.1279 -0.5056 -0.1555
 8079SOL    HW235700   0.851   3.775   2.684 -0.2429  0.4933 -1.4746
 8080SOL     OW35701   2.435   3.497   4.650 -0.6982 -0.0627 -0.2460
 8080SOL    HW135702   2.374   3.432   4.617  1.7042 -1.8515 -1.1844
 8080SOL    HW235703   2.480   3.522   4.570 -1.8009  0.5258 -0.6786
 8081SOL     OW35704   4.347   4.288   3.410  0.0957  0.2574  0.5335
 8081SOL    HW135705   4.371   4.370   3.367 -1.9051 -0.1759 -1.4066
 8081SOL    HW235706   4.424   4.235   3.391 -0.2151 -0.4887  1.3544
 8082SOL     OW35707   3.462   2.872   6.583  0.2236  0.4406 -0.6809
 8082SOL    HW135708   3.515   2.928   6.526  2.1549 -0.6873  0.0174
 8082SOL    HW235709   3.383   2.926   6.573  0.0002  0.3341  0.4579
 8083SOL     OW35710   2.289   1.949   1.830 -0.0962  0.3121  0.1460
 8083SOL    HW135711   2.205   1.919   1.866 -0.6616  0.1315 -1.3128
 8083SOL    HW235712   2.306   1.885   1.760  2.0274  1.1202 -0.0825
 8084SOL     OW35713   2.418   2.714   1.320  0.0466 -0.8496  0.3154
 8084SOL    HW135714   2.384   2.765   1.394 -0.4935 -1.3971  0.4476
 8084SOL    HW235715   2.338   2.722   1.268  0.8095  0.6700 -0.6162
 8085SOL     OW35716   1.088   0.192   2.100 -0.3114 -0.0849  0.5848
 8085SOL    HW135717   1.085   0.197   2.196  0.4882  1.6562  0.5130
 8085SOL    HW235718   1.050   0.107   2.078  1.7350 -0.4053 -1.7542
 8086SOL     OW35719   4.324   0.171   5.285 -0.1424 -0.5460 -0.3810
 8086SOL    HW135720   4.381   0.174   5.208  0.6591 -0.5843  0.2191
 8086SOL    HW235721   4.347   0.244   5.341 -3.3988  0.7473 -0.6789
 8087SOL     OW35722   1.144   0.749   2.283 -0.1543  0.1360 -0.1204
 8087SOL    HW135723   1.083   0.703   2.226 -2.7321  0.9374  2.0255
 8087SOL    HW235724   1.095   0.748   2.365 -0.2612  2.0157 -0.1584
 8088SOL     OW35725   2.247   3.064  12.531 -0.4240 -0.2795 -0.0556
 8088SOL    HW135726   2.335   3.079  12.564 -0.2727 -0.8453 -0.2000
 8088SOL    HW235727   2.239   3.095  12.441  2.0773 -0.3752 -0.3109
 8089SOL     OW35728   1.356   3.374   7.005  0.1560 -0.3972  0.4225
 8089SOL    HW135729   1.270   3.384   7.044 -0.5174 -0.6620 -0.9814
 8089SOL    HW235730   1.413   3.434   7.053 -0.2224  1.3841 -1.3644
 8090SOL     OW35731   0.985   0.492  13.367 -0.0489 -0.4960  0.2106
 8090SOL    HW135732   0.950   0.404  13.351 -0.5065 -0.6233  1.9391
 8090SOL    HW235733   1.061   0.464  13.418  0.6013  0.5208 -0.2170
 8091SOL     OW35734   0.936   2.362   4.570  0.2637  0.0475 -0.2312
 8091SOL    HW135735   0.942   2.457   4.560  1.0150  0.0373  0.1154
 8091SOL    HW235736   0.924   2.344   4.477  1.1325 -1.0839 -0.1251
 8092SOL     OW35737   3.844   4.341   6.457  0.1155  0.4904  0.5250
 8092SOL    HW135738   3.797   4.276   6.405  0.9375 -0.9453  1.5576
 8092SOL    HW235739   3.871   4.391   6.380  1.1793 -0.7704  0.0673
 8093SOL     OW35740   3.674   0.122   4.873  0.5495 -0.2015 -0.5146
 8093SOL    HW135741   3.742   0.185   4.896 -0.3052  0.7625 -0.6624
 8093SOL    HW235742   3.671   0.142   4.780 -1.2324 -1.2838 -0.6854
 8094SOL     OW35743   0.887   2.601   4.881  0.4005  0.2354  0.6828
 8094SOL    HW135744   0.850   2.592   4.968  0.0851  1.2718  0.6559
 8094SOL    HW235745   0.827   2.555   4.822  0.7364 -0.2751  0.7371
 8095SOL     OW35746   1.101   3.593   6.286  0.8739  0.0871 -0.0611
 8095SOL    HW135747   1.135   3.680   6.262  0.9830 -0.6128 -2.4379
 8095SOL    HW235748   1.181   3.551   6.316  0.7559  0.8149  1.2605
 8096SOL     OW35749   2.239   0.627   2.456 -0.4708 -0.1567 -0.1643
 8096SOL    HW135750   2.335   0.632   2.456 -0.4684 -0.2008  1.8633
 8096SOL    HW235751   2.223   0.590   2.543 -1.4818 -0.1003 -0.3291
 8097SOL     OW35752   1.314   1.133  11.831  0.4986  0.0986 -0.0283
 8097SOL    HW135753   1.235   1.158  11.782 -0.5849  0.1813  1.7637
 8097SOL    HW235754   1.293   1.046  11.865 -1.4348  0.5186 -0.1445
 8098SOL     OW35755   3.003   2.412   3.544 -0.7736 -0.6032  0.3408
 8098SOL    HW135756   3.097   2.397   3.543 -0.9079 -1.4319  0.9174
 8098SOL    HW235757   2.977   2.377   3.459  1.5026 -0.1383 -0.5497
 8099SOL     OW35758   1.793   4.167  11.839  0.3305 -0.0052  0.5232
 8099SOL    HW135759   1.858   4.234  11.859  0.9874 -0.4710 -0.0467
 8099SOL    HW235760   1.819   4.091  11.891 -3.5270 -0.3202  2.0039
 8100SOL     OW35761   0.992   4.464   4.923  0.0280  0.0658 -0.2983
 8100SOL    HW135762   1.048   4.390   4.947 -0.8706 -0.3213  0.6252
 8100SOL    HW235763   1.059   4.529   4.905  0.6626 -0.5107 -0.0008
 8101SOL     OW35764   4.451   3.759   7.774 -0.1708 -0.3772 -0.1441
 8101SOL    HW135765   4.539   3.796   7.783 -0.7162  1.0073 -0.6162
 8101SOL    HW235766   4.399   3.837   7.792  0.3008 -0.4189  1.4226
 8102SOL     OW35767   2.140   3.121   5.236  0.1575  0.1808  0.1816
 8102SOL    HW135768   2.199   3.116   5.311 -0.3089 -3.0948  0.3157
 8102SOL    HW235769   2.152   3.028   5.219  1.7196  0.2440  0.9387
 8103SOL     OW35770   1.253   0.529  11.149  0.7585 -0.1127  0.8271
 8103SOL    HW135771   1.274   0.491  11.234 -1.4931 -1.9473  0.5602
 8103SOL    HW235772   1.174   0.480  11.125  0.6356 -0.0723  1.1564
 8104SOL     OW35773   3.967   0.828   6.992 -0.2139  0.5079 -0.0286
 8104SOL    HW135774   4.030   0.895   7.018 -0.3513  0.0637  1.4463
 8104SOL    HW235775   4.015   0.788   6.919  1.7179  0.6467  1.1672
 8105SOL     OW35776   1.972   1.181   3.096  0.2593 -0.1663 -0.1192
 8105SOL    HW135777   1.891   1.207   3.050  0.7814  2.6866  0.6253
 8105SOL    HW235778   1.977   1.251   3.161  3.0222 -1.5801  1.1558
 8106SOL     OW35779   1.382   1.037   5.112 -0.2467 -0.4314 -0.1974
 8106SOL    HW135780   1.295   1.058   5.081  0.0578 -0.8826 -1.3307
 8106SOL    HW235781   1.377   0.969   5.180 -0.9210 -0.1546  0.0319
 8107SOL     OW35782   2.054   3.180  16.627 -0.0884  0.5312  0.5438
 8107SOL    HW135783   1.996   3.193  16.552 -0.4199  1.3064  0.9374
 8107SOL    HW235784   2.134   3.146  16.588 -1.0464 -0.6140 -0.4095
 8108SOL     OW35785   1.703   2.014   1.360 -0.0833 -0.1022 -0.0387
 8108SOL    HW135786   1.720   2.047   1.448  0.4125  0.4943 -0.3632
 8108SOL    HW235787   1.669   2.092   1.316 -0.1594 -0.1387 -0.0446
 8109SOL     OW35788   3.082   1.508   7.392  0.3039  0.7272 -0.3299
 8109SOL    HW135789   3.088   1.600   7.418 -0.6179  0.3341  1.2923
 8109SOL    HW235790   3.146   1.474   7.455 -1.8030  1.1587  2.0759
 8110SOL     OW35791   3.185   2.138   7.725 -0.3374  0.1717 -0.8843
 8110SOL    HW135792   3.254   2.178   7.777 -0.2463  0.7061 -1.4160
 8110SOL    HW235793   3.144   2.079   7.788 -0.0372  2.4115  1.4067
 8111SOL     OW35794   3.104   1.872   9.235 -0.4075  0.5315 -0.3565
 8111SOL    HW135795   3.067   1.905   9.317 -1.1444  0.6259 -0.7240
 8111SOL    HW235796   3.193   1.841   9.251 -1.5337 -2.8921 -0.6972
 8112SOL     OW35797   3.532   3.565   6.847  0.1873 -0.5781 -0.3286
 8112SOL    HW135798   3.558   3.474   6.834 -1.7953 -1.0462 -0.9847
 8112SOL    HW235799   3.450   3.570   6.798 -0.4374 -1.0320  0.6811
 8113SOL     OW35800   0.319   4.214   2.863 -0.8944 -0.2465  0.0270
 8113SOL    HW135801   0.413   4.215   2.880 -1.1011 -0.5847  1.1879
 8113SOL    HW235802   0.309   4.119   2.851  0.1331 -0.2634 -0.7108
 8114SOL     OW35803   1.770   1.602  16.484 -0.5011 -0.2160 -0.1617
 8114SOL    HW135804   1.692   1.654  16.466 -1.1049 -0.7797  0.8035
 8114SOL    HW235805   1.833   1.667  16.515 -1.1266 -1.0561  2.9010
 8115SOL     OW35806   0.750   4.427   0.851  0.2444  0.5310  0.2592
 8115SOL    HW135807   0.698   4.359   0.807  0.3086  1.2687 -0.9597
 8115SOL    HW235808   0.765   4.490   0.780  1.8198 -1.1670 -0.9024
 8116SOL     OW35809   2.370   3.820   9.373  0.0318  0.0048  0.0946
 8116SOL    HW135810   2.368   3.916   9.373  2.2043  0.0264  3.5348
 8116SOL    HW235811   2.296   3.800   9.315 -0.1509 -0.1268  0.3706
 8117SOL     OW35812   0.831   0.154   4.352 -0.3448 -0.1028 -0.1837
 8117SOL    HW135813   0.925   0.156   4.373 -0.1191 -1.7568 -1.0269
 8117SOL    HW235814   0.829   0.138   4.258 -1.0000  1.3589 -0.4270
 8118SOL     OW35815   0.547   2.725   1.860 -0.1435  0.7929  0.1276
 8118SOL    HW135816   0.634   2.757   1.836 -0.7185  1.1295 -1.4931
 8118SOL    HW235817   0.566   2.706   1.952  1.6610 -2.2898 -0.8798
 8119SOL     OW35818   3.585   1.110  14.164  0.4088  0.2633 -0.0995
 8119SOL    HW135819   3.541   1.119  14.080 -0.8674 -2.4247  0.2631
 8119SOL    HW235820   3.678   1.103  14.143  0.5560  0.4231  0.5031
 8120SOL     OW35821   1.985   3.981   4.377  0.0557 -0.2861 -0.0291
 8120SOL    HW135822   1.891   3.984   4.360  0.2405 -1.7721 -1.3458
 8120SOL    HW235823   1.991   3.889   4.402  0.4729  0.0075  0.9745
 8121SOL     OW35824   0.776   2.987   8.496  0.0699 -0.3517 -0.2116
 8121SOL    HW135825   0.726   2.914   8.460 -0.3968  0.6725 -1.6410
 8121SOL    HW235826   0.773   3.048   8.422  1.5239  2.2045  1.8031
 8122SOL     OW35827   3.241   1.461   3.051 -0.2249 -0.0975 -0.1857
 8122SOL    HW135828   3.201   1.439   2.967 -0.8810 -1.9878  0.6033
 8122SOL    HW235829   3.194   1.404   3.113 -0.3019  0.7679  0.5642
 8123SOL     OW35830   4.080   1.166   1.745 -0.0632  0.5195 -0.3286
 8123SOL    HW135831   4.043   1.236   1.799 -0.2240  0.5849 -0.5217
 8123SOL    HW235832   4.139   1.213   1.686 -1.2752  0.7901 -1.3315
 8124SOL     OW35833   2.550   0.250   5.941  0.2142 -0.0783  0.7093
 8124SOL    HW135834   2.560   0.266   6.035  0.5287 -0.1288  0.6865
 8124SOL    HW235835   2.544   0.155   5.949  2.1023 -0.1482  1.2138
 8125SOL     OW35836   4.344   2.137   5.039  0.5506  0.5180  0.4373
 8125SOL    HW135837   4.315   2.218   5.082 -1.6137 -0.6821  1.2098
 8125SOL    HW235838   4.312   2.140   4.949 -0.3539  0.7271  0.7643
 8126SOL     OW35839   3.879   1.633   2.872 -0.1287  0.5758  1.0720
 8126SOL    HW135840   3.903   1.541   2.883 -0.9892  0.1372 -0.6335
 8126SOL    HW235841   3.847   1.632   2.781  0.3298  0.9030  0.9124
 8127SOL     OW35842   0.992   2.131   5.662  0.5448 -0.1273  0.8248
 8127SOL    HW135843   0.906   2.102   5.632  0.1025  1.0194  0.9836
 8127SOL    HW235844   1.014   2.203   5.602  1.9399 -0.8017  0.5321
 8128SOL     OW35845   2.221   1.184  15.719 -0.1271 -0.6067  0.6673
 8128SOL    HW135846   2.311   1.178  15.685 -0.9166  1.5412 -1.8141
 8128SOL    HW235847   2.167   1.139  15.654 -1.6824  2.5606 -0.2483
 8129SOL     OW35848   3.345   4.209   5.023  0.0439 -0.4282 -0.4621
 8129SOL    HW135849   3.252   4.212   4.998 -0.4809  2.9193  2.0073
 8129SOL    HW235850   3.343   4.147   5.096 -2.0081  0.9640  0.6675
 8130SOL     OW35851   3.067   3.309   5.499 -0.0369 -0.4618 -0.5223
 8130SOL    HW135852   3.002   3.310   5.570 -0.6271  0.5052 -1.0769
 8130SOL    HW235853   3.040   3.389   5.455  2.0064  0.7597  0.4553
 8131SOL     OW35854   4.483   3.630  10.596 -0.0108  0.0310 -0.3448
 8131SOL    HW135855   4.566   3.669  10.571  0.4984 -0.3816  0.6805
 8131SOL    HW235856   4.512   3.564  10.660 -3.2712 -1.4321 -0.3585
 8132SOL     OW35857   2.493   3.811   8.418  0.0381 -0.2332  0.8057
 8132SOL    HW135858   2.587   3.826   8.411  0.0785 -0.5948  0.6013
 8132SOL    HW235859   2.486   3.761   8.500  1.3933 -0.8586  0.5330
 8133SOL     OW35860   2.012   3.122   4.604 -0.7527 -0.3749 -0.0530
 8133SOL    HW135861   1.988   3.196   4.659  1.0262 -0.4908  0.8962
 8133SOL    HW235862   2.030   3.175   4.526 -2.3370  1.3083  0.7350
 8134SOL     OW35863   1.373   2.279   5.910  0.0346 -0.6627  0.1164
 8134SOL    HW135864   1.325   2.239   5.983 -1.9229 -0.3023 -0.9558
 8134SOL    HW235865   1.302   2.336   5.880 -1.6657 -2.3713  0.9328
 8135SOL     OW35866   0.716   0.180   1.889 -0.0866  0.3857  0.3001
 8135SOL    HW135867   0.639   0.182   1.833  0.0957 -0.1446  0.0273
 8135SOL    HW235868   0.678   0.219   1.968  0.1109  1.9777 -0.3961
 8136SOL     OW35869   3.427   2.612   6.483 -0.0314  0.1244  0.2299
 8136SOL    HW135870   3.422   2.693   6.534  1.8081 -0.1582  0.8663
 8136SOL    HW235871   3.454   2.549   6.550 -2.2366 -0.6134  0.4114
 8137SOL     OW35872   2.447   1.269  15.624  0.3524  0.5546 -0.0288
 8137SOL    HW135873   2.524   1.224  15.589 -0.7256 -0.0389 -1.6516
 8137SOL    HW235874   2.456   1.354  15.580 -0.0203 -0.8520 -2.8290
 8138SOL     OW35875   3.001   1.207   5.954  0.3899 -0.2246 -0.4893
 8138SOL    HW135876   2.915   1.202   5.913 -0.7153 -1.9038  2.0016
 8138SOL    HW235877   3.050   1.148   5.897  1.0071  1.8420 -2.0865
 8139SOL     OW35878   4.323   0.584  16.457  0.6375  0.1171 -0.0497
 8139SOL    HW135879   4.248   0.535  16.423 -0.6118  1.3956  0.8517
 8139SOL    HW235880   4.325   0.646  16.384 -1.2084  1.1791  0.8133
 8140SOL     OW35881   0.175   2.194   4.689 -0.2514  0.5082  0.3146
 8140SOL    HW135882   0.158   2.288   4.696  0.1269  0.6635 -0.8172
 8140SOL    HW235883   0.201   2.173   4.599  0.6718 -1.3674  1.0120
 8141SOL     OW35884   4.107   4.629   0.424 -0.3964  0.1841  0.0528
 8141SOL    HW135885   4.100   0.001   0.405 -0.5979 -0.1950 -1.7512
 8141SOL    HW235886   4.058   4.599   0.347  0.9112  1.6866 -1.3721
 8142SOL     OW35887   4.043   2.014   8.872  0.4724 -0.6001  0.0027
 8142SOL    HW135888   4.065   2.107   8.884  0.7211 -0.7471  0.6694
 8142SOL    HW235889   3.983   2.018   8.798  2.0508 -0.6159 -1.2715
 8143SOL     OW35890   3.364   4.471   6.511  0.1591  0.2243 -0.2064
 8143SOL    HW135891   3.391   4.399   6.454  0.5819  0.7295 -0.6355
 8143SOL    HW235892   3.436   4.533   6.516  0.0169  0.4670 -1.2158
 8144SOL     OW35893   2.217   0.848  13.084 -0.5330  0.0314 -0.6913
 8144SOL    HW135894   2.241   0.939  13.099 -3.9118  0.3739  2.6868
 8144SOL    HW235895   2.267   0.803  13.152 -2.0204 -2.1289 -1.0183
 8145SOL     OW35896   1.321   0.031   3.349  0.4576  0.3593  0.0780
 8145SOL    HW135897   1.311   4.681   3.285 -2.5773  1.0396 -0.2016
 8145SOL    HW235898   1.404   4.719   3.384  0.1689 -0.9341 -0.4324
 8146SOL     OW35899   1.241   0.110  14.538  0.6045  0.3668 -0.1193
 8146SOL    HW135900   1.170   0.050  14.515  0.8628  0.1866 -0.4495
 8146SOL    HW235901   1.257   0.092  14.630 -1.2693  1.3078  0.3796
 8147SOL     OW35902   4.367   2.236   9.816  0.2125  0.1221 -0.1680
 8147SOL    HW135903   4.400   2.166   9.873 -0.7026  1.1920  1.7037
 8147SOL    HW235904   4.453   2.269   9.791 -1.1794  1.7684 -2.7538
 8148SOL     OW35905   3.437   1.162  15.297  0.3101 -0.0977  0.3079
 8148SOL    HW135906   3.503   1.225  15.269  0.2478 -0.4263 -0.5851
 8148SOL    HW235907   3.411   1.115  15.217  0.8287 -1.6366  1.0459
 8149SOL     OW35908   1.440   4.700  16.057 -0.1641 -0.2120 -0.4065
 8149SOL    HW135909   1.348   4.676  16.059 -0.4074  0.8662  1.2603
 8149SOL    HW235910   1.485   4.616  16.066  1.3256  0.5616 -0.5851
 8150SOL     OW35911   0.793   3.820   1.433 -0.1903  0.6277 -0.1167
 8150SOL    HW135912   0.815   3.756   1.501  0.0566  0.9925  0.1516
 8150SOL    HW235913   0.741   3.888   1.476 -0.6493 -0.7289  1.4896
 8151SOL     OW35914   0.577   1.938   2.939 -0.5273  0.3245 -0.2252
 8151SOL    HW135915   0.671   1.937   2.954 -1.1243 -3.2246  3.3189
 8151SOL    HW235916   0.562   1.843   2.930 -0.8892  0.0103  3.6685
 8152SOL     OW35917   3.999   0.715   5.577 -0.3477  0.1946  0.2076
 8152SOL    HW135918   3.945   0.645   5.540 -0.3930  1.0865 -1.4171
 8152SOL    HW235919   4.086   0.698   5.542 -1.0154 -1.1193 -0.8287
 8153SOL     OW35920   3.845   3.440  16.265 -0.3725 -0.0081 -0.0244
 8153SOL    HW135921   3.770   3.406  16.313  0.2710 -1.3476  0.0391
 8153SOL    HW235922   3.877   3.498  16.334  2.4882 -1.4051 -0.1886
 8154SOL     OW35923   2.469   3.651   8.654 -0.5019  0.1104  0.0453
 8154SOL    HW135924   2.401   3.590   8.625  1.8533 -3.2551  1.6026
 8154SOL    HW235925   2.435   3.672   8.742 -0.8876  0.1477 -0.1114
 8155SOL     OW35926   3.983   2.851   4.427 -0.2054 -0.3581  0.4373
 8155SOL    HW135927   4.021   2.827   4.511  2.3763  1.5252 -0.1863
 8155SOL    HW235928   3.903   2.800   4.437 -0.1134 -0.5404  0.2499
 8156SOL     OW35929   2.482   4.319  12.534 -0.4400 -0.4979  0.3905
 8156SOL    HW135930   2.468   4.227  12.511  0.0529 -0.1499 -1.2576
 8156SOL    HW235931   2.389   4.342  12.525 -0.4843 -1.2600 -1.1636
 8157SOL     OW35932   4.632   0.924   5.712  0.4216 -0.0407  0.2004
 8157SOL    HW135933   4.672   0.852   5.761  0.6939  1.9562  2.8750
 8157SOL    HW235934   4.541   0.894   5.708  0.8982 -1.6410  1.7060
 8158SOL     OW35935   4.233   0.502   6.624  0.5984 -0.5119 -0.9531
 8158SOL    HW135936   4.287   0.440   6.576  1.2645 -1.1128  0.5473
 8158SOL    HW235937   4.218   0.444   6.699 -1.0633  1.2702  0.1231
 8159SOL     OW35938   3.950   2.558   8.245  0.1293  0.3385  0.0255
 8159SOL    HW135939   3.926   2.647   8.271 -1.1898 -0.0816  0.2643
 8159SOL    HW235940   3.891   2.502   8.296  1.0952 -0.6138  0.1072
 8160SOL     OW35941   1.811   4.653   7.198 -0.0177 -0.1931 -0.2315
 8160SOL    HW135942   1.745   4.717   7.221  2.3312  1.8127  0.9529
 8160SOL    HW235943   1.778   4.623   7.113  0.4541  0.0065 -0.4851
 8161SOL     OW35944   1.566   1.227   6.377 -0.7771  0.1194  0.2604
 8161SOL    HW135945   1.483   1.266   6.404 -1.7936 -2.2382  0.5589
 8161SOL    HW235946   1.612   1.306   6.349 -0.4123 -0.6059 -1.2156
 8162SOL     OW35947   2.557   0.105   5.093  0.8309 -0.0701 -0.4976
 8162SOL    HW135948   2.581   0.083   5.183 -1.8964  0.4495  0.3603
 8162SOL    HW235949   2.467   0.073   5.087  0.9676 -0.3159 -1.2309
 8163SOL     OW35950   3.928   4.341   4.458 -0.0244  0.1840 -0.5212
 8163SOL    HW135951   3.968   4.407   4.514 -3.8062  1.1513  1.0314
 8163SOL    HW235952   3.898   4.392   4.383 -0.3314  1.1868  0.2916
 8164SOL     OW35953   0.461   0.763  11.465 -0.0388 -0.3175 -0.1623
 8164SOL    HW135954   0.464   0.739  11.558  0.8792  0.0489 -0.1014
 8164SOL    HW235955   0.505   0.848  11.469 -0.9262  0.1668 -0.6544
 8165SOL     OW35956   4.159   4.114   6.143  0.5508 -1.0507 -0.1269
 8165SOL    HW135957   4.206   4.184   6.188 -0.5729 -0.6365  0.3848
 8165SOL    HW235958   4.066   4.134   6.150  0.9917  0.6686  0.6021
 8166SOL     OW35959   0.331   3.145   4.635 -0.1733 -0.6060  0.0407
 8166SOL    HW135960   0.264   3.210   4.615  0.5304  0.0760 -0.0820
 8166SOL    HW235961   0.408   3.165   4.581  0.2333  1.8477  1.5570
 8167SOL     OW35962   1.007   1.760   5.863  0.5262  0.4172  0.2228
 8167SOL    HW135963   0.968   1.824   5.923 -0.9320 -0.2665 -0.0038
 8167SOL    HW235964   1.070   1.825   5.830 -0.0893  1.7999  1.7610
 8168SOL     OW35965   2.549   3.614   8.005  0.4322 -0.4413 -0.1566
 8168SOL    HW135966   2.631   3.651   8.037  0.2334  1.1496 -1.4669
 8168SOL    HW235967   2.520   3.685   7.948  1.6314  0.0385 -0.1634
 8169SOL     OW35968   2.476   1.152   4.378  0.4956 -0.2309 -0.7525
 8169SOL    HW135969   2.545   1.208   4.415  0.7516 -1.3290  0.4469
 8169SOL    HW235970   2.475   1.174   4.285 -4.2646 -1.0876 -0.8678
 8170SOL     OW35971   3.262   0.115   6.403 -0.5342  0.1293 -0.2597
 8170SOL    HW135972   3.293   0.057   6.333 -1.0243 -1.3372  0.7469
 8170SOL    HW235973   3.167   0.129   6.397 -0.3893  1.4533  0.5336
 8171SOL     OW35974   1.121   3.226   7.189 -0.6958 -0.0469 -0.2616
 8171SOL    HW135975   1.145   3.274   7.268 -1.5755 -0.4002  0.2069
 8171SOL    HW235976   1.201   3.174   7.178 -1.2984 -0.7491 -1.3525
 8172SOL     OW35977   1.636   0.427  10.333  0.0210 -0.5219  0.3792
 8172SOL    HW135978   1.677   0.409  10.417  0.5769 -2.5619 -0.3341
 8172SOL    HW235979   1.572   0.493  10.359 -0.6205 -1.5777  1.4338
 8173SOL     OW35980   1.332   4.700  14.763  0.1079  0.2441 -0.1555
 8173SOL    HW135981   1.290   4.614  14.750 -0.7345  0.7868 -1.0057
 8173SOL    HW235982   1.389   4.678  14.836 -2.0196  0.3376  1.5476
 8174SOL     OW35983   0.401   3.201   5.335  0.1902  0.2106 -0.0519
 8174SOL    HW135984   0.412   3.165   5.422  0.0179 -2.1704 -1.0299
 8174SOL    HW235985   0.306   3.204   5.323 -0.0145 -2.4248  0.9930
 8175SOL     OW35986   2.946   1.371   6.347 -0.1222  0.3615  0.0411
 8175SOL    HW135987   2.928   1.331   6.433 -1.8340 -2.9437 -1.8155
 8175SOL    HW235988   3.024   1.424   6.360  0.5007 -0.2527 -1.2319
 8176SOL     OW35989   3.202   1.006   2.372  0.1331 -0.1401 -0.2194
 8176SOL    HW135990   3.222   1.053   2.291  1.3443 -0.3734 -0.0557
 8176SOL    HW235991   3.275   0.944   2.376 -0.4809 -1.0452 -2.5057
 8177SOL     OW35992   0.845   3.235   5.512  0.3153 -0.3849  0.6819
 8177SOL    HW135993   0.850   3.326   5.485 -0.1388 -1.3162 -2.5385
 8177SOL    HW235994   0.751   3.235   5.531  0.1879  0.1980  0.0519
 8178SOL     OW35995   1.740   1.468  11.819  0.0549 -0.0015  0.0273
 8178SOL    HW135996   1.812   1.457  11.881 -1.2502  0.6621  1.6812
 8178SOL    HW235997   1.671   1.423  11.869 -1.3800  0.7208 -1.2874
 8179SOL     OW35998   0.437   0.491  13.506 -0.3985 -0.7282 -0.0638
 8179SOL    HW135999   0.470   0.484  13.417  0.0208  0.8696 -0.0376
 8179SOL    HW236000   0.441   0.401  13.539  2.7640 -1.1777 -1.6649
 8180SOL     OW36001   1.863   4.028   8.520  0.4809 -0.0898 -0.1529
 8180SOL    HW136002   1.869   3.939   8.486  1.5225  0.5684 -1.6955
 8180SOL    HW236003   1.806   4.063   8.451 -0.2268 -1.1087 -0.0884
 8181SOL     OW36004   3.402   2.445  17.350 -0.1367  0.2959  0.2637
 8181SOL    HW136005   3.461   2.475  17.281 -1.0787  0.9824 -0.2439
 8181SOL    HW236006   3.449   2.467  17.430  1.4948 -0.4723 -0.4773
 8182SOL     OW36007   0.504   0.796   8.889  0.3694 -0.0087 -0.1031
 8182SOL    HW136008   0.555   0.717   8.871 -0.3726 -0.3699 -0.6076
 8182SOL    HW236009   0.422   0.759   8.923 -0.2144  0.8302 -0.5914
 8183SOL     OW36010   4.301   3.377   4.950  0.0208  0.6983 -0.3525
 8183SOL    HW136011   4.327   3.448   4.891 -0.9534 -0.7067 -2.4763
 8183SOL    HW236012   4.205   3.373   4.949  0.0196  0.6171  0.0168
 8184SOL     OW36013   2.939   4.371   6.322  0.2433  0.2087 -0.3722
 8184SOL    HW136014   2.883   4.306   6.280 -1.0118  0.6519  0.6281
 8184SOL    HW236015   2.955   4.340   6.411 -0.6385 -0.9106 -0.6128
 8185SOL     OW36016   0.399   2.373  15.293  0.7006  0.6250 -0.6222
 8185SOL    HW136017   0.421   2.379  15.386 -0.0024 -0.2893 -0.3925
 8185SOL    HW236018   0.402   2.277  15.282  1.6015  0.4827  0.7966
 8186SOL     OW36019   3.869   1.044   6.066 -0.3912 -0.2489  0.1150
 8186SOL    HW136020   3.945   1.042   6.125  0.8799 -2.3234 -1.5668
 8186SOL    HW236021   3.800   1.034   6.131 -0.0457  0.0062  0.5201
 8187SOL     OW36022   0.594   2.123   7.670 -0.4130 -0.1141  0.1754
 8187SOL    HW136023   0.622   2.043   7.714 -2.3534 -0.6387  0.4224
 8187SOL    HW236024   0.642   2.184   7.726 -2.1040  0.4721  0.9735
 8188SOL     OW36025   1.655   1.038   2.757  0.2538  0.0395 -0.0858
 8188SOL    HW136026   1.614   1.029   2.843  2.7198  1.0981  1.1769
 8188SOL    HW236027   1.600   1.107   2.720 -3.0128 -1.9043  1.0693
 8189SOL     OW36028   1.903   1.321  15.845  0.1095 -0.6318  0.1656
 8189SOL    HW136029   1.808   1.320  15.834  0.1708 -2.1245 -0.1479
 8189SOL    HW236030   1.917   1.407  15.885 -3.5420  0.3065 -0.5989
 8190SOL     OW36031   0.167   3.445   3.033 -0.1605  0.4901 -0.1299
 8190SOL    HW136032   0.232   3.392   2.986 -1.1798 -1.0536  0.2215
 8190SOL    HW236033   0.165   3.413   3.123 -0.3050  2.3471  0.5337
 8191SOL     OW36034   2.128   1.726   2.662 -0.2302 -0.6080 -1.0199
 8191SOL    HW136035   2.117   1.684   2.576  0.4778 -0.7452 -1.0509
 8191SOL    HW236036   2.073   1.802   2.643 -1.4622 -0.7924  1.8323
 8192SOL     OW36037   0.206   3.765  12.937 -0.3220  0.2633  0.3566
 8192SOL    HW136038   0.218   3.827  12.865  1.7163 -1.6983 -0.9815
 8192SOL    HW236039   0.295   3.750  12.966 -1.2507 -2.1604  1.9663
 8193SOL     OW36040   4.137   0.083   7.469 -0.4169 -0.2659 -0.0344
 8193SOL    HW136041   4.062   0.026   7.486 -0.6113  0.2001  0.6686
 8193SOL    HW236042   4.191   0.072   7.548  0.4377  0.2495 -0.5484
 8194SOL     OW36043   1.571   3.653   2.983 -0.6975 -0.0543 -0.0283
 8194SOL    HW136044   1.487   3.612   3.002  0.3432 -0.9325  2.6477
 8194SOL    HW236045   1.621   3.650   3.065  1.9001  0.2967 -1.6011
 8195SOL     OW36046   1.763   0.309  15.733 -0.6323  0.0918 -0.3078
 8195SOL    HW136047   1.756   0.216  15.713 -0.0093  0.0372 -0.2773
 8195SOL    HW236048   1.784   0.309  15.826 -0.6749  0.4799 -0.2961
 8196SOL     OW36049   0.765   1.185   6.032  0.0954  0.3808 -0.3683
 8196SOL    HW136050   0.763   1.090   6.038  0.9556  0.4275  0.5825
 8196SOL    HW236051   0.672   1.208   6.036  0.3382  1.4720 -0.9124
 8197SOL     OW36052   2.123   4.234   2.283  0.4221  0.0713  0.1572
 8197SOL    HW136053   2.088   4.224   2.372 -0.5170 -0.0556 -0.2274
 8197SOL    HW236054   2.184   4.307   2.287  0.8249 -0.4007  3.1507
 8198SOL     OW36055   2.224   3.293   9.752  0.0554  0.0577  0.2421
 8198SOL    HW136056   2.216   3.383   9.721  1.3949 -0.7926 -2.6143
 8198SOL    HW236057   2.263   3.314   9.837  0.8448  0.2159 -0.1550
 8199SOL     OW36058   4.396   0.669   8.106 -0.0112 -0.2277 -0.2706
 8199SOL    HW136059   4.392   0.723   8.027  0.6061  1.0976  0.6071
 8199SOL    HW236060   4.471   0.609   8.098  0.7563  0.6444  0.3765
 8200SOL     OW36061   1.143   1.354   6.290 -0.0204 -0.7333  1.1008
 8200SOL    HW136062   1.096   1.270   6.299  1.6247 -1.5154  2.4878
 8200SOL    HW236063   1.113   1.394   6.372 -2.0268 -2.1313  1.0680
 8201SOL     OW36064   0.108   0.651  13.791  0.0028  0.2961 -0.1091
 8201SOL    HW136065   0.197   0.672  13.762  0.2963  0.0947  0.6221
 8201SOL    HW236066   0.076   0.603  13.715 -0.7911  2.1507 -0.9404
 8202SOL     OW36067   3.018   4.335   4.644 -0.0154  0.1174  0.0967
 8202SOL    HW136068   2.926   4.353   4.664 -0.1874 -0.1644 -0.4449
 8202SOL    HW236069   3.012   4.246   4.610  0.9203  1.0409 -2.4644
 8203SOL     OW36070   3.620   2.422   4.781  0.2658  0.6719 -0.3286
 8203SOL    HW136071   3.561   2.399   4.710 -0.1336  1.6423 -0.3114
 8203SOL    HW236072   3.685   2.481   4.744 -0.3593  1.8417  0.4385
 8204SOL     OW36073   0.476   4.342   0.958  0.1794 -0.1429  0.0442
 8204SOL    HW136074   0.515   4.291   0.887  0.5515  0.7234 -0.3692
 8204SOL    HW236075   0.427   4.275   1.006  1.3027 -0.2498  1.0196
 8205SOL     OW36076   1.001   2.358  15.884 -0.4374  0.0087  0.3698
 8205SOL    HW136077   0.973   2.270  15.907  1.4532 -0.1999  1.9252
 8205SOL    HW236078   1.096   2.346  15.885 -0.6239 -1.3537  0.9659
 8206SOL     OW36079   1.200   3.735  16.586  0.2159 -0.0775 -0.1531
 8206SOL    HW136080   1.123   3.775  16.545  0.6651 -2.0452 -2.8423
 8206SOL    HW236081   1.170   3.647  16.608 -1.0003  0.1050 -1.0967
 8207SOL     OW36082   1.869   1.091   6.780 -0.2027  0.1929 -0.0194
 8207SOL    HW136083   1.947   1.086   6.725 -0.8838  1.1389 -1.0797
 8207SOL    HW236084   1.907   1.126   6.861 -3.3275  0.7305  1.2208
 8208SOL     OW36085   0.461   0.868   7.585 -0.2796 -0.2185  0.4723
 8208SOL    HW136086   0.511   0.798   7.542  0.8801 -0.0436  1.5386
 8208SOL    HW236087   0.434   0.821   7.664  1.9007 -0.8662  0.8507
 8209SOL     OW36088   4.115   2.549   6.952  0.1521  0.0449 -0.2875
 8209SOL    HW136089   4.196   2.502   6.973  0.7824  1.3078  0.1064
 8209SOL    HW236090   4.148   2.638   6.936  0.5071 -0.2248 -1.0883
 8210SOL     OW36091   2.896   1.052   2.561 -0.0944 -0.0168 -0.7710
 8210SOL    HW136092   2.866   1.109   2.490  0.3285  0.9896 -0.1508
 8210SOL    HW236093   2.979   1.015   2.532 -0.7261 -1.5658 -0.5749
 8211SOL     OW36094   3.925   3.701  10.997 -0.4712 -0.0160 -0.2637
 8211SOL    HW136095   3.903   3.794  10.991  3.5171  0.9641 -0.2330
 8211SOL    HW236096   3.837   3.664  10.995 -0.0345 -1.1859  1.7245
 8212SOL     OW36097   2.382   2.985   4.775  0.1245 -0.0995  0.4080
 8212SOL    HW136098   2.452   3.022   4.721 -0.9028  0.6377 -0.4173
 8212SOL    HW236099   2.408   2.894   4.784  2.0081  0.5620  1.6164
 8213SOL     OW36100   3.612   4.339  14.831 -0.1220  0.5226 -0.3205
 8213SOL    HW136101   3.590   4.432  14.827 -0.1948  0.5217  0.0790
 8213SOL    HW236102   3.604   4.320  14.738  1.2761 -0.6221 -0.2167
 8214SOL     OW36103   4.542   2.868  12.055  0.4891  0.3438 -0.5120
 8214SOL    HW136104   4.527   2.917  11.974  0.2924  1.1556  0.0112
 8214SOL    HW236105   4.472   2.803  12.052  0.0854  0.7489  0.0176
 8215SOL     OW36106   1.549   1.825   9.430  0.1696 -0.0261  0.3122
 8215SOL    HW136107   1.627   1.873   9.401 -0.0689 -0.5496 -1.1888
 8215SOL    HW236108   1.568   1.802   9.521  0.9274  1.2299  0.4650
 8216SOL     OW36109   1.398   3.830   3.307  0.3071  0.1094 -0.1172
 8216SOL    HW136110   1.356   3.853   3.224  2.6584 -3.2535 -2.2035
 8216SOL    HW236111   1.376   3.902   3.367  0.4118 -0.6788  0.8588
 8217SOL     OW36112   2.823   2.919   2.942  0.2298 -0.2439 -0.4648
 8217SOL    HW136113   2.913   2.946   2.925  0.9333 -1.0537  1.8780
 8217SOL    HW236114   2.833   2.824   2.930  3.7127 -0.4642  3.7949
 8218SOL     OW36115   1.966   2.718  15.836 -0.4629  0.5176 -0.7443
 8218SOL    HW136116   1.919   2.750  15.913 -1.2220 -1.0526 -0.5600
 8218SOL    HW236117   2.008   2.639  15.869  1.1145  2.2462  1.4217
 8219SOL     OW36118   3.942   2.908   7.044 -0.5291 -0.1699  0.2324
 8219SOL    HW136119   3.975   2.954   7.121  1.2364 -2.0115  0.5642
 8219SOL    HW236120   3.920   2.824   7.083 -2.9476  0.7139  0.7764
 8220SOL     OW36121   1.603   0.648   8.364  0.2841 -0.6049  0.5763
 8220SOL    HW136122   1.517   0.672   8.399  0.1426 -0.2364 -0.0388
 8220SOL    HW236123   1.581   0.640   8.272 -0.0712  0.0512  0.6070
 8221SOL     OW36124   2.034   3.117   3.611  0.2805  0.4950  0.3661
 8221SOL    HW136125   1.993   3.100   3.695 -0.1012 -1.1546 -0.1456
 8221SOL    HW236126   2.030   3.211   3.598  0.4785  0.1397 -2.2205
 8222SOL     OW36127   3.273   1.858  13.654  0.1729  0.5615 -0.2969
 8222SOL    HW136128   3.342   1.923  13.667 -1.3172  2.3992 -1.6059
 8222SOL    HW236129   3.252   1.830  13.744  1.1887 -1.0171 -0.5433
 8223SOL     OW36130   3.805   3.918  16.033  0.0324  0.7902 -0.0409
 8223SOL    HW136131   3.887   3.884  16.069 -1.3547 -2.2128  0.2348
 8223SOL    HW236132   3.764   3.935  16.117  1.1702  0.8751  0.5021
 8224SOL     OW36133   1.446   4.131   4.224 -0.3513  0.3753  0.1334
 8224SOL    HW136134   1.416   4.106   4.312  2.6296 -0.6928  0.8432
 8224SOL    HW236135   1.450   4.227   4.220 -0.8977  0.3993  0.2290
 8225SOL     OW36136   4.415   4.133   4.096 -0.7418  0.4863  0.0937
 8225SOL    HW136137   4.482   4.065   4.104 -2.0717 -0.8867 -0.5163
 8225SOL    HW236138   4.392   4.120   4.004 -0.5393 -1.3669  0.3245
 8226SOL     OW36139   1.526   4.322   7.577  1.1650 -0.3537  0.6964
 8226SOL    HW136140   1.590   4.303   7.646  1.4317 -0.7289  0.3468
 8226SOL    HW236141   1.468   4.249   7.594  2.3245 -1.0166  1.7915
 8227SOL     OW36142   3.669   4.371  16.743 -0.0530  0.4117 -0.2226
 8227SOL    HW136143   3.652   4.413  16.827  2.5955 -1.1214  1.0880
 8227SOL    HW236144   3.648   4.281  16.765 -2.0956  0.3984 -2.2366
 8228SOL     OW36145   1.262   4.687   4.566 -0.0090 -0.2119 -0.2806
 8228SOL    HW136146   1.355   4.681   4.543  0.0907  0.8440 -0.1545
 8228SOL    HW236147   1.256   4.675   4.660 -0.2149  2.5560  0.0786
 8229SOL     OW36148   1.386   1.574   9.023 -0.2020  0.3469  0.6202
 8229SOL    HW136149   1.333   1.551   9.099  0.1011 -0.0767  0.7011
 8229SOL    HW236150   1.350   1.661   9.004  0.5665  0.9755  2.0348
 8230SOL     OW36151   1.471   1.442   8.174 -0.3352 -0.2730  0.2141
 8230SOL    HW136152   1.440   1.521   8.218 -2.8721 -0.9023 -0.4632
 8230SOL    HW236153   1.475   1.374   8.242 -1.0164 -2.9874 -2.4472
 8231SOL     OW36154   4.579   4.553  16.174 -0.1925 -0.7290  0.0337
 8231SOL    HW136155   4.624   4.478  16.213  1.6184  0.9785  1.2419
 8231SOL    HW236156   4.527   4.512  16.105  0.5004  0.5751 -1.2383
 8232SOL     OW36157   3.561   0.852  15.225 -0.3307 -0.0910  0.1942
 8232SOL    HW136158   3.615   0.931  15.224  1.1478 -1.1026  0.8675
 8232SOL    HW236159   3.532   0.847  15.134  1.0361  1.2562 -0.3116
 8233SOL     OW36160   1.915   1.780   0.827 -0.3025  0.5427 -0.2786
 8233SOL    HW136161   1.847   1.734   0.777 -1.6431  0.8060  1.3065
 8233SOL    HW236162   1.960   1.703   0.863  0.4505  0.0313 -2.3299
 8234SOL     OW36163   3.957   1.304  13.423 -0.3092 -0.6138 -0.2673
 8234SOL    HW136164   3.914   1.225  13.391  0.9115 -1.4874  0.2598
 8234SOL    HW236165   3.949   1.351  13.340 -0.6791  1.5771  1.0094
 8235SOL     OW36166   3.204   2.034   2.254 -0.2844 -0.7672  0.0562
 8235SOL    HW136167   3.174   1.976   2.323 -2.1666 -1.3347 -1.2248
 8235SOL    HW236168   3.139   2.099   2.226 -1.7819 -1.5566  1.7373
 8236SOL     OW36169   0.164   0.793  16.643  0.1634 -0.2603 -0.5089
 8236SOL    HW136170   0.255   0.820  16.641 -0.3348  1.5350  2.8801
 8236SOL    HW236171   0.124   0.848  16.575 -0.4242 -0.4362 -0.3090
 8237SOL     OW36172   3.030   2.250  16.892  0.2146 -0.1130  0.0318
 8237SOL    HW136173   3.123   2.229  16.905  0.4416 -0.0733 -1.5397
 8237SOL    HW236174   2.985   2.194  16.955 -1.0076 -0.3892 -1.0954
 8238SOL     OW36175   0.804   3.247   1.105 -0.3004  0.1897 -0.1301
 8238SOL    HW136176   0.876   3.189   1.129 -1.1911 -0.4282  1.0515
 8238SOL    HW236177   0.782   3.279   1.192  2.1090 -0.5037  0.7214
 8239SOL     OW36178   3.467   4.439  13.498  0.3254  0.0906  0.5440
 8239SOL    HW136179   3.374   4.458  13.502  0.1330 -0.9637  1.0921
 8239SOL    HW236180   3.479   4.353  13.539  3.5336  1.1284  1.8164
 8240SOL     OW36181   2.234   2.866   2.687  0.1308  0.0826  0.4685
 8240SOL    HW136182   2.206   2.942   2.637  1.1764 -0.5180 -1.0152
 8240SOL    HW236183   2.159   2.821   2.727  0.4482  1.1783  2.3305
 8241SOL     OW36184   0.474   0.367   2.349  0.6066 -0.0300  0.6801
 8241SOL    HW136185   0.552   0.414   2.381  0.0034  0.9580  0.6925
 8241SOL    HW236186   0.405   0.429   2.372  0.7617 -0.1456  1.4800
 8242SOL     OW36187   1.420   2.435   8.210 -0.0904  1.0079  0.1358
 8242SOL    HW136188   1.364   2.361   8.187 -0.5590  1.8988 -1.6614
 8242SOL    HW236189   1.455   2.415   8.296 -1.1923  0.2178  0.3912
 8243SOL     OW36190   3.763   2.151  12.705  0.5574 -0.0582  0.0874
 8243SOL    HW136191   3.782   2.134  12.797 -3.5798 -2.2699  0.5303
 8243SOL    HW236192   3.773   2.065  12.664  2.4320 -0.3219  1.1223
 8244SOL     OW36193   1.945   0.738   3.460  0.5271 -0.0400 -0.0426
 8244SOL    HW136194   1.913   0.655   3.425  2.1189 -0.3031 -0.8718
 8244SOL    HW236195   2.004   0.767   3.391  1.2490 -0.7688  0.2613
 8245SOL     OW36196   4.529   0.821   9.925  0.0587 -0.3270  0.5010
 8245SOL    HW136197   4.513   0.873   9.846  1.6100 -1.3019 -0.4645
 8245SOL    HW236198   4.484   0.871   9.993 -1.3127 -0.1775 -0.5285
 8246SOL     OW36199   0.846   0.446   3.329  0.4018 -0.1196 -0.1352
 8246SOL    HW136200   0.886   0.359   3.338  0.9577 -0.0010 -1.4040
 8246SOL    HW236201   0.916   0.500   3.292  2.3772 -1.5853  1.4464
 8247SOL     OW36202   0.411   2.306   6.459  0.4521 -0.0529  0.0125
 8247SOL    HW136203   0.398   2.242   6.529 -0.1836  0.6147  0.5043
 8247SOL    HW236204   0.346   2.266   6.401  0.1943 -1.1845  1.0691
 8248SOL     OW36205   1.943   0.488   8.246  0.4308  0.0517 -0.2392
 8248SOL    HW136206   2.012   0.427   8.219  0.2038 -0.7817  1.0941
 8248SOL    HW236207   1.914   0.459   8.332  0.9414  0.4827  0.0737
 8249SOL     OW36208   2.982   0.113   9.232 -0.3065  0.2673  0.6702
 8249SOL    HW136209   3.067   0.084   9.198 -0.5726 -1.0807  1.1726
 8249SOL    HW236210   2.933   0.149   9.158  2.1008  0.7238 -0.7093
 8250SOL     OW36211   2.545   0.599   9.268  0.7671 -0.1333  0.0866
 8250SOL    HW136212   2.639   0.586   9.258  0.4307 -0.0015 -3.2875
 8250SOL    HW236213   2.546   0.677   9.323  1.7217 -1.4674  1.9645
 8251SOL     OW36214   2.553   1.849   5.672  0.0668 -0.3671  0.2788
 8251SOL    HW136215   2.604   1.796   5.611  0.5430  1.1641 -0.6452
 8251SOL    HW236216   2.566   1.934   5.631 -0.7393  0.7112  2.2261
 8252SOL     OW36217   4.454   2.160   2.284 -0.1020 -0.2007 -0.0182
 8252SOL    HW136218   4.432   2.075   2.245 -1.5038  0.3992 -0.5255
 8252SOL    HW236219   4.535   2.128   2.324  0.8073  0.3100 -1.4209
 8253SOL     OW36220   4.161   3.994   4.642  0.4454 -0.1775 -0.0436
 8253SOL    HW136221   4.196   3.967   4.558 -0.3211 -2.3201  0.3237
 8253SOL    HW236222   4.080   4.034   4.608  0.8214  1.9112  1.5000
 8254SOL     OW36223   4.421   2.122   8.052 -0.0127 -0.6601 -0.1469
 8254SOL    HW136224   4.464   2.131   7.966  3.0852  0.1331  1.4578
 8254SOL    HW236225   4.479   2.072   8.109  2.4742  0.1371 -1.9755
 8255SOL     OW36226   1.330   0.165  11.140  0.6822  0.4025 -0.1915
 8255SOL    HW136227   1.265   0.232  11.118 -1.4183 -1.6909 -0.4157
 8255SOL    HW236228   1.277   0.085  11.140 -0.1287  0.9412 -1.0643
 8256SOL     OW36229   2.979   1.793   5.612  0.3792 -0.0774  0.1645
 8256SOL    HW136230   3.028   1.767   5.690  1.8370 -1.7515 -1.3135
 8256SOL    HW236231   2.941   1.878   5.634  1.4557  0.1886  1.0059
 8257SOL     OW36232   2.450   2.556   9.026  0.1609 -0.4055 -0.3801
 8257SOL    HW136233   2.446   2.460   9.019  0.9733 -0.7368  3.4453
 8257SOL    HW236234   2.395   2.572   9.103 -2.1450  1.2955 -2.3586
 8258SOL     OW36235   1.328   3.166  10.609  0.1708  0.3254 -0.2964
 8258SOL    HW136236   1.233   3.176  10.608  0.2949  1.3919 -1.7679
 8258SOL    HW236237   1.341   3.109  10.533  2.4606  0.3320  0.1047
 8259SOL     OW36238   4.473   2.448   8.178 -0.3288  0.0857  0.6832
 8259SOL    HW136239   4.405   2.486   8.233 -0.8729 -0.7535  0.5845
 8259SOL    HW236240   4.519   2.401   8.248 -0.7598  1.2044  1.7154
 8260SOL     OW36241   2.727   4.590   1.303 -0.3278 -1.0864  0.2189
 8260SOL    HW136242   2.675   4.640   1.367 -0.7514 -0.9228 -0.2538
 8260SOL    HW236243   2.685   4.606   1.219 -1.3698  1.2393  1.1543
 8261SOL     OW36244   2.140   1.913   5.568  0.4169 -0.5386 -0.7433
 8261SOL    HW136245   2.050   1.943   5.553  0.1948 -0.3648  0.9236
 8261SOL    HW236246   2.157   1.851   5.497  2.0932 -1.5302  0.5102
 8262SOL     OW36247   4.597   2.786   1.223  0.3904  0.0402  0.1560
 8262SOL    HW136248   4.522   2.727   1.236 -0.8536  1.2540 -1.6433
 8262SOL    HW236249   4.629   2.793   1.313 -2.8545  2.0998  1.1400
 8263SOL     OW36250   3.136   0.792   4.828  0.5910 -0.1005 -0.2089
 8263SOL    HW136251   3.119   0.871   4.778 -2.1244 -0.2952  0.3635
 8263SOL    HW236252   3.176   0.737   4.761 -0.8761 -1.8225  0.3326
 8264SOL     OW36253   1.961   0.556  14.743 -0.6680 -0.3299 -0.5543
 8264SOL    HW136254   2.043   0.529  14.785  0.9152  2.8559 -1.5720
 8264SOL    HW236255   1.946   0.642  14.781 -1.1028 -0.5330 -0.2707
 8265SOL     OW36256   4.168   4.091  11.885 -0.3304  0.1674 -0.2073
 8265SOL    HW136257   4.096   4.131  11.836 -1.7998 -0.3927  1.5197
 8265SOL    HW236258   4.146   4.116  11.974  1.3611 -0.9173  0.5191
 8266SOL     OW36259   0.652   1.654   2.795 -0.0590  0.0463 -0.7660
 8266SOL    HW136260   0.616   1.565   2.798 -0.1488  0.1720  1.7492
 8266SOL    HW236261   0.676   1.671   2.886 -3.2833  0.3416  0.0001
 8267SOL     OW36262   1.670   2.152   7.406 -0.0729 -0.1336  0.2510
 8267SOL    HW136263   1.693   2.076   7.459 -1.2026 -0.8722 -0.3032
 8267SOL    HW236264   1.753   2.188   7.375  0.5346 -1.1285  0.7303
 8268SOL     OW36265   2.401   0.886   9.581  0.8857  0.2760  0.8158
 8268SOL    HW136266   2.346   0.829   9.527  2.1235 -1.3623  1.3005
 8268SOL    HW236267   2.356   0.855   9.659  0.9666 -1.1907  0.2816
 8269SOL     OW36268   0.578   0.177   3.267  0.0350 -0.7271 -0.0929
 8269SOL    HW136269   0.554   0.264   3.299 -0.0554 -0.9354  0.4003
 8269SOL    HW236270   0.569   0.184   3.172  0.1409  1.4019  0.0425
 8270SOL     OW36271   3.188   2.707   3.014  0.5772  0.1289 -0.3629
 8270SOL    HW136272   3.231   2.632   2.973 -0.1664  0.4355 -1.7298
 8270SOL    HW236273   3.171   2.671   3.101  0.9878 -1.0624 -0.7828
 8271SOL     OW36274   2.779   0.317   3.939  0.2047  0.1369  0.3279
 8271SOL    HW136275   2.851   0.299   4.000 -1.6371 -0.7777  2.2363
 8271SOL    HW236276   2.769   0.232   3.897  3.0803 -0.2280  0.3849
 8272SOL     OW36277   2.372   1.125  17.412 -0.5163 -0.1871  0.3304
 8272SOL    HW136278   2.298   1.065  17.424 -1.8407  1.7859  1.9129
 8272SOL    HW236279   2.340   1.181  17.341  0.1173 -0.2211  0.0243
 8273SOL     OW36280   0.496   2.184   2.397 -0.3731 -0.1207  0.4929
 8273SOL    HW136281   0.572   2.179   2.339  0.2690  2.1146  1.1245
 8273SOL    HW236282   0.425   2.215   2.342 -0.3376 -2.1705 -0.7081
 8274SOL     OW36283   0.760   1.217  14.909 -0.0917  0.4051  0.5210
 8274SOL    HW136284   0.685   1.276  14.917 -1.7706 -1.6318 -0.1478
 8274SOL    HW236285   0.829   1.279  14.885  0.6387 -0.2035  1.0369
 8275SOL     OW36286   3.399   0.215   4.683 -0.4125 -0.0210  0.0685
 8275SOL    HW136287   3.488   0.217   4.649 -0.9946 -0.4719 -1.4913
 8275SOL    HW236288   3.425   0.287   4.740 -0.0077  0.3688 -0.6036
 8276SOL     OW36289   4.219   2.363  12.933 -0.2417 -0.3250 -0.2403
 8276SOL    HW136290   4.293   2.398  12.982  1.4094 -1.4583 -1.9337
 8276SOL    HW236291   4.151   2.410  12.980  0.1509 -2.4246  2.4436
 8277SOL     OW36292   4.450   4.035   6.690  0.8113 -0.8479 -0.3521
 8277SOL    HW136293   4.515   4.020   6.621  0.1325 -0.6670 -1.0301
 8277SOL    HW236294   4.454   3.949   6.733 -0.9461 -1.2668 -0.9973
 8278SOL     OW36295   0.462   3.199   6.257  0.7992  0.2273  0.0346
 8278SOL    HW136296   0.387   3.141   6.239 -0.0055  1.3661 -0.2582
 8278SOL    HW236297   0.472   3.248   6.175 -0.0365 -1.3242 -1.0048
 8279SOL     OW36298   0.247   2.014   7.890 -0.3764 -0.3975 -0.2897
 8279SOL    HW136299   0.331   2.052   7.917 -0.1662 -1.0463 -0.0247
 8279SOL    HW236300   0.237   2.043   7.799  0.7565 -1.2459 -0.6783
 8280SOL     OW36301   3.363   1.492   2.161  0.3926 -0.3818  0.1684
 8280SOL    HW136302   3.369   1.481   2.066 -1.4600 -1.1972  0.1577
 8280SOL    HW236303   3.325   1.579   2.172  0.8271 -0.4196  1.8880
 8281SOL     OW36304   3.629   3.534  10.160  0.4113  0.5320  0.1296
 8281SOL    HW136305   3.662   3.624  10.164  0.2436  0.6085 -0.1717
 8281SOL    HW236306   3.549   3.538  10.213  1.1126  1.6723  1.1101
 8282SOL     OW36307   3.945   3.553  15.689  0.5567 -0.0035 -0.5058
 8282SOL    HW136308   3.883   3.542  15.617 -1.1542  0.3756  0.9075
 8282SOL    HW236309   3.895   3.615  15.742  2.0895  1.7784 -1.1444
 8283SOL     OW36310   3.932   3.729   5.030 -0.3150 -0.4586 -0.0202
 8283SOL    HW136311   4.023   3.740   5.002 -0.6209 -1.2545 -1.3125
 8283SOL    HW236312   3.937   3.640   5.064  0.4673 -1.2846 -2.2880
 8284SOL     OW36313   1.348   2.014   5.778 -0.1066  0.1398  0.0932
 8284SOL    HW136314   1.303   2.098   5.780  0.3123  0.3414  1.1131
 8284SOL    HW236315   1.349   1.997   5.872 -0.4973 -0.5173 -0.0230
 8285SOL     OW36316   3.950   3.690   4.407  0.1640 -0.6328 -0.0398
 8285SOL    HW136317   3.882   3.727   4.462  0.9529  1.4014 -0.4277
 8285SOL    HW236318   4.015   3.655   4.467 -1.7076 -0.8930  1.8074
 8286SOL     OW36319   0.489   1.032   5.574 -0.2714  0.5567 -0.0525
 8286SOL    HW136320   0.492   0.952   5.522 -0.8009  0.5857 -0.1259
 8286SOL    HW236321   0.500   0.989   5.659 -0.5642 -0.4729 -0.5305
 8287SOL     OW36322   1.651   2.782   7.106  0.4228 -0.7790 -0.7215
 8287SOL    HW136323   1.729   2.727   7.109  0.6913 -0.3024  1.0312
 8287SOL    HW236324   1.690   2.866   7.084 -0.5878 -1.0643 -3.5208
 8288SOL     OW36325   3.564   0.393   0.486  0.2298  0.4068  0.0372
 8288SOL    HW136326   3.475   0.358   0.480  0.5750 -0.4938  0.2673
 8288SOL    HW236327   3.592   0.341   0.561  1.3623  0.8119 -0.1054
 8289SOL     OW36328   3.874   3.239   1.262  0.2461  0.2653 -0.5664
 8289SOL    HW136329   3.838   3.295   1.331 -0.6777 -0.9777 -0.0239
 8289SOL    HW236330   3.846   3.152   1.291  0.7498  0.1596 -0.3980
 8290SOL     OW36331   0.424   4.536  13.783  0.7214  0.4567 -0.4786
 8290SOL    HW136332   0.336   4.553  13.815  1.0798  1.1916  0.1422
 8290SOL    HW236333   0.417   4.442  13.801  0.8115  0.3414 -1.0557
 8291SOL     OW36334   1.196   3.699  16.097  0.3518  0.2758 -1.0370
 8291SOL    HW136335   1.111   3.660  16.116 -0.2615  1.8444 -0.5531
 8291SOL    HW236336   1.194   3.795  16.106  0.3388  0.3782 -2.1501
 8292SOL     OW36337   4.546   2.133   7.822  0.1195 -0.6614  0.0255
 8292SOL    HW136338   4.557   2.045   7.785 -3.4289 -0.4774 -1.5490
 8292SOL    HW236339   4.485   2.174   7.760  1.2989 -1.5033 -1.7148
 8293SOL     OW36340   0.024   0.034   8.232 -0.7971  0.1971  0.5885
 8293SOL    HW136341   4.710   4.688   8.174 -2.4992  1.3683  0.2497
 8293SOL    HW236342   0.092   0.075   8.179 -1.4275 -0.0833 -0.4354
 8294SOL     OW36343   0.149   3.719   8.871 -0.1365  0.4894 -0.6028
 8294SOL    HW136344   0.093   3.653   8.829  0.5383 -2.1310  2.6751
 8294SOL    HW236345   0.137   3.777   8.795 -0.2876  1.9790  0.5591
 8295SOL     OW36346   1.415   3.577   5.239 -0.2808 -0.1061  0.2560
 8295SOL    HW136347   1.353   3.602   5.170 -1.4187 -2.1007  0.5573
 8295SOL    HW236348   1.425   3.483   5.220  1.5481 -0.3408  2.3227
 8296SOL     OW36349   0.578   2.417  11.347  0.0627 -0.4252  0.1716
 8296SOL    HW136350   0.647   2.352  11.333  0.5943 -0.2479  1.9600
 8296SOL    HW236351   0.552   2.438  11.257 -1.2768 -2.6015  0.0638
 8297SOL     OW36352   3.583   3.191   0.322 -0.3321 -0.0891 -0.3846
 8297SOL    HW136353   3.536   3.132   0.263 -0.8606  1.5449 -1.5974
 8297SOL    HW236354   3.577   3.135   0.400  0.1185  1.7580  0.9930
 8298SOL     OW36355   2.954   1.504   2.575 -0.1700 -0.4226 -0.6937
 8298SOL    HW136356   2.950   1.583   2.521 -3.1175  0.2559  0.5139
 8298SOL    HW236357   2.870   1.504   2.621 -1.6359  0.3135 -3.3234
 8299SOL     OW36358   4.470   1.709   8.755 -0.3522 -0.0259  0.0077
 8299SOL    HW136359   4.416   1.719   8.833  1.8468 -1.2565  1.6810
 8299SOL    HW236360   4.444   1.781   8.696  0.3574 -0.6111 -1.0177
 8300SOL     OW36361   1.657   4.166   2.130  0.0729  0.4567 -0.0667
 8300SOL    HW136362   1.614   4.139   2.049  1.2319 -0.6178 -0.3192
 8300SOL    HW236363   1.749   4.151   2.108 -0.1595 -0.9119 -0.0985
 8301SOL     OW36364   2.720   1.379  12.418  0.0169 -0.6783  0.6692
 8301SOL    HW136365   2.772   1.328  12.480  0.6499  0.1216  0.8004
 8301SOL    HW236366   2.788   1.421  12.365  0.3422 -1.2673  0.6220
 8302SOL     OW36367   0.699   1.684   4.917  0.2364 -0.2014 -0.3622
 8302SOL    HW136368   0.755   1.722   4.985 -0.2079  1.1697 -0.7630
 8302SOL    HW236369   0.619   1.693   4.968  1.2388  1.2883  0.9701
 8303SOL     OW36370   0.254   0.180   7.838  0.0152  0.2074  0.2769
 8303SOL    HW136371   0.242   0.275   7.833 -0.1035  0.1119 -1.1523
 8303SOL    HW236372   0.302   0.170   7.756 -1.4454 -1.9902 -0.3117
 8304SOL     OW36373   2.970   2.884   5.711 -0.1332 -0.4233  0.0295
 8304SOL    HW136374   3.038   2.876   5.777  1.7062 -2.0007 -2.0785
 8304SOL    HW236375   2.945   2.792   5.699 -3.1873  0.9500 -4.1414
 8305SOL     OW36376   4.351   3.545   6.897  0.6336 -0.1258 -0.4929
 8305SOL    HW136377   4.387   3.633   6.888 -1.1140  0.5239 -1.1666
 8305SOL    HW236378   4.276   3.565   6.952  1.2149  1.1257 -0.1615
 8306SOL     OW36379   2.066   3.758   0.922 -0.3646 -0.4679 -0.7186
 8306SOL    HW136380   2.135   3.718   0.869 -0.2745 -0.6562 -0.4539
 8306SOL    HW236381   2.042   3.686   0.980 -0.3712  0.9971  1.0816
 8307SOL     OW36382   1.295   3.742   4.039 -0.1755  1.1851  0.0186
 8307SOL    HW136383   1.362   3.769   3.976  0.8044 -1.7645 -0.2134
 8307SOL    HW236384   1.357   3.723   4.109  0.4953 -0.1116 -0.9227
 8308SOL     OW36385   3.799   2.490   4.593 -0.4217 -0.1292  0.4274
 8308SOL    HW136386   3.856   2.454   4.526 -0.6276  1.5751 -0.6535
 8308SOL    HW236387   3.855   2.547   4.645 -1.9281  1.9685 -0.2298
 8309SOL     OW36388   3.034   1.511   5.620  0.4334  0.6414  0.0754
 8309SOL    HW136389   2.979   1.433   5.615  1.5829 -0.2536  1.1823
 8309SOL    HW236390   3.034   1.547   5.531  2.7312  1.4758  0.4076
 8310SOL     OW36391   4.605   0.787   2.250  0.0432  0.0568  0.0664
 8310SOL    HW136392   4.596   0.696   2.219 -0.0363 -0.4909  1.6791
 8310SOL    HW236393   4.529   0.813   2.301  0.0796  0.2110  0.0396
 8311SOL     OW36394   1.127   2.854   6.215  0.4317 -0.1184  0.4318
 8311SOL    HW136395   1.141   2.947   6.229  2.0536  0.0313 -2.2852
 8311SOL    HW236396   1.168   2.845   6.130  0.0626 -2.7239  0.5050
 8312SOL     OW36397   3.741   1.476  11.307 -0.5617 -0.3364  0.0184
 8312SOL    HW136398   3.672   1.521  11.258 -0.4846  1.1027  1.2042
 8312SOL    HW236399   3.814   1.511  11.256 -2.4879  0.2613 -2.3359
 8313SOL     OW36400   1.542   1.771   0.033 -0.4293 -0.6320 -0.7554
 8313SOL    HW136401   1.462   1.744  17.675 -1.4504  0.1274  0.6058
 8313SOL    HW236402   1.556   1.855  17.676 -0.4658  0.5437  1.4429
 8314SOL     OW36403   3.574   0.495  11.970  0.4761 -0.5870 -0.4748
 8314SOL    HW136404   3.491   0.514  11.927  0.2578 -2.3182 -0.8084
 8314SOL    HW236405   3.562   0.541  12.053 -0.8142 -1.1985 -0.3200
 8315SOL     OW36406   3.585   0.000  12.760 -0.1030 -0.1221  0.3705
 8315SOL    HW136407   3.558   0.088  12.734 -0.1284 -0.0362  0.6906
 8315SOL    HW236408   3.586   0.008  12.856 -2.7699  1.0258  0.2756
 8316SOL     OW36409   0.152   1.735   7.426 -0.3342  0.2990  0.1408
 8316SOL    HW136410   0.095   1.663   7.457  0.9090 -0.4502  0.6865
 8316SOL    HW236411   0.225   1.689   7.386 -0.6168 -0.4018  0.4156
 8317SOL     OW36412   2.227   1.094  11.025 -0.7871  0.5347 -0.4444
 8317SOL    HW136413   2.230   1.113  11.119  2.9956  3.3299 -1.1157
 8317SOL    HW236414   2.179   1.011  11.018 -1.3959  0.9317 -0.9157
 8318SOL     OW36415   4.344   0.026   7.639  0.0748 -0.0235 -0.0932
 8318SOL    HW136416   4.342   4.670   7.697  1.1455 -0.1743 -0.2712
 8318SOL    HW236417   4.366   4.714   7.552  1.0928 -1.2259  0.6185
 8319SOL     OW36418   1.153   3.815  15.785  0.0207 -0.2144  0.1808
 8319SOL    HW136419   1.110   3.863  15.855 -2.1090  0.5814 -1.6442
 8319SOL    HW236420   1.099   3.736  15.792 -2.5900  1.6993  1.4629
 8320SOL     OW36421   2.904   4.427   5.117 -0.5107 -0.4191 -0.4322
 8320SOL    HW136422   2.845   4.369   5.163  0.2569  0.5534  1.7942
 8320SOL    HW236423   2.874   4.510   5.155  0.6552 -0.4522  0.5507
 8321SOL     OW36424   3.884   2.016   1.190  0.1561  0.2073 -0.0557
 8321SOL    HW136425   3.942   2.072   1.242  3.0298 -0.6268 -2.3174
 8321SOL    HW236426   3.932   2.020   1.107  0.8489  3.0804  0.4647
 8322SOL     OW36427   3.432   1.766   8.330 -0.4198 -0.4426 -0.1817
 8322SOL    HW136428   3.451   1.821   8.405 -2.0609 -0.2582  0.0834
 8322SOL    HW236429   3.521   1.763   8.295 -0.3834  0.8755 -0.1844
 8323SOL     OW36430   1.255   4.233  17.661  0.2275  0.1223 -0.3247
 8323SOL    HW136431   1.201   4.166  17.619 -1.6661  2.4382 -1.5550
 8323SOL    HW236432   1.189   4.280   0.023  1.8512  0.5017  1.4756
 8324SOL     OW36433   1.210   4.250  10.869  0.1953 -0.3943  0.0733
 8324SOL    HW136434   1.223   4.269  10.776 -1.8110  1.5283  0.2014
 8324SOL    HW236435   1.122   4.214  10.863 -1.1710  2.5887  2.7015
 8325SOL     OW36436   1.704   3.856   8.968  0.4540  0.3219  0.1741
 8325SOL    HW136437   1.619   3.874   8.927  0.5922  0.2160 -0.1573
 8325SOL    HW236438   1.757   3.870   8.890  1.6594 -0.0605  0.9164
 8326SOL     OW36439   0.358   4.291  13.833 -0.3280  0.3909 -0.1800
 8326SOL    HW136440   0.407   4.209  13.829  1.7189  1.4622  2.6315
 8326SOL    HW236441   0.294   4.277  13.903 -3.2897 -2.2161 -3.4635
 8327SOL     OW36442   2.720   1.310   5.417  0.2841 -0.0122  0.0321
 8327SOL    HW136443   2.672   1.276   5.341  0.1948  0.8235 -0.2840
 8327SOL    HW236444   2.657   1.290   5.486 -1.2971  1.1704 -1.0653
 8328SOL     OW36445   0.253   3.493   3.565 -0.2625 -0.7161  0.0537
 8328SOL    HW136446   0.295   3.575   3.539  0.4621 -1.1279 -0.0526
 8328SOL    HW236447   0.332   3.440   3.568 -0.2607 -0.5645  2.4160
 8329SOL     OW36448   2.423   1.816   2.012 -0.2570  0.1005  0.2968
 8329SOL    HW136449   2.408   1.741   1.955  0.9546 -1.0981  1.5485
 8329SOL    HW236450   2.374   1.885   1.967 -2.2251 -1.1768  0.5114
 8330SOL     OW36451   0.465   4.719  16.751 -0.1348 -0.1233  0.0019
 8330SOL    HW136452   0.429   0.078  16.788  2.1460  0.2740  1.3326
 8330SOL    HW236453   0.552   4.719  16.790  0.1801  1.2692 -0.6947
 8331SOL     OW36454   1.688   2.979   4.700 -0.1588 -0.0574  0.3166
 8331SOL    HW136455   1.668   2.885   4.705 -1.5519  0.3429  2.2731
 8331SOL    HW236456   1.684   3.008   4.791 -1.7224  0.3393  0.1335
 8332SOL     OW36457   4.243   4.319  14.437  0.2340 -0.1472  0.8242
 8332SOL    HW136458   4.232   4.398  14.384  0.7540 -0.7142 -0.1230
 8332SOL    HW236459   4.152   4.290  14.449  0.9792 -3.0731 -0.4924
 8333SOL     OW36460   4.647   4.058   0.604  0.1368  0.3602 -0.0131
 8333SOL    HW136461   4.720   4.110   0.572  0.7796 -0.3407  0.3163
 8333SOL    HW236462   4.597   4.122   0.654  2.2549  1.5629  0.5448
 8334SOL     OW36463   2.292   0.932  10.103 -0.4538  0.0314 -0.6900
 8334SOL    HW136464   2.337   0.879  10.168 -2.8831 -0.7457  0.3465
 8334SOL    HW236465   2.252   0.869  10.042 -0.3891 -2.3749  1.7836
 8335SOL     OW36466   3.465   1.419   4.555  0.0494 -0.0032 -0.0078
 8335SOL    HW136467   3.536   1.470   4.516 -0.3271  0.4832 -0.0577
 8335SOL    HW236468   3.483   1.326   4.540 -0.0926 -0.2781  1.5311
 8336SOL     OW36469   2.050   2.152  15.116 -0.1730  0.2861 -0.1107
 8336SOL    HW136470   2.000   2.232  15.098  0.0377  0.9769  2.3811
 8336SOL    HW236471   2.087   2.171  15.202 -0.5750  1.3350 -0.1630
 8337SOL     OW36472   3.037   4.205   4.206 -0.0473 -0.0944  0.0515
 8337SOL    HW136473   3.077   4.119   4.190 -0.3282 -0.3095  0.5248
 8337SOL    HW236474   3.035   4.205   4.302  0.6045 -2.4668  0.0708
 8338SOL     OW36475   2.135   2.058   6.073  0.3112 -0.5457 -0.0153
 8338SOL    HW136476   2.208   2.114   6.049  0.7452 -0.9927  0.2535
 8338SOL    HW236477   2.140   2.059   6.169 -0.4247 -1.9430  0.0394
 8339SOL     OW36478   2.717   4.460  12.570 -0.5945  0.2353  0.3572
 8339SOL    HW136479   2.629   4.422  12.571 -0.8964  0.9382  0.1350
 8339SOL    HW236480   2.764   4.411  12.637  2.7652 -0.9857 -2.8514
 8340SOL     OW36481   4.355   2.973   1.609 -0.0352 -0.0562  0.5930
 8340SOL    HW136482   4.332   2.881   1.599  2.0800 -0.5271  0.0866
 8340SOL    HW236483   4.343   2.993   1.702 -0.0134  1.0465  0.3651
 8341SOL     OW36484   3.945   2.307  10.746 -0.2376 -0.1350 -0.1097
 8341SOL    HW136485   3.896   2.326  10.826  0.8477 -0.0616  0.5464
 8341SOL    HW236486   4.016   2.372  10.750  1.3273 -1.7070 -2.2329
 8342SOL     OW36487   1.885   1.329   7.378 -0.1039  0.1584 -0.9764
 8342SOL    HW136488   1.818   1.352   7.443  0.2576  0.5187 -0.7389
 8342SOL    HW236489   1.839   1.258   7.332 -0.6790  0.1496 -0.3968
 8343SOL     OW36490   1.305   3.858  17.595  0.6101  0.3518  0.3045
 8343SOL    HW136491   1.240   3.928  17.587  0.8020  0.7841  2.4764
 8343SOL    HW236492   1.250   3.780  17.600  0.6434  0.2885 -0.3493
 8344SOL     OW36493   0.913   3.162  13.234  0.1485  0.3390  0.1587
 8344SOL    HW136494   0.934   3.069  13.249  2.4123  1.3394  3.0990
 8344SOL    HW236495   0.882   3.197  13.318 -0.1637 -0.8761  0.5525
 8345SOL     OW36496   2.747   3.691   2.477 -0.0769 -0.0281  0.0939
 8345SOL    HW136497   2.794   3.701   2.559 -1.6578  0.5011  0.9370
 8345SOL    HW236498   2.810   3.721   2.412 -0.6043  3.1746  1.0522
 8346SOL     OW36499   0.452   1.864   7.644 -0.3445  0.3680 -0.1727
 8346SOL    HW136500   0.536   1.887   7.684  0.2312  0.7721 -1.6081
 8346SOL    HW236501   0.413   1.949   7.664 -0.1967 -0.4935  3.8528
 8347SOL     OW36502   3.098   0.048   8.923  0.2745  0.5020  0.0403
 8347SOL    HW136503   3.171   0.070   8.981 -1.5786  2.0003  1.8040
 8347SOL    HW236504   3.087   0.122   8.865 -0.9192 -1.9182 -2.8231
 8348SOL     OW36505   3.250   0.419   3.577  0.1608 -0.4462 -0.0005
 8348SOL    HW136506   3.201   0.354   3.526 -0.1162  2.2356 -3.1316
 8348SOL    HW236507   3.326   0.372   3.611  0.1705 -0.1171  0.4293
 8349SOL     OW36508   4.217   0.657   5.038  0.3694  0.2039  0.2354
 8349SOL    HW136509   4.208   0.737   4.986 -0.7958  0.5618  1.0045
 8349SOL    HW236510   4.302   0.616   5.021  0.3118  0.6409 -1.1402
 8350SOL     OW36511   3.162   4.701   2.694 -0.6033 -0.0017 -0.0610
 8350SOL    HW136512   3.111   0.002   2.616 -1.3179  2.9400  1.2469
 8350SOL    HW236513   3.252   4.697   2.660 -0.6544  1.3404 -0.3693
 8351SOL     OW36514   0.370   0.201  13.535  0.1110  1.1308  0.0231
 8351SOL    HW136515   0.413   0.184  13.619  2.7979  0.7651 -1.4108
 8351SOL    HW236516   0.372   0.111  13.505 -4.8162  0.1842  2.5692
 8352SOL     OW36517   3.659   3.577   2.475 -0.6214  0.8500 -0.3031
 8352SOL    HW136518   3.637   3.600   2.566  2.8055 -2.0746  1.3077
 8352SOL    HW236519   3.755   3.570   2.469 -0.6086 -0.3003  1.2107
 8353SOL     OW36520   2.144   2.507   5.765  0.3409 -0.3376  0.1123
 8353SOL    HW136521   2.056   2.523   5.731  0.4317 -0.0825 -0.0029
 8353SOL    HW236522   2.160   2.418   5.733  1.5298  0.7656 -2.3345
 8354SOL     OW36523   2.783   0.730   7.633 -0.1771  0.0063 -0.1451
 8354SOL    HW136524   2.693   0.737   7.602  0.1836  1.2768 -0.9453
 8354SOL    HW236525   2.789   0.825   7.644 -0.5995  0.1058 -0.7481
 8355SOL     OW36526   3.687   3.519  11.274 -0.2141  0.2801  0.5737
 8355SOL    HW136527   3.619   3.459  11.304  0.8282 -1.4710 -0.5589
 8355SOL    HW236528   3.669   3.537  11.182 -0.6267 -0.9785  0.4109
 8356SOL     OW36529   0.427   3.792   8.181 -0.0570 -0.5490 -0.2777
 8356SOL    HW136530   0.503   3.734   8.187  0.1664 -0.1075  1.2115
 8356SOL    HW236531   0.443   3.855   8.252  1.6658 -1.6374  0.3008
 8357SOL     OW36532   0.502   0.618   8.632 -0.3068 -0.4675 -0.2730
 8357SOL    HW136533   0.531   0.686   8.572  1.4238 -1.5379 -0.6329
 8357SOL    HW236534   0.565   0.617   8.704  1.1135  1.6056 -1.4915
 8358SOL     OW36535   3.370   2.351  15.243  0.0951  0.0847  0.3570
 8358SOL    HW136536   3.408   2.285  15.301  1.1537 -0.4776 -0.9736
 8358SOL    HW236537   3.441   2.414  15.231  0.1914 -0.4664 -1.9246
 8359SOL     OW36538   2.842   2.964   6.048  0.0007  0.7064  0.2543
 8359SOL    HW136539   2.889   3.035   6.003 -0.7554  0.7446 -0.4638
 8359SOL    HW236540   2.802   3.009   6.123  0.7469  1.4559  0.2162
 8360SOL     OW36541   3.949   0.270   7.323  0.6878  0.2318 -1.0392
 8360SOL    HW136542   3.941   0.340   7.388  0.4131 -1.3371  0.6129
 8360SOL    HW236543   3.971   0.192   7.374 -1.4256  0.8706  0.8452
 8361SOL     OW36544   3.053   1.105   0.787 -0.1394  0.4815 -0.1121
 8361SOL    HW136545   3.022   1.182   0.836  3.1333  1.9160 -0.2800
 8361SOL    HW236546   3.134   1.086   0.834  0.1383  0.1104 -0.7332
 8362SOL     OW36547   2.465   1.123   3.861  0.0985  0.1237  0.7386
 8362SOL    HW136548   2.467   1.033   3.828  3.1962  0.7219 -0.7084
 8362SOL    HW236549   2.540   1.154   3.811 -0.1267  2.6506  1.9427
 8363SOL     OW36550   2.668   3.968   2.299  0.6237 -0.1916 -0.2993
 8363SOL    HW136551   2.713   4.023   2.363 -0.2913  1.8002 -1.3603
 8363SOL    HW236552   2.738   3.963   2.234  0.3919  1.3419 -0.6597
 8364SOL     OW36553   4.242   4.361   7.559  0.0318  0.3232 -0.5509
 8364SOL    HW136554   4.252   4.266   7.548  3.2441  0.5310  0.7192
 8364SOL    HW236555   4.151   4.374   7.531 -0.6931 -0.8169  1.3186
 8365SOL     OW36556   1.769   2.628   2.539  0.4888  0.0197  0.1156
 8365SOL    HW136557   1.848   2.682   2.545  0.8558 -0.5379  0.3128
 8365SOL    HW236558   1.737   2.632   2.629 -0.7211  4.1476 -0.4774
 8366SOL     OW36559   3.040   1.965   8.993  0.1741 -0.3291 -0.5661
 8366SOL    HW136560   2.968   1.901   8.996 -1.0690  1.1537  1.1313
 8366SOL    HW236561   3.082   1.948   9.077 -0.5314 -0.8075 -0.3083
 8367SOL     OW36562   4.117   2.560   6.663 -0.1180 -0.0427  0.0783
 8367SOL    HW136563   4.183   2.496   6.638 -0.9316 -2.1077  3.2416
 8367SOL    HW236564   4.136   2.557   6.757 -1.2315  0.5585  0.3224
 8368SOL     OW36565   3.520   2.978   5.120  0.1121 -0.1048  0.0870
 8368SOL    HW136566   3.426   2.997   5.118  0.2852  0.8649  0.9369
 8368SOL    HW236567   3.538   2.988   5.214 -0.9950  0.9866  0.1940
 8369SOL     OW36568   3.327   3.239   3.677 -0.4315  0.1646 -0.9561
 8369SOL    HW136569   3.306   3.321   3.721  1.0791  1.5446 -2.8346
 8369SOL    HW236570   3.288   3.261   3.592 -3.1061  0.1081  0.2308
 8370SOL     OW36571   3.765   0.699   3.435  0.1761  0.4744 -0.2100
 8370SOL    HW136572   3.801   0.710   3.523  2.0418 -0.3369 -0.8822
 8370SOL    HW236573   3.729   0.786   3.419  0.0437  0.9574  2.6888
 8371SOL     OW36574   3.153   3.281   8.112  0.4789  0.2077  0.7023
 8371SOL    HW136575   3.141   3.241   8.025  0.2305  0.8571  0.4406
 8371SOL    HW236576   3.074   3.330   8.133  0.9955  0.4098  2.1862
 8372SOL     OW36577   0.312   4.348   3.635 -0.1605  0.2783 -0.4152
 8372SOL    HW136578   0.368   4.341   3.558 -0.9346 -1.3249 -0.8391
 8372SOL    HW236579   0.365   4.295   3.694  0.0952  0.8600 -0.1152
 8373SOL     OW36580   4.688   0.049   4.199  0.6627 -0.0201  0.2265
 8373SOL    HW136581   4.632   0.126   4.206 -0.0069 -0.3260 -1.8158
 8373SOL    HW236582   4.675   0.021   4.109  1.4052  1.3655 -0.3270
 8374SOL     OW36583   1.949   0.389  17.054  0.2533  0.4841 -0.0709
 8374SOL    HW136584   1.891   0.462  17.032  1.7440  2.2014  1.6901
 8374SOL    HW236585   1.921   0.331  16.984  0.5134  0.2233  0.0418
 8375SOL     OW36586   2.723   0.416   2.537  0.3927  0.3375  0.1849
 8375SOL    HW136587   2.633   0.430   2.566 -0.6471  0.0023 -2.9237
 8375SOL    HW236588   2.719   0.323   2.515 -0.6623  0.5839 -0.6783
 8376SOL     OW36589   3.329   2.232   5.653 -0.4531  0.4194 -0.0330
 8376SOL    HW136590   3.387   2.156   5.653 -0.5485  0.3505  1.0842
 8376SOL    HW236591   3.374   2.298   5.706 -4.3876  2.1037  1.1510
 8377SOL     OW36592   0.108   2.972  12.735  0.1907 -0.3921  0.3076
 8377SOL    HW136593   0.084   2.916  12.808 -0.1693 -1.7424 -0.8358
 8377SOL    HW236594   0.190   3.009  12.767  0.0242 -0.1528  0.4605
 8378SOL     OW36595   1.430   3.804   7.055  0.2128 -0.4485  0.0606
 8378SOL    HW136596   1.335   3.818   7.052  0.4349  1.2857  1.0720
 8378SOL    HW236597   1.440   3.815   7.149  0.9378 -1.3885  0.0965
 8379SOL     OW36598   2.385   4.510   8.059 -0.2690 -0.6720  0.1237
 8379SOL    HW136599   2.377   4.598   8.020 -0.6323 -1.3017 -1.2285
 8379SOL    HW236600   2.461   4.528   8.113  0.4238 -0.8022 -0.8027
 8380SOL     OW36601   0.215   4.375   0.029 -0.1752 -0.0885  0.7470
 8380SOL    HW136602   0.260   4.437  17.660  1.3378 -1.7440  0.1357
 8380SOL    HW236603   0.282   4.309   0.047  1.8706  1.7662 -0.0073
 8381SOL     OW36604   0.210   2.939   5.452 -0.3112 -0.3270 -0.4516
 8381SOL    HW136605   0.115   2.944   5.466 -0.1635 -0.0541  0.3996
 8381SOL    HW236606   0.219   2.979   5.365  0.0348 -0.5358 -0.5099
 8382SOL     OW36607   1.446   0.043  16.684 -0.4139 -0.3665 -0.3298
 8382SOL    HW136608   1.475   0.047  16.593 -0.8918 -2.3231 -0.5642
 8382SOL    HW236609   1.359   0.080  16.670  0.4409  2.3083  1.4661
 8383SOL     OW36610   0.236   3.703  10.396 -0.2747 -0.0340 -0.1431
 8383SOL    HW136611   0.325   3.739  10.402  1.1747 -3.3665 -1.2790
 8383SOL    HW236612   0.250   3.626  10.340 -4.2245 -0.5237 -0.4213
 8384SOL     OW36613   1.999   2.259   5.299  0.2502 -0.7317  0.2983
 8384SOL    HW136614   1.909   2.293   5.300  0.0120 -1.3400 -0.4815
 8384SOL    HW236615   2.006   2.250   5.394 -0.2519  1.6138  0.5493
 8385SOL     OW36616   2.024   3.042  10.528 -0.1696  0.1608 -0.2033
 8385SOL    HW136617   1.990   3.006  10.446  2.1162  0.6611 -1.3760
 8385SOL    HW236618   1.971   3.120  10.542 -0.1498  0.7523 -3.3958
 8386SOL     OW36619   1.259   1.886   3.850 -0.2428  0.3937 -0.0241
 8386SOL    HW136620   1.323   1.952   3.877  0.6091 -0.5378  0.2305
 8386SOL    HW236621   1.180   1.916   3.895 -0.6498  0.4525 -0.7745
 8387SOL     OW36622   0.545   0.608  16.049  0.3212 -0.3209  0.4728
 8387SOL    HW136623   0.592   0.526  16.033  0.5054 -0.2939  0.8786
 8387SOL    HW236624   0.535   0.647  15.962  3.4774 -2.0106 -0.6532
 8388SOL     OW36625   0.273   2.048   9.468 -0.5697  0.1163  0.3828
 8388SOL    HW136626   0.237   2.084   9.387  2.7696 -0.4506 -1.4060
 8388SOL    HW236627   0.207   1.982   9.490 -0.5686  0.2896  0.8912
 8389SOL     OW36628   4.619   2.864   9.916  0.1268 -0.7665 -0.6719
 8389SOL    HW136629   4.690   2.882   9.978 -0.2782 -1.6695  0.0427
 8389SOL    HW236630   4.546   2.866   9.977  0.4173 -1.2691 -0.3141
 8390SOL     OW36631   4.433   2.010   7.423  0.2976 -0.2445 -0.5111
 8390SOL    HW136632   4.519   2.050   7.410  0.3020 -0.6189 -1.5784
 8390SOL    HW236633   4.453   1.977   7.511  1.5065  0.6967 -0.4369
 8391SOL     OW36634   1.388   2.302   0.628  0.8255  0.3165 -0.0224
 8391SOL    HW136635   1.399   2.211   0.656 -0.5023 -0.1276 -0.9344
 8391SOL    HW236636   1.332   2.291   0.551  0.5685 -0.1689  0.2342
 8392SOL     OW36637   1.512   1.072  16.076  0.4775 -0.0991  0.1276
 8392SOL    HW136638   1.541   1.069  16.167 -1.2619 -0.9523  0.6404
 8392SOL    HW236639   1.594   1.073  16.026  1.1864 -1.9053  1.2457
 8393SOL     OW36640   1.088   0.298   5.590  0.2928 -0.3303 -0.6181
 8393SOL    HW136641   1.085   0.373   5.530 -2.7550  0.2626  0.2763
 8393SOL    HW236642   1.182   0.281   5.594  0.6886  1.8593 -0.4829
 8394SOL     OW36643   1.788   3.557   6.094  0.4157  0.5075 -0.7020
 8394SOL    HW136644   1.832   3.601   6.167 -1.0446 -0.7478  0.9368
 8394SOL    HW236645   1.728   3.493   6.131 -2.1139  1.6364 -2.8708
 8395SOL     OW36646   1.754   3.049   4.968 -0.4665 -0.5200  0.3076
 8395SOL    HW136647   1.822   3.115   4.974 -1.8983  0.8809  1.0079
 8395SOL    HW236648   1.716   3.063   5.055  1.7417 -1.3150  1.4053
 8396SOL     OW36649   2.640   0.035   7.474 -0.5719 -0.8452  0.5540
 8396SOL    HW136650   2.708   0.076   7.421 -0.0474  1.8234  3.2709
 8396SOL    HW236651   2.569   0.088   7.439 -1.8313 -2.7169  0.2798
 8397SOL     OW36652   2.352   1.822   9.611 -0.1366  0.5955 -0.0170
 8397SOL    HW136653   2.284   1.822   9.544 -1.0714 -0.2303  0.9339
 8397SOL    HW236654   2.326   1.748   9.666  0.1158 -0.9317 -1.9707
 8398SOL     OW36655   4.104   1.915  12.573 -0.0283  0.3118 -0.6252
 8398SOL    HW136656   4.170   1.949  12.633  0.1960  1.7987 -1.7375
 8398SOL    HW236657   4.028   1.921  12.631  1.0844 -1.1465  0.9808
 8399SOL     OW36658   3.618   0.050   6.759  0.1227  0.0858  0.0908
 8399SOL    HW136659   3.562   4.713   6.811 -1.6625  0.2628 -1.6535
 8399SOL    HW236660   3.672   0.094   6.825  0.8292 -1.1530  0.3441
 8400SOL     OW36661   2.988   3.521   6.052 -0.1031 -0.4447 -0.0521
 8400SOL    HW136662   3.019   3.608   6.028 -3.2187  1.1239  1.5691
 8400SOL    HW236663   2.961   3.544   6.141  0.1962 -0.1024 -0.0515
 8401SOL     OW36664   2.062   4.399   8.489  0.1766  0.1116  0.3139
 8401SOL    HW136665   2.027   4.450   8.562 -0.0005  1.9255 -1.0440
 8401SOL    HW236666   2.136   4.454   8.464 -0.3639  0.1817 -1.1068
 8402SOL     OW36667   0.724   4.340   7.862  0.1044  0.1506 -0.5397
 8402SOL    HW136668   0.694   4.420   7.819 -1.4131 -0.0954  0.0718
 8402SOL    HW236669   0.785   4.369   7.930  1.0618 -2.4661 -0.2761
 8403SOL     OW36670   0.062   1.725   0.715  0.4837 -0.2498 -0.3473
 8403SOL    HW136671   0.050   1.658   0.783 -1.8385  0.3504 -0.1464
 8403SOL    HW236672   0.142   1.760   0.753  0.6697  0.6296 -1.5355
 8404SOL     OW36673   0.780   0.175   3.611  0.1048 -0.0808 -0.0597
 8404SOL    HW136674   0.778   0.080   3.598  0.5120  0.0612 -1.2137
 8404SOL    HW236675   0.843   0.206   3.545 -0.4492  2.3967  0.5652
 8405SOL     OW36676   2.844   3.992  11.000  0.5052 -0.3071 -0.0729
 8405SOL    HW136677   2.761   4.012  11.043  0.9373  0.7638  0.2602
 8405SOL    HW236678   2.825   4.016  10.909  0.2204 -0.5356 -0.0749
 8406SOL     OW36679   0.862   1.156   2.961  0.0525 -0.5350  0.7087
 8406SOL    HW136680   0.936   1.208   2.929 -1.0014  1.1043  0.9149
 8406SOL    HW236681   0.855   1.087   2.896 -0.2775  0.5819 -0.4589
 8407SOL     OW36682   1.890   1.290   7.866 -0.1738 -0.6875 -0.4044
 8407SOL    HW136683   1.797   1.270   7.864 -0.3743  0.3708 -1.2815
 8407SOL    HW236684   1.918   1.298   7.775 -2.1395 -3.1681 -1.2318
 8408SOL     OW36685   1.018   1.591   9.948  0.2784  0.5322  0.3448
 8408SOL    HW136686   0.961   1.656   9.990  0.0376  0.8865 -0.5151
 8408SOL    HW236687   1.014   1.524  10.016  0.1262 -0.3247 -0.5180
 8409SOL     OW36688   0.635   2.644   7.958  0.0976 -0.3817  0.3707
 8409SOL    HW136689   0.648   2.730   7.998 -2.4304  0.4730 -0.6260
 8409SOL    HW236690   0.630   2.656   7.863 -0.7892 -1.2092  0.3090
 8410SOL     OW36691   3.617   1.416   7.708  0.4087  0.0366  0.6802
 8410SOL    HW136692   3.546   1.351   7.710 -1.0097  1.5328 -1.5899
 8410SOL    HW236693   3.624   1.439   7.615 -2.0418  0.7179  0.6458
 8411SOL     OW36694   3.758   0.056  15.802 -0.3472  0.5055  0.4229
 8411SOL    HW136695   3.698   0.071  15.729 -0.1680 -0.3222  0.1014
 8411SOL    HW236696   3.740   4.686  15.824  1.2195  0.1885  0.3648
 8412SOL     OW36697   0.322   1.438   4.159 -0.3526 -0.2836 -0.0921
 8412SOL    HW136698   0.416   1.423   4.163 -0.0368  2.0194  0.5742
 8412SOL    HW236699   0.318   1.495   4.082  0.7929 -0.4832 -0.3049
 8413SOL     OW36700   3.885   3.744   6.640  0.5845 -0.0453 -0.3243
 8413SOL    HW136701   3.794   3.722   6.620  0.0810  0.1304  1.7152
 8413SOL    HW236702   3.909   3.676   6.703  0.6530  0.2237 -0.0595
 8414SOL     OW36703   4.035   0.146  14.140  0.5578  0.4879 -0.1234
 8414SOL    HW136704   3.996   0.216  14.192 -2.0543 -1.7214  0.9258
 8414SOL    HW236705   3.959   0.096  14.111  2.5333 -1.8549 -1.2144
 8415SOL     OW36706   4.084   1.742   5.746  0.1587 -0.2900 -0.2902
 8415SOL    HW136707   4.029   1.695   5.809  0.4388  2.8229  2.3045
 8415SOL    HW236708   4.047   1.716   5.662  2.7121 -2.6533 -0.6413
 8416SOL     OW36709   1.365   0.852   2.600 -0.1021 -0.3698  0.2150
 8416SOL    HW136710   1.370   0.798   2.680 -1.5387  0.7114  1.0296
 8416SOL    HW236711   1.379   0.934   2.648  1.3809  0.0947 -1.0088
 8417SOL     OW36712   4.721   0.187   6.158 -0.1795  0.3578 -0.3506
 8417SOL    HW136713   0.066   0.133   6.115  1.7331  1.1405  1.5746
 8417SOL    HW236714   0.011   0.277   6.129 -2.5223  0.1201 -1.9615
 8418SOL     OW36715   4.129   3.717   3.540  0.4453  0.0585  0.2416
 8418SOL    HW136716   4.184   3.650   3.581  0.1271 -0.9407 -0.9459
 8418SOL    HW236717   4.063   3.656   3.505  1.5992 -1.1317  0.1349
 8419SOL     OW36718   3.063   3.175   7.884  0.2636  0.2171 -0.2378
 8419SOL    HW136719   2.971   3.149   7.874 -0.3017  1.7878  0.8509
 8419SOL    HW236720   3.094   3.089   7.911 -1.5540 -0.2920  0.1976
 8420SOL     OW36721   3.251   1.959   4.787 -0.0964 -0.5517 -0.2824
 8420SOL    HW136722   3.205   2.039   4.765  3.0675  0.9206 -1.6671
 8420SOL    HW236723   3.243   1.958   4.882  0.4750 -0.6158 -0.2301
 8421SOL     OW36724   0.655   1.970   9.314 -0.1531 -0.1869  0.2319
 8421SOL    HW136725   0.722   1.949   9.379  0.8015  1.1901 -0.3179
 8421SOL    HW236726   0.597   2.031   9.360  0.4913  1.5432 -1.2319
 8422SOL     OW36727   1.931   2.763   3.281 -0.1036 -0.4108  0.2027
 8422SOL    HW136728   1.839   2.764   3.308 -0.3794 -0.2522 -0.7327
 8422SOL    HW236729   1.966   2.831   3.337  0.4476 -1.0532  0.6364
 8423SOL     OW36730   1.276   1.406   6.064 -0.2358  0.0764 -0.0171
 8423SOL    HW136731   1.222   1.381   6.138  0.3060 -0.8841  0.0535
 8423SOL    HW236732   1.288   1.498   6.087 -2.6788  0.3330  0.2243
 8424SOL     OW36733   1.957   0.172   6.146 -0.1631  0.4869  0.4923
 8424SOL    HW136734   1.909   0.219   6.077  0.1882  0.0555 -0.0442
 8424SOL    HW236735   1.958   0.245   6.208 -0.0226 -0.5745  1.7397
 8425SOL     OW36736   4.506   4.133   5.547 -0.0393 -0.1677  0.5085
 8425SOL    HW136737   4.556   4.215   5.540 -1.4956  0.6379 -0.6237
 8425SOL    HW236738   4.496   4.095   5.460 -2.8759  2.0384 -0.1486
 8426SOL     OW36739   1.394   3.530   8.042  0.1542 -0.2760 -0.2172
 8426SOL    HW136740   1.464   3.563   8.099 -0.7058  0.7819  0.2379
 8426SOL    HW236741   1.426   3.440   8.035 -0.5529 -0.5825  0.4772
 8427SOL     OW36742   3.648   0.449   7.773  0.1408  0.2782 -0.0748
 8427SOL    HW136743   3.623   0.530   7.817 -1.9285 -0.6736  0.5138
 8427SOL    HW236744   3.565   0.405   7.757  1.4861 -2.3299  0.0756
 8428SOL     OW36745   3.569   1.648  12.969  0.2856 -0.3966  0.4674
 8428SOL    HW136746   3.578   1.733  13.012  1.6695 -0.5417  0.4762
 8428SOL    HW236747   3.623   1.662  12.891  0.2854 -1.2686  0.3111
 8429SOL     OW36748   1.687   2.740   6.310  0.3202  0.6047  0.3754
 8429SOL    HW136749   1.748   2.687   6.258  2.2597  1.0840  2.1498
 8429SOL    HW236750   1.725   2.744   6.398 -0.5604  1.0140  0.7301
 8430SOL     OW36751   1.844   2.671   5.878 -0.1471 -0.1631  0.0252
 8430SOL    HW136752   1.870   2.731   5.947  1.0994 -0.9181  0.2188
 8430SOL    HW236753   1.751   2.693   5.875  0.3232  1.6700 -1.2415
 8431SOL     OW36754   2.380   1.389   7.948  0.2102 -0.2893  0.7149
 8431SOL    HW136755   2.397   1.443   8.025  1.8373 -1.4297  1.1500
 8431SOL    HW236756   2.444   1.422   7.885  0.9909  0.6925  2.0195
 8432SOL     OW36757   2.058   2.409   0.441  0.2156  0.1130  0.2862
 8432SOL    HW136758   1.971   2.375   0.418 -0.2867  1.7693 -0.2633
 8432SOL    HW236759   2.043   2.503   0.435 -1.9604 -0.1766  1.3258
 8433SOL     OW36760   1.619   1.181   8.874 -0.3435 -0.4223 -0.4896
 8433SOL    HW136761   1.667   1.230   8.941 -1.8259  0.7762 -0.3042
 8433SOL    HW236762   1.655   1.208   8.789 -3.8152 -1.1178 -2.1700
 8434SOL     OW36763   2.883   3.223   8.921 -0.1766 -0.5920  0.0193
 8434SOL    HW136764   2.859   3.315   8.932  0.3031 -0.6960  1.8682
 8434SOL    HW236765   2.797   3.180   8.917 -0.5664  0.1050  1.1130
 8435SOL     OW36766   1.282   1.160   4.562  0.0328 -0.0927  0.5599
 8435SOL    HW136767   1.286   1.119   4.476 -2.1683  0.1981  0.3245
 8435SOL    HW236768   1.354   1.223   4.559  1.4532 -1.6915  0.9776
 8436SOL     OW36769   2.718   4.680   5.761  0.2172 -0.4335  0.0758
 8436SOL    HW136770   2.740   4.602   5.812 -0.3246 -1.1874 -0.8424
 8436SOL    HW236771   2.648   4.639   5.711  0.1346 -0.6149  0.3420
 8437SOL     OW36772   2.139   4.552  17.182  0.0583  0.3265  0.0761
 8437SOL    HW136773   2.047   4.552  17.157 -0.4273  0.3840  1.8611
 8437SOL    HW236774   2.167   4.635  17.143  0.2289 -0.6406 -1.8407
 8438SOL     OW36775   0.852   2.316   2.526  0.2460  0.1452 -0.8162
 8438SOL    HW136776   0.909   2.239   2.524 -0.2626 -0.2557  0.5097
 8438SOL    HW236777   0.913   2.384   2.496  0.2927  0.8893  1.0118
 8439SOL     OW36778   4.116   2.883   6.649  0.1054 -0.0079  0.5494
 8439SOL    HW136779   4.084   2.968   6.678  0.1484  1.1063 -2.6787
 8439SOL    HW236780   4.098   2.831   6.727  0.4217 -0.2608  0.4555
 8440SOL     OW36781   0.507   3.360   1.184 -0.2504 -0.0267  0.2023
 8440SOL    HW136782   0.532   3.398   1.268  1.7021  2.2280 -1.4033
 8440SOL    HW236783   0.490   3.267   1.194 -0.8196  0.0117 -0.3779
 8441SOL     OW36784   2.402   4.319   3.732  0.2017  0.0113  0.4260
 8441SOL    HW136785   2.400   4.225   3.751 -0.2064  0.4576  2.6635
 8441SOL    HW236786   2.486   4.350   3.765  0.7168 -0.0782 -0.7945
 8442SOL     OW36787   2.100   4.534  16.311  0.4867  0.0649  0.0727
 8442SOL    HW136788   2.166   4.601  16.290  3.8635 -3.7716 -1.4399
 8442SOL    HW236789   2.019   4.575  16.280 -0.8167 -3.0453 -0.5539
 8443SOL     OW36790   4.590   2.863   6.265 -0.4235  0.9537 -0.2286
 8443SOL    HW136791   4.640   2.875   6.346  1.3086 -0.8473 -1.0586
 8443SOL    HW236792   4.590   2.952   6.231 -1.0531  0.5568 -1.2765
 8444SOL     OW36793   3.996   0.828   8.954 -0.1517  0.2475  0.0019
 8444SOL    HW136794   4.080   0.860   8.922  0.8246  0.8427  3.1414
 8444SOL    HW236795   4.000   0.738   8.921 -0.0819 -0.2087  1.2434
 8445SOL     OW36796   3.686   0.560   0.307 -0.5083  0.2304 -0.0626
 8445SOL    HW136797   3.693   0.487   0.246 -0.4130  0.7463 -0.6604
 8445SOL    HW236798   3.646   0.507   0.377  2.1565 -0.2222  1.1039
 8446SOL     OW36799   3.143   0.402   9.080  0.1411 -0.4556 -1.1722
 8446SOL    HW136800   3.201   0.421   9.006  1.3055  1.1460  0.1533
 8446SOL    HW236801   3.064   0.372   9.034  0.9266  2.7602 -4.6855
 8447SOL     OW36802   0.237   3.502  10.635  0.3474 -0.6657 -0.4758
 8447SOL    HW136803   0.162   3.561  10.626 -0.2874 -1.2375  1.1615
 8447SOL    HW236804   0.223   3.444  10.710 -0.4682  0.3292  0.1436
 8448SOL     OW36805   2.981   3.956  16.433 -0.1422 -0.0275  0.3987
 8448SOL    HW136806   3.008   3.921  16.517 -0.0798 -1.9406 -0.4219
 8448SOL    HW236807   3.000   4.049  16.447  1.2898  0.1232 -2.5052
 8449SOL     OW36808   2.590   3.412  13.222  0.0035 -0.0087 -0.3893
 8449SOL    HW136809   2.649   3.484  13.201 -0.5792  0.5644 -0.0810
 8449SOL    HW236810   2.534   3.441  13.294  0.2570 -2.7413  0.8969
 8450SOL     OW36811   3.781   0.552   8.156  0.1558 -0.0997  0.5778
 8450SOL    HW136812   3.749   0.598   8.079 -1.5566  1.4085  2.1924
 8450SOL    HW236813   3.694   0.523   8.181  0.0678  0.3850  0.8318
 8451SOL     OW36814   0.397   3.588   3.277 -0.5104 -0.2152  0.3978
 8451SOL    HW136815   0.463   3.550   3.219 -0.8931  2.4088 -1.7246
 8451SOL    HW236816   0.439   3.582   3.363  0.5996  1.2789 -0.0465
 8452SOL     OW36817   2.713   1.379  14.509 -0.2583  0.1550  0.3141
 8452SOL    HW136818   2.769   1.353  14.435 -2.5876 -0.5074 -1.1952
 8452SOL    HW236819   2.629   1.354  14.472 -0.3748 -0.8667  1.2853
 8453SOL     OW36820   0.957   2.291   4.828  0.0110  0.5924  0.1495
 8453SOL    HW136821   0.914   2.306   4.744 -0.2777 -0.6580  0.0756
 8453SOL    HW236822   1.037   2.342   4.814 -0.9389  1.4045 -2.4274
 8454SOL     OW36823   4.645   1.709   4.106 -0.3220  0.4461 -0.1468
 8454SOL    HW136824   0.010   1.748   4.120 -0.6618 -0.2241  3.9882
 8454SOL    HW236825   4.677   1.640   4.048 -0.1801  0.8369 -0.5297
 8455SOL     OW36826   3.523   1.483   3.237  1.3291 -0.3763  0.0725
 8455SOL    HW136827   3.554   1.434   3.161 -0.5852 -2.7423  0.8137
 8455SOL    HW236828   3.602   1.512   3.283  1.4211 -3.0612  1.5599
 8456SOL     OW36829   1.702   4.244   8.114 -0.5017 -0.0721  0.3830
 8456SOL    HW136830   1.755   4.238   8.193  0.3988 -1.3524 -0.3088
 8456SOL    HW236831   1.767   4.279   8.053 -0.6540  0.4757  0.5359
 8457SOL     OW36832   0.421   3.426   7.781 -0.2453 -0.5983 -0.2190
 8457SOL    HW136833   0.496   3.389   7.828  0.8022  1.9803  0.1051
 8457SOL    HW236834   0.357   3.358   7.805  1.2194 -1.8468  0.1297
 8458SOL     OW36835   4.071   1.518   6.585  0.3492 -0.9112 -0.4513
 8458SOL    HW136836   4.156   1.499   6.544  0.3673  1.4487 -1.5115
 8458SOL    HW236837   4.068   1.614   6.577  0.6562 -0.8940 -0.3724
 8459SOL     OW36838   0.844   1.424  11.326  0.3803  0.0046 -0.0313
 8459SOL    HW136839   0.924   1.464  11.359 -0.3328  1.8432 -0.5806
 8459SOL    HW236840   0.830   1.353  11.389  0.8481  1.7586  2.0389
 8460SOL     OW36841   0.057   1.862   6.207  0.2405 -0.1795 -0.1938
 8460SOL    HW136842   0.148   1.877   6.232 -0.0382  2.6386 -0.8576
 8460SOL    HW236843   0.066   1.794   6.141  0.9610  0.9363 -1.2286
 8461SOL     OW36844   2.736   1.191   3.798 -0.5469  0.5154 -0.1538
 8461SOL    HW136845   2.762   1.258   3.735  2.4032 -0.6039 -0.1048
 8461SOL    HW236846   2.817   1.143   3.814  0.7788  2.3359 -1.4695
 8462SOL     OW36847   2.396   2.678  15.881 -0.1249 -0.0788 -0.1231
 8462SOL    HW136848   2.412   2.587  15.904  0.1455  0.0710  0.2718
 8462SOL    HW236849   2.416   2.714  15.967  1.1969 -0.2262 -0.3759
 8463SOL     OW36850   3.035   3.578   6.337 -0.7167  0.0264 -0.1593
 8463SOL    HW136851   3.130   3.589   6.344 -0.4194 -1.6798 -1.6064
 8463SOL    HW236852   3.002   3.668   6.336 -1.7180 -0.3457 -0.6735
 8464SOL     OW36853   1.476   0.281  14.496  0.1932 -0.1516  0.5519
 8464SOL    HW136854   1.505   0.259  14.408  0.4113 -1.5209  0.9711
 8464SOL    HW236855   1.420   0.207  14.518  1.1030 -0.3458  2.2375
 8465SOL     OW36856   1.673   1.376  16.102  0.2005 -0.1241  0.2773
 8465SOL    HW136857   1.610   1.408  16.167 -1.6903  0.3643 -1.8066
 8465SOL    HW236858   1.622   1.314  16.051 -0.5084  0.2457  0.5368
 8466SOL     OW36859   3.724   0.634  10.734  0.2843  0.1785 -0.9491
 8466SOL    HW136860   3.690   0.550  10.703 -2.7439  0.5265  1.3827
 8466SOL    HW236861   3.809   0.601  10.763 -1.2438 -2.1610  0.9004
 8467SOL     OW36862   2.780   1.242  12.663 -0.3256 -0.1693  0.0369
 8467SOL    HW136863   2.728   1.301  12.717 -0.2348  0.3174 -0.4040
 8467SOL    HW236864   2.867   1.240  12.704 -0.0483  0.7463 -0.4926
 8468SOL     OW36865   4.640   1.514   1.304  0.0998 -0.5470  0.5073
 8468SOL    HW136866   4.633   1.442   1.366 -1.2266 -0.2964  0.6480
 8468SOL    HW236867   4.631   1.482   1.214 -0.6467 -0.4182  0.5340
 8469SOL     OW36868   2.783   1.697  17.658  0.9947 -0.4174 -0.5995
 8469SOL    HW136869   2.823   1.675   0.054  2.1106  0.2763 -0.9490
 8469SOL    HW236870   2.698   1.655  17.672  0.8436  0.7579  1.9870
 8470SOL     OW36871   0.956   2.600   6.765  0.0362  0.1802 -0.2165
 8470SOL    HW136872   1.019   2.567   6.829  1.7205  1.9047 -0.9642
 8470SOL    HW236873   0.876   2.581   6.814 -0.2873 -0.1937 -0.8869
 8471SOL     OW36874   0.706   1.087   9.681 -0.2152  0.3465  0.1883
 8471SOL    HW136875   0.701   1.034   9.760  0.0849 -0.2567 -0.1977
 8471SOL    HW236876   0.623   1.135   9.685 -1.1740 -1.3196  0.1340
 8472SOL     OW36877   1.992   1.663   3.033  0.4829  0.4352 -0.3361
 8472SOL    HW136878   2.010   1.649   2.940 -2.3747 -0.4929 -0.7586
 8472SOL    HW236879   1.935   1.740   3.032  0.7954  0.6680  0.0881
 8473SOL     OW36880   3.767   3.882   2.126  0.1556  0.0366  0.3693
 8473SOL    HW136881   3.689   3.934   2.107 -0.2428 -1.1835 -1.3491
 8473SOL    HW236882   3.731   3.798   2.155  0.8288 -0.4728 -0.2482
 8474SOL     OW36883   1.836   1.764   6.254 -0.4959 -0.4105 -0.4074
 8474SOL    HW136884   1.744   1.770   6.229 -0.8583  1.2452  1.2532
 8474SOL    HW236885   1.861   1.856   6.249 -1.1518 -0.1886  0.2764
 8475SOL     OW36886   0.589   0.617   7.695  0.1218 -0.2527  1.2819
 8475SOL    HW136887   0.662   0.638   7.753 -0.6610  1.6882  1.5649
 8475SOL    HW236888   0.510   0.643   7.743  0.1301 -1.0455  1.7239
 8476SOL     OW36889   2.248   0.286   7.866  0.3409 -0.2468 -0.0723
 8476SOL    HW136890   2.273   0.195   7.852 -0.2280 -0.4503  0.2531
 8476SOL    HW236891   2.260   0.322   7.778  2.6131  1.9338  1.1304
 8477SOL     OW36892   0.852   0.072  12.776 -0.5357 -0.1491 -0.2034
 8477SOL    HW136893   0.781   0.014  12.804  0.5840 -0.9013  1.0728
 8477SOL    HW236894   0.852   0.136  12.847  0.0450  0.1448 -0.4662
 8478SOL     OW36895   3.913   1.949  16.732 -0.4920  0.2940 -0.6621
 8478SOL    HW136896   3.965   2.029  16.732 -0.8587  0.5258 -1.2297
 8478SOL    HW236897   3.822   1.974  16.749 -0.5122 -0.3467  0.1979
 8479SOL     OW36898   1.676   1.768  14.710 -0.4911 -0.8133 -0.0795
 8479SOL    HW136899   1.590   1.731  14.690 -0.4888 -0.8829  0.0386
 8479SOL    HW236900   1.675   1.832  14.638  3.2154  0.8848  1.3536
 8480SOL     OW36901   2.339   1.546   1.915 -0.0678 -0.3646  0.9705
 8480SOL    HW136902   2.347   1.602   1.837  1.2605 -2.6450 -0.5526
 8480SOL    HW236903   2.422   1.499   1.927 -0.2271 -0.7051  0.7468
 8481SOL     OW36904   4.619   2.047   3.601  0.1876 -0.0177  0.6012
 8481SOL    HW136905   4.529   2.021   3.584  0.1932  0.8796 -0.7589
 8481SOL    HW236906   4.643   2.096   3.523 -0.0901  0.6705  0.9570
 8482SOL     OW36907   2.440   2.006   7.698  0.2170 -0.1609  0.3421
 8482SOL    HW136908   2.459   2.091   7.738  2.3534  0.1783 -1.4130
 8482SOL    HW236909   2.367   1.978   7.754 -1.3396 -0.4976 -1.8735
 8483SOL     OW36910   1.965   4.365   9.676  0.0282 -0.3963 -0.0311
 8483SOL    HW136911   2.017   4.438   9.643  1.9384 -0.4970  2.7487
 8483SOL    HW236912   1.987   4.375   9.769  1.2068  2.1044 -0.5982
 8484SOL     OW36913   0.548   2.426   7.586  0.5122  0.0925 -0.8776
 8484SOL    HW136914   0.516   2.388   7.668  0.2886 -1.2941 -1.6131
 8484SOL    HW236915   0.464   2.415   7.542 -0.0400  0.2998  0.1260
 8485SOL     OW36916   0.799   2.045   7.282 -0.3415 -0.2277  0.0517
 8485SOL    HW136917   0.858   2.092   7.223  1.6643 -2.9064 -0.0488
 8485SOL    HW236918   0.813   2.108   7.354  1.5246  0.5645 -1.0065
 8486SOL     OW36919   1.068   2.381   8.299 -0.0874 -0.3346  0.0847
 8486SOL    HW136920   1.101   2.400   8.387  0.7600 -0.5090 -0.1977
 8486SOL    HW236921   1.147   2.382   8.245 -0.8945  0.9130 -1.0809
 8487SOL     OW36922   4.371   1.089  10.006 -0.0444  0.2775  0.3291
 8487SOL    HW136923   4.427   1.083   9.928 -0.1851 -2.1511  0.4174
 8487SOL    HW236924   4.289   1.117   9.966 -0.8396 -0.6313  1.3471
 8488SOL     OW36925   2.888   3.066   0.567  0.4299  0.5993 -0.3965
 8488SOL    HW136926   2.884   2.991   0.508  0.8676 -0.1057  0.4703
 8488SOL    HW236927   2.976   3.064   0.604  0.1383  2.0306  0.4074
 8489SOL     OW36928   4.480   0.039   3.430 -0.3184 -0.3289 -0.2520
 8489SOL    HW136929   4.546   0.034   3.499  0.0556 -0.7295 -0.6379
 8489SOL    HW236930   4.474   0.134   3.418  0.5841 -0.3981 -1.2481
 8490SOL     OW36931   2.923   0.472   7.140  0.3006 -0.2199  0.6636
 8490SOL    HW136932   2.907   0.455   7.047  1.6654 -0.4760  0.4789
 8490SOL    HW236933   3.011   0.437   7.150  0.1557 -0.5804  0.6964
 8491SOL     OW36934   1.286   3.025  14.772  0.1423  0.3816 -0.2413
 8491SOL    HW136935   1.359   3.022  14.833  1.3186 -0.2393 -1.7038
 8491SOL    HW236936   1.285   3.117  14.743  0.7554 -0.3177 -2.4939
 8492SOL     OW36937   1.504   1.816  15.620 -0.0347 -0.1664 -0.0442
 8492SOL    HW136938   1.434   1.757  15.650  0.0900 -0.8494 -1.1255
 8492SOL    HW236939   1.581   1.762  15.609  0.8274  1.2403 -0.8730
 8493SOL     OW36940   2.129   0.635   4.401  0.0562  0.3756 -0.3622
 8493SOL    HW136941   2.176   0.637   4.484 -2.7201  0.0070  1.2506
 8493SOL    HW236942   2.070   0.561   4.418  0.0994 -0.0300 -1.9874
 8494SOL     OW36943   1.576   4.277   5.678  0.2044  0.0653 -0.2368
 8494SOL    HW136944   1.620   4.359   5.656 -0.0038  0.5668  1.2610
 8494SOL    HW236945   1.558   4.291   5.771  1.2756 -0.1585 -0.0068
 8495SOL     OW36946   3.018   2.179   5.389  0.1670  0.2332  0.0527
 8495SOL    HW136947   3.047   2.090   5.408  0.1546  0.0905 -0.5858
 8495SOL    HW236948   2.998   2.175   5.295  0.0891  0.8792  0.0411
 8496SOL     OW36949   4.179   4.346  11.394 -0.3258  0.2281 -0.0575
 8496SOL    HW136950   4.167   4.432  11.435 -0.1644 -0.5459  1.6409
 8496SOL    HW236951   4.188   4.378  11.305 -1.2334  2.8043  0.7695
 8497SOL     OW36952   3.066   1.800   0.292 -0.4040 -0.2028 -0.2115
 8497SOL    HW136953   3.029   1.862   0.355 -0.6486 -0.5763  0.0159
 8497SOL    HW236954   2.993   1.740   0.278 -1.2265  0.9343 -0.7498
 8498SOL     OW36955   1.212   4.642   4.879  0.2493  0.4495 -0.1351
 8498SOL    HW136956   1.211   0.006   4.835 -0.6581  1.7775  2.4331
 8498SOL    HW236957   1.261   4.660   4.959  1.0508 -1.2895 -0.2297
 8499SOL     OW36958   1.660   0.253   3.678  0.0727 -0.0923  0.6531
 8499SOL    HW136959   1.695   0.342   3.672 -0.4972 -0.0856 -2.3314
 8499SOL    HW236960   1.601   0.250   3.603  0.2419  0.6959  0.4919
 8500SOL     OW36961   3.139   1.188   7.775  0.1847  0.0572 -0.0296
 8500SOL    HW136962   3.128   1.104   7.819 -0.0099  1.0300  1.7873
 8500SOL    HW236963   3.235   1.193   7.772  0.1586  0.4002 -0.3020
 8501SOL     OW36964   2.197   1.583   5.014 -0.2949  0.2397 -0.4794
 8501SOL    HW136965   2.145   1.589   5.093  0.9305 -0.1230  0.3636
 8501SOL    HW236966   2.244   1.666   5.018  0.8096 -0.4206  0.3848
 8502SOL     OW36967   2.461   0.622   5.815 -0.3852  0.1435  0.4666
 8502SOL    HW136968   2.444   0.564   5.889  0.3641  0.5214  0.9374
 8502SOL    HW236969   2.416   0.701   5.845  1.9763  2.5857 -2.3536
 8503SOL     OW36970   4.716   2.336   2.165  0.8992  0.5544  0.5386
 8503SOL    HW136971   0.016   2.262   2.221 -0.2979 -0.1993 -0.0191
 8503SOL    HW236972   0.026   2.299   2.083  0.4423  0.5782  0.3551
 8504SOL     OW36973   3.795   2.935   6.642  0.0115  0.0206 -0.1865
 8504SOL    HW136974   3.722   2.947   6.581 -1.2470  2.7009  1.8587
 8504SOL    HW236975   3.871   2.918   6.586 -1.8389 -2.2505 -2.0459
 8505SOL     OW36976   2.133   3.857   9.206 -0.4850 -0.2077 -0.0325
 8505SOL    HW136977   2.194   3.908   9.153  2.0754 -0.3232  2.8116
 8505SOL    HW236978   2.072   3.818   9.143  1.3672  1.0347 -2.6390
 8506SOL     OW36979   0.124   2.626   9.878 -0.7733  0.3443 -0.0661
 8506SOL    HW136980   0.037   2.614   9.841 -0.1424 -1.5329 -0.9669
 8506SOL    HW236981   0.161   2.698   9.826  0.9360 -0.3856  0.1390
 8507SOL     OW36982   1.167   3.185   7.952  0.3166  0.0633 -0.2624
 8507SOL    HW136983   1.135   3.103   7.912  0.7655 -0.7993  1.1793
 8507SOL    HW236984   1.092   3.238   7.924 -0.3389  0.4505  2.2463
 8508SOL     OW36985   3.072   1.924   5.388 -0.2456 -0.3083 -0.5752
 8508SOL    HW136986   3.105   1.859   5.326  0.5373 -1.9765  1.5993
 8508SOL    HW236987   3.043   1.868   5.459  1.3613  0.4652  0.7036
 8509SOL     OW36988   0.277   0.048   4.845 -0.0727  0.1029 -0.1262
 8509SOL    HW136989   0.187   0.030   4.871 -0.3632  0.9509 -0.5374
 8509SOL    HW236990   0.329   4.701   4.886  0.8432 -0.1657 -1.7030
 8510SOL     OW36991   3.122   3.197   8.724 -0.2474 -0.1144  0.1233
 8510SOL    HW136992   3.160   3.131   8.666 -3.1843 -2.5535  1.0162
 8510SOL    HW236993   3.076   3.150   8.793  0.7342  0.2534  1.0270
 8511SOL     OW36994   3.850   3.807   9.316  0.0296  0.5928 -0.5777
 8511SOL    HW136995   3.920   3.843   9.262  2.7526 -1.0928  1.8701
 8511SOL    HW236996   3.833   3.881   9.374 -0.2014  1.0322 -1.2079
 8512SOL     OW36997   1.075   0.694   0.399  0.7845 -0.2124 -0.9428
 8512SOL    HW136998   1.006   0.736   0.348  1.0018 -0.5422 -1.5072
 8512SOL    HW236999   1.022   0.621   0.430 -1.5682  1.7953 -0.3012
 8513SOL     OW37000   3.640   3.557   8.910  0.3036  0.2076  0.5791
 8513SOL    HW137001   3.707   3.489   8.914  0.8288  0.4815 -3.6538
 8513SOL    HW237002   3.556   3.510   8.915  0.5074 -0.2027  0.0874
 8514SOL     OW37003   1.562   0.539   3.205 -0.4160  0.2925  0.1637
 8514SOL    HW137004   1.619   0.542   3.128 -0.3927 -3.3281  0.0194
 8514SOL    HW237005   1.548   0.444   3.212  1.1328  0.0170 -0.3495
 8515SOL     OW37006   1.194   1.981   2.483  0.2720 -0.0146 -0.9687
 8515SOL    HW137007   1.193   1.901   2.430 -1.1001 -0.6184 -0.0189
 8515SOL    HW237008   1.199   2.048   2.415  1.0546  0.4052 -0.5036
 8516SOL     OW37009   0.738   3.849   7.887  0.1018  0.1710 -0.6417
 8516SOL    HW137010   0.709   3.936   7.914  0.0236  0.2156 -0.8677
 8516SOL    HW237011   0.662   3.793   7.903  0.6156 -0.6595 -1.1054
 8517SOL     OW37012   2.873   3.695   4.210  0.3901  0.1762 -0.3345
 8517SOL    HW137013   2.933   3.625   4.184  0.3732 -0.4117  1.2087
 8517SOL    HW237014   2.787   3.657   4.194 -0.0829  0.8301  0.6579
 8518SOL     OW37015   1.655   2.188  15.165  0.0502  0.5091 -0.1998
 8518SOL    HW137016   1.584   2.203  15.102 -1.6884 -3.1075  0.8700
 8518SOL    HW237017   1.719   2.245  15.123  1.4709 -0.8633  0.1028
 8519SOL     OW37018   3.330   1.147   3.579 -0.4860  0.0087  0.4604
 8519SOL    HW137019   3.405   1.096   3.611 -0.2362  1.1381  1.6754
 8519SOL    HW237020   3.308   1.096   3.501  0.7152  2.4157 -1.4311
 8520SOL     OW37021   0.325   2.211   1.603 -0.1672 -0.2465  0.1760
 8520SOL    HW137022   0.288   2.259   1.529 -2.2843 -0.6465  0.9656
 8520SOL    HW237023   0.309   2.271   1.676 -1.3014  0.3118 -0.5350
 8521SOL     OW37024   3.055   3.049   8.997 -0.0938  0.5303  0.0619
 8521SOL    HW137025   3.091   3.056   9.085  0.7351 -2.1104 -0.0512
 8521SOL    HW237026   3.014   3.134   8.980 -0.6262  0.6987  2.1694
 8522SOL     OW37027   4.593   0.021  10.470  0.5703 -0.1937  0.0415
 8522SOL    HW137028   4.505   4.706  10.461  0.7669 -0.7159  0.2017
 8522SOL    HW237029   4.585   0.111  10.439 -1.0068 -0.1417  0.6442
 8523SOL     OW37030   2.529   3.600   6.055 -0.3570  0.0416  0.2212
 8523SOL    HW137031   2.579   3.568   6.130  0.5129 -0.0112 -0.3670
 8523SOL    HW237032   2.593   3.595   5.983  0.3712 -0.3071  0.8967
 8524SOL     OW37033   2.849   0.807   9.573  0.1591 -0.1998  0.6156
 8524SOL    HW137034   2.892   0.887   9.543 -0.6235  0.1802  0.4941
 8524SOL    HW237035   2.769   0.847   9.607  0.5737  0.3677  0.9122
 8525SOL     OW37036   2.652   3.421  10.767 -0.3635  0.6542 -0.3336
 8525SOL    HW137037   2.610   3.476  10.833 -1.4799 -0.0252 -0.4762
 8525SOL    HW237038   2.741   3.416  10.803 -0.6377  0.1315  0.2748
 8526SOL     OW37039   1.319   4.010   3.508  0.3680 -0.0884  0.2362
 8526SOL    HW137040   1.229   4.034   3.526  0.3667  1.0058 -1.1928
 8526SOL    HW237041   1.366   4.066   3.569  0.6392 -0.1257  0.0628
 8527SOL     OW37042   0.338   4.179  14.940 -0.2727  0.1296 -0.8330
 8527SOL    HW137043   0.324   4.085  14.948  0.8861  0.0483  0.2944
 8527SOL    HW237044   0.335   4.199  15.034 -0.1476  1.2322 -1.0591
 8528SOL     OW37045   3.736   0.719   2.030 -0.3811  0.2250  0.8693
 8528SOL    HW137046   3.735   0.705   1.935  0.3386 -0.8814  1.0311
 8528SOL    HW237047   3.678   0.795   2.036  0.1655  0.5417  2.0520
 8529SOL     OW37048   4.622   4.334   4.277  0.2944  0.0053 -0.0326
 8529SOL    HW137049   4.666   4.256   4.244  1.7684  0.1956  1.5164
 8529SOL    HW237050   4.589   4.295   4.358  1.6165 -0.9096  0.0642
 8530SOL     OW37051   4.597   0.742  12.525  0.3422 -0.1304  0.3938
 8530SOL    HW137052   4.573   0.720  12.435 -1.5646 -0.9779  1.1049
 8530SOL    HW237053   4.515   0.767  12.567  0.4987 -0.0382  0.6459
 8531SOL     OW37054   2.520   2.909   7.213 -0.7007  0.0740 -0.3862
 8531SOL    HW137055   2.486   2.820   7.226 -0.1516 -0.3941 -2.1836
 8531SOL    HW237056   2.568   2.902   7.131 -0.5132  1.1187 -0.3690
 8532SOL     OW37057   2.996   0.685  13.768  0.2913  0.7613 -0.6109
 8532SOL    HW137058   2.938   0.698  13.693 -2.8599  0.9892  1.8597
 8532SOL    HW237059   2.944   0.613  13.804  0.1521  1.5257  0.7574
 8533SOL     OW37060   2.844   0.067   8.542  0.0220 -0.0870  0.4659
 8533SOL    HW137061   2.831   0.118   8.622 -2.7439 -2.3797  1.4417
 8533SOL    HW237062   2.818   4.699   8.563  1.6121 -0.1555  2.0993
 8534SOL     OW37063   1.106   3.645   1.283 -0.4632 -0.1741 -0.5186
 8534SOL    HW137064   1.127   3.563   1.238  1.3939 -0.3281  0.6089
 8534SOL    HW237065   1.073   3.617   1.368 -0.0142 -1.2705 -0.7048
 8535SOL     OW37066   4.450   4.512   2.160 -0.2345  0.3742  0.1351
 8535SOL    HW137067   4.432   4.453   2.086 -0.8510  1.9227 -0.9528
 8535SOL    HW237068   4.401   4.474   2.233 -0.0917 -0.6530 -0.3008
 8536SOL     OW37069   2.675   3.607   0.163 -0.1918 -0.5781 -0.4809
 8536SOL    HW137070   2.587   3.596   0.127 -0.8959  2.6095  0.1889
 8536SOL    HW237071   2.677   3.703   0.174  1.2682 -0.9154  2.2945
 8537SOL     OW37072   0.912   2.554  13.985 -0.2571 -0.2426  0.0316
 8537SOL    HW137073   0.911   2.543  13.890  0.1131 -1.5538  0.1801
 8537SOL    HW237074   0.817   2.558  13.996  0.0330 -0.2806  2.5168
 8538SOL     OW37075   3.825   1.197   4.627 -0.0714  0.1511 -0.1251
 8538SOL    HW137076   3.884   1.132   4.590 -0.2217  0.9815 -1.8470
 8538SOL    HW237077   3.878   1.227   4.701 -1.8014 -1.3818  1.7611
 8539SOL     OW37078   2.848   1.922   8.695  0.0335  0.0171  0.5647
 8539SOL    HW137079   2.767   1.921   8.643  2.3792  0.5805 -3.1012
 8539SOL    HW237080   2.837   1.852   8.759 -1.1319 -1.2704 -1.0321
 8540SOL     OW37081   3.731   3.663   8.291  0.0507 -0.0337  0.3093
 8540SOL    HW137082   3.655   3.631   8.341  0.5592 -0.2774  0.9170
 8540SOL    HW237083   3.759   3.578   8.257  2.6018  0.9168  0.0450
 8541SOL     OW37084   1.168   4.318   7.510 -0.0174  0.3744  0.2179
 8541SOL    HW137085   1.203   4.370   7.583  1.0115  0.3812 -0.2811
 8541SOL    HW237086   1.151   4.384   7.443  1.0401  1.6728  1.2182
 8542SOL     OW37087   0.537   0.263  10.029  0.0819 -0.2129  0.0692
 8542SOL    HW137088   0.626   0.289  10.007 -0.5591  1.5030 -0.5081
 8542SOL    HW237089   0.535   0.223  10.116 -0.8899 -2.4324 -0.9830
 8543SOL     OW37090   1.420   2.623   6.245  0.0499 -0.0373 -0.2555
 8543SOL    HW137091   1.382   2.684   6.182  0.4053 -0.4747 -0.9017
 8543SOL    HW237092   1.480   2.680   6.294 -2.8759  1.6905  1.2853
 8544SOL     OW37093   1.996   3.722   9.013 -0.1961  0.4249  0.3191
 8544SOL    HW137094   1.915   3.753   8.974  0.1040 -2.1324 -2.3136
 8544SOL    HW237095   1.997   3.627   8.998  0.8877  0.2267  1.6008
 8545SOL     OW37096   0.820   0.431  15.227  0.0613 -0.1133 -0.5460
 8545SOL    HW137097   0.882   0.444  15.155 -0.3551  0.1536 -0.8565
 8545SOL    HW237098   0.747   0.415  15.167 -0.7640  2.5200 -0.2337
 8546SOL     OW37099   3.516   0.547   1.342 -0.0835 -0.2119 -0.2966
 8546SOL    HW137100   3.529   0.562   1.249 -2.5208 -1.6024 -0.8551
 8546SOL    HW237101   3.454   0.474   1.344 -1.1165  0.6960  0.3412
 8547SOL     OW37102   4.175   4.319   5.244 -0.5532 -0.1980 -0.0422
 8547SOL    HW137103   4.155   4.285   5.331 -3.1379  0.9497 -0.1941
 8547SOL    HW237104   4.212   4.405   5.263  1.1851 -0.7298 -0.9604
 8548SOL     OW37105   0.231   2.108   3.431 -0.3467  0.3087 -0.0213
 8548SOL    HW137106   0.144   2.138   3.405 -0.8052 -0.3575  0.7408
 8548SOL    HW237107   0.290   2.169   3.386 -1.5243  1.6614  0.2864
 8549SOL     OW37108   1.527   3.912   5.855  0.3196  0.0256 -0.7412
 8549SOL    HW137109   1.600   3.959   5.895 -1.0976  1.0295  0.6532
 8549SOL    HW237110   1.564   3.824   5.861 -0.9404 -0.4387  0.2788
 8550SOL     OW37111   4.678   3.333   8.575  0.3370  0.2139  0.0418
 8550SOL    HW137112   0.049   3.334   8.550  0.7806 -2.5031  1.5839
 8550SOL    HW237113   4.665   3.288   8.658  0.6163 -0.5640 -0.3362
 8551SOL     OW37114   4.542   2.611   6.412 -0.6178 -0.8708 -0.1442
 8551SOL    HW137115   4.509   2.668   6.482  1.8735  0.4214 -0.0228
 8551SOL    HW237116   4.556   2.682   6.350  1.1043 -0.1579  1.0527
 8552SOL     OW37117   3.218   1.961   8.793 -0.4111  0.0243 -0.1176
 8552SOL    HW137118   3.163   1.951   8.870  1.6491 -1.1497  1.1888
 8552SOL    HW237119   3.297   2.006   8.823 -0.0285 -0.3658 -0.5222
 8553SOL     OW37120   3.732   4.245   9.242  0.3415  0.0617 -0.0701
 8553SOL    HW137121   3.785   4.325   9.247  3.0713 -1.6631 -1.0657
 8553SOL    HW237122   3.732   4.233   9.147 -0.5170  1.4170 -0.2314
 8554SOL     OW37123   2.622   1.967  17.499  0.3120 -0.2783 -0.6403
 8554SOL    HW137124   2.706   1.961  17.544  0.2951  0.5421 -0.4911
 8554SOL    HW237125   2.653   1.986  17.411  0.4085  1.1245 -0.3122
 8555SOL     OW37126   3.469   0.098   5.268 -0.2630 -0.1635 -1.0796
 8555SOL    HW137127   3.425   0.103   5.183 -1.6122  1.9282 -0.2597
 8555SOL    HW237128   3.540   0.034   5.259  0.1983  0.0456  0.9838
 8556SOL     OW37129   2.654   4.065  11.381  0.0967 -0.2698  0.3297
 8556SOL    HW137130   2.747   4.050  11.364 -0.2687 -1.7416 -0.3768
 8556SOL    HW237131   2.643   4.021  11.466 -2.2379  1.3523  0.8315
 8557SOL     OW37132   0.157   4.152   6.845  0.0925 -0.0105  0.0222
 8557SOL    HW137133   0.237   4.187   6.807 -0.0866 -1.1585 -1.4092
 8557SOL    HW237134   0.114   4.237   6.847  0.5598  0.2092  0.7406
 8558SOL     OW37135   0.301   3.430   8.808 -0.3495 -0.0128 -0.0371
 8558SOL    HW137136   0.359   3.354   8.812  3.2239  2.7215  0.0212
 8558SOL    HW237137   0.254   3.429   8.891 -0.3234 -0.8514 -0.0308
 8559SOL     OW37138   4.218   3.604   7.198  0.4148  0.3956  0.0336
 8559SOL    HW137139   4.272   3.525   7.194 -0.4067 -0.1596 -0.3735
 8559SOL    HW237140   4.184   3.585   7.286  2.9946  0.1529  0.9784
 8560SOL     OW37141   2.394   1.150  14.687 -0.0076 -0.2161 -0.0496
 8560SOL    HW137142   2.451   1.073  14.682 -0.4594 -0.4690 -1.3370
 8560SOL    HW237143   2.327   1.150  14.618  0.2405  0.3063 -0.2897
 8561SOL     OW37144   2.350   2.625   8.772 -0.2365 -0.1508 -0.0403
 8561SOL    HW137145   2.384   2.631   8.861  0.7142 -2.2142 -0.2491
 8561SOL    HW237146   2.415   2.673   8.720 -0.4001  0.0496 -0.0584
 8562SOL     OW37147   1.323   1.149   1.407  0.2536  0.0585  0.6400
 8562SOL    HW137148   1.317   1.195   1.323 -2.4438 -1.9862 -0.2749
 8562SOL    HW237149   1.263   1.078   1.384  0.4880  0.3779 -0.9612
 8563SOL     OW37150   0.331   4.606   1.680 -0.4185 -0.6474  0.6326
 8563SOL    HW137151   0.257   4.664   1.661 -0.8785 -0.7070  2.2463
 8563SOL    HW237152   0.372   4.599   1.594  0.1510  0.4387  0.8216
 8564SOL     OW37153   3.320   4.486   4.777 -0.1214  0.0821 -0.1024
 8564SOL    HW137154   3.232   4.514   4.801 -0.4702  0.0153 -1.3273
 8564SOL    HW237155   3.348   4.473   4.868 -0.7946  0.6854  0.1878
 8565SOL     OW37156   0.753   0.662   5.358 -0.4616  0.6639 -0.4293
 8565SOL    HW137157   0.825   0.654   5.295  1.1780  0.9847  1.3891
 8565SOL    HW237158   0.670   0.645   5.313  0.6869 -3.3244 -1.0052
 8566SOL     OW37159   0.690   3.765   3.138 -0.0502  0.7562 -0.4692
 8566SOL    HW137160   0.659   3.674   3.142 -1.9762  1.3200 -2.7357
 8566SOL    HW237161   0.742   3.762   3.058 -0.9633  0.5373 -1.0568
 8567SOL     OW37162   1.683   1.401   7.527  0.2622 -0.2881  0.3525
 8567SOL    HW137163   1.698   1.487   7.565  1.0030 -0.6467  0.8579
 8567SOL    HW237164   1.661   1.365   7.613 -2.9102 -0.0084 -0.3076
 8568SOL     OW37165   2.646   2.859   4.679  0.3724 -0.6575  0.6678
 8568SOL    HW137166   2.664   2.765   4.670  0.7323 -0.5689  0.4697
 8568SOL    HW237167   2.611   2.875   4.591  0.8244  1.3442  0.8444
 8569SOL     OW37168   2.646   3.542  12.570 -0.1243  0.9914 -0.1749
 8569SOL    HW137169   2.551   3.535  12.575 -0.1389  1.2683 -0.0899
 8569SOL    HW237170   2.677   3.493  12.647 -2.2552  1.8694  1.2417
 8570SOL     OW37171   4.689   3.866   9.277  0.1096  0.1278  0.1167
 8570SOL    HW137172   0.046   3.816   9.255 -0.7226 -1.6611  1.2067
 8570SOL    HW237173   4.667   3.840   9.367 -0.1253 -0.4389 -0.1053
 8571SOL     OW37174   0.065   0.996  10.256 -0.8595  0.4129 -0.2268
 8571SOL    HW137175   0.091   1.064  10.317 -0.2645  1.3310 -1.5151
 8571SOL    HW237176   0.141   0.980  10.200  0.8900  3.0587  1.4281
 8572SOL     OW37177   0.824   0.968  10.676 -0.2486 -0.0728 -0.1013
 8572SOL    HW137178   0.802   0.884  10.634  0.8903 -0.2321 -0.3861
 8572SOL    HW237179   0.740   0.974  10.722 -0.8527  0.7756 -1.3281
 8573SOL     OW37180   1.216   1.194  17.349 -0.0941 -0.2051  0.2873
 8573SOL    HW137181   1.299   1.241  17.338 -0.2199 -0.2366 -0.7986
 8573SOL    HW237182   1.179   1.247  17.419  3.6965  1.2833  1.2045
 8574SOL     OW37183   2.181   1.107   6.677  0.5462  0.3661  0.2570
 8574SOL    HW137184   2.141   1.088   6.593  0.1204  0.2037  0.4977
 8574SOL    HW237185   2.202   1.016   6.698 -0.8490  0.1023  0.5171
 8575SOL     OW37186   3.198   1.630   7.690 -0.1895 -0.2410  0.3168
 8575SOL    HW137187   3.171   1.692   7.622  2.3784 -0.5902 -1.0185
 8575SOL    HW237188   3.223   1.550   7.644  1.8956 -0.4571  1.7954
 8576SOL     OW37189   2.344   1.985   0.719  0.4215 -0.3222  0.2573
 8576SOL    HW137190   2.432   1.990   0.755  1.1471 -3.2709 -1.0633
 8576SOL    HW237191   2.291   2.013   0.793 -0.2489 -0.8827 -0.0082
 8577SOL     OW37192   0.354   1.878   4.959  0.0422  0.9156 -0.3208
 8577SOL    HW137193   0.371   1.814   5.028  0.4265  1.6561  0.2729
 8577SOL    HW237194   0.429   1.935   4.972  1.6730 -1.6796  1.4864
 8578SOL     OW37195   2.181   3.403   1.917  0.0252  0.1717  0.4695
 8578SOL    HW137196   2.180   3.494   1.888 -1.1115  0.4072  1.2639
 8578SOL    HW237197   2.275   3.390   1.926 -0.0339  0.5727  1.6793
 8579SOL     OW37198   1.620   3.920   8.309  0.0195  0.1306  0.3962
 8579SOL    HW137199   1.591   3.828   8.308  1.0702 -0.1958 -0.0177
 8579SOL    HW237200   1.583   3.942   8.223  0.9502 -1.7969 -0.5103
 8580SOL     OW37201   0.480   2.993   0.550  0.3638 -0.0010 -0.0122
 8580SOL    HW137202   0.445   3.028   0.468 -2.3284  0.3862  1.3032
 8580SOL    HW237203   0.408   3.019   0.608 -0.5441 -0.2555 -1.0071
 8581SOL     OW37204   4.570   3.064   6.825  0.0018  0.1093  0.3123
 8581SOL    HW137205   4.653   3.100   6.857  0.9988  0.6129 -2.8884
 8581SOL    HW237206   4.515   3.061   6.903 -0.8147 -0.3042 -0.2757
 8582SOL     OW37207   4.420   2.478  12.249  0.2261  0.2574 -0.4711
 8582SOL    HW137208   4.415   2.391  12.207  0.3141  0.3850 -0.7482
 8582SOL    HW237209   4.431   2.468  12.343  0.7245  1.1867 -0.4369
 8583SOL     OW37210   4.309   0.986  14.850  0.0511  0.0214  0.6025
 8583SOL    HW137211   4.218   1.001  14.876  1.3405  2.1322  3.8478
 8583SOL    HW237212   4.317   1.048  14.777 -0.7935  0.0587  0.5447
 8584SOL     OW37213   4.110   0.722   0.659  0.3978 -0.8374 -0.0797
 8584SOL    HW137214   4.024   0.681   0.673 -0.9758  2.0733 -0.1172
 8584SOL    HW237215   4.147   0.706   0.746  1.1239 -1.2264 -0.4690
 8585SOL     OW37216   3.463   2.672  13.253 -0.6009 -0.3430 -0.1746
 8585SOL    HW137217   3.459   2.702  13.344  1.5320 -0.2398 -0.1061
 8585SOL    HW237218   3.370   2.658  13.234 -0.2945 -0.8990 -1.2792
 8586SOL     OW37219   3.095   1.500   4.409 -0.3858  0.3755 -0.4368
 8586SOL    HW137220   3.096   1.531   4.499  0.7886 -0.5114 -0.1374
 8586SOL    HW237221   3.100   1.407   4.430  2.1205  0.5877 -0.0146
 8587SOL     OW37222   3.655   1.560   5.518  0.4665  0.0079  0.3743
 8587SOL    HW137223   3.589   1.593   5.458 -0.2309 -0.7532  0.7251
 8587SOL    HW237224   3.642   1.466   5.517  0.0885  0.0514  1.0540
 8588SOL     OW37225   4.119   2.701   7.241 -0.1727 -0.0180 -0.7091
 8588SOL    HW137226   4.196   2.645   7.248  0.6103  1.3216  1.2806
 8588SOL    HW237227   4.082   2.637   7.180  1.5290 -0.0707 -1.6878
 8589SOL     OW37228   1.737   3.881   3.175 -0.4448  0.1993 -0.5481
 8589SOL    HW137229   1.734   3.787   3.156 -0.8747  0.7959 -3.5094
 8589SOL    HW237230   1.695   3.886   3.261  1.2180  1.1516  0.2024
 8590SOL     OW37231   2.679   1.947   4.542  0.9717  0.1258  0.5545
 8590SOL    HW137232   2.620   1.916   4.610  0.4237 -0.7080 -0.3049
 8590SOL    HW237233   2.694   2.033   4.581  3.2033  0.1003 -0.2304
 8591SOL     OW37234   1.696   4.318   0.659 -0.0470  0.1007 -0.2034
 8591SOL    HW137235   1.600   4.322   0.654  0.2190  3.6333 -2.5961
 8591SOL    HW237236   1.718   4.361   0.577  0.2258  0.5447  0.1047
 8592SOL     OW37237   4.090   2.041  16.444 -0.4688 -0.7006 -0.4690
 8592SOL    HW137238   4.024   1.971  16.452  2.6840 -3.2291  3.2217
 8592SOL    HW237239   4.052   2.104  16.505 -0.5540 -2.2427  1.0705
 8593SOL     OW37240   4.719   2.413   2.749 -0.2949 -0.0934 -0.2486
 8593SOL    HW137241   0.067   2.350   2.728  0.4847  0.2769  1.2040
 8593SOL    HW237242   0.040   2.498   2.735  1.0427 -0.5487  0.9649
 8594SOL     OW37243   1.969   1.757   7.698  0.1056  0.5902 -0.2381
 8594SOL    HW137244   2.016   1.830   7.658 -0.4589  0.2994 -1.4455
 8594SOL    HW237245   2.042   1.706   7.733 -0.4932 -0.0541  0.0642
 8595SOL     OW37246   2.624   4.368   7.010 -0.6223 -0.1468 -0.2467
 8595SOL    HW137247   2.617   4.357   6.915 -1.4953  1.0302 -0.3163
 8595SOL    HW237248   2.637   4.462   7.020 -3.9827  0.5713 -2.8101
 8596SOL     OW37249   1.417   3.738  12.209  0.0143 -0.5020 -0.2160
 8596SOL    HW137250   1.354   3.804  12.182 -2.5474 -3.1912 -0.8497
 8596SOL    HW237251   1.499   3.786  12.196 -0.5501  0.6567  0.5961
 8597SOL     OW37252   2.637   0.076  11.371 -0.1360 -0.2892  0.5492
 8597SOL    HW137253   2.668   4.707  11.373  0.3137 -0.1095  2.1970
 8597SOL    HW237254   2.635   0.091  11.466 -1.2156  0.7356  0.3643
 8598SOL     OW37255   0.593   3.088  11.111  0.2857  0.2455 -0.0987
 8598SOL    HW137256   0.571   3.175  11.146  1.5544  0.3102  0.5249
 8598SOL    HW237257   0.529   3.071  11.042  1.2603 -0.8243 -0.7328
 8599SOL     OW37258   2.733   2.147   3.651 -0.1337  0.2038  0.0949
 8599SOL    HW137259   2.808   2.117   3.702 -0.4389 -3.5840 -1.6474
 8599SOL    HW237260   2.680   2.068   3.658  0.1759  0.1950  2.3738
 8600SOL     OW37261   4.207   2.647  10.784  0.4305 -0.2791 -0.4787
 8600SOL    HW137262   4.121   2.687  10.775  0.3599 -0.3603 -0.1587
 8600SOL    HW237263   4.231   2.636  10.691 -2.6751 -1.6270 -1.1123
 8601SOL     OW37264   2.637   2.330   2.492 -0.0691  0.3778  0.1779
 8601SOL    HW137265   2.572   2.274   2.535 -0.1979 -1.1494 -1.9914
 8601SOL    HW237266   2.629   2.410   2.542 -0.4184 -0.4426  1.4382
 8602SOL     OW37267   0.661   0.427   3.070  0.2071  0.3168 -0.2987
 8602SOL    HW137268   0.687   0.406   2.980  3.0629 -0.1502  0.6473
 8602SOL    HW237269   0.728   0.494   3.084  1.3815 -0.6339 -1.2503
 8603SOL     OW37270   4.567   2.516  12.030 -0.2514 -0.4383  0.5310
 8603SOL    HW137271   4.525   2.499  12.114 -1.1992 -1.1755 -0.1041
 8603SOL    HW237272   4.504   2.567  11.980  1.1628 -0.6638 -1.5051
 8604SOL     OW37273   0.670   3.804   2.261 -0.1586  0.4052 -0.3800
 8604SOL    HW137274   0.600   3.862   2.291 -1.4971 -0.1337 -2.3955
 8604SOL    HW237275   0.628   3.735   2.209  2.2028 -0.0763 -1.6648
 8605SOL     OW37276   1.134   3.659  17.673 -0.3844 -0.2091 -0.1258
 8605SOL    HW137277   1.059   3.631  17.620 -1.2775 -0.4668  1.2917
 8605SOL    HW237278   1.175   3.579   0.017  0.6065  0.2897 -0.1550
 8606SOL     OW37279   3.019   2.660   1.793 -0.1281  0.0871 -0.1675
 8606SOL    HW137280   3.090   2.614   1.838 -2.8381  0.1464  4.1724
 8606SOL    HW237281   2.948   2.601   1.818 -0.3531  0.1464 -0.6868
 8607SOL     OW37282   0.973   0.024   5.584 -0.1102 -0.0988  0.3660
 8607SOL    HW137283   0.971   0.119   5.568  0.1153 -0.2251 -0.3950
 8607SOL    HW237284   0.997   4.714   5.497  1.2704  0.9605  0.3639
 8608SOL     OW37285   1.902   4.316   7.940  0.1516 -0.4837 -0.2342
 8608SOL    HW137286   1.972   4.257   7.914  1.4051  1.0931 -0.4487
 8608SOL    HW237287   1.948   4.393   7.973  0.7145 -0.4156 -1.1912
 8609SOL     OW37288   2.740   4.188   5.942 -0.1231 -0.2231  0.3256
 8609SOL    HW137289   2.832   4.163   5.940  0.1062  0.3614  3.2796
 8609SOL    HW237290   2.690   4.107   5.953  1.4538 -1.0470  1.4680
 8610SOL     OW37291   4.719   3.224   4.597  0.4607 -0.2464 -0.5122
 8610SOL    HW137292   0.019   3.268   4.679  1.6474  1.6318 -1.8210
 8610SOL    HW237293   4.662   3.157   4.634 -3.5925  2.5958 -1.5520
 8611SOL     OW37294   1.385   1.264   5.811 -0.2780  0.1873 -0.4130
 8611SOL    HW137295   1.322   1.207   5.768  0.3792  0.7431 -2.1484
 8611SOL    HW237296   1.382   1.240   5.903 -0.7102  2.4117  0.1554
 8612SOL     OW37297   4.267   2.263   1.177  0.2590  0.5705  0.1633
 8612SOL    HW137298   4.337   2.284   1.239 -0.5452  2.2158  0.4967
 8612SOL    HW237299   4.275   2.167   1.177  2.5628  0.7699 -0.8044
 8613SOL     OW37300   3.049   3.507   0.005  0.1075 -0.3069  0.4290
 8613SOL    HW137301   3.013   3.472  17.611 -1.3035  1.9464  0.0866
 8613SOL    HW237302   3.026   3.436   0.066 -1.1075 -1.2531 -1.1451
 8614SOL     OW37303   1.510   2.460   8.461  0.0260  0.2533  0.2338
 8614SOL    HW137304   1.445   2.504   8.516  1.0875  2.2985 -0.1362
 8614SOL    HW237305   1.501   2.373   8.499 -0.8064  0.1214 -0.2550
 8615SOL     OW37306   3.686   0.184   3.958 -1.1061  0.3203  0.6442
 8615SOL    HW137307   3.774   0.147   3.955 -1.6718 -0.8444 -1.3226
 8615SOL    HW237308   3.634   0.104   3.943 -1.1602  0.5783 -0.5246
 8616SOL     OW37309   4.398   1.894   9.334 -0.1683 -0.2577 -0.4581
 8616SOL    HW137310   4.471   1.841   9.302  0.8786  0.3606  0.9001
 8616SOL    HW237311   4.437   1.898   9.421 -1.3770  2.1739 -0.0257
 8617SOL     OW37312   1.365   4.529   3.146  0.0567  0.2664 -0.1079
 8617SOL    HW137313   1.456   4.558   3.161 -0.2143 -0.1886  2.3472
 8617SOL    HW237314   1.371   4.520   3.051  0.1076 -0.5189 -0.0306
 8618SOL     OW37315   3.081   2.825   6.213 -0.0879 -0.0773 -0.1015
 8618SOL    HW137316   3.026   2.845   6.137 -1.0504 -1.6500  0.1683
 8618SOL    HW237317   3.031   2.766   6.269  1.5784 -1.0663  0.3529
 8619SOL     OW37318   4.025   1.807   7.228 -0.4030 -0.3847 -0.0664
 8619SOL    HW137319   4.037   1.779   7.319  0.8698  0.2355 -0.0428
 8619SOL    HW237320   4.077   1.744   7.179  1.0559  1.3900 -0.8011
 8620SOL     OW37321   4.401   1.902   5.200  0.1136 -0.5084 -0.0054
 8620SOL    HW137322   4.412   1.856   5.117 -0.1695 -0.9019  0.1757
 8620SOL    HW237323   4.367   1.982   5.161 -0.1075 -0.3400  0.5364
 8621SOL     OW37324   2.341   3.214   7.126  0.0545  0.5561 -0.3030
 8621SOL    HW137325   2.409   3.147   7.115 -1.4635 -0.7382 -1.8392
 8621SOL    HW237326   2.389   3.266   7.191  0.8800 -0.7207  0.1119
 8622SOL     OW37327   3.553   0.655   2.659 -0.3196  0.0271  0.2950
 8622SOL    HW137328   3.622   0.722   2.663 -0.6518  0.5285 -2.3765
 8622SOL    HW237329   3.474   0.708   2.647  0.8496  1.2570 -2.0613
 8623SOL     OW37330   0.448   2.324   1.240  0.6067  0.4810  0.3022
 8623SOL    HW137331   0.479   2.234   1.249  1.7889  0.8466 -0.2116
 8623SOL    HW237332   0.369   2.323   1.294  1.9424  1.1254  2.2730
 8624SOL     OW37333   4.205   1.769   6.089 -0.4017  0.4804  0.4198
 8624SOL    HW137334   4.127   1.726   6.123  0.1262  0.6022  1.7990
 8624SOL    HW237335   4.264   1.736   6.156  1.4172  0.1164 -1.3578
 8625SOL     OW37336   4.627   2.986  16.691  0.1757 -0.2499  0.5278
 8625SOL    HW137337   4.625   3.081  16.679  1.1884 -0.3614 -0.5562
 8625SOL    HW237338   4.647   2.970  16.598 -0.5275 -1.5018  0.5832
 8626SOL     OW37339   4.504   0.302   3.364  0.2569  0.7503 -0.2930
 8626SOL    HW137340   4.417   0.339   3.377 -0.8511 -2.2172  0.9738
 8626SOL    HW237341   4.532   0.347   3.285 -1.5293  0.9289 -0.8302
 8627SOL     OW37342   0.734   3.814   8.571 -0.0813 -0.0434  0.6858
 8627SOL    HW137343   0.738   3.787   8.662 -3.0305 -1.3509  0.4324
 8627SOL    HW237344   0.826   3.819   8.544  0.0644 -1.4603  0.9467
 8628SOL     OW37345   1.665   2.701   4.690 -0.0673  0.0281 -0.4079
 8628SOL    HW137346   1.690   2.650   4.613 -0.5288 -0.0324 -0.5202
 8628SOL    HW237347   1.723   2.659   4.754 -1.8283 -2.0839 -0.1737
 8629SOL     OW37348   2.107   2.793  12.646  0.3583 -0.1758 -0.2272
 8629SOL    HW137349   2.148   2.707  12.653 -2.3871 -1.3467  1.7671
 8629SOL    HW237350   2.018   2.770  12.618 -1.7551  2.5557  4.1075
 8630SOL     OW37351   1.734   1.604   7.683  0.3540  0.2093  0.0982
 8630SOL    HW137352   1.801   1.662   7.646 -0.1769  0.2743 -0.7697
 8630SOL    HW237353   1.743   1.604   7.778 -1.4149  2.2326  0.2467
 8631SOL     OW37354   0.299   0.392   6.607  0.6788  0.3816  0.1021
 8631SOL    HW137355   0.273   0.366   6.519 -1.0681 -2.1747  1.3691
 8631SOL    HW237356   0.261   0.321   6.659  0.2839 -0.1156 -0.8587
 8632SOL     OW37357   1.162   1.433   1.725  0.2714 -0.1965 -0.1828
 8632SOL    HW137358   1.143   1.520   1.691 -1.2852 -0.7068 -0.6351
 8632SOL    HW237359   1.202   1.391   1.649 -1.2143  0.5080 -1.3660
 8633SOL     OW37360   2.291   3.228  14.665 -0.4209 -0.1938 -0.0335
 8633SOL    HW137361   2.314   3.223  14.572  0.9484 -2.3057  0.4380
 8633SOL    HW237362   2.373   3.210  14.709  0.4407  0.7938 -1.2360
 8634SOL     OW37363   0.768   2.285   7.055  0.6036 -0.2709 -0.4285
 8634SOL    HW137364   0.777   2.313   7.146 -1.4708  1.5824 -0.7696
 8634SOL    HW237365   0.684   2.241   7.038 -0.3086  1.4718 -0.4469
 8635SOL     OW37366   0.997   1.523   5.703  0.4307 -0.3267 -0.3367
 8635SOL    HW137367   1.010   1.587   5.773  1.0346 -2.4763  1.5172
 8635SOL    HW237368   1.005   1.435   5.742 -0.3759 -0.9556 -1.6040
 8636SOL     OW37369   4.244   0.612   5.488 -0.0857  0.0002  0.0841
 8636SOL    HW137370   4.332   0.577   5.477 -0.5715 -1.2475  0.1290
 8636SOL    HW237371   4.236   0.651   5.401  0.3611 -0.3867 -0.1268
 8637SOL     OW37372   0.111   1.309   4.320 -0.2155 -0.3908  0.4867
 8637SOL    HW137373   0.160   1.351   4.250  0.2230 -1.2325  0.2859
 8637SOL    HW237374   0.020   1.327   4.297  0.0362  1.1662  0.7213
 8638SOL     OW37375   1.757   1.872   9.010  0.5151 -0.0653 -1.4352
 8638SOL    HW137376   1.774   1.962   8.984 -1.8925  0.4800 -1.1019
 8638SOL    HW237377   1.726   1.881   9.100 -1.9380  0.5680 -2.3433
 8639SOL     OW37378   0.309   4.244  16.094 -0.0061  0.0402 -0.4946
 8639SOL    HW137379   0.263   4.164  16.070  2.4913 -1.7117  0.5758
 8639SOL    HW237380   0.306   4.239  16.190  0.5112 -0.0270 -0.4799
 8640SOL     OW37381   3.526   2.668   0.094  0.0244 -0.4999 -0.6008
 8640SOL    HW137382   3.553   2.739   0.036 -2.0536 -0.1449 -1.1086
 8640SOL    HW237383   3.494   2.721   0.167  0.9074 -0.4127 -0.2699
 8641SOL     OW37384   2.275   2.367   2.245 -0.1860  0.4120 -0.1177
 8641SOL    HW137385   2.195   2.353   2.194  0.6392  1.6854 -1.7598
 8641SOL    HW237386   2.316   2.281   2.252  0.3450  0.5898 -1.0426
 8642SOL     OW37387   0.664   2.566   1.262  0.2370 -0.2374  0.6550
 8642SOL    HW137388   0.599   2.497   1.249  1.3000 -1.0829 -0.1953
 8642SOL    HW237389   0.672   2.587   1.355  1.7797  1.0911  0.2273
 8643SOL     OW37390   2.564   1.283   5.630  0.0943  0.2145  0.6229
 8643SOL    HW137391   2.505   1.276   5.705  0.7489  0.7938  1.1969
 8643SOL    HW237392   2.530   1.210   5.578 -1.9220  1.3337  0.3850
 8644SOL     OW37393   4.501   1.806   4.934 -0.3216 -0.6288 -0.2177
 8644SOL    HW137394   4.480   1.748   4.860 -0.2268 -1.3798  0.3455
 8644SOL    HW237395   4.595   1.823   4.928 -0.4076 -0.4169 -0.9881
 8645SOL     OW37396   1.493   2.581   3.252 -0.2254 -0.0236  0.4435
 8645SOL    HW137397   1.408   2.589   3.295 -0.1564  1.9288  0.2196
 8645SOL    HW237398   1.533   2.509   3.300 -1.4768 -0.7437  0.4059
 8646SOL     OW37399   3.812   0.993   4.077 -0.0558 -0.2258  0.0926
 8646SOL    HW137400   3.861   0.987   3.995 -0.6790  1.3216 -0.3957
 8646SOL    HW237401   3.724   0.968   4.048  0.2092  0.3425 -1.2135
 8647SOL     OW37402   0.153   3.023  11.167 -0.2237 -0.3764  0.4901
 8647SOL    HW137403   0.215   2.952  11.150  2.2823  2.1686 -1.0436
 8647SOL    HW237404   0.091   2.991  11.233 -0.3601  1.4299  1.2464
 8648SOL     OW37405   1.740   3.573   2.055 -0.2302 -0.2140  0.3073
 8648SOL    HW137406   1.745   3.549   2.147 -1.4079 -1.2722  0.1124
 8648SOL    HW237407   1.795   3.503   2.018  0.5418  0.9718 -0.7711
 8649SOL     OW37408   2.216   0.798  10.807  0.1645  0.2996 -0.6952
 8649SOL    HW137409   2.227   0.878  10.756  0.6683  2.0714  2.2091
 8649SOL    HW237410   2.126   0.815  10.835  0.0524 -0.4176 -0.6073
 8650SOL     OW37411   3.612   1.285   8.962  0.3192  0.1679 -0.1749
 8650SOL    HW137412   3.588   1.238   9.042 -0.3254 -0.8395 -0.9535
 8650SOL    HW237413   3.695   1.327   8.984 -0.7921  0.3387  3.6177
 8651SOL     OW37414   0.217   2.582   2.757  0.0658  0.9979 -0.3512
 8651SOL    HW137415   0.190   2.637   2.831  2.6072  1.5551  0.1505
 8651SOL    HW237416   0.312   2.576   2.763 -0.0066  0.9639  0.8665
 8652SOL     OW37417   4.082   2.495   7.601 -0.5666 -0.4550  0.2636
 8652SOL    HW137418   4.091   2.531   7.689  0.3245 -0.1488  0.0429
 8652SOL    HW237419   4.066   2.575   7.550  0.6705 -1.7683 -2.2110
 8653SOL     OW37420   2.769   3.735   8.070 -0.3440  0.0715 -1.0377
 8653SOL    HW137421   2.828   3.783   8.013  0.4905  1.9278  1.4209
 8653SOL    HW237422   2.790   3.783   8.149 -1.6593 -2.0240  0.6150
 8654SOL     OW37423   3.622   4.398   6.822  0.2374  0.1851 -0.0559
 8654SOL    HW137424   3.560   4.334   6.856  1.6803 -0.7645  0.7749
 8654SOL    HW237425   3.572   4.479   6.813 -0.3915 -0.2330 -0.3128
 8655SOL     OW37426   3.672   0.241   1.552 -0.3004 -0.1699  0.3903
 8655SOL    HW137427   3.711   0.329   1.557 -2.0745  0.6091  0.3361
 8655SOL    HW237428   3.628   0.253   1.468 -1.0117  1.1005  0.9472
 8656SOL     OW37429   1.994   4.386   5.034 -0.0137 -0.2339  0.3511
 8656SOL    HW137430   1.907   4.425   5.029 -1.3410 -3.5624 -1.9266
 8656SOL    HW237431   2.028   4.410   5.121  0.9181  1.4065 -0.4765
 8657SOL     OW37432   2.198   4.008   2.953 -0.5096  0.2381 -0.1733
 8657SOL    HW137433   2.119   3.972   2.913 -0.4383  0.0371 -0.1326
 8657SOL    HW237434   2.245   4.021   2.870  0.4419  2.1852  0.6476
 8658SOL     OW37435   0.717   0.380  16.746 -0.5633 -0.9394 -0.8546
 8658SOL    HW137436   0.651   0.333  16.694 -2.3035  0.2374  0.2660
 8658SOL    HW237437   0.736   0.309  16.807 -3.4330  1.0176  2.3587
 8659SOL     OW37438   0.100   1.263  16.581 -0.3765  0.3380  0.5197
 8659SOL    HW137439   0.146   1.186  16.548  0.1011  0.7120  0.2952
 8659SOL    HW237440   0.138   1.271  16.668  1.1807  2.0040 -0.2899
 8660SOL     OW37441   3.939   4.420   7.730 -0.3244 -0.4218 -0.1507
 8660SOL    HW137442   3.973   4.382   7.811  0.1665 -0.4763 -0.3769
 8660SOL    HW237443   3.856   4.375   7.719 -1.5626  2.1227 -1.2787
 8661SOL     OW37444   3.486   2.453   6.984  0.2519 -0.7238  0.2253
 8661SOL    HW137445   3.508   2.527   6.927 -0.0606 -0.4782  0.4290
 8661SOL    HW237446   3.403   2.476   7.025 -0.6399 -2.0920 -0.8072
 8662SOL     OW37447   1.149   1.188  13.460  0.5005 -0.1778  0.4186
 8662SOL    HW137448   1.101   1.270  13.445  1.8243  0.6780  0.8579
 8662SOL    HW237449   1.219   1.222  13.515  0.2453  0.5061  0.3228
 8663SOL     OW37450   0.421   0.217   6.041 -0.5989 -0.0413 -0.2106
 8663SOL    HW137451   0.458   0.285   5.985  0.0459  1.4752  2.0273
 8663SOL    HW237452   0.415   0.263   6.125 -1.5198 -0.5326 -0.0094
 8664SOL     OW37453   4.426   3.089   3.557  0.2143  0.1207 -0.2485
 8664SOL    HW137454   4.363   3.150   3.519 -0.9378 -0.9094  0.0100
 8664SOL    HW237455   4.491   3.146   3.597  0.4371 -0.6487  0.4947
 8665SOL     OW37456   1.272   3.006  15.225 -0.1969 -0.3281  0.7915
 8665SOL    HW137457   1.258   2.925  15.274 -1.3964  0.6357  2.0110
 8665SOL    HW237458   1.304   3.065  15.293  2.5695  0.3267 -1.0426
 8666SOL     OW37459   0.130   3.485   6.309 -0.9055 -0.0013  0.1915
 8666SOL    HW137460   0.102   3.492   6.218  0.2263  1.5799 -0.0363
 8666SOL    HW237461   0.209   3.538   6.298 -1.1092  0.5740  1.4161
 8667SOL     OW37462   1.330   2.449   7.778 -0.0463 -0.3602 -0.0142
 8667SOL    HW137463   1.265   2.417   7.715 -1.4481 -0.0848  1.2706
 8667SOL    HW237464   1.386   2.502   7.722 -1.2722  0.7527 -0.2045
 8668SOL     OW37465   0.933   1.108  12.227  0.0633  0.1503 -0.2313
 8668SOL    HW137466   0.883   1.179  12.186  1.0211  0.5372 -0.7220
 8668SOL    HW237467   1.002   1.152  12.277  0.3638 -1.5460  0.8444
 8669SOL     OW37468   4.127   1.372   7.856  0.2346  0.2890 -0.1121
 8669SOL    HW137469   4.093   1.305   7.915  0.8782 -0.7868 -0.9613
 8669SOL    HW237470   4.061   1.372   7.786  0.4865  1.0403 -0.3453
 8670SOL     OW37471   2.007   2.228  15.717  0.5546 -0.4199 -0.1062
 8670SOL    HW137472   1.923   2.272  15.727  0.1827 -0.7368 -1.8590
 8670SOL    HW237473   2.067   2.300  15.737  0.2710 -0.0728 -0.5082
 8671SOL     OW37474   2.045   0.281  14.489  0.3909  0.1622  0.4239
 8671SOL    HW137475   1.951   0.264  14.500  0.7182 -2.1586 -0.1818
 8671SOL    HW237476   2.073   0.213  14.427  0.1992  0.9347 -0.4957
 8672SOL     OW37477   4.281   2.575   0.473 -0.3161 -0.3173 -0.1024
 8672SOL    HW137478   4.316   2.615   0.394 -1.3971  0.2877 -0.2729
 8672SOL    HW237479   4.202   2.629   0.479 -2.3661 -3.3754  0.5574
 8673SOL     OW37480   3.856   4.417   9.655 -0.3183  0.0332  0.3367
 8673SOL    HW137481   3.861   4.459   9.569 -2.0931  0.5396  0.4703
 8673SOL    HW237482   3.930   4.356   9.653 -1.6971 -1.6679  0.8326
 8674SOL     OW37483   0.001   0.015   4.459  0.0565  0.6277  0.7372
 8674SOL    HW137484   0.012   0.005   4.365 -0.6818  3.3330  0.3875
 8674SOL    HW237485   4.688   4.648   4.479  1.3653  0.6317  3.0735
 8675SOL     OW37486   0.803   3.090   8.225  0.2019 -0.6683  0.5497
 8675SOL    HW137487   0.868   3.086   8.154  1.5949  1.3349  1.7198
 8675SOL    HW237488   0.802   3.183   8.247  1.1473 -0.4108 -0.4534
 8676SOL     OW37489   1.650   0.026   9.474 -0.0546 -0.0891  0.4450
 8676SOL    HW137490   1.659   0.027   9.378  0.4803 -0.1867  0.4938
 8676SOL    HW237491   1.554   0.020   9.473 -0.0624 -0.1583  1.4412
 8677SOL     OW37492   1.703   2.518   5.452 -0.3951 -0.0747  0.2806
 8677SOL    HW137493   1.697   2.446   5.390  0.9286  0.3993 -0.3952
 8677SOL    HW237494   1.724   2.586   5.388 -2.1098 -0.1861 -0.4049
 8678SOL     OW37495   0.081   1.220   2.163 -0.4221 -0.0237 -0.4874
 8678SOL    HW137496   0.039   1.162   2.227  0.4191 -1.7252 -1.4634
 8678SOL    HW237497   0.157   1.260   2.207 -0.1756 -1.8234  0.7249
 8679SOL     OW37498   4.029   1.090   1.220  0.1604  0.1246  0.5354
 8679SOL    HW137499   4.067   1.142   1.291  1.2222 -0.3107  0.2805
 8679SOL    HW237500   4.031   1.162   1.157 -0.4480 -0.1647  0.1856
 8680SOL     OW37501   2.441   4.519  15.489 -0.2409 -0.1044  0.8530
 8680SOL    HW137502   2.476   4.448  15.543 -1.7714 -0.2595  1.6510
 8680SOL    HW237503   2.349   4.518  15.514 -0.8854  0.5762 -1.4848
 8681SOL     OW37504   2.946   1.632   6.664  0.5014 -0.6412  0.0178
 8681SOL    HW137505   3.013   1.587   6.613  1.1116  0.5586 -0.2538
 8681SOL    HW237506   2.999   1.706   6.693  0.7707 -0.3285 -1.2600
 8682SOL     OW37507   1.763   0.274  14.574 -0.1894 -0.0913  0.1712
 8682SOL    HW137508   1.753   0.369  14.583 -1.3468 -0.2057  0.1698
 8682SOL    HW237509   1.668   0.258  14.573 -0.1728 -0.2200  0.8709
 8683SOL     OW37510   1.643   1.836   6.631 -0.5334  0.0353 -0.0939
 8683SOL    HW137511   1.726   1.790   6.613 -1.2086  0.2911 -3.9762
 8683SOL    HW237512   1.662   1.924   6.599  0.6144 -0.6115 -1.2092
 8684SOL     OW37513   3.136   4.205  15.097  0.1222  0.6290 -0.3274
 8684SOL    HW137514   3.108   4.123  15.055 -0.0382  1.1617 -1.2492
 8684SOL    HW237515   3.231   4.196  15.089  0.4453  1.4599  2.5177
 8685SOL     OW37516   0.589   3.492   2.408  0.2206  0.3151 -0.4432
 8685SOL    HW137517   0.507   3.476   2.363  0.1510  1.1224 -0.6048
 8685SOL    HW237518   0.584   3.420   2.472 -0.1388  1.3459  0.6981
 8686SOL     OW37519   3.839   4.268   8.368  0.5094 -0.4822 -0.5872
 8686SOL    HW137520   3.768   4.321   8.405 -0.0372 -2.2221  0.8602
 8686SOL    HW237521   3.863   4.322   8.293 -0.8278  1.0744  0.0980
 8687SOL     OW37522   0.168   2.362  17.113  0.7346 -0.1710 -0.4030
 8687SOL    HW137523   0.165   2.286  17.055  3.4653  1.0360 -2.1439
 8687SOL    HW237524   0.136   2.323  17.194  2.5635  1.3131  1.0260
 8688SOL     OW37525   1.280   2.568   7.404  0.3186 -0.1294  0.1274
 8688SOL    HW137526   1.265   2.485   7.359 -0.7850  0.5550 -0.7770
 8688SOL    HW237527   1.302   2.626   7.330 -1.1513 -0.1257 -0.2967
 8689SOL     OW37528   2.983   2.447   9.239  0.0020 -0.2943  0.5209
 8689SOL    HW137529   2.959   2.536   9.214  0.7584 -0.3042 -0.2295
 8689SOL    HW237530   3.011   2.457   9.330  0.5244 -2.2161  0.5709
 8690SOL     OW37531   0.992   0.643   2.091  0.0718 -0.0429  0.5077
 8690SOL    HW137532   0.975   0.572   2.029  0.1242  3.2585 -3.2313
 8690SOL    HW237533   0.899   0.665   2.102 -0.3317 -2.5374  2.3035
 8691SOL     OW37534   0.949   0.963  11.317  0.5216 -0.1746  0.5686
 8691SOL    HW137535   0.944   1.058  11.315  2.9273 -0.0490  0.5919
 8691SOL    HW237536   0.993   0.940  11.399  0.3975 -0.1183  0.6500
 8692SOL     OW37537   3.476   4.129   8.986  0.3627 -0.2695  0.5503
 8692SOL    HW137538   3.555   4.181   8.978  0.0441 -0.2994 -3.0532
 8692SOL    HW237539   3.415   4.198   9.014 -0.6526 -0.4036 -1.2817
 8693SOL     OW37540   4.664   4.283   2.331  0.3008  0.4519  0.2075
 8693SOL    HW137541   4.672   4.292   2.236  0.6801 -1.5866  0.0340
 8693SOL    HW237542   4.631   4.194   2.343  1.3502  0.2941  1.8783
 8694SOL     OW37543   3.225   1.156   4.802 -0.3575 -0.1324  0.4472
 8694SOL    HW137544   3.162   1.111   4.746  0.7605 -3.0853  1.5550
 8694SOL    HW237545   3.311   1.127   4.772 -2.4985 -2.3193 -3.6178
 8695SOL     OW37546   1.217   1.832   5.212  0.4721  0.2761 -0.1876
 8695SOL    HW137547   1.311   1.828   5.230  0.4034  2.0135  0.5038
 8695SOL    HW237548   1.199   1.760   5.151  0.3714  0.7933 -0.7717
 8696SOL     OW37549   3.198   3.409   8.409 -0.3016 -0.1269 -0.2218
 8696SOL    HW137550   3.261   3.362   8.464  0.5205  0.7759 -0.4043
 8696SOL    HW237551   3.194   3.342   8.340 -1.6603 -0.1307 -0.1283
 8697SOL     OW37552   3.521   3.069   0.805  0.1126  0.1889  0.1373
 8697SOL    HW137553   3.450   3.112   0.852 -0.2491 -0.5477  0.2683
 8697SOL    HW237554   3.489   2.980   0.819 -2.1638  0.9476 -0.3040
 8698SOL     OW37555   1.027   3.354   8.982  0.2268  0.8878  0.6667
 8698SOL    HW137556   1.104   3.318   8.937 -1.4198 -1.8551  0.0713
 8698SOL    HW237557   1.051   3.446   9.000  1.3888  0.5498  0.8734
 8699SOL     OW37558   1.453   1.490   3.253  0.3734  0.0062 -0.2492
 8699SOL    HW137559   1.486   1.521   3.338  0.6959 -0.7573 -0.0948
 8699SOL    HW237560   1.490   1.402   3.240 -3.5887 -2.0016  1.9376
 8700SOL     OW37561   1.789   3.137   7.822 -0.3229  0.3696  0.0550
 8700SOL    HW137562   1.700   3.172   7.815  0.5462  1.5270 -4.7335
 8700SOL    HW237563   1.837   3.219   7.828 -1.1363  1.0287 -2.5811
 8701SOL     OW37564   1.998   4.466   6.174  0.3480 -0.4623  0.0802
 8701SOL    HW137565   1.920   4.501   6.217  1.4432  2.5154 -0.3629
 8701SOL    HW237566   2.069   4.504   6.225 -0.4609  0.5210  0.4781
 8702SOL     OW37567   0.149   3.798   4.791 -0.1713 -0.8031  0.3082
 8702SOL    HW137568   0.228   3.766   4.747  0.2509 -0.5063  0.8435
 8702SOL    HW237569   0.114   3.854   4.721  0.6311 -0.3725  0.2468
 8703SOL     OW37570   0.516   4.276   3.101 -0.4121  0.1209 -0.0084
 8703SOL    HW137571   0.548   4.193   3.137 -0.6937  0.1887  0.3963
 8703SOL    HW237572   0.595   4.315   3.064 -0.2990  1.1548  1.3097
 8704SOL     OW37573   2.562   1.976   2.369 -0.2922  0.0640 -0.4075
 8704SOL    HW137574   2.608   1.972   2.453 -0.7403  0.7192 -0.1350
 8704SOL    HW237575   2.584   1.887   2.339  0.1015 -0.0791  0.3001
 8705SOL     OW37576   0.767   4.466   8.772  0.1909  0.5303  0.6007
 8705SOL    HW137577   0.742   4.489   8.862  2.7950  0.7262  1.2752
 8705SOL    HW237578   0.808   4.380   8.782 -0.4175 -0.0222 -1.7228
 8706SOL     OW37579   2.039   0.568   3.677 -0.2494  0.0559  0.3570
 8706SOL    HW137580   2.107   0.592   3.613 -0.0080  0.1323  0.6440
 8706SOL    HW237581   2.038   0.649   3.728 -3.0495 -0.0387  0.4404
 8707SOL     OW37582   0.730   4.146   5.357 -0.6551  0.1728 -0.1249
 8707SOL    HW137583   0.778   4.065   5.375 -2.9775 -1.0444  0.5400
 8707SOL    HW237584   0.743   4.166   5.265 -2.1630 -1.4748 -0.6810
 8708SOL     OW37585   1.680   2.328   0.892  0.1881  0.1915  0.3875
 8708SOL    HW137586   1.590   2.321   0.923 -0.0192  1.1921 -0.0073
 8708SOL    HW237587   1.689   2.412   0.847 -0.2346 -0.7396 -1.4079
 8709SOL     OW37588   4.476   2.573  12.880 -0.1811  0.0457  0.2321
 8709SOL    HW137589   4.571   2.576  12.880 -0.1577 -0.9233 -0.8639
 8709SOL    HW237590   4.454   2.557  12.972  0.3864  0.3641  0.4224
 8710SOL     OW37591   3.266   1.725   8.126 -0.7824 -0.4685  0.4523
 8710SOL    HW137592   3.327   1.740   8.197 -0.2533  0.6902 -0.2331
 8710SOL    HW237593   3.239   1.817   8.122 -2.4536 -0.9842 -0.3619
 8711SOL     OW37594   2.033   2.944   6.484  1.0388  0.3118  0.0978
 8711SOL    HW137595   1.969   3.005   6.448  1.4544  0.8807  0.3115
 8711SOL    HW237596   2.056   2.895   6.405  1.6897  0.2269  0.3403
 8712SOL     OW37597   3.465   2.861  16.877 -0.3283 -0.1719 -0.0242
 8712SOL    HW137598   3.528   2.846  16.806  1.5980 -1.5181  1.9823
 8712SOL    HW237599   3.416   2.779  16.879 -0.2020 -0.2444  0.1988
 8713SOL     OW37600   1.488   2.842   2.756  0.0422 -0.3419  0.4986
 8713SOL    HW137601   1.538   2.760   2.754  1.5869  0.6164  0.0546
 8713SOL    HW237602   1.413   2.821   2.699  0.9888  2.5583 -1.8047
 8714SOL     OW37603   2.019   0.873   4.260 -0.3214 -0.3252  0.1123
 8714SOL    HW137604   2.049   0.794   4.304  2.0161  0.5571  0.1002
 8714SOL    HW237605   2.012   0.839   4.171  0.4243  1.3350 -0.5807
 8715SOL     OW37606   1.815   3.531  11.972 -0.3609 -1.0057  0.3777
 8715SOL    HW137607   1.863   3.477  11.909  1.3948  1.9167 -0.7799
 8715SOL    HW237608   1.723   3.526  11.946 -0.3985 -0.6776  0.4543
 8716SOL     OW37609   4.356   2.891  10.720  0.2400 -0.2315  0.6817
 8716SOL    HW137610   4.368   2.854  10.808 -0.9077 -0.3167  0.7970
 8716SOL    HW237611   4.287   2.954  10.744 -0.0077 -0.8543  1.5955
 8717SOL     OW37612   3.704   4.295   3.614  0.0246  0.2545 -0.1595
 8717SOL    HW137613   3.666   4.341   3.539  0.2721  3.1416  1.4768
 8717SOL    HW237614   3.637   4.306   3.681  0.6153 -0.5873  0.5717
 8718SOL     OW37615   2.084   3.111   8.739 -0.1242  0.3798  0.8875
 8718SOL    HW137616   2.111   3.123   8.648 -1.6075  0.7673  0.4927
 8718SOL    HW237617   2.168   3.090   8.780  0.8013  1.7125 -0.2938
 8719SOL     OW37618   4.364   2.259   8.649  0.2250  0.3032  0.2589
 8719SOL    HW137619   4.453   2.287   8.671 -0.9545  1.6036  3.3551
 8719SOL    HW237620   4.329   2.327   8.592  1.2824  0.1218 -0.5991
 8720SOL     OW37621   4.216   4.137  12.164  0.3223 -0.2505  0.2327
 8720SOL    HW137622   4.183   4.068  12.222 -0.4745  0.5626  0.7371
 8720SOL    HW237623   4.310   4.130  12.184  0.2520 -1.0017  0.3230
 8721SOL     OW37624   1.179   4.425  15.812  0.2599 -0.3448 -0.1743
 8721SOL    HW137625   1.091   4.389  15.800 -0.7367  1.3934  2.0827
 8721SOL    HW237626   1.168   4.510  15.853 -2.4319  0.0707 -1.7967
 8722SOL     OW37627   1.151   4.229  15.333  0.2501  0.1189 -0.6231
 8722SOL    HW137628   1.078   4.167  15.338  1.9797 -1.5998  2.8993
 8722SOL    HW237629   1.121   4.315  15.361  0.7301 -0.0718  0.4576
 8723SOL     OW37630   1.441   2.301   2.160 -0.0361 -0.5260 -0.5091
 8723SOL    HW137631   1.472   2.283   2.071 -1.5175 -3.3442 -0.4435
 8723SOL    HW237632   1.513   2.357   2.190  0.3844  0.2555 -2.9551
 8724SOL     OW37633   1.290   4.357   3.648  0.3538 -0.0484 -0.2517
 8724SOL    HW137634   1.355   4.292   3.673  0.2153 -0.6433 -1.4253
 8724SOL    HW237635   1.314   4.389   3.561 -0.9619 -1.3193 -1.0826
 8725SOL     OW37636   3.343   0.030   5.951  0.0927  0.1636  0.4340
 8725SOL    HW137637   3.264   0.046   6.002 -0.9932  1.4056 -1.6959
 8725SOL    HW237638   3.409   0.027   6.021 -1.4859  0.2347  1.9217
 8726SOL     OW37639   1.000   1.288   7.220 -0.5095 -0.4986  0.3990
 8726SOL    HW137640   1.061   1.215   7.206 -0.2047 -0.3689  1.0339
 8726SOL    HW237641   1.054   1.357   7.183 -0.5517 -1.3365 -1.2148
 8727SOL     OW37642   3.702   2.414   3.096  0.3439 -0.1743  0.4282
 8727SOL    HW137643   3.675   2.426   3.187 -0.4279  4.9570 -0.4700
 8727SOL    HW237644   3.716   2.502   3.061 -2.0778 -0.2454 -0.7106
 8728SOL     OW37645   3.655   4.283  17.100  0.3807  0.5820 -0.6360
 8728SOL    HW137646   3.739   4.325  17.118  1.4120 -1.8169  0.1690
 8728SOL    HW237647   3.594   4.334  17.152 -0.3166 -1.7178  0.8040
 8729SOL     OW37648   2.500   1.677   0.981  0.6813 -0.4481  0.2749
 8729SOL    HW137649   2.480   1.586   0.960 -0.7421 -0.4010  1.4112
 8729SOL    HW237650   2.422   1.709   1.028  0.7630 -1.4863  1.1284
 8730SOL     OW37651   3.637   1.441  13.183  0.3438 -0.9016 -0.4896
 8730SOL    HW137652   3.671   1.442  13.094 -0.9983  2.0197 -0.9452
 8730SOL    HW237653   3.656   1.533  13.201  0.9139 -1.4567  1.8511
 8731SOL     OW37654   4.648   3.551  15.108 -0.5267  0.2173  0.0876
 8731SOL    HW137655   4.698   3.594  15.177  0.1364 -0.8866  0.2988
 8731SOL    HW237656   4.687   3.464  15.099 -2.4100 -0.4677 -1.4208
 8732SOL     OW37657   3.629   3.660  17.008  0.2177 -0.4427  0.1839
 8732SOL    HW137658   3.663   3.628  17.092 -1.1476  2.0429  1.6929
 8732SOL    HW237659   3.578   3.583  16.986  0.7554 -0.6918 -0.2015
 8733SOL     OW37660   3.353   2.985   3.841  0.3679  0.1676 -0.6111
 8733SOL    HW137661   3.390   2.901   3.814 -0.5551  0.4630 -2.8360
 8733SOL    HW237662   3.374   3.040   3.766 -0.1237  0.2589 -0.6819
 8734SOL     OW37663   0.567   1.294   2.049  0.1712 -0.0204 -0.0934
 8734SOL    HW137664   0.576   1.295   1.954 -0.0945  0.0760 -0.1175
 8734SOL    HW237665   0.538   1.205   2.067 -0.9626  0.6656  1.5319
 8735SOL     OW37666   3.489   4.288   4.508  0.4574  0.4508 -0.2503
 8735SOL    HW137667   3.446   4.244   4.581 -1.6754 -0.6353 -2.1327
 8735SOL    HW237668   3.539   4.217   4.470  0.3646 -0.0470  0.5655
 8736SOL     OW37669   0.159   4.216   1.241 -0.0470 -0.0519 -0.2812
 8736SOL    HW137670   0.113   4.153   1.296  1.2935 -2.6187 -2.1315
 8736SOL    HW237671   0.090   4.280   1.225 -0.5845 -0.7161 -0.6255
 8737SOL     OW37672   4.579   3.833   5.053  0.5688  0.1379  0.0894
 8737SOL    HW137673   4.562   3.924   5.078  2.8661  0.4122  0.7395
 8737SOL    HW237674   4.501   3.798   5.010  0.9440  0.2242 -0.6732
 8738SOL     OW37675   2.609   1.735   2.570  0.1310  0.2342 -0.1267
 8738SOL    HW137676   2.664   1.686   2.630 -1.2152 -1.1192 -0.0141
 8738SOL    HW237677   2.532   1.736   2.626 -0.8994  2.5714 -1.5457
 8739SOL     OW37678   3.226   3.932  11.741  0.1392  0.1674  0.5932
 8739SOL    HW137679   3.160   3.864  11.753 -0.9851  1.4014  1.3222
 8739SOL    HW237680   3.277   3.882  11.678  0.0264  0.5143  0.2293
 8740SOL     OW37681   2.826   2.649   2.110  0.5290 -0.2379 -0.6416
 8740SOL    HW137682   2.808   2.576   2.170 -2.3605  0.5181 -0.6050
 8740SOL    HW237683   2.823   2.606   2.024  1.9050  0.1480 -0.8873
 8741SOL     OW37684   3.339   2.883   7.531 -0.1519 -0.3477  0.0903
 8741SOL    HW137685   3.409   2.946   7.512  0.9300 -1.3194  0.8401
 8741SOL    HW237686   3.380   2.809   7.488  1.0351  0.9601 -1.0299
 8742SOL     OW37687   3.595   1.195   9.263  0.1902  0.6458  0.3759
 8742SOL    HW137688   3.659   1.137   9.223 -0.8448  0.6899 -1.3743
 8742SOL    HW237689   3.650   1.262   9.303 -0.7740  1.4598  0.3453
 8743SOL     OW37690   2.803   4.457  10.137 -0.1045 -0.5003 -0.1573
 8743SOL    HW137691   2.740   4.386  10.149  0.8570 -1.6277 -1.7931
 8743SOL    HW237692   2.881   4.409  10.109  0.4675 -0.7566  1.9244
 8744SOL     OW37693   0.902   4.024   0.998 -0.2401 -0.0843  0.0401
 8744SOL    HW137694   0.979   3.988   1.041  0.8115  2.3481  0.1791
 8744SOL    HW237695   0.934   4.020   0.908 -1.2652  0.4887 -0.3493
 8745SOL     OW37696   1.855   0.062   6.478  0.1099  0.6856 -0.1032
 8745SOL    HW137697   1.880   0.125   6.546  3.5573 -2.9501  2.0297
 8745SOL    HW237698   1.791   0.013   6.530  0.0411 -0.0491 -0.8793
 8746SOL     OW37699   0.265   3.650   7.368 -1.0727  0.8079  0.3436
 8746SOL    HW137700   0.314   3.577   7.407 -1.1914  0.3065 -0.4563
 8746SOL    HW237701   0.210   3.617   7.297  1.6212  0.4536 -1.5692
 8747SOL     OW37702   2.034   3.748  12.345  0.4390  0.4109 -0.8167
 8747SOL    HW137703   2.036   3.826  12.400  1.0475 -0.5977  0.5993
 8747SOL    HW237704   1.991   3.686  12.404 -1.7914  1.4231 -1.3933
 8748SOL     OW37705   2.632   3.311   1.089  0.0571 -0.0263 -0.5102
 8748SOL    HW137706   2.683   3.230   1.085  1.4410  0.7362  1.6361
 8748SOL    HW237707   2.598   3.325   1.001 -0.9048 -2.2675 -0.4828
 8749SOL     OW37708   3.748   4.072   3.935 -0.7061  0.7447 -0.7282
 8749SOL    HW137709   3.676   4.026   3.979 -1.0408 -0.1558 -2.2139
 8749SOL    HW237710   3.748   4.158   3.978 -0.3774  0.5871 -0.4132
 8750SOL     OW37711   4.305   4.034   4.323 -0.1187 -0.2931  0.1923
 8750SOL    HW137712   4.210   4.045   4.333 -0.4560 -1.7373 -1.4583
 8750SOL    HW237713   4.319   4.073   4.237  1.2765 -0.2223  0.4479
 8751SOL     OW37714   1.225   3.379  15.134  0.1025 -0.6078  0.4676
 8751SOL    HW137715   1.182   3.463  15.151  3.1010  0.1214  4.3980
 8751SOL    HW237716   1.272   3.399  15.054  0.5039 -0.0607  0.8351
 8752SOL     OW37717   3.392   0.006  13.904 -0.0498  0.7960  0.5405
 8752SOL    HW137718   3.438   4.715  13.821  0.4909 -2.3124  1.3030
 8752SOL    HW237719   3.320   0.065  13.883  1.4070  2.5185  0.3677
 8753SOL     OW37720   3.780   1.985   3.697 -0.0946 -0.5692  0.1514
 8753SOL    HW137721   3.762   1.918   3.630  2.8314 -0.6158 -0.5667
 8753SOL    HW237722   3.730   1.956   3.774  1.5592 -0.3865  1.2846
 8754SOL     OW37723   1.651   0.731  16.615  0.3915  0.1792 -0.3789
 8754SOL    HW137724   1.603   0.674  16.674 -1.2762  2.4045  0.4416
 8754SOL    HW237725   1.610   0.729  16.528 -1.1666 -0.8560  0.3979
 8755SOL     OW37726   2.273   3.621   6.908 -0.3223 -0.0846 -0.3885
 8755SOL    HW137727   2.235   3.537   6.936 -0.0492  1.0184  3.2657
 8755SOL    HW237728   2.201   3.639   6.848  0.4463  2.2605 -0.6076
 8756SOL     OW37729   0.996   2.380   5.517 -0.0599 -0.2315 -0.6262
 8756SOL    HW137730   1.068   2.432   5.480  0.5754 -0.9297 -0.3859
 8756SOL    HW237731   0.934   2.378   5.445 -2.0170 -0.1386  1.0460
 8757SOL     OW37732   1.012   1.559   6.998 -0.0179 -0.2974  0.2030
 8757SOL    HW137733   0.945   1.580   6.934  0.9319  0.3403 -0.5728
 8757SOL    HW237734   0.993   1.626   7.064 -1.1019  0.6553 -1.0789
 8758SOL     OW37735   4.426   1.941   8.607 -0.1491 -0.5676  0.0791
 8758SOL    HW137736   4.369   1.958   8.532 -0.1247 -1.0740 -0.0545
 8758SOL    HW237737   4.385   1.973   8.687  0.6058 -0.8237  0.5720
 8759SOL     OW37738   1.497   4.387   0.457  0.0233  0.1597 -0.1954
 8759SOL    HW137739   1.498   4.402   0.363  3.9358 -0.0401 -0.1634
 8759SOL    HW237740   1.404   4.400   0.479  0.4966 -0.6349  2.3651
 8760SOL     OW37741   1.090   2.602   0.073 -0.3683 -0.3648  0.3155
 8760SOL    HW137742   1.088   2.697   0.086  0.0929 -0.3259  0.0718
 8760SOL    HW237743   1.126   2.601  17.672  0.2359 -1.9799  0.5785
 8761SOL     OW37744   1.237   4.587   7.256 -0.4154  0.3376  0.6150
 8761SOL    HW137745   1.316   4.589   7.201 -1.2412  3.2364 -0.4666
 8761SOL    HW237746   1.212   4.495   7.250  1.5361 -0.1835  0.5022
 8762SOL     OW37747   0.485   2.172   1.871  0.1564 -0.1152 -0.6609
 8762SOL    HW137748   0.393   2.194   1.854 -0.1276 -0.9413 -0.2158
 8762SOL    HW237749   0.524   2.259   1.882 -2.9757  1.2845 -0.4599
 8763SOL     OW37750   2.709   1.194   3.378  0.2090  0.2523  0.7909
 8763SOL    HW137751   2.749   1.122   3.426 -1.6706 -0.5673  1.1217
 8763SOL    HW237752   2.764   1.264   3.416  0.2121 -0.1454  1.5245
 8764SOL     OW37753   2.014   4.158  10.378 -0.0507 -0.0612 -0.0384
 8764SOL    HW137754   2.083   4.189  10.320 -0.9783 -1.8178 -2.0738
 8764SOL    HW237755   2.014   4.064  10.360  0.9489 -0.3637  1.5499
 8765SOL     OW37756   4.616   0.811   7.463 -0.0494  0.0736  1.0741
 8765SOL    HW137757   4.624   0.808   7.558 -2.8645  1.3626  1.3314
 8765SOL    HW237758   4.636   0.904   7.452  3.3611 -0.8306 -0.6380
 8766SOL     OW37759   2.930   0.653   3.823 -0.1168 -0.4955  0.2062
 8766SOL    HW137760   3.008   0.638   3.877  0.9408 -0.2454 -1.2365
 8766SOL    HW237761   2.961   0.630   3.735  2.5006 -0.8504  1.2004
 8767SOL     OW37762   2.255   1.753   1.027 -0.4503  0.3555  0.3276
 8767SOL    HW137763   2.203   1.824   0.990  0.6517  0.9555 -0.0733
 8767SOL    HW237764   2.193   1.681   1.012 -0.0927  0.0098  0.5039
 8768SOL     OW37765   1.072   2.781   1.948  0.3212 -0.0682  0.3264
 8768SOL    HW137766   1.042   2.856   1.999  1.0977  1.3819 -1.3543
 8768SOL    HW237767   1.021   2.710   1.988  1.2545  0.8862  3.1582
 8769SOL     OW37768   2.818   1.806   2.275  0.3790 -0.2521 -0.7554
 8769SOL    HW137769   2.724   1.786   2.270  0.5035 -1.0779  0.2196
 8769SOL    HW237770   2.863   1.722   2.285 -2.4738 -1.9521 -2.1934
 8770SOL     OW37771   3.986   3.210  14.890  0.0333  0.4141  0.3702
 8770SOL    HW137772   3.928   3.286  14.881 -0.0808  0.3448  0.5155
 8770SOL    HW237773   4.044   3.241  14.960  1.7434 -3.4332  0.6432
 8771SOL     OW37774   2.927   3.693  12.295  0.0071  0.1158 -0.1099
 8771SOL    HW137775   3.007   3.734  12.328  0.9831 -2.5419  0.8498
 8771SOL    HW237776   2.956   3.684  12.204  0.3968  0.7259 -0.0457
 8772SOL     OW37777   3.794   0.704  11.759 -0.2371 -0.1958 -0.3464
 8772SOL    HW137778   3.847   0.783  11.751  0.5354 -0.7359 -0.6795
 8772SOL    HW237779   3.705   0.736  11.749  0.0071  0.1287 -1.5588
 8773SOL     OW37780   3.387   2.433   2.131 -0.2358  0.0541 -0.4404
 8773SOL    HW137781   3.355   2.455   2.219 -1.5450 -0.9257 -0.6746
 8773SOL    HW237782   3.307   2.412   2.083 -1.0185  0.6366  0.5990
 8774SOL     OW37783   4.304   3.072  15.308 -0.2154  0.3654 -0.2696
 8774SOL    HW137784   4.386   3.103  15.270  0.0400  0.4541  0.3471
 8774SOL    HW237785   4.317   3.101  15.398 -2.2388 -0.9175  0.4464
 8775SOL     OW37786   3.740   3.143   1.061 -0.0567  0.2520  0.7912
 8775SOL    HW137787   3.807   3.187   1.114 -0.5835 -1.3860  2.7932
 8775SOL    HW237788   3.683   3.107   1.129 -0.7337  1.1952  0.7333
 8776SOL     OW37789   4.045   1.107   7.172  0.6284  0.4634  0.3767
 8776SOL    HW137790   4.078   1.173   7.233 -1.2828  1.3101  0.5117
 8776SOL    HW237791   4.113   1.042   7.191  0.3297  0.7162  2.3157
 8777SOL     OW37792   4.332   1.986   3.090 -0.2621  0.2875 -0.4364
 8777SOL    HW137793   4.305   1.903   3.129  1.7980 -1.1101 -1.9911
 8777SOL    HW237794   4.259   2.047   3.091 -0.8533 -0.4599  1.5084
 8778SOL     OW37795   0.745   1.658   3.351  0.2764  0.0203  0.0736
 8778SOL    HW137796   0.700   1.584   3.392 -1.6646  2.3604  2.1717
 8778SOL    HW237797   0.749   1.719   3.424 -2.0039  0.2259  0.0412
 8779SOL     OW37798   1.179   3.323   6.755 -0.3351  0.3493 -0.6545
 8779SOL    HW137799   1.096   3.299   6.798 -0.2943 -1.6537 -1.6961
 8779SOL    HW237800   1.230   3.243   6.759 -0.2887  0.4942  1.5174
 8780SOL     OW37801   1.758   4.106  16.784  0.0991 -0.2244  0.2318
 8780SOL    HW137802   1.826   4.173  16.782 -2.0601  1.9754  0.9296
 8780SOL    HW237803   1.813   4.043  16.831 -2.5195 -0.3310  3.1032
 8781SOL     OW37804   0.902   3.266   4.260  0.1817 -0.7472  0.4103
 8781SOL    HW137805   0.917   3.213   4.183  1.0346  0.8122 -0.4962
 8781SOL    HW237806   0.901   3.359   4.235  0.9481 -1.1514 -1.0874
 8782SOL     OW37807   0.863   3.302   8.693  0.3598  0.0417 -0.1786
 8782SOL    HW137808   0.787   3.332   8.644  0.2280 -1.2471 -0.7517
 8782SOL    HW237809   0.841   3.220   8.736 -0.0992  0.6842  0.8121
 8783SOL     OW37810   3.405   3.452   8.729  0.2131 -0.0365  0.2579
 8783SOL    HW137811   3.390   3.359   8.714  1.9012 -0.4859  1.2998
 8783SOL    HW237812   3.316   3.486   8.725  0.1754 -0.0946  0.6124
 8784SOL     OW37813   4.009   0.542   6.464 -0.6959  1.3156 -0.6148
 8784SOL    HW137814   3.939   0.521   6.526 -0.9650  1.3384 -0.9104
 8784SOL    HW237815   4.090   0.538   6.515 -2.2744 -1.8799  1.7063
 8785SOL     OW37816   4.346   2.220   5.963  0.6530  0.1994  0.4266
 8785SOL    HW137817   4.390   2.135   5.959 -0.7660 -0.4464 -1.6272
 8785SOL    HW237818   4.394   2.265   5.893  1.7764 -2.8911 -0.7848
 8786SOL     OW37819   4.655   3.026  17.389  0.2631 -0.3125 -0.1042
 8786SOL    HW137820   4.580   3.086  17.390  0.4154 -0.1695  1.6070
 8786SOL    HW237821   4.626   2.945  17.347 -1.4621 -0.6532  1.7324
 8787SOL     OW37822   1.311   2.797  17.641  0.3111 -0.0200 -0.1682
 8787SOL    HW137823   1.378   2.791  17.573 -0.0175 -0.6643 -0.4340
 8787SOL    HW237824   1.238   2.823  17.584 -1.1222  0.1641  1.7359
 8788SOL     OW37825   2.602   0.021  15.111 -0.5293  0.6054  0.3507
 8788SOL    HW137826   2.506   0.015  15.107 -0.5235 -0.0514  1.3193
 8788SOL    HW237827   2.619   0.077  15.035  4.0192  1.0110  1.7051
 8789SOL     OW37828   3.033   4.305  10.036  0.5485 -0.1347  0.4174
 8789SOL    HW137829   3.046   4.210  10.036  0.9804 -0.0711 -0.7648
 8789SOL    HW237830   3.109   4.332   9.985 -0.7210  1.7049 -0.4907
 8790SOL     OW37831   1.828   2.584   6.693  0.5193 -0.2596  0.2704
 8790SOL    HW137832   1.864   2.622   6.613  0.3403  0.7563  0.6615
 8790SOL    HW237833   1.849   2.647   6.762 -1.0279 -0.6673  1.1208
 8791SOL     OW37834   3.106   1.486  16.160  0.2414  0.0459  0.2495
 8791SOL    HW137835   3.049   1.412  16.178 -1.3782  1.5755  1.4118
 8791SOL    HW237836   3.115   1.483  16.064 -1.8975  1.7505 -0.0231
 8792SOL     OW37837   0.512   0.822   5.011  0.1453  0.0089 -0.1269
 8792SOL    HW137838   0.498   0.912   5.040 -2.1916 -0.3572 -0.0524
 8792SOL    HW237839   0.596   0.812   4.967  0.2758  0.3410  0.0494
 8793SOL     OW37840   0.997   3.909   1.288  0.0230 -0.2145  0.4093
 8793SOL    HW137841   1.029   3.828   1.248 -1.6162 -0.1850 -1.0056
 8793SOL    HW237842   0.921   3.875   1.336 -0.4298 -1.0205 -0.8834
 8794SOL     OW37843   1.022   3.980   8.669  0.0348  0.0094  0.2854
 8794SOL    HW137844   1.012   3.896   8.624 -0.3897 -0.6903  1.6683
 8794SOL    HW237845   1.071   4.028   8.602 -1.5844  1.9453  0.4837
 8795SOL     OW37846   3.280   3.909   7.408  0.1525  0.0026  0.4802
 8795SOL    HW137847   3.338   3.844   7.446  2.4508  1.7577 -0.0149
 8795SOL    HW237848   3.195   3.897   7.450  1.0993 -1.1970  2.0131
 8796SOL     OW37849   2.467   1.885   4.728  0.1703  0.3499  0.6235
 8796SOL    HW137850   2.408   1.861   4.657  0.5671 -2.5320  1.2299
 8796SOL    HW237851   2.425   1.847   4.805  2.6158 -1.1803  1.2110
 8797SOL     OW37852   1.259   2.530  10.024  0.2296  0.5394 -0.1575
 8797SOL    HW137853   1.247   2.454   9.967 -0.0111 -0.0025  0.6064
 8797SOL    HW237854   1.258   2.473  10.101  0.2675 -1.5166 -1.6761
 8798SOL     OW37855   4.557   3.016   4.398 -0.1175  0.4154  0.0127
 8798SOL    HW137856   4.498   2.940   4.392  1.0689 -0.3204 -2.4681
 8798SOL    HW237857   4.529   3.067   4.322  2.7797  3.2866  0.8603
 8799SOL     OW37858   3.154   2.977   0.167 -0.0985  0.1322  0.2621
 8799SOL    HW137859   3.106   2.902   0.131 -0.6482  1.0929 -1.0225
 8799SOL    HW237860   3.147   2.954   0.259 -1.0554 -0.7247 -0.0201
 8800SOL     OW37861   0.809   1.322   6.392 -0.5105 -0.0809  0.1565
 8800SOL    HW137862   0.729   1.300   6.345  0.6541  0.4663 -2.0925
 8800SOL    HW237863   0.862   1.249   6.358 -0.7899 -1.2480  2.2229
 8801SOL     OW37864   1.346   1.442   2.103  0.6457 -0.5234 -0.3073
 8801SOL    HW137865   1.355   1.537   2.101 -0.8136 -0.3443  1.0268
 8801SOL    HW237866   1.267   1.431   2.048  0.7190 -2.8588  0.0441
 8802SOL     OW37867   1.587   1.020   4.889 -0.2671 -0.9072  0.4212
 8802SOL    HW137868   1.663   1.075   4.910 -0.3710  0.4442 -2.7476
 8802SOL    HW237869   1.507   1.066   4.918  1.8378 -0.6770  5.8367
 8803SOL     OW37870   2.558   0.657   4.832 -0.1705  0.2727  0.4071
 8803SOL    HW137871   2.499   0.732   4.842  0.6251  1.0960 -1.2437
 8803SOL    HW237872   2.594   0.688   4.749 -0.4017 -0.7868 -0.0875
 8804SOL     OW37873   2.888   2.631   5.732  0.2458 -0.4434 -0.0617
 8804SOL    HW137874   2.799   2.622   5.699  0.1825 -5.1145  1.3432
 8804SOL    HW237875   2.895   2.546   5.775 -1.9214 -0.3123  0.5482
 8805SOL     OW37876   4.277   1.540  16.552  0.1377  0.0840 -0.7538
 8805SOL    HW137877   4.328   1.621  16.557  0.3065 -0.0726  0.1291
 8805SOL    HW237878   4.342   1.488  16.505 -0.6957 -1.0701 -0.6107
 8806SOL     OW37879   0.979   1.852   9.064  0.4637  0.1970 -0.6221
 8806SOL    HW137880   0.993   1.831   9.157  3.1143 -0.1071 -1.0957
 8806SOL    HW237881   0.898   1.804   9.048 -0.0790  0.1359  2.2198
 8807SOL     OW37882   3.391   3.136   5.776 -1.1977 -0.1468 -0.1268
 8807SOL    HW137883   3.300   3.162   5.793 -0.7610  2.4128 -1.7194
 8807SOL    HW237884   3.397   3.161   5.684  0.5775  2.1605  0.6037
 8808SOL     OW37885   0.839   3.059   1.826  0.6800 -0.5178 -0.1088
 8808SOL    HW137886   0.838   2.964   1.840  0.4400 -0.5844 -0.5654
 8808SOL    HW237887   0.795   3.099   1.900  0.2858 -0.6864 -0.2549
 8809SOL     OW37888   0.359   1.949   6.266 -0.3613  0.1848 -0.3712
 8809SOL    HW137889   0.432   1.957   6.328 -1.8317  2.4475  1.0269
 8809SOL    HW237890   0.407   1.887   6.211 -3.1890 -1.2145 -1.2859
 8810SOL     OW37891   1.435   0.849   4.634  0.3232  0.2583  0.0279
 8810SOL    HW137892   1.343   0.876   4.636  0.2695  0.2467 -2.1319
 8810SOL    HW237893   1.482   0.931   4.617  1.0596  0.2580  2.0803
 8811SOL     OW37894   0.212   0.569  13.202 -0.5322  0.0034  0.4217
 8811SOL    HW137895   0.168   0.559  13.117 -1.1726 -0.9537  0.8706
 8811SOL    HW237896   0.158   0.510  13.253 -1.6943 -1.4833 -2.5306
 8812SOL     OW37897   2.201   1.601   3.891 -0.3571 -0.6818 -0.3120
 8812SOL    HW137898   2.111   1.571   3.881 -0.6275 -0.4814  1.4561
 8812SOL    HW237899   2.213   1.654   3.812  0.0861 -0.7526 -0.2941
 8813SOL     OW37900   2.714   2.724   3.346  0.0732  0.4229  0.0658
 8813SOL    HW137901   2.714   2.815   3.376  2.6437  0.2052  0.7054
 8813SOL    HW237902   2.677   2.739   3.259  1.4693 -2.7026 -1.0547
 8814SOL     OW37903   0.938   2.258   8.599 -0.4276  1.1080 -0.0794
 8814SOL    HW137904   1.023   2.232   8.562 -0.5617 -2.5221  2.1025
 8814SOL    HW237905   0.942   2.353   8.587  0.9218  1.1577  0.7275
 8815SOL     OW37906   1.307   0.032   2.894  0.2626 -0.1952  0.1696
 8815SOL    HW137907   1.315   4.666   2.856  0.1944  0.0493 -0.3962
 8815SOL    HW237908   1.245   0.019   2.966  0.7919 -0.4322  0.5847
 8816SOL     OW37909   2.196   4.542   9.643  0.1822 -0.1492  0.4155
 8816SOL    HW137910   2.216   4.608   9.576 -1.9795 -2.2706 -2.3385
 8816SOL    HW237911   2.157   4.602   9.707  0.8913 -1.8172  2.3939
 8817SOL     OW37912   2.831   1.885  13.261 -0.7667  0.6038  0.0416
 8817SOL    HW137913   2.857   1.973  13.234  0.3276  0.1454 -0.4121
 8817SOL    HW237914   2.800   1.902  13.350 -1.0029  0.6207 -0.0446
 8818SOL     OW37915   1.919   4.146   7.192 -0.1033 -0.3602  0.3744
 8818SOL    HW137916   1.996   4.202   7.198 -0.7540  0.6388 -0.5684
 8818SOL    HW237917   1.853   4.204   7.231  0.8663  1.1656 -0.2826
 8819SOL     OW37918   3.669   1.003  14.933 -0.0615 -0.1401  0.0419
 8819SOL    HW137919   3.603   1.066  14.903 -0.2790  0.1781  1.1777
 8819SOL    HW237920   3.703   1.036  15.016 -1.4615  1.0924  0.1253
 8820SOL     OW37921   0.907   0.520  14.994 -0.2194 -0.2087 -0.5013
 8820SOL    HW137922   0.840   0.543  14.931  0.5128  4.8537  0.6224
 8820SOL    HW237923   0.965   0.595  14.987 -1.1312  0.3268 -2.2629
 8821SOL     OW37924   2.547   2.273   7.800 -0.2965 -0.0140 -0.1985
 8821SOL    HW137925   2.517   2.351   7.753 -3.0173 -0.1877  1.2401
 8821SOL    HW237926   2.596   2.314   7.871  0.0057 -0.3136 -0.2339
 8822SOL     OW37927   1.388   1.494   4.311 -0.1800  0.2028 -0.6853
 8822SOL    HW137928   1.460   1.524   4.256  0.8945  0.9724  1.1349
 8822SOL    HW237929   1.436   1.427   4.360 -0.3672  0.5355 -0.0520
 8823SOL     OW37930   4.708   3.663   2.557  0.1643  0.0156  0.4072
 8823SOL    HW137931   4.702   3.619   2.472  1.4824  1.4245 -0.4230
 8823SOL    HW237932   0.031   3.592   2.603  1.0292  1.1376  1.3059
 8824SOL     OW37933   3.005   1.305  15.481 -0.4133  0.0503 -0.1248
 8824SOL    HW137934   3.099   1.318  15.467 -0.9567 -1.0373 -4.5914
 8824SOL    HW237935   2.971   1.332  15.395  0.4833 -0.8047 -0.7430
 8825SOL     OW37936   1.671   0.922   4.172 -0.1482  0.1462 -0.2906
 8825SOL    HW137937   1.637   0.839   4.205 -3.7951  0.9141 -2.0290
 8825SOL    HW237938   1.595   0.980   4.173 -0.3366 -0.1212  0.4982
 8826SOL     OW37939   1.094   3.631   9.072 -0.2643  0.0532 -0.1977
 8826SOL    HW137940   1.047   3.714   9.078 -1.2650 -0.5068 -0.2680
 8826SOL    HW237941   1.083   3.590   9.158  2.5362  2.9706  1.5466
 8827SOL     OW37942   2.366   1.029  13.832 -0.2955 -0.4810  0.0897
 8827SOL    HW137943   2.447   1.070  13.803 -1.1627  0.7729 -0.5436
 8827SOL    HW237944   2.344   1.089  13.904  2.9159 -0.6756  1.2338
 8828SOL     OW37945   0.813   1.445   4.815  0.2715  0.3684 -0.6666
 8828SOL    HW137946   0.771   1.518   4.860  0.7164 -1.4524  2.6828
 8828SOL    HW237947   0.755   1.372   4.837  2.7712 -1.0688  1.1573
 8829SOL     OW37948   3.872   4.714   5.556 -0.1373  0.0760  0.5629
 8829SOL    HW137949   3.932   0.051   5.603  1.3874 -0.3271 -0.8453
 8829SOL    HW237950   3.826   0.048   5.493 -1.2944 -0.4444  0.9658
 8830SOL     OW37951   2.595   1.820   3.734  0.2453 -0.2038 -0.1279
 8830SOL    HW137952   2.559   1.736   3.705 -0.3809  0.4944 -1.3671
 8830SOL    HW237953   2.598   1.815   3.830  0.4394 -1.5782 -0.2072
 8831SOL     OW37954   2.388   0.524   6.545  0.0636  1.2272 -0.0625
 8831SOL    HW137955   2.361   0.462   6.613  1.8170 -1.8857 -2.2037
 8831SOL    HW237956   2.437   0.585   6.598 -0.1633  2.1487 -0.9020
 8832SOL     OW37957   1.776   4.524   5.065 -0.0784 -0.6050  0.0384
 8832SOL    HW137958   1.702   4.534   5.005 -1.1281  0.9392  1.6100
 8832SOL    HW237959   1.754   4.590   5.131 -2.3811 -1.4679  0.1589
 8833SOL     OW37960   2.174   1.834   8.630  0.1701 -0.1054 -0.4919
 8833SOL    HW137961   2.254   1.789   8.604  0.7784  1.2139 -0.8560
 8833SOL    HW237962   2.144   1.775   8.700 -0.6922  1.2802  0.2996
 8834SOL     OW37963   0.513   3.803  14.816  0.0642  0.1718 -0.0541
 8834SOL    HW137964   0.464   3.727  14.786  0.9965 -1.3629  2.3103
 8834SOL    HW237965   0.444   3.852  14.862  0.8393  1.0841  0.1438
 8835SOL     OW37966   1.092   1.382   9.166  0.0425 -0.0735 -0.0775
 8835SOL    HW137967   1.085   1.405   9.073 -2.0997 -2.0367 -0.4355
 8835SOL    HW237968   1.001   1.400   9.190  0.4992  0.6804  1.0869
 8836SOL     OW37969   1.741   4.508   5.675  0.2062  0.2173  0.2131
 8836SOL    HW137970   1.788   4.458   5.743  0.6131  0.4366  0.0906
 8836SOL    HW237971   1.780   4.595   5.673 -0.1248  0.3317 -1.0155
 8837SOL     OW37972   1.955   2.139   3.470  0.0702  0.2408  0.0056
 8837SOL    HW137973   1.883   2.096   3.517 -0.1461 -0.4884 -1.0052
 8837SOL    HW237974   1.992   2.059   3.435 -1.3043 -0.3485 -0.1191
 8838SOL     OW37975   0.443   2.342   8.262  0.2079  0.3165  0.0813
 8838SOL    HW137976   0.494   2.261   8.255 -0.0081  0.1997 -0.1575
 8838SOL    HW237977   0.388   2.330   8.339  1.3797 -4.1015  0.2780
 8839SOL     OW37978   1.189   2.846  12.077 -0.3411 -0.2644  0.0293
 8839SOL    HW137979   1.218   2.916  12.019  0.7296 -0.2947  0.5206
 8839SOL    HW237980   1.108   2.827  12.030 -1.5959  3.5195  0.7094
 8840SOL     OW37981   3.326   1.110   2.889  0.3822  0.0987 -0.1779
 8840SOL    HW137982   3.235   1.079   2.882  0.1483  1.2913 -2.3759
 8840SOL    HW237983   3.339   1.120   2.795  1.6778  0.7073  0.0771
 8841SOL     OW37984   1.580   4.056   0.288  0.3925 -0.5211 -0.3094
 8841SOL    HW137985   1.564   4.121   0.220 -0.5254  1.2896  1.6818
 8841SOL    HW237986   1.519   3.987   0.261  1.0294 -0.5636 -1.6517
 8842SOL     OW37987   1.733   3.282   8.646  0.1333 -0.6647 -0.0022
 8842SOL    HW137988   1.762   3.203   8.600 -1.4022 -1.1170 -0.1861
 8842SOL    HW237989   1.819   3.323   8.657  0.3270 -0.2251 -3.0878
 8843SOL     OW37990   0.594   2.467   4.380 -0.5406 -0.5000  0.1338
 8843SOL    HW137991   0.504   2.497   4.372 -1.2831 -2.2690  2.0294
 8843SOL    HW237992   0.645   2.548   4.383 -0.7019 -0.4017  0.1984
 8844SOL     OW37993   1.986   4.027   9.356  0.0443 -0.1367 -0.4083
 8844SOL    HW137994   1.894   4.021   9.330 -0.7476 -2.1759  2.9249
 8844SOL    HW237995   2.037   3.966   9.302  1.9209 -0.4793  1.7561
 8845SOL     OW37996   2.941   2.249   0.651 -0.0666 -0.1016 -0.3891
 8845SOL    HW137997   2.997   2.196   0.708 -0.5083 -0.3892 -0.2271
 8845SOL    HW237998   2.866   2.190   0.655 -0.7902  0.9094  0.9184
 8846SOL     OW37999   2.886   2.009  11.986 -0.0006 -0.7753 -0.0084
 8846SOL    HW138000   2.813   2.063  12.014 -0.8584 -1.5368 -0.7830
 8846SOL    HW238001   2.842   1.930  11.956 -1.0710 -0.5163  0.9068
 8847SOL     OW38002   3.892   2.961  10.608  0.3070 -0.3993  0.1338
 8847SOL    HW138003   3.932   3.025  10.549  0.1257  0.9109  1.4129
 8847SOL    HW238004   3.831   2.916  10.550  0.5964 -0.6599  0.0306
 8848SOL     OW38005   0.904   1.774   8.710 -0.0003 -0.1859 -0.5323
 8848SOL    HW138006   0.966   1.838   8.675  0.1950 -0.8672 -1.4411
 8848SOL    HW238007   0.831   1.832   8.731 -0.5418 -1.3658  0.8482
 8849SOL     OW38008   3.759   2.808  10.363  0.5024 -0.7608 -0.0950
 8849SOL    HW138009   3.739   2.732  10.417 -2.0031  0.9493  1.3666
 8849SOL    HW238010   3.838   2.782  10.315 -0.7532 -0.2345 -2.4254
 8850SOL     OW38011   2.541   2.644   7.191  0.0236  0.5341 -0.3160
 8850SOL    HW138012   2.447   2.651   7.173 -0.3617  0.0595  1.5429
 8850SOL    HW238013   2.588   2.647   7.107  2.7173  0.5409  1.2129
 8851SOL     OW38014   1.607   0.996  16.321 -0.8361  0.0973 -0.3598
 8851SOL    HW138015   1.702   1.005  16.319 -1.0493  2.1704 -1.1680
 8851SOL    HW238016   1.594   0.901  16.320  0.6141 -0.1237  2.6581
 8852SOL     OW38017   3.834   2.042   6.071  0.1145  0.4375 -0.4894
 8852SOL    HW138018   3.787   1.966   6.038  0.9011  0.1209 -0.8758
 8852SOL    HW238019   3.924   2.028   6.039 -0.1605 -0.8849 -0.6770
 8853SOL     OW38020   1.180   2.996  17.508 -0.6000 -0.4668  0.2521
 8853SOL    HW138021   1.138   3.056  17.570 -1.1282  0.0975 -0.6567
 8853SOL    HW238022   1.123   3.009  17.432  0.3543  0.5870 -0.2735
 8854SOL     OW38023   4.278   4.157   5.905  0.1373 -0.6430 -0.1663
 8854SOL    HW138024   4.218   4.159   5.979 -0.0176  1.5513 -0.3672
 8854SOL    HW238025   4.251   4.232   5.853  2.4088 -0.4584 -1.0787
 8855SOL     OW38026   2.653   1.817   3.042  0.0250 -0.1731 -0.4795
 8855SOL    HW138027   2.657   1.820   3.138 -0.4642 -0.6353 -0.4442
 8855SOL    HW238028   2.626   1.727   3.023  1.4825 -0.9599  1.1172
 8856SOL     OW38029   0.006   0.956   4.312 -0.1341 -0.7123 -0.0201
 8856SOL    HW138030   4.683   0.960   4.396  2.0114 -1.2177  1.1288
 8856SOL    HW238031   0.019   0.861   4.311 -3.3721 -1.1490 -0.7159
 8857SOL     OW38032   3.901   4.532   1.515 -0.2886  0.2230  0.1239
 8857SOL    HW138033   3.969   4.504   1.454  1.6217  0.9144  1.9314
 8857SOL    HW238034   3.945   4.571   1.590  0.1131 -1.5766  0.8164
 8858SOL     OW38035   1.529   3.801   9.274 -0.1218  0.0291  0.3304
 8858SOL    HW138036   1.436   3.814   9.255 -0.4893 -1.0785  1.3969
 8858SOL    HW238037   1.571   3.871   9.225 -1.7360  1.1715  0.5857
 8859SOL     OW38038   4.228   1.027   5.884  0.1562 -0.2085  0.8948
 8859SOL    HW138039   4.253   1.061   5.970 -0.5723  1.5387  0.4163
 8859SOL    HW238040   4.182   1.105   5.853  1.1148  0.0403  0.1094
 8860SOL     OW38041   2.199   3.675   1.856 -0.0259 -0.2956  0.1607
 8860SOL    HW138042   2.288   3.711   1.860  0.5622 -1.6890 -0.6671
 8860SOL    HW238043   2.175   3.701   1.767  1.1595  0.1970 -0.0080
 8861SOL     OW38044   4.322   2.047   3.537  0.1184 -0.6398  0.2987
 8861SOL    HW138045   4.237   2.032   3.580  0.3444  1.0202  1.3075
 8861SOL    HW238046   4.297   2.124   3.486 -1.7334 -0.8373  0.8923
 8862SOL     OW38047   3.929   1.673   3.799 -0.2111 -0.7346 -0.4424
 8862SOL    HW138048   4.005   1.731   3.796 -0.5308 -0.0913  3.7367
 8862SOL    HW238049   3.949   1.605   3.864  0.2919  0.2275  0.4121
 8863SOL     OW38050   0.315   2.957   2.856 -0.1601 -0.2497  0.1688
 8863SOL    HW138051   0.393   2.923   2.813 -0.4232  0.2895 -0.7507
 8863SOL    HW238052   0.297   2.889   2.921  2.9962 -0.7377  0.4880
 8864SOL     OW38053   4.522   2.840   2.264  0.0369  0.0695 -0.0444
 8864SOL    HW138054   4.552   2.855   2.353 -0.6560 -0.9448  0.3636
 8864SOL    HW238055   4.600   2.874   2.220  0.7924  0.6832  1.7902
 8865SOL     OW38056   0.909   3.717  16.153  0.2117 -0.1379 -0.0636
 8865SOL    HW138057   0.878   3.772  16.081  0.6271 -0.3244 -0.3825
 8865SOL    HW238058   0.850   3.642  16.155  0.4455 -0.3389 -0.9221
 8866SOL     OW38059   2.350   4.175  10.972 -0.9204 -0.1845 -0.0904
 8866SOL    HW138060   2.279   4.204  10.915 -0.8967  0.0774  0.0127
 8866SOL    HW238061   2.401   4.256  10.970 -0.2497 -0.6362 -1.3795
 8867SOL     OW38062   0.791   0.914  16.367  0.1818  0.1315 -0.1300
 8867SOL    HW138063   0.845   0.992  16.359  0.4231 -0.0799 -0.5946
 8867SOL    HW238064   0.846   0.869  16.431 -0.3566 -3.5542 -2.2526
 8868SOL     OW38065   3.736   0.751   1.764 -1.0666  0.6688  0.3444
 8868SOL    HW138066   3.808   0.802   1.726  0.3706 -1.2353  0.5196
 8868SOL    HW238067   3.658   0.795   1.730 -1.6878 -0.4119  0.3795
 8869SOL     OW38068   1.257   1.359   2.448  0.0579  0.5603 -0.2591
 8869SOL    HW138069   1.334   1.352   2.504 -1.6555  1.0700  2.1947
 8869SOL    HW238070   1.282   1.306   2.373  0.5900 -1.3131  1.2220
 8870SOL     OW38071   2.921   1.257   8.103 -0.4436 -0.1864 -0.5672
 8870SOL    HW138072   2.855   1.300   8.049  0.1174  1.0137 -0.2877
 8870SOL    HW238073   2.901   1.168   8.073 -0.0637 -1.2142  2.2127
 8871SOL     OW38074   3.730   2.787   4.539  0.2300  0.0572  0.3977
 8871SOL    HW138075   3.663   2.827   4.594 -0.4329  1.7632 -1.6916
 8871SOL    HW238076   3.713   2.693   4.551 -1.5994  0.1242 -1.8233
 8872SOL     OW38077   3.506   3.170  14.083  0.2566 -0.2238  0.2867
 8872SOL    HW138078   3.600   3.186  14.073  0.1547  0.8680  1.0311
 8872SOL    HW238079   3.504   3.087  14.131 -2.7775 -0.0865  0.4409
 8873SOL     OW38080   2.393   4.641   4.331 -0.6373 -0.2643  0.6048
 8873SOL    HW138081   2.433   4.683   4.408 -0.6241 -0.0250  0.4692
 8873SOL    HW238082   2.434   4.555   4.324  1.1771  0.7086 -0.7580
 8874SOL     OW38083   3.592   0.928  15.871  0.1594 -0.0369  0.2022
 8874SOL    HW138084   3.594   0.904  15.779 -3.6274  2.0858 -0.4213
 8874SOL    HW238085   3.672   0.884  15.900  0.3287  0.5680  0.6568
 8875SOL     OW38086   2.482   1.309   1.989  0.4081 -0.3811  0.7743
 8875SOL    HW138087   2.516   1.274   2.072  0.1354 -2.9263 -0.1712
 8875SOL    HW238088   2.407   1.252   1.974  1.4493 -1.4972 -0.2584
 8876SOL     OW38089   3.804   3.220  13.949  0.3652 -0.0123  0.5370
 8876SOL    HW138090   3.898   3.237  13.938  0.1461 -1.1319 -3.0234
 8876SOL    HW238091   3.813   3.167  14.027  2.4720 -0.9802 -0.3680
 8877SOL     OW38092   2.926   4.404   7.271  0.0104  0.5976 -0.4573
 8877SOL    HW138093   2.861   4.466   7.305 -0.7107  0.1125 -0.9485
 8877SOL    HW238094   2.873   4.332   7.305  0.6850  0.3907  0.1666
 8878SOL     OW38095   0.074   1.373   9.206  0.2738  0.1652 -0.1477
 8878SOL    HW138096   0.162   1.408   9.218 -0.3370  1.6303  0.0631
 8878SOL    HW238097   0.061   1.316   9.281 -2.0526 -0.0713 -0.7475
 8879SOL     OW38098   0.118   2.818  12.956 -0.1475 -0.4706  0.2645
 8879SOL    HW138099   0.129   2.821  13.051 -0.8509 -0.9531  0.3602
 8879SOL    HW238100   0.129   2.724  12.942  3.3989 -0.1312  0.7469
 8880SOL     OW38101   2.119   2.492   6.979  0.1296  0.2827  0.1071
 8880SOL    HW138102   2.110   2.581   6.947  1.0540 -0.0659 -1.0963
 8880SOL    HW238103   2.207   2.467   6.953  0.8425  2.0081  0.8565
 8881SOL     OW38104   2.110   4.608   7.452  0.2779  0.5911  0.0602
 8881SOL    HW138105   2.177   4.566   7.506  2.6015  0.5242 -2.9279
 8881SOL    HW238106   2.064   4.668   7.511 -0.0199 -0.2727  0.7088
 8882SOL     OW38107   4.397   1.233   5.650  0.3684 -0.0968  0.1866
 8882SOL    HW138108   4.390   1.324   5.678 -0.0798  0.0545 -0.4146
 8882SOL    HW238109   4.462   1.188   5.704 -0.8986 -0.0004  1.7778
 8883SOL     OW38110   1.672   2.364   2.765  0.1324 -0.2101  0.4240
 8883SOL    HW138111   1.593   2.318   2.737 -0.3724  0.4004  0.8424
 8883SOL    HW238112   1.634   2.445   2.797  1.7771  0.3904  0.8623
 8884SOL     OW38113   4.235   3.145   5.138 -0.0009 -0.1870  0.5819
 8884SOL    HW138114   4.274   3.228   5.111 -0.9099  0.0061 -0.1405
 8884SOL    HW238115   4.262   3.089   5.065 -2.0392  0.6612 -0.8369
 8885SOL     OW38116   1.069   4.310   3.802  0.3599  0.4364  0.1291
 8885SOL    HW138117   1.116   4.331   3.882 -0.1231  1.6211  0.0994
 8885SOL    HW238118   1.150   4.303   3.752  2.3375  0.6418  3.3458
 8886SOL     OW38119   2.339   3.800   5.438 -0.0946 -0.2193  0.0729
 8886SOL    HW138120   2.412   3.791   5.377  0.1262  0.5044  0.2316
 8886SOL    HW238121   2.258   3.781   5.390  0.7512 -3.3107 -0.1109
 8887SOL     OW38122   4.162   3.201   8.626 -0.3240  0.2029 -0.5434
 8887SOL    HW138123   4.167   3.146   8.705 -2.2113 -0.9593 -1.2289
 8887SOL    HW238124   4.212   3.275   8.660 -3.4855  1.5345  1.2249
 8888SOL     OW38125   4.449   4.475  15.969 -0.4189  0.6712 -0.0661
 8888SOL    HW138126   4.447   4.440  15.880 -0.0618  0.4790  0.0012
 8888SOL    HW238127   4.360   4.508  15.982 -1.3793 -1.8488 -0.1829
 8889SOL     OW38128   2.817   3.755   6.048 -0.0755 -0.9755  0.7784
 8889SOL    HW138129   2.898   3.754   5.997 -0.8093  0.4312 -0.3911
 8889SOL    HW238130   2.764   3.692   6.000 -0.4602 -1.5612  1.9650
 8890SOL     OW38131   3.082   3.120   5.236  0.3282  0.3178 -0.2881
 8890SOL    HW138132   3.010   3.059   5.247 -0.8666  1.9456  0.9366
 8890SOL    HW238133   3.061   3.194   5.293 -2.6264 -0.2701 -0.6242
 8891SOL     OW38134   2.098   0.490  14.319  0.6028  0.1647  0.0932
 8891SOL    HW138135   2.077   0.427  14.388  0.2593  0.6550  0.4361
 8891SOL    HW238136   2.023   0.547  14.335 -0.1234 -0.9910  0.8367
 8892SOL     OW38137   3.674   0.276   8.441 -0.0018  0.3629  0.1241
 8892SOL    HW138138   3.610   0.323   8.387 -1.0588 -1.9368 -0.6232
 8892SOL    HW238139   3.670   0.196   8.390 -2.0506  0.1567  0.5961
 8893SOL     OW38140   1.184   4.089  15.573  0.0547 -0.3758 -0.5754
 8893SOL    HW138141   1.167   4.002  15.609 -1.1279  0.3942  0.7114
 8893SOL    HW238142   1.220   4.076  15.485  2.0418  0.3246  0.1323
 8894SOL     OW38143   1.447   3.810  14.972 -0.6173  0.3237 -0.0467
 8894SOL    HW138144   1.501   3.805  14.894 -1.4863 -1.4402 -0.5475
 8894SOL    HW238145   1.366   3.821  14.921  0.3322 -0.1770 -1.6443
 8895SOL     OW38146   0.439   3.818  14.495  0.0593  0.4571  0.4781
 8895SOL    HW138147   0.407   3.767  14.569 -2.4682  0.9018 -0.2906
 8895SOL    HW238148   0.375   3.780  14.434 -0.6385 -0.5320  1.8183
 8896SOL     OW38149   3.800   3.744  15.223  0.6422 -0.0340  0.4522
 8896SOL    HW138150   3.779   3.669  15.278 -2.1628 -0.7241 -1.5383
 8896SOL    HW238151   3.718   3.745  15.174  1.4358 -1.1889 -0.8788
 8897SOL     OW38152   1.007   2.271   8.059  0.7949 -0.6801 -0.1724
 8897SOL    HW138153   0.958   2.345   8.023 -0.0095 -0.5173  1.2690
 8897SOL    HW238154   0.997   2.288   8.153 -0.3373  1.6186 -0.6934
 8898SOL     OW38155   1.842   3.942   8.765 -0.1311 -0.3159 -0.1084
 8898SOL    HW138156   1.825   3.972   8.676  0.8294 -1.3144 -0.6217
 8898SOL    HW238157   1.936   3.928   8.751  0.4365  0.7254  2.5915
 8899SOL     OW38158   1.788   0.543   2.554  0.3765 -0.5827  0.0858
 8899SOL    HW138159   1.715   0.482   2.543  0.7854 -0.6890 -2.0621
 8899SOL    HW238160   1.817   0.533   2.464 -0.5825  0.0603 -0.2881
 8900SOL     OW38161   2.427   2.434  16.058  0.1833  0.2595 -0.3320
 8900SOL    HW138162   2.360   2.366  16.061 -1.5081  1.7125 -4.1991
 8900SOL    HW238163   2.440   2.460  16.149  1.7811  2.6287 -1.2377
 8901SOL     OW38164   0.548   1.385   6.293 -0.1895 -0.0217 -0.1317
 8901SOL    HW138165   0.555   1.477   6.317  0.3442 -0.2703  0.6382
 8901SOL    HW238166   0.533   1.395   6.199  0.3751  0.6554 -0.1526
 8902SOL     OW38167   0.436   3.594   6.535  0.1380  0.6765 -0.2192
 8902SOL    HW138168   0.439   3.684   6.567  0.8901  0.8167 -0.6950
 8902SOL    HW238169   0.445   3.610   6.441 -0.6645 -0.5280 -0.5065
 8903SOL     OW38170   4.426   2.515   3.032 -0.1212 -0.7799  0.3996
 8903SOL    HW138171   4.489   2.527   2.961 -0.0370 -0.2485  0.5675
 8903SOL    HW238172   4.359   2.465   2.984 -1.2571 -1.1830  2.3994
 8904SOL     OW38173   0.949   2.336   0.373  0.0796  0.1600  0.5226
 8904SOL    HW138174   0.900   2.264   0.333 -0.0970  0.7188 -0.2691
 8904SOL    HW238175   1.017   2.290   0.423 -0.2898 -1.4002 -0.4178
 8905SOL     OW38176   2.517   3.007   7.466  0.2341  0.2823 -0.1412
 8905SOL    HW138177   2.611   3.024   7.453  0.5116 -0.2594  1.1555
 8905SOL    HW238178   2.500   2.981   7.376 -0.1103  0.7244 -0.2046
 8906SOL     OW38179   2.728   0.496   5.467  0.2755  0.2522 -0.0038
 8906SOL    HW138180   2.642   0.531   5.489  0.2892 -2.0060  3.6253
 8906SOL    HW238181   2.744   0.432   5.537 -3.4413  0.0873  0.6878
 8907SOL     OW38182   1.331   3.692  15.213  0.4265 -0.2954  0.2097
 8907SOL    HW138183   1.400   3.640  15.255 -0.7018 -2.8548 -1.1017
 8907SOL    HW238184   1.367   3.706  15.125 -2.6321  2.1232 -0.6499
 8908SOL     OW38185   2.455   2.995   3.175  0.3571  0.3479 -0.3318
 8908SOL    HW138186   2.515   2.925   3.151 -0.9209 -0.5292 -0.9382
 8908SOL    HW238187   2.373   2.963   3.137  0.6114 -1.9317  1.1161
 8909SOL     OW38188   3.809   3.167   3.733 -0.0813 -0.4138  0.2030
 8909SOL    HW138189   3.886   3.120   3.763  0.2100  0.0526  0.1853
 8909SOL    HW238190   3.757   3.171   3.814 -0.7888  0.2675 -0.2842
 8910SOL     OW38191   3.091   0.467   5.821  0.1169  0.4780  0.0047
 8910SOL    HW138192   3.142   0.465   5.739  1.9142  0.4361  1.1313
 8910SOL    HW238193   3.156   0.430   5.880  0.6491  2.7178  0.8174
 8911SOL     OW38194   1.029   1.360   0.339  0.4242  0.2460  0.1538
 8911SOL    HW138195   0.947   1.354   0.290  1.2503 -0.6121 -1.0911
 8911SOL    HW238196   1.042   1.455   0.332 -1.3091  0.4886  0.2369
 8912SOL     OW38197   4.169   1.175   3.903  0.1461 -0.7924  0.2836
 8912SOL    HW138198   4.193   1.233   3.976 -3.1491  0.0875  0.6575
 8912SOL    HW238199   4.243   1.115   3.897 -0.8438 -2.2185  2.3579
 8913SOL     OW38200   1.589   4.329   2.599  0.2628 -0.0472  0.1114
 8913SOL    HW138201   1.600   4.409   2.650 -2.0514 -0.7662  1.7202
 8913SOL    HW238202   1.510   4.352   2.550  0.8726  3.2541  0.6483
 8914SOL     OW38203   4.717   2.424   5.661 -0.4038 -0.1944  0.2057
 8914SOL    HW138204   0.085   2.408   5.692  0.0133  0.4517 -0.6914
 8914SOL    HW238205   4.708   2.506   5.709  0.9969 -0.0922  0.2850
 8915SOL     OW38206   3.377   0.335   9.383  0.1258  0.5133 -0.2317
 8915SOL    HW138207   3.328   0.357   9.462 -2.4023 -0.8292 -1.4035
 8915SOL    HW238208   3.341   0.249   9.358  1.7303 -0.4045  0.6460
 8916SOL     OW38209   4.684   2.189   9.449  0.0655 -0.2712 -0.2368
 8916SOL    HW138210   4.626   2.244   9.502  0.1260 -1.8355  1.4530
 8916SOL    HW238211   4.704   2.237   9.369 -4.6349  0.3592 -1.0239
 8917SOL     OW38212   0.808   3.547   5.306  0.5534 -0.0925  1.0857
 8917SOL    HW138213   0.716   3.528   5.286 -0.0022  2.5525  1.1667
 8917SOL    HW238214   0.807   3.546   5.402 -0.1721  0.2810  1.0816
 8918SOL     OW38215   1.678   0.187   7.744 -0.3920  0.0501 -0.1551
 8918SOL    HW138216   1.632   0.257   7.697 -0.4960  1.7742  2.5318
 8918SOL    HW238217   1.744   0.165   7.679 -2.4090 -3.3996 -1.0720
 8919SOL     OW38218   2.257   4.586   8.492 -0.0863  0.1008 -0.3248
 8919SOL    HW138219   2.350   4.581   8.472 -0.4901  1.4035 -2.4346
 8919SOL    HW238220   2.261   4.627   8.579 -1.9921  2.2829 -1.2697
 8920SOL     OW38221   3.751   4.042  11.511 -0.9331 -0.3897  0.5762
 8920SOL    HW138222   3.799   4.104  11.456 -0.7418 -2.0515 -1.1059
 8920SOL    HW238223   3.734   4.099  11.587  0.7476  2.1041 -0.9244
 8921SOL     OW38224   3.338   1.691  14.781 -0.1920  0.8511 -0.2323
 8921SOL    HW138225   3.403   1.751  14.743  1.0342 -0.2472  0.1481
 8921SOL    HW238226   3.270   1.755  14.801 -0.0676  0.8696  0.1308
 8922SOL     OW38227   4.542   2.042   6.145 -0.4673 -0.8467 -0.2089
 8922SOL    HW138228   4.627   2.002   6.164 -0.3394  0.5472  2.0947
 8922SOL    HW238229   4.499   1.971   6.097  1.3322 -2.2764  0.2796
 8923SOL     OW38230   1.707   3.038   2.067  0.4865  0.8213  0.1529
 8923SOL    HW138231   1.614   3.043   2.091  0.2860  0.4168 -0.5503
 8923SOL    HW238232   1.705   3.082   1.982 -0.4859 -0.6585 -0.5813
 8924SOL     OW38233   3.680   1.834   6.006 -0.0119 -0.1558  0.4538
 8924SOL    HW138234   3.721   1.773   5.944  1.9630  0.2019  1.3977
 8924SOL    HW238235   3.649   1.763   6.063 -0.9839 -1.0697 -1.2288
 8925SOL     OW38236   4.337   0.148   3.914 -0.5951  0.1934 -0.0534
 8925SOL    HW138237   4.361   0.059   3.886 -1.9578 -0.2703  0.2810
 8925SOL    HW238238   4.336   0.134   4.008 -1.6367  0.4921 -0.0259
 8926SOL     OW38239   1.991   0.189   3.023 -0.9158  0.0257 -0.1814
 8926SOL    HW138240   2.079   0.226   3.026 -0.4314 -1.0558 -0.9126
 8926SOL    HW238241   1.977   0.183   2.929 -0.0667  1.1108 -0.3793
 8927SOL     OW38242   3.225   3.724  15.316 -0.0004  0.0283 -0.0676
 8927SOL    HW138243   3.290   3.794  15.316 -0.6543  0.6270 -1.1658
 8927SOL    HW238244   3.175   3.756  15.242 -0.3163  0.8416  0.5069
 8928SOL     OW38245   0.233   3.361   8.545 -0.0638  0.1984  0.7957
 8928SOL    HW138246   0.301   3.410   8.500  0.8825  0.4338  2.5042
 8928SOL    HW238247   0.239   3.380   8.638 -0.3131 -1.6923  1.1949
 8929SOL     OW38248   1.604   2.036   5.628  0.2049  0.5091 -0.2821
 8929SOL    HW138249   1.523   2.050   5.678  0.1725  3.2547 -1.0812
 8929SOL    HW238250   1.660   2.099   5.673 -0.2024  1.1758 -0.7011
 8930SOL     OW38251   1.285   2.570   8.019 -0.7894  0.3203  0.3860
 8930SOL    HW138252   1.295   2.503   7.951  1.6561  0.2861  0.7934
 8930SOL    HW238253   1.342   2.538   8.089  1.2981  1.1038 -0.9793
 8931SOL     OW38254   4.166   0.365   4.687  0.1014  0.5154  0.1224
 8931SOL    HW138255   4.261   0.374   4.689  0.1532 -0.7175  2.7399
 8931SOL    HW238256   4.161   0.269   4.690 -2.7607  0.5829 -1.4680
 8932SOL     OW38257   2.407   0.872   8.271 -0.1914  0.2499  0.2604
 8932SOL    HW138258   2.344   0.932   8.232 -0.6748  0.7656  1.8411
 8932SOL    HW238259   2.478   0.881   8.207 -0.9810  2.7666 -0.2605
 8933SOL     OW38260   1.197   2.872   5.649 -0.3154  0.0454  0.6736
 8933SOL    HW138261   1.180   2.815   5.724  2.0246  1.4970  2.3351
 8933SOL    HW238262   1.114   2.885   5.603 -1.2896 -1.7302  1.9084
 8934SOL     OW38263   3.948   2.725   3.265 -0.0408 -0.0323 -0.0251
 8934SOL    HW138264   3.909   2.667   3.331  0.1968 -0.3541 -0.1671
 8934SOL    HW238265   3.992   2.663   3.206  3.0821  1.2115  1.0560
 8935SOL     OW38266   4.442   3.500   7.838 -0.1606 -0.4724  0.1919
 8935SOL    HW138267   4.516   3.507   7.899 -0.4558 -1.9951  0.7475
 8935SOL    HW238268   4.451   3.590   7.809  1.8625 -0.6244  0.2814
 8936SOL     OW38269   4.196   0.297  16.498 -0.3721  0.4965  0.2020
 8936SOL    HW138270   4.174   0.371  16.441  3.1917 -0.5805 -2.5191
 8936SOL    HW238271   4.135   0.311  16.571 -0.7167  1.5070 -0.2790
 8937SOL     OW38272   2.756   2.142   0.264 -0.6212  0.1228  0.0342
 8937SOL    HW138273   2.746   2.114   0.173  0.4974 -1.2942  0.3626
 8937SOL    HW238274   2.692   2.087   0.308 -2.1027 -0.7211 -3.1269
 8938SOL     OW38275   0.438   0.847   5.827 -0.1282  0.4753  0.1414
 8938SOL    HW138276   0.432   0.808   5.740  0.2958  0.0618  0.2906
 8938SOL    HW238277   0.532   0.831   5.835  0.4550  2.4225 -2.7089
 8939SOL     OW38278   2.979   3.452  10.138 -0.2053  0.2948  0.2375
 8939SOL    HW138279   2.959   3.378  10.081 -1.2506 -0.8010  2.0517
 8939SOL    HW238280   2.939   3.430  10.222 -2.1915  1.0845 -0.4990
 8940SOL     OW38281   1.877   2.973   3.461 -0.0906  0.6848  0.2770
 8940SOL    HW138282   1.875   3.012   3.373 -0.2465  0.4786  0.1903
 8940SOL    HW238283   1.933   3.029   3.514  0.0042  1.3144 -0.4796
 8941SOL     OW38284   4.543   3.998   8.359  0.0951  0.1562 -0.2323
 8941SOL    HW138285   4.577   4.074   8.407  1.4385 -0.0882 -0.7791
 8941SOL    HW238286   4.603   3.997   8.284 -0.1292 -1.3978 -0.3757
 8942SOL     OW38287   4.310   1.321   7.597  0.0452 -0.2851  0.6058
 8942SOL    HW138288   4.246   1.324   7.668  0.1444 -0.5091  0.7031
 8942SOL    HW238289   4.336   1.413   7.584 -0.4973 -0.2290 -0.0597
 8943SOL     OW38290   4.404   1.466   5.402 -0.3936  0.4647  0.2542
 8943SOL    HW138291   4.377   1.493   5.490  2.0019  0.4777  0.9929
 8943SOL    HW238292   4.493   1.502   5.398 -0.0306 -0.4844 -0.2834
 8944SOL     OW38293   3.891   4.036   5.859 -0.1426  0.4635 -0.4593
 8944SOL    HW138294   3.900   4.057   5.951  1.2172 -0.8022 -0.2983
 8944SOL    HW238295   3.864   3.944   5.853 -1.2084  0.6223  2.2055
 8945SOL     OW38296   1.731   4.637  14.054 -0.7061  0.4988 -0.1131
 8945SOL    HW138297   1.684   4.590  13.985  2.1811 -0.3563 -1.5234
 8945SOL    HW238298   1.800   4.577  14.082 -0.5176  1.6240  1.8044
 8946SOL     OW38299   2.773   0.460  14.173 -0.0404 -0.2079 -0.2503
 8946SOL    HW138300   2.687   0.488  14.205 -0.4857 -2.0199  0.0939
 8946SOL    HW238301   2.747   0.404  14.100  2.1035 -0.6655 -0.6632
 8947SOL     OW38302   2.321   3.084   5.438 -0.5190 -0.0796 -0.0126
 8947SOL    HW138303   2.337   3.047   5.525  0.2150  0.0192 -0.1079
 8947SOL    HW238304   2.391   3.057   5.379 -0.9401 -1.9374  0.3399
 8948SOL     OW38305   2.191   3.343  15.675 -0.5323  0.0524 -0.2276
 8948SOL    HW138306   2.279   3.374  15.694 -0.9867 -0.5013  2.7559
 8948SOL    HW238307   2.200   3.252  15.648  4.0845  0.2492  0.7290
 8949SOL     OW38308   1.467   1.276   8.374  0.6226 -0.0221 -0.1795
 8949SOL    HW138309   1.460   1.340   8.445  2.3790  0.0161 -0.0332
 8949SOL    HW238310   1.383   1.232   8.385  0.7272  0.1060  1.1459
 8950SOL     OW38311   2.109   3.208  16.887  0.6650 -0.3340  0.0473
 8950SOL    HW138312   2.092   3.226  16.794 -0.6146 -2.1391 -0.0595
 8950SOL    HW238313   2.034   3.253  16.926 -0.1555 -4.0237  2.7176
 8951SOL     OW38314   1.788   4.336  16.135 -0.0147  0.3754  0.3646
 8951SOL    HW138315   1.693   4.329  16.132  0.2698 -4.0547  1.0077
 8951SOL    HW238316   1.798   4.299  16.223 -0.2302  0.5493  0.4607
 8952SOL     OW38317   4.231   2.178   4.784 -0.0927  0.1753  0.3656
 8952SOL    HW138318   4.197   2.089   4.782 -0.5302  0.2867  3.1878
 8952SOL    HW238319   4.264   2.187   4.694  1.3547  0.7500  0.9467
 8953SOL     OW38320   1.775   2.406   8.756  0.3186  0.5615 -0.3931
 8953SOL    HW138321   1.711   2.350   8.800  0.7020 -0.2871 -0.9023
 8953SOL    HW238322   1.814   2.355   8.685  0.2271 -0.1275  0.0564
 8954SOL     OW38323   2.619   1.721   9.586  0.3902 -0.3952 -0.1074
 8954SOL    HW138324   2.540   1.767   9.611  0.7486  0.0882  0.1317
 8954SOL    HW238325   2.582   1.638   9.554 -1.9559  1.1703 -1.3727
 8955SOL     OW38326   0.408   0.847   6.491 -0.4808  0.3298  0.1783
 8955SOL    HW138327   0.484   0.845   6.549 -1.5359 -0.2832  1.5106
 8955SOL    HW238328   0.359   0.769   6.515  1.2037 -0.5638  0.7230
 8956SOL     OW38329   0.815   0.854   3.513  0.4896 -0.0489  0.4836
 8956SOL    HW138330   0.735   0.829   3.560  1.4291 -1.8325  1.1423
 8956SOL    HW238331   0.865   0.896   3.584  0.5651 -0.1187  0.4716
 8957SOL     OW38332   0.449   0.571  15.774  0.7316 -0.3040 -0.1624
 8957SOL    HW138333   0.538   0.568  15.737  0.7597  1.0720 -0.1944
 8957SOL    HW238334   0.444   0.667  15.781  0.4265 -0.4514  1.6814
 8958SOL     OW38335   1.669   4.642   9.193  0.3863  0.2383  0.0114
 8958SOL    HW138336   1.762   4.619   9.194  0.1555 -0.6853  0.5726
 8958SOL    HW238337   1.644   4.617   9.105  3.4210  1.0673 -1.0869
 8959SOL     OW38338   0.214   1.908   9.035 -0.2032 -0.3931 -0.5021
 8959SOL    HW138339   0.211   1.812   9.032  2.4107 -0.5214  0.7677
 8959SOL    HW238340   0.223   1.936   8.944 -0.9693  0.5721 -0.2769
 8960SOL     OW38341   3.282   4.351  15.429  0.2086  0.0634 -0.1447
 8960SOL    HW138342   3.292   4.387  15.341 -1.9283  0.9070 -0.0473
 8960SOL    HW238343   3.368   4.367  15.468  0.7591 -0.4015 -1.1524
 8961SOL     OW38344   3.255   0.463   9.615 -0.0457  0.2012  0.2052
 8961SOL    HW138345   3.275   0.404   9.687 -3.6964 -1.2368  0.0293
 8961SOL    HW238346   3.171   0.502   9.640 -2.0062 -3.2382 -1.0048
 8962SOL     OW38347   1.810   0.980   5.827  0.4879 -0.1446 -0.1644
 8962SOL    HW138348   1.787   0.961   5.737  0.1867  1.2917 -0.3870
 8962SOL    HW238349   1.721   0.983   5.861  0.8855 -0.7602  0.9454
 8963SOL     OW38350   3.716   2.619   7.614 -0.2953 -0.1632 -0.1122
 8963SOL    HW138351   3.705   2.535   7.657  0.0372 -1.0641 -1.7760
 8963SOL    HW238352   3.776   2.598   7.542  0.4533  0.3535  0.3630
 8964SOL     OW38353   1.466   2.045   0.741  0.5084  0.1584 -0.6103
 8964SOL    HW138354   1.479   1.970   0.800 -3.0575 -1.7982 -2.3241
 8964SOL    HW238355   1.554   2.049   0.704  0.3624 -0.6766 -1.0373
 8965SOL     OW38356   0.774   1.585  11.921 -0.3900  0.2486 -0.0456
 8965SOL    HW138357   0.681   1.579  11.944  0.5988 -1.9420  3.3239
 8965SOL    HW238358   0.784   1.668  11.873  0.7896 -0.6255 -1.3220
 8966SOL     OW38359   0.468   3.181  17.137  0.0517  0.1055 -0.7363
 8966SOL    HW138360   0.550   3.229  17.143 -0.8303  1.6685 -1.2168
 8966SOL    HW238361   0.478   3.111  17.201 -0.5059  0.9050  0.2219
 8967SOL     OW38362   1.151   2.088   1.774 -0.1634 -0.3288  0.0242
 8967SOL    HW138363   1.090   2.150   1.813 -0.6302 -1.5838  1.3391
 8967SOL    HW238364   1.234   2.120   1.809 -0.8544  1.9394 -0.4826
 8968SOL     OW38365   0.508   2.754   1.537 -0.6947 -0.2214  0.0553
 8968SOL    HW138366   0.564   2.684   1.570 -0.9847 -0.2019  0.5876
 8968SOL    HW238367   0.447   2.708   1.481 -0.4012 -0.0976 -0.3630
 8969SOL     OW38368   4.009   1.656   2.053 -0.1437 -0.1066 -0.2071
 8969SOL    HW138369   3.960   1.726   2.096 -0.0449 -0.5921  0.7136
 8969SOL    HW238370   4.087   1.654   2.109 -1.0793  2.1209  1.1511
 8970SOL     OW38371   0.898   1.748   4.147 -0.7233 -0.2038  0.3160
 8970SOL    HW138372   0.813   1.738   4.190 -1.8250  0.7522 -1.6026
 8970SOL    HW238373   0.940   1.797   4.217 -1.5052  2.1541 -0.8470
 8971SOL     OW38374   3.633   4.625   9.573 -0.5830  0.5901 -0.1935
 8971SOL    HW138375   3.588   4.709   9.564 -0.8077  0.2706 -2.0160
 8971SOL    HW238376   3.722   4.642   9.542 -0.2602  1.6680  1.3031
 8972SOL     OW38377   3.920   2.093   1.985 -0.6763 -0.6080  0.5997
 8972SOL    HW138378   3.938   2.174   1.939 -2.2991 -1.8084 -2.1054
 8972SOL    HW238379   3.837   2.112   2.029 -0.5026 -0.6936  0.9723
 8973SOL     OW38380   2.595   1.209   5.187  0.0249  0.3794  0.0710
 8973SOL    HW138381   2.596   1.120   5.154  0.4336  1.0595 -1.7633
 8973SOL    HW238382   2.504   1.232   5.167 -1.0073 -1.9748  2.1030
 8974SOL     OW38383   1.212   2.264   8.515 -0.2275 -0.1635 -0.4518
 8974SOL    HW138384   1.273   2.291   8.583 -0.8204 -0.1743  0.0835
 8974SOL    HW238385   1.265   2.215   8.452  0.2951 -0.6208  0.3464
 8975SOL     OW38386   0.967   0.084   9.612 -0.2699  0.0828  0.2029
 8975SOL    HW138387   0.990   0.145   9.542 -2.3925  0.6323 -0.0276
 8975SOL    HW238388   1.007   0.120   9.691 -0.9405 -1.3327  1.1961
 8976SOL     OW38389   0.833   1.806  12.903  0.3543 -0.2270  0.0641
 8976SOL    HW138390   0.836   1.887  12.953 -3.1886 -0.8129  1.2714
 8976SOL    HW238391   0.781   1.752  12.963 -0.6170 -1.5925 -1.9724
 8977SOL     OW38392   3.705   0.653   9.849 -0.1983  0.5257 -0.3001
 8977SOL    HW138393   3.679   0.744   9.831  0.6978  0.5774 -1.3667
 8977SOL    HW238394   3.790   0.662   9.892 -0.2157 -1.7071  0.2031
 8978SOL     OW38395   2.096   0.113  16.851  0.0863 -0.3591  0.5557
 8978SOL    HW138396   2.168   0.134  16.910  0.2774  1.1405 -0.2074
 8978SOL    HW238397   2.134   0.113  16.763 -0.8173  0.6001  0.1575
 8979SOL     OW38398   3.992   1.869   9.085  0.3205 -0.5547 -0.0104
 8979SOL    HW138399   4.024   1.933   9.149  1.4418 -0.7833 -0.3316
 8979SOL    HW238400   4.011   1.922   9.008  2.0588 -1.9641 -0.5651
 8980SOL     OW38401   2.325   4.467   7.575 -0.3052 -0.9919  0.4510
 8980SOL    HW138402   2.401   4.522   7.596  1.8988 -3.2545 -1.6441
 8980SOL    HW238403   2.356   4.413   7.503  0.6978  0.9916 -0.6037
 8981SOL     OW38404   0.127   3.919   0.726  0.1050 -0.0304 -0.0009
 8981SOL    HW138405   0.063   3.976   0.683 -0.9370 -1.5787 -0.5210
 8981SOL    HW238406   0.092   3.921   0.815  0.3218 -2.0628  0.1367
 8982SOL     OW38407   2.901   0.699   9.002  0.2561  0.0572 -0.3796
 8982SOL    HW138408   2.911   0.774   9.061 -0.9402  0.7623 -1.0925
 8982SOL    HW238409   2.917   0.738   8.916  0.7864  0.4368 -0.1140
 8983SOL     OW38410   4.032   0.457   9.596  0.4851 -0.4167 -0.7642
 8983SOL    HW138411   4.109   0.443   9.541  0.7775  0.0381 -0.4646
 8983SOL    HW238412   4.071   0.506   9.668 -1.1375 -2.0691  1.2560
 8984SOL     OW38413   3.902   3.056   4.822  0.0508 -0.3902  0.4055
 8984SOL    HW138414   3.812   3.052   4.792  0.4465 -0.0889 -0.8159
 8984SOL    HW238415   3.904   3.007   4.904  0.6091 -2.4728 -0.8558
 8985SOL     OW38416   2.322   4.088   9.356 -0.0800  0.0805  0.3702
 8985SOL    HW138417   2.356   4.171   9.390 -0.9668  0.4817  0.2695
 8985SOL    HW238418   2.291   4.111   9.268  2.5108  0.2207 -0.5148
 8986SOL     OW38419   4.493   2.582   2.199  0.2599 -0.2747 -0.2782
 8986SOL    HW138420   4.535   2.666   2.221  0.8911 -1.2262  2.2109
 8986SOL    HW238421   4.458   2.554   2.283 -0.5911 -1.7897 -1.1453
 8987SOL     OW38422   3.596   3.410   2.955 -0.9875 -0.1467 -0.1907
 8987SOL    HW138423   3.651   3.486   2.973 -0.1417 -1.3974  2.4879
 8987SOL    HW238424   3.603   3.366   3.040  0.9412 -1.2726 -0.9291
 8988SOL     OW38425   2.659   0.301   6.190  0.4000  0.9693 -0.2131
 8988SOL    HW138426   2.651   0.217   6.235  0.4888  0.4807 -1.0987
 8988SOL    HW238427   2.738   0.286   6.138  0.4762  0.2748  0.1046
 8989SOL     OW38428   3.280   3.081  16.881 -0.1992  0.2607  0.1002
 8989SOL    HW138429   3.274   3.113  16.971  1.2111 -1.4231  0.7857
 8989SOL    HW238430   3.331   3.001  16.891 -1.9559 -1.0258 -1.2384
 8990SOL     OW38431   1.182   1.784  15.990 -0.0756  0.1899 -0.1928
 8990SOL    HW138432   1.109   1.802  16.049  1.1337  0.1245  1.3133
 8990SOL    HW238433   1.155   1.695  15.967  1.3722  0.0176 -1.2164
 8991SOL     OW38434   1.969   0.326   7.253 -0.1921 -0.6561 -0.0007
 8991SOL    HW138435   1.979   0.262   7.183 -2.0472 -0.5944 -0.3268
 8991SOL    HW238436   1.875   0.340   7.244 -0.2248 -0.3589  0.7922
 8992SOL     OW38437   1.718   3.165   5.277  0.3102  0.7397 -0.7752
 8992SOL    HW138438   1.622   3.155   5.275  0.6350 -3.1286  2.8078
 8992SOL    HW238439   1.745   3.104   5.346  1.0780  0.9306 -0.9130
 8993SOL     OW38440   1.705   0.995  15.884  0.0115 -0.1983  0.3661
 8993SOL    HW138441   1.798   1.011  15.905  0.4734 -2.0714 -0.2512
 8993SOL    HW238442   1.719   0.904  15.860  2.5778 -0.3679  2.4311
 8994SOL     OW38443   2.093   0.478   5.706  0.6111  0.3138 -0.0206
 8994SOL    HW138444   2.167   0.419   5.688 -0.0302 -0.0287 -1.5591
 8994SOL    HW238445   2.093   0.478   5.801  0.8418  0.1885 -0.0218
 8995SOL     OW38446   0.579   4.256  11.879  0.5933 -0.6253  0.5383
 8995SOL    HW138447   0.663   4.258  11.833  0.9995  0.1984  1.3073
 8995SOL    HW238448   0.588   4.173  11.926  2.0928  0.2020  1.6843
 8996SOL     OW38449   0.154   1.173   8.068 -0.6858  0.1953 -0.4475
 8996SOL    HW138450   0.193   1.259   8.051 -0.9716  0.8740  2.4557
 8996SOL    HW238451   0.161   1.172   8.163 -0.1789  1.3665 -0.4750
 8997SOL     OW38452   1.670   4.661   8.326 -0.7073 -0.5104 -0.1227
 8997SOL    HW138453   1.707   4.579   8.359  1.2215  0.3138 -0.2588
 8997SOL    HW238454   1.713   4.683   8.244  0.6400 -1.6245  0.2775
 8998SOL     OW38455   2.124   1.709  15.803  0.4713 -0.2678 -0.2164
 8998SOL    HW138456   2.087   1.695  15.716  3.0881 -1.1340 -1.2080
 8998SOL    HW238457   2.200   1.651  15.808  0.3656 -0.2772  1.3261
 8999SOL     OW38458   2.834   4.148   9.843 -0.3933  0.6097 -0.7067
 8999SOL    HW138459   2.884   4.074   9.877 -1.2005  0.2122 -0.3744
 8999SOL    HW238460   2.884   4.159   9.762  1.3951  0.7613  0.4076
 9000SOL     OW38461   4.212   0.180   3.129 -1.1362 -0.6790 -0.0524
 9000SOL    HW138462   4.177   0.212   3.046  3.0521 -1.1883 -2.0073
 9000SOL    HW238463   4.224   0.264   3.173 -2.6484 -0.9616  0.8742
 9001SOL     OW38464   1.589   2.839   9.294  0.2491 -0.2393  0.1970
 9001SOL    HW138465   1.503   2.847   9.335  0.1165 -1.2692  0.1277
 9001SOL    HW238466   1.555   2.812   9.208 -0.6704 -0.3375  0.5951
 9002SOL     OW38467   3.785   4.467   1.140  0.0520  0.1986  0.1013
 9002SOL    HW138468   3.845   4.417   1.196 -1.0043  1.5880  2.4536
 9002SOL    HW238469   3.841   4.447   1.065  0.0430 -0.7285  0.3406
 9003SOL     OW38470   3.625   3.628  16.088 -0.5187 -0.8067  0.0345
 9003SOL    HW138471   3.674   3.634  16.006 -0.3593 -2.4006  0.0095
 9003SOL    HW238472   3.687   3.656  16.155  1.9208 -0.6358 -2.2929
 9004SOL     OW38473   1.889   0.778   2.690  0.0162 -0.1903 -0.3227
 9004SOL    HW138474   1.884   0.693   2.645 -1.1189 -1.0864  1.5136
 9004SOL    HW238475   1.844   0.765   2.773  2.7658  2.9112  1.6842
 9005SOL     OW38476   0.079   2.920   3.553 -0.0235 -0.3527 -0.2241
 9005SOL    HW138477   0.012   2.891   3.615  0.0146  0.5280  0.2362
 9005SOL    HW238478   0.129   2.838   3.550  2.1682  0.9886 -0.1550
 9006SOL     OW38479   2.387   0.714   5.145 -0.5976 -0.7258 -0.2147
 9006SOL    HW138480   2.340   0.648   5.094  1.1217 -2.3621  0.2872
 9006SOL    HW238481   2.477   0.714   5.112 -1.0435  0.1836 -1.4045
 9007SOL     OW38482   3.619   0.180   0.961 -0.1660  0.0246  0.1120
 9007SOL    HW138483   3.605   0.271   0.988 -0.3618 -0.4010  1.4631
 9007SOL    HW238484   3.552   0.133   1.010  0.3350  0.8028  1.5384
 9008SOL     OW38485   3.019   3.951   9.519  0.6136  0.5950 -0.1791
 9008SOL    HW138486   3.056   4.039   9.520  0.3599  0.6789  1.0411
 9008SOL    HW238487   2.927   3.975   9.529  1.3707  3.0572  0.7768
 9009SOL     OW38488   3.983   1.703  17.535  0.5783 -0.0758 -0.1393
 9009SOL    HW138489   3.897   1.686  17.574  0.4606 -0.1839 -0.4462
 9009SOL    HW238490   3.967   1.760  17.459  0.2728 -0.2200 -0.1829
 9010SOL     OW38491   3.971   2.744   0.531 -0.9863  0.1481  0.2779
 9010SOL    HW138492   4.027   2.749   0.609  0.9989  1.1826 -1.2095
 9010SOL    HW238493   3.967   2.835   0.503  0.4139  0.3788  0.7944
 9011SOL     OW38494   2.139   0.262   6.795 -0.2216  0.4369  0.2236
 9011SOL    HW138495   2.230   0.273   6.769  0.0796 -1.2386  0.5571
 9011SOL    HW238496   2.127   0.333   6.858 -1.7147  0.4626 -0.0872
 9012SOL     OW38497   2.293   2.743   7.281  0.0941 -0.3225  0.0867
 9012SOL    HW138498   2.232   2.795   7.334  1.4721  2.8393 -1.4415
 9012SOL    HW238499   2.247   2.662   7.260 -2.3389  1.3573 -1.1699
 9013SOL     OW38500   0.942   2.407   7.787  0.6286  0.4131 -0.0105
 9013SOL    HW138501   0.933   2.465   7.863 -0.0521  0.4842 -0.1419
 9013SOL    HW238502   1.015   2.444   7.738  0.9609 -0.5366 -0.2194
 9014SOL     OW38503   3.113   2.688  12.207 -1.1686 -0.0208 -0.4574
 9014SOL    HW138504   3.091   2.599  12.181  0.6693 -1.6758  3.6580
 9014SOL    HW238505   3.099   2.697  12.302  1.3255  1.2168 -0.1773
 9015SOL     OW38506   1.258   4.327   7.170  0.5175 -0.4702 -0.5214
 9015SOL    HW138507   1.343   4.286   7.191  1.3361  0.6665 -1.6037
 9015SOL    HW238508   1.193   4.257   7.176  1.9609 -1.5956  1.8087
 9016SOL     OW38509   1.755   3.635   5.248  0.3289  0.2558 -0.4581
 9016SOL    HW138510   1.785   3.559   5.198 -1.4084 -0.6370 -0.1456
 9016SOL    HW238511   1.734   3.579   5.324 -0.6824 -0.1639 -1.0465
 9017SOL     OW38512   3.000   1.540   4.005  0.0326  0.3889 -0.1525
 9017SOL    HW138513   2.911   1.543   3.971  0.2084  1.9564 -0.4529
 9017SOL    HW238514   2.989   1.573   4.094 -1.5585 -0.4219 -0.0516
 9018SOL     OW38515   2.923   3.253   6.049 -0.0376  0.4099  0.1088
 9018SOL    HW138516   2.872   3.256   6.130  3.8104 -0.0801  2.5606
 9018SOL    HW238517   2.971   3.333   6.070  0.3575  0.0611  0.5263
 9019SOL     OW38518   4.574   1.105   0.295 -0.1745 -0.0406  0.1680
 9019SOL    HW138519   4.628   1.045   0.346 -0.2003 -0.2677 -0.0754
 9019SOL    HW238520   4.486   1.071   0.309 -0.6691  0.7023 -1.1025
 9020SOL     OW38521   3.258   1.368   8.740 -0.4025  0.2750  0.3050
 9020SOL    HW138522   3.240   1.403   8.828 -2.2301  2.2694 -0.8793
 9020SOL    HW238523   3.342   1.414   8.731  1.0600 -2.4720 -0.0195
 9021SOL     OW38524   2.786   3.208   3.788  0.3479  0.2616 -0.1238
 9021SOL    HW138525   2.748   3.124   3.811 -0.9600  0.2270 -2.4617
 9021SOL    HW238526   2.867   3.188   3.835 -0.4834 -0.4666  1.0021
 9022SOL     OW38527   1.240   4.658  11.533  0.5965  0.2236 -0.0908
 9022SOL    HW138528   1.164   4.601  11.544  0.4135  0.7915  1.5421
 9022SOL    HW238529   1.213   0.009  11.590  0.7512  0.0886  0.1506
 9023SOL     OW38530   0.889   0.883   7.324  0.1366  0.4777 -0.9205
 9023SOL    HW138531   0.810   0.937   7.312 -0.9495 -1.4557 -2.5881
 9023SOL    HW238532   0.890   0.875   7.419 -3.0411 -0.0075 -0.9201
 9024SOL     OW38533   0.485   4.032  11.080  0.2728 -0.5482 -0.5583
 9024SOL    HW138534   0.474   3.967  11.150  0.9536  0.0262  0.0797
 9024SOL    HW238535   0.394   4.060  11.074  0.8824  1.8711  1.8580
 9025SOL     OW38536   0.306   3.396   0.780  0.5153  0.0027 -0.1542
 9025SOL    HW138537   0.343   3.366   0.863 -2.1735 -1.8255  0.4069
 9025SOL    HW238538   0.296   3.490   0.798  1.3330  0.3448 -1.5304
 9026SOL     OW38539   1.507   1.778   4.546 -0.1782 -0.1018  0.3836
 9026SOL    HW138540   1.579   1.751   4.489  0.3274  0.4423  0.7669
 9026SOL    HW238541   1.546   1.844   4.604 -1.5656  0.2788  0.8961
 9027SOL     OW38542   0.286   4.456   3.308  0.0216 -0.1070  0.1916
 9027SOL    HW138543   0.307   4.535   3.256 -1.0162  0.5052  0.7138
 9027SOL    HW238544   0.375   4.454   3.345  0.5149 -2.1295 -1.1149
 9028SOL     OW38545   2.147   2.054   7.180 -0.3746 -0.1363  0.1668
 9028SOL    HW138546   2.091   2.067   7.256 -2.0192  0.3999 -1.1308
 9028SOL    HW238547   2.192   1.975   7.209  0.2445  0.1006 -0.1616
 9029SOL     OW38548   1.230   0.335   9.995 -0.0031  0.2092 -0.1566
 9029SOL    HW138549   1.315   0.373  10.015 -0.0461 -0.4348  1.2282
 9029SOL    HW238550   1.242   0.245  10.025  1.2452 -0.5648 -2.9219
 9030SOL     OW38551   2.242   2.648   5.358  0.1804 -0.1387  0.1712
 9030SOL    HW138552   2.248   2.713   5.287  2.8532  0.0303  0.5731
 9030SOL    HW238553   2.248   2.565   5.311 -2.2753  1.0612 -2.3287
 9031SOL     OW38554   0.742   0.151   5.901 -0.5229 -0.1657 -0.2645
 9031SOL    HW138555   0.788   0.206   5.964 -1.5736  0.0855  0.2743
 9031SOL    HW238556   0.791   0.163   5.819 -0.7009  2.3093  0.0090
 9032SOL     OW38557   4.040   2.234   2.687  0.5709  0.3169 -0.1869
 9032SOL    HW138558   4.118   2.179   2.678 -0.5452 -1.6767  2.4446
 9032SOL    HW238559   4.032   2.260   2.595  1.5506 -0.8568 -0.6156
 9033SOL     OW38560   2.089   2.779   7.075  0.0239  0.0949 -0.2336
 9033SOL    HW138561   2.074   2.848   7.139 -0.4213  0.3842 -0.6477
 9033SOL    HW238562   2.146   2.833   7.020  0.1005  0.2608  0.0111
 9034SOL     OW38563   1.165   4.261   4.966  0.0962 -0.5258 -0.0640
 9034SOL    HW138564   1.206   4.189   4.918  2.7564 -1.8266  4.1280
 9034SOL    HW238565   1.205   4.240   5.051 -0.9026  1.7673  0.9539
 9035SOL     OW38566   4.529   2.846  13.459  0.0952 -0.4140  0.0272
 9035SOL    HW138567   4.472   2.788  13.511  2.9056 -2.2060  1.1290
 9035SOL    HW238568   4.595   2.781  13.434 -0.4706 -0.3108 -1.7155
 9036SOL     OW38569   1.185   1.199  12.084  0.3250  0.4568  0.3187
 9036SOL    HW138570   1.164   1.114  12.045 -1.9925  1.1585  0.0642
 9036SOL    HW238571   1.107   1.251  12.066 -1.0085 -1.0941  1.6026
 9037SOL     OW38572   3.488   3.958  16.080  0.5904 -0.0281 -0.3382
 9037SOL    HW138573   3.489   4.052  16.100 -0.5751 -0.2165  0.6066
 9037SOL    HW238574   3.546   3.934  16.153  0.3682 -1.3356 -0.5935
 9038SOL     OW38575   2.220   3.971  12.280 -0.0238 -0.2814 -0.2130
 9038SOL    HW138576   2.165   3.945  12.206 -1.0407 -0.7969  0.7255
 9038SOL    HW238577   2.157   3.978  12.352  1.6663  0.2410  1.2221
 9039SOL     OW38578   3.602   4.618  14.799  0.3911 -0.1040  0.3829
 9039SOL    HW138579   3.671   4.579  14.746 -1.9473 -1.6418 -1.5229
 9039SOL    HW238580   3.630   4.707  14.819  1.7722  0.0519 -2.2465
 9040SOL     OW38581   2.529   3.798   2.125 -0.4278 -0.0273  0.6344
 9040SOL    HW138582   2.573   3.829   2.204 -0.6239  2.5719 -0.3045
 9040SOL    HW238583   2.515   3.884   2.086  1.8581  0.7190  1.4783
 9041SOL     OW38584   3.595   1.573  11.813 -0.2534 -0.1878  0.0532
 9041SOL    HW138585   3.546   1.653  11.794  0.2436  0.5535  1.8470
 9041SOL    HW238586   3.660   1.620  11.865 -1.7301  1.3984  0.4837
 9042SOL     OW38587   4.585   1.535   9.976  0.6310 -0.0638  0.3377
 9042SOL    HW138588   4.625   1.605   9.924 -0.0910  1.2211  1.5043
 9042SOL    HW238589   4.658   1.500  10.026 -1.2312 -2.1742  1.5670
 9043SOL     OW38590   2.732   1.421   5.024  0.0760  0.2531 -0.2904
 9043SOL    HW138591   2.641   1.422   5.054  0.1308 -0.3403 -0.1122
 9043SOL    HW238592   2.759   1.511   5.005  0.5531  0.4456  1.2797
 9044SOL     OW38593   0.736   1.579  15.524  0.2426 -0.5037 -0.1845
 9044SOL    HW138594   0.826   1.547  15.530 -0.3393 -2.3412 -1.2950
 9044SOL    HW238595   0.723   1.627  15.606  0.2832 -1.3298  0.3024
 9045SOL     OW38596   1.459   1.047  16.551  0.0803 -0.2014 -0.0383
 9045SOL    HW138597   1.500   1.024  16.468  0.5307 -2.1705  0.7187
 9045SOL    HW238598   1.526   1.101  16.594 -3.6934  1.5622  3.5924
 9046SOL     OW38599   1.674   4.509   6.968 -0.1931 -0.3512 -0.1540
 9046SOL    HW138600   1.612   4.506   6.895 -1.7381  0.0122  1.1361
 9046SOL    HW238601   1.750   4.508   6.910  0.2396 -1.7047  0.4271
 9047SOL     OW38602   4.703   2.901   6.506  0.0226 -0.2817 -0.1138
 9047SOL    HW138603   4.626   2.883   6.560  0.1484 -0.8978 -0.1354
 9047SOL    HW238604   0.038   2.840   6.554 -1.1249 -0.7059  0.7167
 9048SOL     OW38605   3.183   2.376   2.357  0.4339 -0.4124 -0.6015
 9048SOL    HW138606   3.177   2.323   2.437 -1.3410 -1.0632 -1.1646
 9048SOL    HW238607   3.122   2.338   2.294 -0.7419 -0.6190  0.6590
 9049SOL     OW38608   0.540   2.150  10.752  0.1517  0.4822 -0.7915
 9049SOL    HW138609   0.446   2.145  10.767  0.1027  3.7999 -0.0580
 9049SOL    HW238610   0.551   2.167  10.658  1.1038  1.3176 -0.5341
 9050SOL     OW38611   3.133   0.662   2.813  0.1207  0.0072  0.2311
 9050SOL    HW138612   3.110   0.666   2.720 -1.0457 -0.2159  0.5029
 9050SOL    HW238613   3.051   0.639   2.858 -1.1892  2.9593 -0.6141
 9051SOL     OW38614   2.336   4.525   5.075  0.0002  1.0234  0.5272
 9051SOL    HW138615   2.295   4.567   5.000  2.2717  1.1739 -0.6228
 9051SOL    HW238616   2.355   4.585   5.147  0.2820  1.0150  0.4582
 9052SOL     OW38617   1.576   4.232   6.846 -0.9261  0.2813 -0.0636
 9052SOL    HW138618   1.497   4.285   6.843 -1.2541 -0.0069  4.1371
 9052SOL    HW238619   1.530   4.148   6.840 -0.2215 -0.1557  0.5376
 9053SOL     OW38620   0.465   2.787   2.405 -0.2184 -0.0103  0.4416
 9053SOL    HW138621   0.513   2.842   2.467  0.3546  0.6024 -0.5447
 9053SOL    HW238622   0.376   2.810   2.433 -0.4121 -1.0520  0.6684
 9054SOL     OW38623   1.147   0.940   1.311  0.4752 -0.6057 -0.0389
 9054SOL    HW138624   1.158   0.858   1.263  0.8350 -0.3820 -0.3445
 9054SOL    HW238625   1.141   0.906   1.400  2.7460 -0.2564  0.2411
 9055SOL     OW38626   0.520   0.792  14.486  0.4647 -0.5002 -0.9689
 9055SOL    HW138627   0.524   0.843  14.405  1.3510  0.8943 -0.0404
 9055SOL    HW238628   0.454   0.843  14.534 -0.8378 -2.9922 -0.0914
 9056SOL     OW38629   4.087   3.456   3.430 -0.4767  0.3694 -0.1779
 9056SOL    HW138630   4.115   3.449   3.339 -0.7898  1.9405 -0.4031
 9056SOL    HW238631   4.036   3.377   3.445 -0.1567 -0.3858 -3.0422
 9057SOL     OW38632   2.751   1.553   6.241 -0.0388  0.0224  0.0267
 9057SOL    HW138633   2.701   1.560   6.159  0.4768 -0.4116 -0.3259
 9057SOL    HW238634   2.755   1.643   6.274  1.2559 -0.5592  1.4491
 9058SOL     OW38635   2.909   3.204   2.580  0.3208  0.1136  0.2709
 9058SOL    HW138636   2.886   3.131   2.522 -3.1880 -0.1989  2.0533
 9058SOL    HW238637   2.856   3.189   2.658 -0.0390  1.7001  0.3330
 9059SOL     OW38638   1.440   2.604   1.257 -0.0082  0.3686 -0.2519
 9059SOL    HW138639   1.486   2.680   1.292 -1.3967  0.7987  0.6371
 9059SOL    HW238640   1.427   2.634   1.167  3.2874  0.7517 -0.6014
 9060SOL     OW38641   1.385   2.218   4.611  0.4028 -0.6832  0.1132
 9060SOL    HW138642   1.400   2.229   4.705 -1.3424  2.0643  0.0544
 9060SOL    HW238643   1.468   2.177   4.589 -0.9055 -2.7704 -0.9483
 9061SOL     OW38644   4.315   1.304   9.066 -0.3514 -0.0858  0.3067
 9061SOL    HW138645   4.400   1.270   9.038  0.5870  1.6897  0.9824
 9061SOL    HW238646   4.253   1.236   9.039 -0.5007  0.2730 -0.2478
 9062SOL     OW38647   0.957   1.439  14.225 -0.0121 -0.0974  0.1932
 9062SOL    HW138648   1.012   1.518  14.224 -0.1177 -0.0307 -0.0934
 9062SOL    HW238649   0.966   1.406  14.315  0.5004 -2.7392 -0.8359
 9063SOL     OW38650   1.588   4.346  11.759  0.3536  0.4240  0.4557
 9063SOL    HW138651   1.541   4.289  11.698  2.4605 -1.7122  0.8115
 9063SOL    HW238652   1.657   4.284  11.783 -1.2503 -1.8930 -0.8635
 9064SOL     OW38653   1.004   2.880   0.972 -0.2650  0.3973 -0.0762
 9064SOL    HW138654   0.931   2.931   0.937  0.5639  1.9061  0.3918
 9064SOL    HW238655   1.072   2.934   0.931 -0.9567  0.6785 -0.8526
 9065SOL     OW38656   3.126   1.445   2.794  0.2421  0.2649 -0.2146
 9065SOL    HW138657   3.217   1.462   2.770  0.4097 -1.1706 -0.6320
 9065SOL    HW238658   3.075   1.495   2.730 -0.3607  0.0939  0.1234
 9066SOL     OW38659   4.501   1.785   1.873 -0.4362 -0.0644 -0.2036
 9066SOL    HW138660   4.522   1.777   1.780 -1.1569 -0.4754 -0.3277
 9066SOL    HW238661   4.534   1.874   1.887  1.3974 -0.8293  0.3274
 9067SOL     OW38662   0.939   4.452   8.058  0.1901  0.1266  0.2407
 9067SOL    HW138663   0.983   4.381   8.105  1.4384  1.0100  0.3876
 9067SOL    HW238664   1.020   4.465   8.008 -0.2732  1.7275 -0.0754
 9068SOL     OW38665   3.219   3.680   8.311 -0.4373 -0.4339  0.2846
 9068SOL    HW138666   3.200   3.740   8.383  0.3081 -0.5276  0.5591
 9068SOL    HW238667   3.198   3.597   8.355 -1.6006 -1.1093 -1.5457
 9069SOL     OW38668   1.072   3.172   3.638  0.6810  0.0191 -0.1959
 9069SOL    HW138669   1.120   3.255   3.646  0.0055  0.2621  1.3451
 9069SOL    HW238670   1.012   3.180   3.712 -0.2355  1.7720 -1.1187
 9070SOL     OW38671   4.130   1.152   2.289 -0.6426  0.0328 -0.3516
 9070SOL    HW138672   4.132   1.084   2.356  1.0133  0.1533 -0.2663
 9070SOL    HW238673   4.142   1.097   2.211 -1.2626  0.7878 -0.9785
 9071SOL     OW38674   2.028   1.134  14.995 -0.0865  0.0028  0.4575
 9071SOL    HW138675   2.000   1.052  15.036  0.8781 -0.4252  0.2506
 9071SOL    HW238676   2.122   1.126  15.006 -0.2783 -2.1263  0.5919
 9072SOL     OW38677   3.353   2.019   5.406 -1.0786 -0.1757 -0.8356
 9072SOL    HW138678   3.345   2.091   5.344  3.2314  0.0751 -1.0674
 9072SOL    HW238679   3.273   1.968   5.392 -1.4913 -0.5147  2.6045
 9073SOL     OW38680   2.941   4.460   2.625 -0.2704 -0.2834 -0.8420
 9073SOL    HW138681   2.898   4.516   2.560 -2.1824 -2.0135 -1.0860
 9073SOL    HW238682   3.028   4.457   2.587  0.9884  2.8884  1.7608
 9074SOL     OW38683   0.441   3.287   6.541  0.2621 -0.3163  0.4750
 9074SOL    HW138684   0.422   3.381   6.545 -0.2147 -0.5707  3.6417
 9074SOL    HW238685   0.465   3.285   6.448  2.3694  1.2270  0.9747
 9075SOL     OW38686   1.923   1.092   2.745  0.3648 -0.1306 -0.5910
 9075SOL    HW138687   1.835   1.080   2.779  0.6352  0.0358  0.1692
 9075SOL    HW238688   1.942   1.001   2.723 -2.1712 -1.1123  1.3568
 9076SOL     OW38689   3.185   0.177   9.974 -0.3736 -0.0081  0.3035
 9076SOL    HW138690   3.259   0.136  10.018 -0.2543 -2.4235 -2.1507
 9076SOL    HW238691   3.202   0.271   9.976 -1.4798  0.1299  2.5434
 9077SOL     OW38692   3.775   1.743  10.231  0.3443 -0.0481  0.4017
 9077SOL    HW138693   3.691   1.760  10.188  0.0237 -0.1902  0.9743
 9077SOL    HW238694   3.757   1.793  10.310  1.6281  0.0064  0.6609
 9078SOL     OW38695   3.352   3.822   4.675  0.2705 -0.1543 -0.8428
 9078SOL    HW138696   3.380   3.872   4.751  1.2109 -0.2030 -1.1503
 9078SOL    HW238697   3.257   3.827   4.689  0.5197  0.6157  0.5208
 9079SOL     OW38698   1.071   2.808   0.358 -0.9245  0.1748 -0.3384
 9079SOL    HW138699   1.115   2.874   0.305 -0.8239  1.3964  1.2689
 9079SOL    HW238700   1.128   2.734   0.338  0.4330  0.3754  2.8851
 9080SOL     OW38701   4.672   1.468   2.894  0.2574  0.1517  0.1842
 9080SOL    HW138702   0.022   1.520   2.857 -0.9136  0.2323 -1.9609
 9080SOL    HW238703   4.708   1.430   2.973  1.5398  0.3042 -0.3233
 9081SOL     OW38704   3.987   0.786   9.264  0.2626 -0.2807 -0.3803
 9081SOL    HW138705   3.962   0.779   9.172  0.1370  0.4104 -0.3980
 9081SOL    HW238706   3.924   0.733   9.313 -1.4008  0.3385 -1.8757
 9082SOL     OW38707   0.492   0.409   5.853 -0.4578 -0.2549 -0.6644
 9082SOL    HW138708   0.474   0.350   5.780 -2.9584 -0.7726  0.3407
 9082SOL    HW238709   0.416   0.466   5.839 -0.5157 -0.3767 -0.8453
 9083SOL     OW38710   2.733   4.620   5.441 -0.0021 -0.8741  0.1343
 9083SOL    HW138711   2.690   4.700   5.412 -0.2899 -0.2421  2.3250
 9083SOL    HW238712   2.819   4.636   5.402 -0.0331  0.5669  0.6802
 9084SOL     OW38713   4.689   0.714   4.191  0.0595 -0.0987  0.3785
 9084SOL    HW138714   4.598   0.732   4.211  0.2946  1.1475  0.3519
 9084SOL    HW238715   4.711   0.631   4.235 -1.1052 -0.1716  0.8109
 9085SOL     OW38716   1.321   3.031   3.073  0.0345  0.1045 -0.4525
 9085SOL    HW138717   1.410   2.997   3.069  0.9372  2.5586 -1.2400
 9085SOL    HW238718   1.272   2.955   3.106 -0.7881  1.5678  1.6945
 9086SOL     OW38719   0.504   3.514   2.773 -0.5152 -0.1729  0.0347
 9086SOL    HW138720   0.463   3.432   2.746  3.1832 -1.9965 -0.1324
 9086SOL    HW238721   0.459   3.574   2.713 -0.2259 -0.0597 -0.0703
 9087SOL     OW38722   4.511   4.001   5.765  0.6541  0.4387 -0.1253
 9087SOL    HW138723   4.510   4.026   5.673  0.7529  1.4896  0.1618
 9087SOL    HW238724   4.429   4.038   5.798  0.4464  0.0342 -0.1894
 9088SOL     OW38725   2.028   1.478   7.126  0.0819  0.4606  0.5141
 9088SOL    HW138726   2.033   1.572   7.142 -1.7991  0.9873 -2.0274
 9088SOL    HW238727   2.041   1.431   7.209 -2.7428 -0.7900  0.2611
 9089SOL     OW38728   0.094   3.643   4.494 -0.2933 -0.0339 -0.1962
 9089SOL    HW138729   0.136   3.615   4.576 -0.3072 -0.3243 -0.2892
 9089SOL    HW238730   0.059   3.563   4.456  1.1999 -0.7310 -0.1184
 9090SOL     OW38731   0.752   0.873   2.048  0.4246 -0.3618  0.1039
 9090SOL    HW138732   0.755   0.784   2.083 -0.1748  0.2460  1.7232
 9090SOL    HW238733   0.735   0.837   1.961  1.0586  1.5513 -0.8020
 9091SOL     OW38734   2.946   3.490  11.960 -0.0150 -0.2546 -0.1584
 9091SOL    HW138735   2.899   3.556  12.012 -2.7714 -2.4001  0.0559
 9091SOL    HW238736   3.010   3.543  11.913  0.7023 -0.1131  0.9714
 9092SOL     OW38737   3.223   0.614   4.679 -0.0392  0.1874 -0.4074
 9092SOL    HW138738   3.207   0.576   4.592 -1.1468 -1.4155  0.4911
 9092SOL    HW238739   3.200   0.536   4.730 -0.0069 -0.4104 -1.3034
 9093SOL     OW38740   2.305   0.358   4.617 -0.1034  0.2200  0.1192
 9093SOL    HW138741   2.391   0.399   4.611  1.4366 -2.8300  1.4476
 9093SOL    HW238742   2.250   0.435   4.625  1.2493  1.2120 -0.1052
 9094SOL     OW38743   2.379   1.604  17.406  0.1712 -0.8171  0.7517
 9094SOL    HW138744   2.365   1.670  17.337 -2.3940  0.3608  2.4215
 9094SOL    HW238745   2.299   1.555  17.390  1.4759 -3.4783  2.5551
 9095SOL     OW38746   2.292   1.637   6.886 -1.0401  0.2296  0.0296
 9095SOL    HW138747   2.300   1.620   6.792  1.8103  0.1263  0.2841
 9095SOL    HW238748   2.206   1.678   6.884 -1.6722 -0.9649  2.2260
 9096SOL     OW38749   3.190   3.547  16.267  0.7513 -0.1084 -0.3259
 9096SOL    HW138750   3.255   3.595  16.319  0.8923 -0.3461 -0.2815
 9096SOL    HW238751   3.188   3.582  16.179 -0.1111  1.3547  0.2804
 9097SOL     OW38752   0.503   1.564   2.133 -0.0009  0.1474 -0.4171
 9097SOL    HW138753   0.505   1.470   2.117  0.7761  0.3725 -1.6772
 9097SOL    HW238754   0.587   1.595   2.099  0.1099  3.2405  2.6460
 9098SOL     OW38755   3.421   4.202  13.685  0.1317 -0.7869 -0.1466
 9098SOL    HW138756   3.338   4.228  13.726  1.3376  0.6420  1.4235
 9098SOL    HW238757   3.440   4.126  13.741  0.3311 -1.2408 -0.8362
 9099SOL     OW38758   2.759   3.391  16.969 -0.2905  0.0994 -0.4671
 9099SOL    HW138759   2.762   3.472  16.919 -0.5470  0.7271  0.5266
 9099SOL    HW238760   2.688   3.339  16.930 -0.5917  0.6601 -0.6702
 9100SOL     OW38761   2.269   0.672  14.556 -0.0971  0.1239  0.7527
 9100SOL    HW138762   2.201   0.626  14.605 -0.7457  0.9453  0.6144
 9100SOL    HW238763   2.320   0.595  14.531  1.8531  1.5362  0.4095
 9101SOL     OW38764   1.714   4.176   3.346  0.1920  0.2837 -0.4004
 9101SOL    HW138765   1.772   4.101   3.355  0.2560  0.4228  0.3638
 9101SOL    HW238766   1.689   4.160   3.255  0.1357  0.7902 -0.4732
 9102SOL     OW38767   3.017   1.490  12.707 -0.0851 -0.2577  0.0018
 9102SOL    HW138768   3.023   1.400  12.740  0.4587 -1.1367 -2.5152
 9102SOL    HW238769   3.027   1.477  12.613  0.8086  0.7661 -0.0406
 9103SOL     OW38770   3.157   2.736   9.129 -0.7080 -0.3375 -0.4237
 9103SOL    HW138771   3.174   2.819   9.173 -0.3649 -0.9300  0.5557
 9103SOL    HW238772   3.068   2.715   9.158 -0.2381 -1.2714  0.3642
 9104SOL     OW38773   4.226   2.339  14.567 -0.3111  0.8520 -0.3566
 9104SOL    HW138774   4.253   2.431  14.571 -1.2322  1.2361 -3.1038
 9104SOL    HW238775   4.174   2.334  14.647 -0.0173  3.4557 -0.0030
 9105SOL     OW38776   3.001   4.379   5.959 -0.3276  0.6197 -0.3825
 9105SOL    HW138777   3.039   4.294   5.980 -5.3983 -1.6300 -0.3342
 9105SOL    HW238778   3.076   4.436   5.978  0.0721 -0.7939  2.2076
 9106SOL     OW38779   2.243   2.414  13.994 -0.0397  0.3728 -0.0157
 9106SOL    HW138780   2.317   2.456  14.038  2.0489 -1.0142 -2.2185
 9106SOL    HW238781   2.262   2.321  14.002 -1.7040 -0.1058 -1.4573
 9107SOL     OW38782   1.484   1.477   8.595 -0.2619 -0.5530 -0.3160
 9107SOL    HW138783   1.474   1.565   8.558 -1.6622  0.0981  1.5805
 9107SOL    HW238784   1.520   1.486   8.683 -0.2699  3.6705 -0.7621
 9108SOL     OW38785   3.812   4.047   9.402  0.4345 -0.0307 -0.6931
 9108SOL    HW138786   3.786   4.114   9.339  0.7828  2.8740  2.2931
 9108SOL    HW238787   3.751   4.079   9.469  1.0085 -1.5382  0.5473
 9109SOL     OW38788   1.035   1.815  10.260  0.1382 -0.3216 -0.2409
 9109SOL    HW138789   1.111   1.844  10.210 -0.7996 -0.4514 -1.7161
 9109SOL    HW238790   1.039   1.722  10.280  0.0332 -0.4377 -0.7738
 9110SOL     OW38791   1.139   3.057   0.813  0.3773  0.2800  0.0401
 9110SOL    HW138792   1.069   3.118   0.840  0.6760 -0.1187  1.7100
 9110SOL    HW238793   1.107   3.040   0.725  1.8191  1.8761 -0.7815
 9111SOL     OW38794   3.887   4.450   9.126  0.1955 -0.2670 -0.2364
 9111SOL    HW138795   3.903   4.515   9.058  0.9140 -0.6036 -0.3913
 9111SOL    HW238796   3.963   4.394   9.111  0.9357  0.1499  1.9975
 9112SOL     OW38797   1.207   3.343   6.471  0.0604 -0.6780 -0.4178
 9112SOL    HW138798   1.119   3.377   6.456  0.1696  0.4245  1.4011
 9112SOL    HW238799   1.209   3.328   6.566  0.5455  0.1555 -0.2986
 9113SOL     OW38800   3.218   0.753   3.351 -0.4133 -0.5205  0.3644
 9113SOL    HW138801   3.135   0.707   3.368 -0.8413 -0.5294 -1.7010
 9113SOL    HW238802   3.235   0.737   3.258 -1.5318  4.7814 -0.7654
 9114SOL     OW38803   4.283   4.158  14.829  0.5322  0.3746  0.1434
 9114SOL    HW138804   4.263   4.252  14.830  0.6527  0.4110 -0.9521
 9114SOL    HW238805   4.317   4.145  14.740  2.0131  1.1018  0.5979
 9115SOL     OW38806   4.508   0.585   6.814 -0.1736 -0.0510  0.2741
 9115SOL    HW138807   4.438   0.529   6.848 -1.3314  1.1596 -0.1529
 9115SOL    HW238808   4.575   0.569   6.881 -0.9214 -0.5020  0.9071
 9116SOL     OW38809   0.830   2.686   0.373  0.1058 -0.0770  0.3213
 9116SOL    HW138810   0.917   2.718   0.350  0.4527  0.0241  1.7743
 9116SOL    HW238811   0.852   2.617   0.437 -0.5777 -1.5176 -1.0046
 9117SOL     OW38812   3.640   1.384   6.038 -0.3616 -0.4263  0.5993
 9117SOL    HW138813   3.621   1.330   6.115  0.5858 -1.5910  0.0284
 9117SOL    HW238814   3.603   1.465   6.072  1.4289  1.0386 -0.9355
 9118SOL     OW38815   2.472   2.598  16.309 -0.0107  0.1602 -0.5080
 9118SOL    HW138816   2.541   2.606  16.375  0.4606  2.5911 -1.2945
 9118SOL    HW238817   2.467   2.674  16.251  2.3750  1.1427  0.5760
 9119SOL     OW38818   1.386   3.079   2.083 -0.2998  0.4022  0.3013
 9119SOL    HW138819   1.383   3.175   2.088 -0.2462  0.3988  0.4168
 9119SOL    HW238820   1.366   3.056   2.174 -1.4306 -0.5667 -0.2107
 9120SOL     OW38821   1.711   0.097   3.896 -0.4451  0.2151 -0.3214
 9120SOL    HW138822   1.668   0.013   3.880  1.5283 -0.4827 -1.9685
 9120SOL    HW238823   1.690   0.141   3.814  0.0971  1.4170  0.1905
 9121SOL     OW38824   1.376   0.823   5.603  0.3669  0.3508  0.2620
 9121SOL    HW138825   1.361   0.917   5.596  0.2600  0.3277  0.1777
 9121SOL    HW238826   1.337   0.803   5.689 -3.1835  2.0056 -0.9388
 9122SOL     OW38827   3.318   0.922   6.110  0.9753  0.2629 -0.8966
 9122SOL    HW138828   3.300   0.873   6.030 -0.0675 -1.5516  0.4684
 9122SOL    HW238829   3.390   0.982   6.090  0.9464  0.5106 -0.2619
 9123SOL     OW38830   0.408   1.643   2.610 -0.4765 -0.3203 -0.0778
 9123SOL    HW138831   0.399   1.668   2.518 -1.5879 -0.8176 -0.1011
 9123SOL    HW238832   0.502   1.661   2.616 -0.9455  2.2714 -0.4086
 9124SOL     OW38833   3.265   0.409   6.042 -0.4180 -0.0260  0.0482
 9124SOL    HW138834   3.319   0.331   6.032  1.2491  0.9948  0.9861
 9124SOL    HW238835   3.336   0.473   6.045 -0.4087 -0.0125 -0.5841
 9125SOL     OW38836   1.849   2.432   3.671  0.0847  0.5572  0.0084
 9125SOL    HW138837   1.881   2.504   3.617  1.3416  0.3235  0.4578
 9125SOL    HW238838   1.932   2.402   3.707  0.2692  0.4374 -0.5148
 9126SOL     OW38839   2.020   4.162   4.857  0.0434  0.1208 -0.5074
 9126SOL    HW138840   2.048   4.240   4.905 -0.0140  0.4940 -1.0887
 9126SOL    HW238841   1.955   4.197   4.796  2.1821  1.9848 -1.7013
 9127SOL     OW38842   2.617   2.522   1.005  0.6883 -0.6914 -0.2149
 9127SOL    HW138843   2.649   2.433   0.994 -0.0613 -1.0285  0.3095
 9127SOL    HW238844   2.608   2.536   1.099  1.5577  1.5592 -0.4638
 9128SOL     OW38845   0.513   2.017  17.269 -0.0061 -0.0695 -0.3400
 9128SOL    HW138846   0.433   2.040  17.222 -0.2917 -2.8409 -1.2485
 9128SOL    HW238847   0.485   2.001  17.359 -0.9887  0.0788 -0.6222
 9129SOL     OW38848   2.303   2.709   3.139 -0.2682 -1.2696  0.0569
 9129SOL    HW138849   2.373   2.649   3.114  0.2456 -0.8218  0.4118
 9129SOL    HW238850   2.266   2.667   3.217  1.0708 -0.5613  1.0631
 9130SOL     OW38851   4.654   0.707  16.746 -0.0802  0.7642 -0.4297
 9130SOL    HW138852   4.639   0.782  16.804 -1.5476 -0.2527  0.5033
 9130SOL    HW238853   0.004   0.739  16.692 -0.6236  0.5337 -1.2882
 9131SOL     OW38854   1.612   3.500   2.308 -0.4482  0.5958 -0.3639
 9131SOL    HW138855   1.657   3.584   2.311  1.4638 -0.4171 -0.8676
 9131SOL    HW238856   1.656   3.453   2.378 -2.2492  1.0819  1.1002
 9132SOL     OW38857   1.651   3.766   7.557 -0.3584  0.3789  0.0276
 9132SOL    HW138858   1.657   3.861   7.556  0.1136  0.3485 -0.0057
 9132SOL    HW238859   1.744   3.750   7.574 -0.0409  2.7802  0.5260
 9133SOL     OW38860   0.653   0.912   6.643 -0.2419  0.5631  0.1158
 9133SOL    HW138861   0.670   0.965   6.721 -3.7625 -0.6387  1.6726
 9133SOL    HW238862   0.742   0.891   6.613 -0.0131  0.3688  0.9290
 9134SOL     OW38863   2.746   1.355   8.480 -0.1664 -1.0306 -0.1381
 9134SOL    HW138864   2.717   1.319   8.396  0.1420 -0.2237 -0.5857
 9134SOL    HW238865   2.832   1.311   8.483 -0.3533 -1.3244  1.0512
 9135SOL     OW38866   4.675   0.449   8.123 -0.0152  0.3653  0.3218
 9135SOL    HW138867   0.026   0.489   8.171 -0.1019 -1.0551  1.6515
 9135SOL    HW238868   4.613   0.454   8.195 -0.9945  1.8173 -0.6248
 9136SOL     OW38869   4.085   0.977   2.548  0.0736  0.4612 -0.4885
 9136SOL    HW138870   3.991   0.970   2.562 -0.0289  2.0763 -0.2523
 9136SOL    HW238871   4.117   0.971   2.638  0.4697  0.8602 -0.5978
 9137SOL     OW38872   0.955   3.714   7.253 -0.4951  0.2756  0.5269
 9137SOL    HW138873   0.919   3.788   7.301 -0.0353 -0.0908  1.4572
 9137SOL    HW238874   0.917   3.644   7.306  2.3802 -0.1448  2.0499
 9138SOL     OW38875   1.864   2.784   1.767 -0.4085  0.4300  0.3640
 9138SOL    HW138876   1.863   2.692   1.741 -1.7482  0.6249 -0.2942
 9138SOL    HW238877   1.937   2.779   1.829  0.4021  0.0108 -0.6281
 9139SOL     OW38878   0.858   1.340  12.128  0.0353 -0.2257  0.0077
 9139SOL    HW138879   0.788   1.363  12.189  1.0486  0.2669  0.9781
 9139SOL    HW238880   0.872   1.409  12.063 -3.3816 -0.3393 -0.8286
 9140SOL     OW38881   1.149   2.139  15.935  0.2306 -0.0795 -0.5665
 9140SOL    HW138882   1.228   2.092  15.911  0.2466 -1.6173  2.3580
 9140SOL    HW238883   1.137   2.114  16.027 -0.1472  0.6346 -0.4278
 9141SOL     OW38884   2.169   2.180  12.145  0.3196  0.3151 -0.2210
 9141SOL    HW138885   2.178   2.089  12.116 -1.4816 -0.0768  0.4484
 9141SOL    HW238886   2.259   2.211  12.137  0.2558  0.4796 -0.3000
 9142SOL     OW38887   3.270   1.408   7.550  0.5718 -0.3828  0.3651
 9142SOL    HW138888   3.292   1.349   7.623  0.2748  0.3873  1.0872
 9142SOL    HW238889   3.311   1.355   7.483 -0.5701  0.3519 -0.9067
 9143SOL     OW38890   1.326   0.959   6.758 -0.1337 -0.0753 -0.3555
 9143SOL    HW138891   1.355   0.928   6.844  1.2782 -0.4033 -0.9665
 9143SOL    HW238892   1.399   1.013   6.730 -1.0792  1.5861  0.3747
 9144SOL     OW38893   4.250   3.681   5.725  0.3624 -0.1900  0.2592
 9144SOL    HW138894   4.267   3.589   5.746 -0.2372 -0.6166 -1.1469
 9144SOL    HW238895   4.269   3.729   5.805  1.1671  0.7098 -0.4731
 9145SOL     OW38896   2.634   0.748   0.725  0.4122 -0.0622 -0.8258
 9145SOL    HW138897   2.714   0.705   0.755  0.7134 -1.6673 -3.9012
 9145SOL    HW238898   2.597   0.675   0.675 -0.9963  0.1539 -0.0941
 9146SOL     OW38899   1.838   2.735   4.039 -0.4132 -0.0392  0.6207
 9146SOL    HW138900   1.800   2.784   4.112 -2.2682  1.5411 -1.4229
 9146SOL    HW238901   1.784   2.756   3.963  1.8111 -1.7120 -1.3980
 9147SOL     OW38902   1.442   2.668   0.157 -0.2804  0.5502  0.7041
 9147SOL    HW138903   1.403   2.583   0.136  1.4660  0.7027 -3.2890
 9147SOL    HW238904   1.405   2.717   0.084  2.9451  1.6879 -0.1829
 9148SOL     OW38905   4.641   2.252   6.006  0.2516  0.2332  0.2376
 9148SOL    HW138906   4.595   2.206   6.077 -2.6162  0.8870 -1.1977
 9148SOL    HW238907   4.647   2.335   6.053 -0.3514  0.4001  0.0240
 9149SOL     OW38908   2.355   2.824   2.200  0.1720 -0.2645 -0.2365
 9149SOL    HW138909   2.369   2.835   2.106  0.1046  1.1397 -0.0765
 9149SOL    HW238910   2.338   2.917   2.213  2.3298  0.2559 -1.0465
 9150SOL     OW38911   1.329   2.770  10.107 -0.1025 -0.0711 -0.6374
 9150SOL    HW138912   1.323   2.675  10.097  2.4601 -0.4528  1.5570
 9150SOL    HW238913   1.342   2.775  10.202 -0.0861  1.1623 -0.7043
 9151SOL     OW38914   2.882   1.341  11.049  0.2169 -0.6758 -0.1105
 9151SOL    HW138915   2.799   1.301  11.022  0.5022 -1.6590  0.4883
 9151SOL    HW238916   2.892   1.430  11.014 -4.0860  0.7999  2.3615
 9152SOL     OW38917   1.064   2.708   7.866  0.2693  0.2030  0.0272
 9152SOL    HW138918   1.061   2.679   7.775  2.4662  0.9419 -0.2723
 9152SOL    HW238919   1.121   2.641   7.904 -0.3473 -0.3757 -0.0634
 9153SOL     OW38920   3.160   3.526   5.762  0.2241 -0.0056  0.1118
 9153SOL    HW138921   3.211   3.549   5.685 -1.4164  0.5704 -0.8064
 9153SOL    HW238922   3.069   3.525   5.734  0.1150 -0.4860  0.4755
 9154SOL     OW38923   2.528   2.211   2.738  0.2233  0.2237 -0.1674
 9154SOL    HW138924   2.543   2.120   2.763  0.2157  0.1616 -0.3887
 9154SOL    HW238925   2.437   2.206   2.710  0.1197 -0.5810  0.3186
 9155SOL     OW38926   0.204   2.332   2.449  0.2076  0.2005 -0.5392
 9155SOL    HW138927   0.209   2.303   2.358 -0.6371  2.2196 -1.2189
 9155SOL    HW238928   0.172   2.422   2.445  2.0841  0.8796 -0.0002
 9156SOL     OW38929   3.574   4.107   7.624 -0.5073  0.0733  0.3186
 9156SOL    HW138930   3.548   4.053   7.699  0.2301 -0.7503 -0.0117
 9156SOL    HW238931   3.503   4.170   7.623  1.2644  2.0708  1.9646
 9157SOL     OW38932   1.157   3.139  12.694  0.5256  0.0417  0.0369
 9157SOL    HW138933   1.100   3.071  12.658  0.0349  0.2785  0.3574
 9157SOL    HW238934   1.114   3.219  12.662 -1.0123 -1.3851 -1.5145
 9158SOL     OW38935   4.050   3.585   7.425  0.3460  0.0050  0.0840
 9158SOL    HW138936   4.124   3.579   7.486 -0.3333  0.5633  0.9572
 9158SOL    HW238937   4.013   3.673   7.433 -2.1231 -1.2856  2.7296
 9159SOL     OW38938   4.569   0.062  16.016 -0.3135 -0.5983  0.3806
 9159SOL    HW138939   4.563   4.703  16.068  1.0103 -0.2433  1.0751
 9159SOL    HW238940   4.640   0.093  16.072 -0.4052  1.7769 -0.8300
 9160SOL     OW38941   4.443   2.380   1.362  0.3184  0.1804 -0.1061
 9160SOL    HW138942   4.391   2.329   1.424  1.4344  1.5368  1.9650
 9160SOL    HW238943   4.533   2.383   1.395  0.9729  0.1020 -1.8891
 9161SOL     OW38944   0.385   4.277   1.369 -0.2390 -0.8169  0.6113
 9161SOL    HW138945   0.315   4.273   1.305 -2.7947 -1.0082  3.3975
 9161SOL    HW238946   0.452   4.236   1.314  0.5632 -0.5975  1.4165
 9162SOL     OW38947   3.531   4.036   3.656  0.5944  0.4819  0.0324
 9162SOL    HW138948   3.576   4.069   3.734 -0.4330  0.7218  0.5255
 9162SOL    HW238949   3.524   3.941   3.670 -1.2104  0.7923  1.2264
 9163SOL     OW38950   2.905   3.265   9.961 -0.0774  0.0723  0.4258
 9163SOL    HW138951   2.904   3.183   9.911 -2.4034 -0.4320  1.2788
 9163SOL    HW238952   2.893   3.331   9.893  0.8922 -1.8723 -1.6218
 9164SOL     OW38953   3.413   4.150   2.268  0.2518  0.2731  0.1304
 9164SOL    HW138954   3.416   4.059   2.296  0.0706 -0.8910 -3.5992
 9164SOL    HW238955   3.454   4.193   2.344 -1.8913  0.6229  1.0819
 9165SOL     OW38956   3.516   2.195   8.580  0.4670  0.4752  0.0728
 9165SOL    HW138957   3.524   2.110   8.537  2.4831  0.5187  0.3753
 9165SOL    HW238958   3.469   2.177   8.662  0.4624  1.3795  0.2717
 9166SOL     OW38959   3.890   1.302   6.537 -0.5809 -0.2569  0.0127
 9166SOL    HW138960   3.946   1.375   6.565 -0.1670 -0.2463 -0.8335
 9166SOL    HW238961   3.893   1.306   6.441  0.5674 -0.3785  0.0404
 9167SOL     OW38962   0.261   1.375   9.563 -0.1132  0.2403  0.0656
 9167SOL    HW138963   0.262   1.430   9.641  2.9142 -0.9573  0.8694
 9167SOL    HW238964   0.296   1.290   9.591 -2.7653 -0.4827  1.1825
 9168SOL     OW38965   1.832   4.301   2.821  0.0036  0.0695  0.0074
 9168SOL    HW138966   1.867   4.387   2.797  0.2949 -0.1958 -0.5071
 9168SOL    HW238967   1.812   4.328   2.911  2.4115 -0.3094  0.6427
 9169SOL     OW38968   3.605   2.555   3.349  0.0227 -0.2766  0.6745
 9169SOL    HW138969   3.575   2.506   3.425  0.2714 -0.1253  0.8703
 9169SOL    HW238970   3.627   2.643   3.379 -0.0912 -0.2637  0.7199
 9170SOL     OW38971   2.144   4.051   9.560 -0.0913  0.2137  0.5840
 9170SOL    HW138972   2.080   4.034   9.491  0.4480 -0.0982  0.1518
 9170SOL    HW238973   2.218   4.087   9.509 -0.9002 -0.2049 -0.8967
 9171SOL     OW38974   0.800   1.616   5.195 -0.3372  0.3748 -0.1076
 9171SOL    HW138975   0.816   1.700   5.238  0.8685  0.4247 -0.6595
 9171SOL    HW238976   0.890   1.585   5.194 -0.4065  0.1675  0.1719
 9172SOL     OW38977   1.997   1.134   7.053  0.3238 -0.0555  0.3975
 9172SOL    HW138978   1.907   1.113   7.077  0.4319  1.4408  2.0891
 9172SOL    HW238979   2.042   1.088   7.124  1.8591  1.0534  0.1399
 9173SOL     OW38980   3.018   1.201   9.366 -0.3602  0.3422  0.0389
 9173SOL    HW138981   2.965   1.279   9.352 -0.5069 -0.3148 -3.1201
 9173SOL    HW238982   3.102   1.246   9.376 -0.1014 -0.2236  0.4691
 9174SOL     OW38983   2.686   1.024  10.086  0.0798 -0.2697  0.3171
 9174SOL    HW138984   2.736   1.105  10.074 -0.8862  0.1274 -1.1514
 9174SOL    HW238985   2.715   0.982  10.167  1.3986  0.2399  0.1051
 9175SOL     OW38986   3.780   1.668  13.773  0.2691  0.5211 -0.4026
 9175SOL    HW138987   3.834   1.726  13.721  0.4028  0.7391 -0.0167
 9175SOL    HW238988   3.791   1.587  13.723 -0.4048 -0.2097  0.6079
 9176SOL     OW38989   1.763   0.635   7.831 -0.2955 -0.2673  0.4019
 9176SOL    HW138990   1.670   0.618   7.819  0.4275 -3.3911 -0.8697
 9176SOL    HW238991   1.767   0.720   7.875  1.6881  0.1722 -0.5953
 9177SOL     OW38992   3.525   4.397  15.756  0.0013  0.1865 -0.3142
 9177SOL    HW138993   3.528   4.405  15.661  1.2205  0.1724 -0.2722
 9177SOL    HW238994   3.488   4.309  15.758 -0.4234  0.4012  1.2631
 9178SOL     OW38995   2.245   1.952   2.440 -0.2523  0.5064  0.1973
 9178SOL    HW138996   2.155   1.956   2.472 -0.4455  0.6463 -0.3782
 9178SOL    HW238997   2.257   2.045   2.421 -0.5278  0.7721  1.2901
 9179SOL     OW38998   4.642   2.385  11.537 -0.3937 -0.1420  0.0000
 9179SOL    HW138999   4.567   2.355  11.588 -1.5026  2.6771  0.0494
 9179SOL    HW239000   4.636   2.334  11.457 -1.0630 -0.0603  0.0016
 9180SOL     OW39001   2.944   3.264   0.385  0.2696 -0.2525 -0.0590
 9180SOL    HW139002   2.929   3.215   0.466  0.8917  1.0554  0.8498
 9180SOL    HW239003   2.892   3.214   0.321  1.7160 -0.8558 -0.7453
 9181SOL     OW39004   0.775   3.009   3.953  0.4407  0.1253 -0.6490
 9181SOL    HW139005   0.827   2.933   3.980 -1.4911 -0.7573  0.6369
 9181SOL    HW239006   0.727   3.034   4.032  0.5214  2.3274 -1.3019
 9182SOL     OW39007   4.519   0.138   7.388 -0.0831  0.5526  0.1240
 9182SOL    HW139008   4.431   0.169   7.369  0.5199  2.4717  0.3905
 9182SOL    HW239009   4.566   0.222   7.390 -1.0142  1.0259  1.4659
 9183SOL     OW39010   2.898   1.135   7.369  0.4734  0.1873 -0.0995
 9183SOL    HW139011   2.862   1.216   7.332 -1.2673  0.3587  1.9756
 9183SOL    HW239012   2.858   1.138   7.455 -0.7544  0.8137 -0.6978
 9184SOL     OW39013   3.735   0.480   1.648  0.1484 -0.0258  0.0986
 9184SOL    HW139014   3.643   0.498   1.625  0.7763  1.0485 -1.5836
 9184SOL    HW239015   3.748   0.564   1.693  1.7256  0.1882 -0.7512
 9185SOL     OW39016   0.279   3.069   8.485 -0.5510  0.0005 -0.2079
 9185SOL    HW139017   0.285   3.025   8.569 -0.0891 -0.7043 -0.6079
 9185SOL    HW239018   0.274   3.162   8.505  1.3785  0.8898 -3.7693
 9186SOL     OW39019   4.350   2.638   1.348  0.2610 -0.3175  1.0242
 9186SOL    HW139020   4.365   2.544   1.352  1.6823 -0.2044 -1.4632
 9186SOL    HW239021   4.364   2.667   1.438 -2.2289  3.3512  0.2235
 9187SOL     OW39022   3.228   0.604   4.258 -0.2016 -0.2061 -0.5320
 9187SOL    HW139023   3.201   0.563   4.341 -0.1612 -2.3081 -1.5709
 9187SOL    HW239024   3.180   0.686   4.270 -1.8048 -1.3180  0.7233
 9188SOL     OW39025   0.337   3.569   5.932  0.6800 -0.0407  0.0377
 9188SOL    HW139026   0.329   3.569   5.837  0.1958 -1.4447  0.0806
 9188SOL    HW239027   0.244   3.584   5.949  1.0624  0.4709  1.7291
 9189SOL     OW39028   0.569   2.869  11.339  0.2658  0.4784  0.1575
 9189SOL    HW139029   0.614   2.807  11.283 -0.2560  1.1795 -1.0427
 9189SOL    HW239030   0.584   2.947  11.286  2.6405  0.9082  1.4830
 9190SOL     OW39031   1.888   4.465   7.472 -0.0570 -0.4515  0.0011
 9190SOL    HW139032   1.973   4.504   7.454  0.2940 -0.3478  1.8612
 9190SOL    HW239033   1.837   4.540   7.503 -0.7998 -0.6628 -0.7121
 9191SOL     OW39034   1.198   3.404   2.803  0.3108  0.4906 -0.3161
 9191SOL    HW139035   1.132   3.342   2.773  0.6653 -1.0754  2.0824
 9191SOL    HW239036   1.182   3.476   2.742 -1.2278  0.1762 -0.2886
 9192SOL     OW39037   1.997   0.402   4.721 -0.3746 -0.7050 -0.4101
 9192SOL    HW139038   1.978   0.402   4.627 -0.6106  1.9866 -0.3452
 9192SOL    HW239039   1.908   0.415   4.754 -0.7444 -1.3941 -1.1288
 9193SOL     OW39040   2.734   0.633   3.506  0.3524 -0.0531 -0.2537
 9193SOL    HW139041   2.825   0.605   3.497  0.1844 -0.6619 -0.0428
 9193SOL    HW239042   2.714   0.572   3.577  2.6787 -1.5747 -0.8959
 9194SOL     OW39043   0.695   4.143   2.555  0.3233  0.6456 -0.3580
 9194SOL    HW139044   0.628   4.118   2.618  0.5989 -1.3125 -0.8621
 9194SOL    HW239045   0.689   4.238   2.570 -0.6556  0.6652 -0.9445
 9195SOL     OW39046   2.131   3.426   0.506  0.1182  0.3287 -0.0902
 9195SOL    HW139047   2.091   3.512   0.498  1.0196  0.6452 -1.1689
 9195SOL    HW239048   2.058   3.367   0.522  0.1687  0.1421 -0.5557
 9196SOL     OW39049   0.864   3.875  17.488 -0.3922  0.2019 -0.0723
 9196SOL    HW139050   0.791   3.851  17.546  0.0728  1.4539  1.0383
 9196SOL    HW239051   0.822   3.889  17.403 -2.0690 -3.8174  0.0710
 9197SOL     OW39052   3.306   3.992  10.423  0.1642  0.4011  0.2729
 9197SOL    HW139053   3.334   3.997  10.515 -0.5868 -0.2976  0.5374
 9197SOL    HW239054   3.387   4.028  10.387 -0.0099 -0.1680 -0.6849
 9198SOL     OW39055   2.673   4.278   2.091 -0.3014  0.4472 -0.2735
 9198SOL    HW139056   2.702   4.206   2.035  1.3396  1.5899 -0.9013
 9198SOL    HW239057   2.695   4.361   2.048 -0.7165  1.4965  1.5143
 9199SOL     OW39058   4.474   3.839   6.906  0.5142  0.0164 -0.2139
 9199SOL    HW139059   4.476   3.845   7.002 -3.0784  1.0958 -0.2150
 9199SOL    HW239060   4.563   3.869   6.888  0.6029 -0.3272 -0.3560
 9200SOL     OW39061   3.606   1.594   9.301  0.0418  0.1196  0.1955
 9200SOL    HW139062   3.539   1.660   9.319 -0.3706  0.2193 -1.7093
 9200SOL    HW239063   3.648   1.637   9.227 -0.5873  0.5496  0.0882
 9201SOL     OW39064   3.442   3.177   8.748  0.6415  0.1668 -0.5057
 9201SOL    HW139065   3.417   3.097   8.794 -0.7676  0.1529 -1.3016
 9201SOL    HW239066   3.537   3.169   8.754  0.5750 -2.0510 -2.1499
 9202SOL     OW39067   1.132   2.681   6.421  0.5043 -0.6541  0.7619
 9202SOL    HW139068   1.216   2.706   6.460  0.7442 -2.4729  1.4056
 9202SOL    HW239069   1.143   2.731   6.340 -0.2201 -2.0714 -0.2057
 9203SOL     OW39070   3.299   1.979   6.568 -0.3750 -0.1075 -0.0746
 9203SOL    HW139071   3.259   2.055   6.527 -3.6215 -1.5845  0.3507
 9203SOL    HW239072   3.378   2.009   6.613 -0.4107 -2.0886  1.3246
 9204SOL     OW39073   1.608   4.311   9.320  0.0412  0.3147  0.2860
 9204SOL    HW139074   1.686   4.344   9.363 -2.0638  3.9681  1.2627
 9204SOL    HW239075   1.573   4.253   9.388 -2.2461  0.7427 -0.5067
 9205SOL     OW39076   4.546   4.126   5.173  0.6843 -0.3030  1.3537
 9205SOL    HW139077   4.460   4.087   5.190  0.9112 -1.2936  0.2307
 9205SOL    HW239078   4.533   4.219   5.190  0.9570  0.0951 -0.6336
 9206SOL     OW39079   2.953   3.191   6.345  0.8336  0.0243 -0.3124
 9206SOL    HW139080   2.915   3.272   6.379  1.3266  0.3000 -0.4122
 9206SOL    HW239081   2.885   3.124   6.342  1.6059 -0.7881  0.3385
 9207SOL     OW39082   0.910   2.702   6.162 -0.2301  0.2041 -0.4231
 9207SOL    HW139083   0.852   2.772   6.193 -0.8736 -0.2339 -0.6326
 9207SOL    HW239084   0.990   2.754   6.170  0.0201 -0.4334  1.2053
 9208SOL     OW39085   0.661   2.932   6.591 -0.0534 -0.9286 -0.0212
 9208SOL    HW139086   0.726   2.864   6.574  0.9753  0.5353 -1.8404
 9208SOL    HW239087   0.603   2.892   6.656 -1.1183  2.6273  1.2625
 9209SOL     OW39088   1.667   1.687   4.316 -0.2750  0.4052 -0.0143
 9209SOL    HW139089   1.642   1.685   4.224 -0.8004 -0.3360  0.1438
 9209SOL    HW239090   1.726   1.762   4.318 -1.1609  1.0571  1.5116
 9210SOL     OW39091   4.035   3.699   5.566  0.3504 -0.0952 -0.0819
 9210SOL    HW139092   4.004   3.624   5.618 -0.8053 -0.4125 -1.2420
 9210SOL    HW239093   4.123   3.703   5.604  0.0552 -0.0075  0.5984
 9211SOL     OW39094   2.604   2.263   5.136  0.0684 -0.1622  0.7320
 9211SOL    HW139095   2.595   2.227   5.048 -0.1347  0.9519  0.2975
 9211SOL    HW239096   2.591   2.184   5.188  1.1463  0.6246  2.2079
 9212SOL     OW39097   1.451   2.439   9.714  0.1783 -0.3625 -0.5976
 9212SOL    HW139098   1.478   2.413   9.803  2.2319  1.6121 -0.6561
 9212SOL    HW239099   1.360   2.460   9.731 -0.2083 -1.1550 -1.7309
 9213SOL     OW39100   4.139   1.931   4.721 -0.2906 -0.2716 -0.4006
 9213SOL    HW139101   4.097   1.920   4.636  0.1171 -0.9739 -0.5130
 9213SOL    HW239102   4.197   1.855   4.720  1.8183  1.3289  1.3561
 9214SOL     OW39103   4.173   3.213   3.714  0.2851 -0.2594 -0.7443
 9214SOL    HW139104   4.166   3.144   3.648 -0.1502  0.8767 -1.8861
 9214SOL    HW239105   4.130   3.168   3.787  0.0185  2.3393  0.6980
 9215SOL     OW39106   1.038   0.979  17.357  0.0964  0.1986 -0.3415
 9215SOL    HW139107   1.028   0.992  17.452 -0.5089 -1.0638 -0.2452
 9215SOL    HW239108   1.101   1.048  17.333 -0.6001  1.7186  2.1092
 9216SOL     OW39109   3.845   1.278   3.561 -0.5755 -0.4974  0.3903
 9216SOL    HW139110   3.902   1.306   3.489 -0.0046 -2.8902 -0.1053
 9216SOL    HW239111   3.756   1.311   3.558  0.3917  2.0431  0.1438
 9217SOL     OW39112   4.022   2.349   3.604  0.3129 -0.2037 -1.0223
 9217SOL    HW139113   4.057   2.288   3.539  0.7533 -0.4506 -0.5573
 9217SOL    HW239114   4.087   2.419   3.604  0.1416 -0.0402  0.1127
 9218SOL     OW39115   2.607   2.915   6.676  0.4045 -0.3254  0.2507
 9218SOL    HW139116   2.551   2.959   6.612 -0.8826 -1.6676  0.4718
 9218SOL    HW239117   2.655   2.983   6.724  0.4063 -0.5167  0.5175
 9219SOL     OW39118   3.193   1.747  16.099  0.5914 -0.2272 -0.0102
 9219SOL    HW139119   3.191   1.652  16.093  0.2993 -0.1888 -0.5248
 9219SOL    HW239120   3.100   1.764  16.117  0.5921  0.5208 -0.7431
 9220SOL     OW39121   2.548   4.041   4.221  0.2462  0.5737  0.2136
 9220SOL    HW139122   2.477   3.990   4.181  1.8118  0.3487 -2.2481
 9220SOL    HW239123   2.607   4.048   4.146 -1.1034  1.8841 -0.7234
 9221SOL     OW39124   2.184   3.326   5.631  0.0812 -0.0475 -0.3678
 9221SOL    HW139125   2.154   3.276   5.555  0.2560 -1.4975  0.5202
 9221SOL    HW239126   2.275   3.344   5.606  0.7656 -0.4026  1.9323
 9222SOL     OW39127   2.999   3.683   9.494 -0.0608  0.5423  0.7693
 9222SOL    HW139128   2.995   3.778   9.503  1.1522  0.7541 -0.9642
 9222SOL    HW239129   3.033   3.657   9.580  0.2263 -3.0437 -0.4204
 9223SOL     OW39130   3.004   4.103   5.887 -0.0017 -0.0827 -0.0488
 9223SOL    HW139131   3.005   4.047   5.810 -0.6245  0.3286 -0.3585
 9223SOL    HW239132   3.076   4.088   5.948 -0.8203  1.7012  1.3633
 9224SOL     OW39133   4.448   3.777   2.651  0.0764  0.2796 -0.4625
 9224SOL    HW139134   4.398   3.699   2.676  3.4338 -0.6020  3.4530
 9224SOL    HW239135   4.382   3.833   2.610 -0.1633  1.0382  0.9485
 9225SOL     OW39136   4.068   3.063  14.653  0.0731  0.2450 -0.3178
 9225SOL    HW139137   4.016   3.102  14.723 -1.1818  0.5134 -1.4250
 9225SOL    HW239138   3.999   3.023  14.601  0.9334  0.4529 -1.6270
 9226SOL     OW39139   3.660   1.769   9.904 -0.8636  0.0082 -0.2094
 9226SOL    HW139140   3.680   1.693   9.850  1.2551 -0.2388  0.9291
 9226SOL    HW239141   3.745   1.810   9.917 -0.3351 -0.8362 -1.0308
 9227SOL     OW39142   0.036   0.959   6.506 -0.1950  0.0623 -0.7637
 9227SOL    HW139143   0.008   1.045   6.539  0.8947  0.5692 -1.1821
 9227SOL    HW239144   0.088   0.923   6.578 -0.0344  0.7207 -0.5520
 9228SOL     OW39145   1.179   4.664  15.985  0.1867 -0.6162  0.7410
 9228SOL    HW139146   1.143   4.717  15.914  0.8682 -1.3100 -0.1197
 9228SOL    HW239147   1.099   4.626  16.021 -0.8937 -1.3375 -2.3704
 9229SOL     OW39148   0.001   0.384  13.215 -0.2283  0.0949 -0.5502
 9229SOL    HW139149   0.044   0.332  13.147  0.1485 -0.0764 -0.1788
 9229SOL    HW239150   4.696   0.313  13.275 -1.6134  3.8874  3.3251
 9230SOL     OW39151   0.041   0.286   5.769 -0.0095  0.0867  0.8694
 9230SOL    HW139152   0.107   0.235   5.816  1.1725 -1.2835 -2.2797
 9230SOL    HW239153   0.049   0.363   5.825 -2.2801 -0.2411  1.6606
 9231SOL     OW39154   4.091   2.050  14.867 -0.1100 -0.1725  0.2281
 9231SOL    HW139155   4.165   2.059  14.927 -0.8466  2.0986  0.7931
 9231SOL    HW239156   4.096   2.128  14.811  0.5668  0.1141  0.6873
 9232SOL     OW39157   4.314   2.817   2.066 -0.6737 -0.3066  0.1733
 9232SOL    HW139158   4.255   2.780   2.131  0.5394 -2.9114 -0.2395
 9232SOL    HW239159   4.394   2.797   2.115 -0.4835  1.1041  0.4363
 9233SOL     OW39160   3.151   3.335  15.177 -0.0282 -0.1117  0.2134
 9233SOL    HW139161   3.155   3.325  15.272  2.0635  0.1043  0.1487
 9233SOL    HW239162   3.067   3.295  15.153 -0.3523  2.0755 -2.2980
 9234SOL     OW39163   2.702   1.635   6.812 -0.2782 -0.2786 -0.3113
 9234SOL    HW139164   2.768   1.669   6.752 -0.6919  1.2486  0.0918
 9234SOL    HW239165   2.627   1.629   6.753 -1.4299  1.2399  0.9924
 9235SOL     OW39166   4.639   4.376   1.793  0.8325  0.0722 -0.2591
 9235SOL    HW139167   4.638   4.466   1.762  1.8800  0.1942  0.0561
 9235SOL    HW239168   4.700   4.337   1.731  0.6788  2.4141 -1.8678
 9236SOL     OW39169   3.037   3.031   0.958  0.2591  0.3231 -0.4433
 9236SOL    HW139170   3.099   2.978   1.009 -0.4236  0.4165  0.4755
 9236SOL    HW239171   2.981   3.078   1.020 -0.7031 -1.6166  0.1360
 9237SOL     OW39172   1.732   3.536   6.389 -0.0604 -0.5022  0.6910
 9237SOL    HW139173   1.676   3.613   6.379  2.4890  1.4160  1.3349
 9237SOL    HW239174   1.755   3.548   6.481 -0.4355 -1.3518  0.9002
 9238SOL     OW39175   1.247   3.893   5.061 -0.1546 -0.1692 -0.4646
 9238SOL    HW139176   1.250   3.808   5.018  2.3350 -0.1510 -0.3311
 9238SOL    HW239177   1.332   3.882   5.104  0.6711  1.9639 -1.5445
 9239SOL     OW39178   4.351   4.346   1.886 -0.2170  0.1967 -0.2615
 9239SOL    HW139179   4.445   4.335   1.867 -0.1800  1.1441 -0.6301
 9239SOL    HW239180   4.321   4.388   1.806 -1.3077 -2.6478 -1.3383
 9240SOL     OW39181   1.283   1.590   5.816 -0.8785  0.6053 -0.0389
 9240SOL    HW139182   1.250   1.621   5.899 -0.7375  1.9258 -0.4815
 9240SOL    HW239183   1.328   1.510   5.843 -2.5043 -0.0604  0.6624
 9241SOL     OW39184   0.619   4.258  15.097 -0.4266 -0.2603  0.8686
 9241SOL    HW139185   0.599   4.249  15.004  0.2171  1.0716  0.5965
 9241SOL    HW239186   0.532   4.253  15.136 -0.7774  1.4513  0.2778
 9242SOL     OW39187   3.007   3.490   4.123  0.2127 -0.5267  0.0180
 9242SOL    HW139188   3.050   3.415   4.163 -1.4175 -0.4512  1.8959
 9242SOL    HW239189   3.047   3.481   4.036 -0.1410  0.2308 -0.2276
 9243SOL     OW39190   0.563   2.617  10.555 -0.0950  0.2445 -0.1788
 9243SOL    HW139191   0.556   2.699  10.604  2.1498  0.6919 -0.6214
 9243SOL    HW239192   0.508   2.629  10.478  1.2935  0.5988 -1.1049
 9244SOL     OW39193   2.519   3.441   3.760  0.1948  0.5788 -0.1776
 9244SOL    HW139194   2.611   3.433   3.733  1.0420 -1.3475  3.3658
 9244SOL    HW239195   2.525   3.526   3.803 -1.3724  0.0210  1.1242
 9245SOL     OW39196   1.976   0.392  17.420  0.3221 -0.1363 -0.3207
 9245SOL    HW139197   1.890   0.352  17.412  0.1937  0.5587 -2.4519
 9245SOL    HW239198   1.961   0.483  17.447 -1.1873 -0.9893  1.7130
 9246SOL     OW39199   0.386   2.106   3.987  0.3130  0.1321  0.0534
 9246SOL    HW139200   0.303   2.070   3.957 -1.2954  3.7795  0.0921
 9246SOL    HW239201   0.365   2.198   3.969  1.3352  0.6675  1.6709
 9247SOL     OW39202   0.705   1.472  15.950  0.4665  0.2341  0.4863
 9247SOL    HW139203   0.798   1.469  15.971  0.3882 -0.0456  0.7889
 9247SOL    HW239204   0.665   1.496  16.033 -0.4824 -0.5206  0.2494
 9248SOL     OW39205   0.694   4.159  11.000  0.9415  0.4522 -0.2296
 9248SOL    HW139206   0.661   4.247  11.019  0.1474 -0.3031  1.9109
 9248SOL    HW239207   0.614   4.113  11.025  0.5410  1.2163 -0.1042
 9249SOL     OW39208   4.423   1.565  17.664 -0.1931 -0.3042 -0.3017
 9249SOL    HW139209   4.345   1.620  17.655  0.0648  0.2695  0.9497
 9249SOL    HW239210   4.474   1.622   0.034 -0.9772  0.7152 -0.6235
 9250SOL     OW39211   4.620   0.989   4.575 -0.5654  0.6930  0.3170
 9250SOL    HW139212   4.661   1.047   4.638  0.4533  1.7473 -1.2987
 9250SOL    HW239213   4.614   0.908   4.624  0.4163 -0.0306 -0.7516
 9251SOL     OW39214   3.613   2.446   0.469 -0.2690 -0.1380 -0.0442
 9251SOL    HW139215   3.611   2.421   0.377  0.1215 -0.9074  0.1547
 9251SOL    HW239216   3.544   2.392   0.509  1.0628 -1.3103  0.7060
 9252SOL     OW39217   1.267   3.198   7.590  0.2202 -0.2144  0.5176
 9252SOL    HW139218   1.311   3.248   7.658 -2.0596  0.2283  1.6664
 9252SOL    HW239219   1.250   3.112   7.629  0.0260 -0.1183  0.6396
 9253SOL     OW39220   1.315   3.090   6.613 -0.8900  0.5880 -0.4150
 9253SOL    HW139221   1.343   3.047   6.532  1.0942  0.5275  0.3149
 9253SOL    HW239222   1.284   3.017   6.667 -2.0248 -0.0834 -1.9630
 9254SOL     OW39223   3.892   3.563   2.651  0.8042 -0.1408  0.1900
 9254SOL    HW139224   3.978   3.602   2.634  1.3212 -1.5118 -0.3010
 9254SOL    HW239225   3.910   3.475   2.619  2.2566  0.0305  0.5240
 9255SOL     OW39226   3.598   3.782   9.130  0.1472 -0.6574 -0.0596
 9255SOL    HW139227   3.670   3.765   9.191  0.4281  0.0914 -0.1797
 9255SOL    HW239228   3.570   3.702   9.087 -0.9743  0.1485 -0.8137
 9256SOL     OW39229   0.801   1.990   8.025  0.6958 -0.8953  0.4647
 9256SOL    HW139230   0.768   1.934   8.095 -2.0477  0.5615  0.3491
 9256SOL    HW239231   0.889   2.020   8.048  0.1029  0.3695  1.0849
 9257SOL     OW39232   0.878   0.144   2.624  0.1528  0.5767 -0.0675
 9257SOL    HW139233   0.860   0.073   2.562 -0.6421  0.8962 -0.2043
 9257SOL    HW239234   0.924   0.099   2.695 -1.1793 -1.4504 -0.4763
 9258SOL     OW39235   3.085   2.925   4.837 -0.2049  0.1661 -0.0598
 9258SOL    HW139236   3.023   2.998   4.834 -2.6529 -1.8359  1.9661
 9258SOL    HW239237   3.057   2.871   4.763 -1.2170  2.5522 -1.4531
 9259SOL     OW39238   3.387   1.364   5.288 -0.4732 -0.2657 -0.3498
 9259SOL    HW139239   3.445   1.305   5.336 -0.7865  1.7189  2.4677
 9259SOL    HW239240   3.436   1.356   5.206 -1.0083 -2.3610 -0.4691
 9260SOL     OW39241   3.579   3.162   1.345  0.3439 -0.5038 -0.4788
 9260SOL    HW139242   3.620   3.124   1.423 -1.7837  0.4236  1.1201
 9260SOL    HW239243   3.544   3.240   1.388 -2.3807 -0.7446 -2.2435
 9261SOL     OW39244   2.451   4.335   8.741 -0.1144 -0.2981 -0.6859
 9261SOL    HW139245   2.384   4.290   8.691  0.0432 -2.2963  0.9191
 9261SOL    HW239246   2.406   4.371   8.818  3.8209  0.0435  1.4466
 9262SOL     OW39247   4.494   0.459  14.571 -0.4750 -0.4147 -0.3365
 9262SOL    HW139248   4.578   0.502  14.589 -1.4133  0.8143  1.0767
 9262SOL    HW239249   4.441   0.538  14.567  1.4775  0.9229  0.1011
 9263SOL     OW39250   2.205   1.587   9.653  0.3868  0.0238 -0.4294
 9263SOL    HW139251   2.147   1.634   9.593 -1.4663 -2.3929 -0.5056
 9263SOL    HW239252   2.153   1.513   9.684  2.0558 -0.6180  0.8213
 9264SOL     OW39253   0.344   3.730   2.230 -0.1652 -0.2965  0.0840
 9264SOL    HW139254   0.382   3.646   2.207 -2.1065 -0.7532 -1.3539
 9264SOL    HW239255   0.265   3.731   2.177  0.5378  1.0797 -0.9232
 9265SOL     OW39256   3.567   4.669   9.914 -0.4893  0.0500 -0.2132
 9265SOL    HW139257   3.489   4.674   9.969 -0.5512  1.5862 -0.4285
 9265SOL    HW239258   3.627   0.012   9.952  0.7696 -1.1960 -0.0942
 9266SOL     OW39259   1.667   0.245  17.580 -0.0396  0.3067  0.5801
 9266SOL    HW139260   1.678   0.162  17.533 -0.0320 -0.3112  1.6849
 9266SOL    HW239261   1.589   0.223  17.630 -0.5911 -0.1226 -0.4689
 9267SOL     OW39262   3.053   3.804  11.014 -0.4592 -0.3678  0.1389
 9267SOL    HW139263   2.970   3.847  10.990  0.3438  1.7487  1.1269
 9267SOL    HW239264   3.039   3.779  11.106 -0.0126 -0.7586  0.0934
 9268SOL     OW39265   3.151   2.469   1.975  0.1077 -0.2519 -0.1196
 9268SOL    HW139266   3.067   2.425   1.963  0.6218 -1.3035  0.1138
 9268SOL    HW239267   3.200   2.417   1.912  0.3217 -0.3033  0.0871
 9269SOL     OW39268   2.239   3.347   7.872  0.1640 -0.1276 -0.0840
 9269SOL    HW139269   2.267   3.371   7.961 -0.1572  1.9527 -0.5391
 9269SOL    HW239270   2.324   3.343   7.828  1.8466  1.4549  3.0251
 9270SOL     OW39271   0.746   3.478   6.028  0.1934 -0.4725 -0.1958
 9270SOL    HW139272   0.806   3.541   5.988 -0.4132  1.2651  1.6228
 9270SOL    HW239273   0.787   3.462   6.113  0.4240 -0.8343 -0.3746
 9271SOL     OW39274   0.258   3.933   9.056  0.1545 -0.7032 -0.2893
 9271SOL    HW139275   0.196   4.003   9.038 -0.4158 -0.6672  1.8009
 9271SOL    HW239276   0.241   3.876   8.981  0.4644  0.3179 -1.1262
 9272SOL     OW39277   3.155   4.189   9.299  0.3102  0.1112  0.3443
 9272SOL    HW139278   3.084   4.253   9.301  0.6291  0.5231 -1.1073
 9272SOL    HW239279   3.193   4.225   9.219  0.1530  0.9178  0.6317
 9273SOL     OW39280   1.716   1.811   8.728 -0.3233 -0.2921 -0.5430
 9273SOL    HW139281   1.733   1.836   8.819  0.5193 -1.6762 -0.3147
 9273SOL    HW239282   1.659   1.734   8.737  1.0180 -1.3283 -0.8091
 9274SOL     OW39283   2.846   2.968   5.260 -0.0963 -0.5403 -0.5273
 9274SOL    HW139284   2.866   2.882   5.295  0.5194 -0.2808 -0.2466
 9274SOL    HW239285   2.817   2.950   5.170  0.2791 -1.9695 -0.3527
 9275SOL     OW39286   2.522   4.623   7.656  0.5648 -0.3673  0.2367
 9275SOL    HW139287   2.572   4.677   7.595 -1.6210  0.8609 -0.4763
 9275SOL    HW239288   2.511   4.687   7.727 -0.2118  0.1403 -0.3362
 9276SOL     OW39289   2.377   2.387   3.627 -0.5660 -0.0324  0.6624
 9276SOL    HW139290   2.293   2.377   3.583 -0.7025 -0.1811  0.9491
 9276SOL    HW239291   2.437   2.424   3.564 -0.4361 -2.0680 -0.4163
 9277SOL     OW39292   3.068   1.593   7.956  0.5028  0.5672  0.7036
 9277SOL    HW139293   3.129   1.579   7.884 -0.4708  2.0783 -0.4186
 9277SOL    HW239294   3.123   1.613   8.032  0.6396  2.1806  0.1705
 9278SOL     OW39295   0.208   1.293   8.576 -0.3720  0.5907 -0.1885
 9278SOL    HW139296   0.172   1.210   8.609  1.2254  0.2186  0.6222
 9278SOL    HW239297   0.216   1.349   8.653 -1.2303 -0.8116  0.9300
 9279SOL     OW39298   2.613   3.952  15.936 -0.0697 -0.0905  0.1103
 9279SOL    HW139299   2.562   3.886  15.983  0.3954  0.2167  1.0330
 9279SOL    HW239300   2.659   3.898  15.871 -0.4234  1.1846 -1.2022
 9280SOL     OW39301   0.446   3.987   0.754  0.4341  0.3342  0.0955
 9280SOL    HW139302   0.377   3.957   0.813 -1.3364  1.2344 -1.5574
 9280SOL    HW239303   0.517   4.012   0.814  0.7334 -1.0517  0.3361
 9281SOL     OW39304   0.551   0.510   3.420 -0.1124  0.0176  0.1703
 9281SOL    HW139305   0.491   0.543   3.353 -0.3504  0.1360  0.4406
 9281SOL    HW239306   0.628   0.486   3.368  0.9128  0.5185  1.4483
 9282SOL     OW39307   4.533   3.398  11.099  0.3392  0.5533 -0.5596
 9282SOL    HW139308   4.450   3.360  11.127  3.4092 -2.2220  4.6689
 9282SOL    HW239309   4.591   3.327  11.124 -0.6712  0.1274  0.5419
 9283SOL     OW39310   0.497   0.372   7.079 -0.6757 -0.0270  0.6325
 9283SOL    HW139311   0.408   0.405   7.070 -1.1045 -0.9654  1.3649
 9283SOL    HW239312   0.540   0.446   7.122  1.2309 -0.1180 -1.1600
 9284SOL     OW39313   4.309   1.655  15.747 -0.4313  0.3883  0.4824
 9284SOL    HW139314   4.345   1.737  15.714  0.5201  0.6588  2.2003
 9284SOL    HW239315   4.228   1.657  15.697 -0.1845 -2.5914 -0.0807
 9285SOL     OW39316   4.182   1.684   7.048  0.6370 -0.3748  0.0319
 9285SOL    HW139317   4.229   1.758   7.010 -2.4194  1.0681 -0.8888
 9285SOL    HW239318   4.183   1.613   6.984  0.3022 -0.1209 -0.2525
 9286SOL     OW39319   0.649   4.415  15.756  0.7546  0.4054 -0.1868
 9286SOL    HW139320   0.589   4.406  15.830  1.7259 -2.0866  0.2861
 9286SOL    HW239321   0.607   4.370  15.683 -2.9453 -0.2243  2.3306
 9287SOL     OW39322   3.216   0.480   1.072  0.1917  0.3583 -0.4748
 9287SOL    HW139323   3.240   0.505   1.162  0.4171  1.6517 -0.8813
 9287SOL    HW239324   3.172   0.396   1.081  3.6168 -1.1580  2.3401
 9288SOL     OW39325   3.172   3.646   4.478  0.2512 -0.4337  0.0066
 9288SOL    HW139326   3.263   3.631   4.503  0.7544  2.2191 -0.2220
 9288SOL    HW239327   3.188   3.645   4.384 -1.3550 -0.0212 -0.2630
 9289SOL     OW39328   0.821   1.191   2.645  0.2537 -0.8372  0.0948
 9289SOL    HW139329   0.887   1.163   2.582  0.9727  0.3378  0.3149
 9289SOL    HW239330   0.818   1.114   2.702  1.0210  0.1266  1.4338
 9290SOL     OW39331   0.695   1.362   3.092 -0.4762 -0.1582  0.3330
 9290SOL    HW139332   0.742   1.294   3.043 -1.6923 -1.7133  1.3304
 9290SOL    HW239333   0.726   1.447   3.061 -1.0314 -0.0198  0.1621
 9291SOL     OW39334   3.522   2.325   3.483 -0.4351  0.1749 -0.1612
 9291SOL    HW139335   3.466   2.289   3.552 -0.2798  1.4057  0.6181
 9291SOL    HW239336   3.609   2.306   3.519 -0.7447  0.1863  0.5929
 9292SOL     OW39337   2.108   2.603   6.056 -0.1835  0.4214 -0.2206
 9292SOL    HW139338   2.076   2.629   5.969  0.8909  0.6373 -0.5531
 9292SOL    HW239339   2.182   2.543   6.040 -1.4912 -1.2849  0.1253
 9293SOL     OW39340   3.821   0.262  10.926 -0.1240  0.1927  0.0407
 9293SOL    HW139341   3.815   0.265  10.831  1.6433 -0.6572 -0.0897
 9293SOL    HW239342   3.774   0.343  10.948 -0.1606  0.6858 -1.8696
 9294SOL     OW39343   4.497   0.640   7.223  0.1011  0.5656  0.0923
 9294SOL    HW139344   4.489   0.735   7.212 -0.6288  0.9167  3.4637
 9294SOL    HW239345   4.546   0.616   7.144  0.7782  0.6413  0.4878
 9295SOL     OW39346   0.407   1.057   6.727 -0.5199 -0.3749  0.5838
 9295SOL    HW139347   0.423   1.144   6.690  1.1762 -1.1933 -0.6009
 9295SOL    HW239348   0.419   1.007   6.646  1.9297  2.2861 -0.6938
 9296SOL     OW39349   3.299   0.813   7.548  0.0979  0.1129  0.5436
 9296SOL    HW139350   3.204   0.818   7.532 -0.6466 -0.4941  4.8688
 9296SOL    HW239351   3.332   0.899   7.523  0.3656 -0.1715 -0.0738
 9297SOL     OW39352   0.383   2.215   4.341  0.3937  0.2738  0.1323
 9297SOL    HW139353   0.335   2.270   4.280 -0.5292  0.5210  1.0709
 9297SOL    HW239354   0.396   2.261   4.425 -2.1777 -0.0605  0.7184
 9298SOL     OW39355   3.274   2.284   8.178  0.2817 -0.2530  0.7327
 9298SOL    HW139356   3.252   2.195   8.204 -1.8029  0.0392 -0.0491
 9298SOL    HW239357   3.327   2.311   8.254  0.7297 -1.2413  0.7684
 9299SOL     OW39358   2.354   3.617   2.903  0.4021  0.2725  0.5958
 9299SOL    HW139359   2.368   3.707   2.934  0.6551  0.4403 -0.0110
 9299SOL    HW239360   2.436   3.576   2.932 -0.2099  0.0779  2.0229
 9300SOL     OW39361   1.903   2.012   1.778 -0.4778  0.2103  0.6016
 9300SOL    HW139362   1.939   2.100   1.767 -2.8409  1.2249  0.9186
 9300SOL    HW239363   1.893   2.017   1.873 -1.4524 -3.5289  0.6643
 9301SOL     OW39364   4.236   0.855   9.817 -0.3266 -0.3311  0.1262
 9301SOL    HW139365   4.193   0.937   9.839 -0.9463 -1.0651  1.6074
 9301SOL    HW239366   4.192   0.805   9.886 -0.7294 -1.6293 -1.0483
 9302SOL     OW39367   0.376   4.294   6.777 -0.0763  0.4452 -0.8442
 9302SOL    HW139368   0.370   4.343   6.859  0.0642  1.3039 -1.3517
 9302SOL    HW239369   0.354   4.359   6.710  1.1927  0.4271 -1.2820
 9303SOL     OW39370   3.763   3.125  15.279  0.0550  0.0971 -0.3764
 9303SOL    HW139371   3.792   3.157  15.364  0.2566 -0.3409 -0.2809
 9303SOL    HW239372   3.720   3.203  15.243  0.8778  1.3307  1.3369
 9304SOL     OW39373   2.601   2.030   8.076 -0.1399 -0.1222 -0.2523
 9304SOL    HW139374   2.601   2.124   8.094 -0.2821  0.0081 -0.9187
 9304SOL    HW239375   2.630   1.993   8.159 -2.0249 -2.3780 -0.6000
 9305SOL     OW39376   1.859   0.190   9.541  0.1315  0.0588 -0.1356
 9305SOL    HW139377   1.808   0.120   9.498  0.9048 -0.4195 -0.2654
 9305SOL    HW239378   1.820   0.180   9.628  0.1208 -1.4639 -0.3153
 9306SOL     OW39379   1.281   4.693   0.971 -0.0253 -0.1168  0.1677
 9306SOL    HW139380   1.313   0.061   0.958  0.7160 -0.4835 -0.5514
 9306SOL    HW239381   1.187   4.694   0.958 -0.0103 -0.8726  0.0501
 9307SOL     OW39382   0.126   4.669  10.490  0.2145 -0.5461  0.1736
 9307SOL    HW139383   0.035   4.689  10.469  0.3070 -1.0044 -0.6491
 9307SOL    HW239384   0.145   0.020  10.549  0.0151  0.4152 -0.9548
 9308SOL     OW39385   3.628   3.085   4.760 -0.1007 -0.0776  0.0546
 9308SOL    HW139386   3.540   3.060   4.788 -0.6562  0.4062 -1.2341
 9308SOL    HW239387   3.635   3.169   4.805 -2.1278  0.7551 -1.1744
 9309SOL     OW39388   0.724   1.941   8.825 -0.1248 -0.7164  0.6425
 9309SOL    HW139389   0.702   1.905   8.911  0.2931 -0.9651  0.6454
 9309SOL    HW239390   0.677   2.025   8.819 -1.4379 -1.4391  0.6999
 9310SOL     OW39391   3.154   4.477  14.278  0.0230  0.1776  0.0630
 9310SOL    HW139392   3.103   4.400  14.255 -2.4485  0.6939  3.8785
 9310SOL    HW239393   3.222   4.474  14.211  0.5196 -0.7270  0.6037
 9311SOL     OW39394   2.950   1.372   7.684 -0.4643  0.9588 -0.4548
 9311SOL    HW139395   2.953   1.403   7.775  1.0672  0.1744 -0.2355
 9311SOL    HW239396   3.021   1.308   7.694 -1.2596  0.2497  0.7346
 9312SOL     OW39397   3.113   1.936   6.148 -0.4430  0.1703  0.6366
 9312SOL    HW139398   3.149   1.905   6.065  0.4554 -0.6478  1.3249
 9312SOL    HW239399   3.118   2.031   6.138 -3.1448  0.2807  0.3553
 9313SOL     OW39400   2.693   1.406   4.187  0.2448  0.6106  0.3443
 9313SOL    HW139401   2.723   1.443   4.104  0.4547 -0.7490 -0.1871
 9313SOL    HW239402   2.683   1.315   4.159 -2.8154  0.5211  1.6412
 9314SOL     OW39403   4.167   2.241   3.366  0.0803  0.2248  0.3391
 9314SOL    HW139404   4.142   2.199   3.284  0.2370 -0.6385  0.7373
 9314SOL    HW239405   4.219   2.318   3.342 -0.0136  0.7294  1.7274
 9315SOL     OW39406   2.994   4.423   9.280  0.4501  0.3781  0.3506
 9315SOL    HW139407   3.079   4.458   9.253  0.7992 -0.7105  0.0194
 9315SOL    HW239408   2.989   4.457   9.370 -1.1263 -3.4304  1.7072
 9316SOL     OW39409   1.048   2.069   5.107 -0.5118 -0.2177  0.0114
 9316SOL    HW139410   1.125   2.073   5.163 -0.8277 -0.6308  0.4747
 9316SOL    HW239411   1.001   2.140   5.152  0.0880 -0.1970  0.6047
 9317SOL     OW39412   0.997   3.827  16.434  0.3314 -0.0571 -0.7335
 9317SOL    HW139413   0.929   3.777  16.479 -0.9479  1.9472 -0.4537
 9317SOL    HW239414   0.974   3.809  16.343  1.4345 -0.5984 -0.9029
 9318SOL     OW39415   0.254   0.723   8.692  0.4758  0.7403 -0.2239
 9318SOL    HW139416   0.220   0.656   8.752  1.8109  0.5218  0.2875
 9318SOL    HW239417   0.336   0.685   8.661 -1.1583 -2.3023 -0.7795
 9319SOL     OW39418   3.311   4.539  16.118  0.4474 -0.0385 -0.3539
 9319SOL    HW139419   3.258   4.470  16.158  0.7359  0.6580  1.2300
 9319SOL    HW239420   3.309   4.518  16.024  1.3225 -0.2348 -0.3339
 9320SOL     OW39421   1.471   3.024   6.156 -0.2181 -0.5014  0.2244
 9320SOL    HW139422   1.440   2.941   6.121  3.0089 -0.6331 -2.2978
 9320SOL    HW239423   1.509   3.070   6.081  2.4203  0.6657  2.2555
 9321SOL     OW39424   2.549   3.660   3.493 -0.4401  0.2068  0.2735
 9321SOL    HW139425   2.605   3.667   3.570  0.7555  0.4450 -0.6146
 9321SOL    HW239426   2.612   3.667   3.421  0.9026  1.4037  1.6053
 9322SOL     OW39427   1.679   1.560   2.175  0.0575  0.0820 -0.0281
 9322SOL    HW139428   1.657   1.500   2.246 -0.4896  0.8903  0.4802
 9322SOL    HW239429   1.658   1.516   2.093  0.5721 -1.4946  0.6993
 9323SOL     OW39430   1.929   4.512  11.187 -0.0029 -0.2704 -0.5119
 9323SOL    HW139431   1.956   4.422  11.168  0.7190 -0.6035  2.0324
 9323SOL    HW239432   2.000   4.542  11.244 -0.0850  0.8627 -1.0250
 9324SOL     OW39433   0.983   1.527   8.548 -0.0599 -0.3884  0.2433
 9324SOL    HW139434   0.901   1.495   8.511 -0.1432  2.5798 -2.0939
 9324SOL    HW239435   0.952   1.595   8.608 -0.6401  0.1720 -0.7052
 9325SOL     OW39436   4.341   3.301   1.790  0.4150 -0.1239  0.2336
 9325SOL    HW139437   4.427   3.337   1.812  0.7535 -0.9466  0.2619
 9325SOL    HW239438   4.351   3.210   1.817  0.2707  0.3745  2.0142
 9326SOL     OW39439   3.480   4.001   6.379 -0.0092  0.0688 -0.5667
 9326SOL    HW139440   3.436   3.970   6.300  1.0564  0.0513 -1.1516
 9326SOL    HW239441   3.452   3.932   6.439 -4.3264  1.9118 -0.4542
 9327SOL     OW39442   0.107   3.923   1.139  0.7248  0.8679 -0.5133
 9327SOL    HW139443   0.103   3.839   1.093  0.7693  0.4844  0.1839
 9327SOL    HW239444   0.039   3.964   1.086  1.7045 -1.4831 -3.6202
 9328SOL     OW39445   1.030   1.020  14.130 -0.2163 -0.2996 -0.0373
 9328SOL    HW139446   1.101   1.052  14.186 -0.5655 -0.0086  0.2406
 9328SOL    HW239447   1.017   1.094  14.070 -2.2632 -1.7127 -1.3052
 9329SOL     OW39448   4.295   2.650  10.103  0.0556  0.1763 -0.4082
 9329SOL    HW139449   4.283   2.597  10.182  0.8448 -0.3908 -0.6771
 9329SOL    HW239450   4.245   2.591  10.047 -0.8631 -0.3453  0.9552
 9330SOL     OW39451   0.969   0.737   5.937  0.3596 -0.0350 -0.2424
 9330SOL    HW139452   0.878   0.751   5.963  0.1127 -0.3162 -0.9686
 9330SOL    HW239453   1.002   0.684   6.010 -0.6842 -1.9065 -1.1346
 9331SOL     OW39454   3.416   3.713   7.551 -0.2069 -0.3652 -0.3379
 9331SOL    HW139455   3.394   3.741   7.640  0.0650 -0.4211 -0.2524
 9331SOL    HW239456   3.358   3.638   7.548 -2.1560  1.0757  0.7868
 9332SOL     OW39457   0.936   0.682   6.814 -0.3417 -0.1704 -0.0934
 9332SOL    HW139458   0.878   0.614   6.848  1.4548 -2.7525 -2.2596
 9332SOL    HW239459   1.018   0.639   6.836 -0.9210 -1.0183  0.4000
 9333SOL     OW39460   4.304   0.529   2.456  0.2346 -0.5255  0.0690
 9333SOL    HW139461   4.327   0.450   2.406  0.6651  0.0548 -0.6461
 9333SOL    HW239462   4.256   0.483   2.525 -0.4705  2.2462  1.4022
 9334SOL     OW39463   2.630   3.563   4.441 -0.4370  0.4585  0.0966
 9334SOL    HW139464   2.688   3.637   4.456 -2.0964  1.7789 -0.0169
 9334SOL    HW239465   2.643   3.547   4.347 -1.6153 -1.4941  0.2639
 9335SOL     OW39466   0.360   0.178   2.547  0.1520  0.5074  0.6077
 9335SOL    HW139467   0.407   0.228   2.481 -1.4200  1.0232 -0.1324
 9335SOL    HW239468   0.360   0.251   2.609  0.9581  0.8478  0.2073
 9336SOL     OW39469   3.994   1.431   5.043 -0.3851 -0.6807  0.7583
 9336SOL    HW139470   4.062   1.498   5.057  0.1896 -0.7595 -1.5587
 9336SOL    HW239471   3.915   1.485   5.039  0.7861  0.8455 -1.7174
 9337SOL     OW39472   1.137   4.328   4.267  0.0365 -0.1566  0.7192
 9337SOL    HW139473   1.083   4.381   4.325  0.1821 -1.5951  2.1591
 9337SOL    HW239474   1.094   4.245   4.249 -0.8525  0.3282  0.6168
 9338SOL     OW39475   0.532   3.188  14.235 -0.1541  0.2172  0.0471
 9338SOL    HW139476   0.585   3.166  14.311 -0.1536 -0.3051 -0.1073
 9338SOL    HW239477   0.453   3.137  14.255 -1.6796  2.3898 -0.4493
 9339SOL     OW39478   3.279   4.489  15.841  0.4233  0.2578  0.0013
 9339SOL    HW139479   3.235   4.498  15.757 -0.4160 -1.8523  0.2122
 9339SOL    HW239480   3.367   4.473  15.807  0.9488  2.2648  0.4061
 9340SOL     OW39481   1.792   0.618   2.076  0.3284 -0.3694  0.3123
 9340SOL    HW139482   1.723   0.678   2.104  0.6578  0.6739 -1.0613
 9340SOL    HW239483   1.784   0.549   2.141  2.2984  1.6077  2.6452
 9341SOL     OW39484   0.108   0.683   7.208 -0.4116  0.1611 -0.0058
 9341SOL    HW139485   0.083   0.697   7.299  2.6268  2.6728  0.4255
 9341SOL    HW239486   0.171   0.754   7.209 -1.6139  1.2280 -0.8489
 9342SOL     OW39487   0.617   4.500   2.090 -0.0621  0.0511 -0.6414
 9342SOL    HW139488   0.633   4.544   2.007  0.4003 -0.1728 -0.6689
 9342SOL    HW239489   0.579   4.420   2.053  1.0838  0.0804 -1.8657
 9343SOL     OW39490   2.328   0.836   5.916 -0.0734  0.0587 -0.0820
 9343SOL    HW139491   2.312   0.841   6.011 -0.4089  0.5250 -0.1617
 9343SOL    HW239492   2.237   0.853   5.889  0.6099 -1.1214 -3.1460
 9344SOL     OW39493   2.709   1.145   4.092 -0.6146  0.3184  0.0772
 9344SOL    HW139494   2.700   1.172   4.001  4.1678  1.3883 -0.0461
 9344SOL    HW239495   2.702   1.049   4.091  1.0069  0.2424 -1.8202
 9345SOL     OW39496   0.588   4.288   1.554  0.0554  0.6836  0.2053
 9345SOL    HW139497   0.659   4.325   1.502  0.5233 -1.2265 -0.5250
 9345SOL    HW239498   0.510   4.296   1.500  0.2667  0.1385 -0.1831
 9346SOL     OW39499   1.543   2.484   9.073  0.0873 -0.0938  0.7146
 9346SOL    HW139500   1.601   2.477   9.148 -0.4811  0.3230  1.1966
 9346SOL    HW239501   1.587   2.560   9.035 -0.5721 -0.6484 -1.1669
 9347SOL     OW39502   2.637   1.414  11.449  0.0850 -0.5521 -0.0244
 9347SOL    HW139503   2.708   1.448  11.504  0.2543 -1.6674  0.4376
 9347SOL    HW239504   2.596   1.495  11.419  2.7365  0.4146 -1.0760
 9348SOL     OW39505   0.117   0.873   9.242 -0.3220  0.4919  0.0855
 9348SOL    HW139506   0.082   0.879   9.331  0.1611 -2.2723  0.4417
 9348SOL    HW239507   0.039   0.860   9.190  0.4006 -1.9852 -0.3705
 9349SOL     OW39508   3.125   4.376   4.014  0.0616 -0.1369 -0.3050
 9349SOL    HW139509   3.107   4.299   4.067 -0.4167  0.0886 -0.1437
 9349SOL    HW239510   3.198   4.422   4.056  0.2175 -0.4972 -0.1818
 9350SOL     OW39511   4.595   4.072   7.899 -0.2562 -0.1325  0.4897
 9350SOL    HW139512   4.627   4.119   7.821  0.8894  1.1714  1.7449
 9350SOL    HW239513   4.504   4.071   7.870  0.9518 -1.9313 -3.1832
 9351SOL     OW39514   2.578   1.173  13.775  0.6737 -0.0263 -0.6757
 9351SOL    HW139515   2.622   1.156  13.692 -3.4825 -2.1335 -2.4382
 9351SOL    HW239516   2.619   1.255  13.802 -2.3228  0.6992  1.6634
 9352SOL     OW39517   4.338   4.591   3.899  0.0894  0.0843 -0.3939
 9352SOL    HW139518   4.378   4.524   3.953 -0.2706 -1.6146 -2.2361
 9352SOL    HW239519   4.331   4.547   3.815 -1.0017  0.2201 -0.3742
 9353SOL     OW39520   0.967   2.256   1.874  0.3223 -0.3564 -0.9412
 9353SOL    HW139521   0.886   2.209   1.852 -0.5700 -0.4754  2.5340
 9353SOL    HW239522   0.927   2.304   1.946  1.9128  0.0297 -0.3199
 9354SOL     OW39523   1.456   3.877   6.141  0.2575 -0.1484 -0.3536
 9354SOL    HW139524   1.464   3.895   6.047  1.4233  1.5223  0.0771
 9354SOL    HW239525   1.461   3.782   6.150  1.8043 -0.1112 -0.9298
 9355SOL     OW39526   1.412   3.939   2.499  0.2919 -0.1016  0.4885
 9355SOL    HW139527   1.506   3.956   2.485 -0.3837  1.7615 -1.8241
 9355SOL    HW239528   1.386   3.941   2.407  0.5456 -1.2884  0.4007
 9356SOL     OW39529   3.974   3.168   5.283  0.3720 -0.0657  0.2254
 9356SOL    HW139530   3.926   3.109   5.225 -0.5198  1.0903 -0.2244
 9356SOL    HW239531   4.066   3.147   5.266  0.0909  1.2068 -2.8353
 9357SOL     OW39532   2.381   4.058   2.280  0.2734  0.2072  0.0820
 9357SOL    HW139533   2.344   4.054   2.191 -0.5621  1.2143  0.3961
 9357SOL    HW239534   2.475   4.061   2.258  0.2114 -0.8179 -0.3548
 9358SOL     OW39535   1.461   4.130   1.941  0.0759 -0.6120 -0.1561
 9358SOL    HW139536   1.460   4.167   1.853 -0.1557  1.7807  0.8396
 9358SOL    HW239537   1.377   4.086   1.956 -0.6466  1.7876  2.9355
 9359SOL     OW39538   1.157   0.736   7.820 -0.8840 -0.0058 -0.1403
 9359SOL    HW139539   1.107   0.699   7.892 -1.5642  0.3124 -0.4470
 9359SOL    HW239540   1.213   0.662   7.799 -0.9037 -0.1429  0.2921
 9360SOL     OW39541   3.865   2.896   3.736 -0.4614 -0.2758 -0.0073
 9360SOL    HW139542   3.884   2.803   3.727  0.6273 -0.0971  0.5017
 9360SOL    HW239543   3.850   2.921   3.645 -1.5824  0.7776  0.4656
 9361SOL     OW39544   1.773   2.515   1.219 -0.0678 -0.1102  0.7065
 9361SOL    HW139545   1.723   2.556   1.148  0.6310  0.9461  0.8224
 9361SOL    HW239546   1.847   2.474   1.174  1.2242  0.4099  2.3616
 9362SOL     OW39547   1.153   4.052  16.474 -0.0362  0.8016 -0.7940
 9362SOL    HW139548   1.089   3.980  16.466 -0.7126  1.6048 -2.4351
 9362SOL    HW239549   1.093   4.125  16.463 -0.5110  0.3690 -1.0792
 9363SOL     OW39550   1.130   2.542   0.331 -0.1525  0.1197 -0.1018
 9363SOL    HW139551   1.064   2.474   0.347 -0.0894 -0.6897 -3.3585
 9363SOL    HW239552   1.138   2.543   0.236  0.4040 -1.6242 -0.0615
 9364SOL     OW39553   2.357   1.706   8.067 -0.2826  0.0795  0.0142
 9364SOL    HW139554   2.272   1.716   8.108 -1.0535  2.0547 -2.0112
 9364SOL    HW239555   2.410   1.650   8.124  0.9626  0.2780 -0.9418
 9365SOL     OW39556   3.125   4.209   2.040  0.4390  0.3930  0.0906
 9365SOL    HW139557   3.031   4.210   2.018  0.2801  2.0060  0.8563
 9365SOL    HW239558   3.144   4.301   2.022  3.7510  0.0394  1.8277
 9366SOL     OW39559   4.368   1.890  15.644  0.1802 -0.6679 -0.3993
 9366SOL    HW139560   4.323   1.939  15.713  1.9634  0.7903 -0.2542
 9366SOL    HW239561   4.433   1.958  15.624  0.0506 -0.1556  0.9485
 9367SOL     OW39562   1.077   4.656   3.044 -0.0339  0.2589 -0.2176
 9367SOL    HW139563   1.001   4.682   3.096 -0.7137  1.8576 -2.0215
 9367SOL    HW239564   1.112   4.579   3.089 -1.2385  0.4299  1.0151
 9368SOL     OW39565   1.517   2.801   9.918  0.1643 -0.2662  0.6356
 9368SOL    HW139566   1.513   2.868   9.849 -0.8778 -0.1471  0.8210
 9368SOL    HW239567   1.429   2.799   9.955 -1.0326  0.2407 -2.1457
 9369SOL     OW39568   4.319   1.679   4.407  0.0785  0.3980 -0.5125
 9369SOL    HW139569   4.337   1.709   4.496  3.4624 -3.8171  0.1719
 9369SOL    HW239570   4.400   1.631   4.389 -0.1564 -0.5005  0.8600
 9370SOL     OW39571   0.975   2.588   7.136  0.0445  0.0735 -0.4813
 9370SOL    HW139572   0.976   2.517   7.200 -0.2351 -0.1571 -0.7309
 9370SOL    HW239573   1.066   2.596   7.107 -0.4190 -0.7676 -2.1829
 9371SOL     OW39574   0.248   1.033   4.842 -0.3549 -0.3708 -0.1914
 9371SOL    HW139575   0.172   1.085   4.815 -0.8738 -0.8231  0.4262
 9371SOL    HW239576   0.292   1.012   4.759 -1.8765 -1.2101 -0.7706
 9372SOL     OW39577   1.123   1.021   6.575 -0.4827 -0.2264 -0.1030
 9372SOL    HW139578   1.183   0.968   6.628  0.9552  0.6735 -0.8233
 9372SOL    HW239579   1.152   1.111   6.593 -0.5494 -0.1021 -0.6079
 9373SOL     OW39580   1.566   2.414  13.043  0.2466 -0.0928  0.1459
 9373SOL    HW139581   1.521   2.379  13.120  3.5041 -1.1775  1.5156
 9373SOL    HW239582   1.529   2.502  13.037  0.3290 -0.0447  0.3381
 9374SOL     OW39583   1.410   2.649   8.658  0.5458  0.0616 -0.0986
 9374SOL    HW139584   1.489   2.697   8.684 -0.0693  1.6635 -1.2117
 9374SOL    HW239585   1.383   2.602   8.737 -1.0767  1.6717  0.3237
 9375SOL     OW39586   3.830   1.118   6.769 -0.0351  0.0402  0.6757
 9375SOL    HW139587   3.840   1.185   6.701 -0.7389  0.3176  0.8434
 9375SOL    HW239588   3.885   1.145   6.843 -1.1773 -0.6742  1.7921
 9376SOL     OW39589   0.090   2.998   4.470 -0.1257 -0.1094  0.0944
 9376SOL    HW139590   0.017   2.974   4.413 -0.7144 -1.4866  1.4099
 9376SOL    HW239591   0.058   3.078   4.511  0.1375  0.9102 -1.6999
 9377SOL     OW39592   3.582   0.183   9.530  0.3641  0.4934 -0.0287
 9377SOL    HW139593   3.615   0.246   9.594  0.5909 -0.4219  0.7418
 9377SOL    HW239594   3.500   0.230   9.510 -0.3387 -0.2210  1.2008
 9378SOL     OW39595   2.501   1.511   8.197 -0.2557  0.2920 -0.2460
 9378SOL    HW139596   2.585   1.525   8.240 -1.1085  1.5638  0.9970
 9378SOL    HW239597   2.454   1.469   8.269 -4.7394  1.8318 -2.2593
 9379SOL     OW39598   3.549   4.031   1.815 -0.3717 -0.0738 -0.1920
 9379SOL    HW139599   3.594   4.083   1.882 -0.0147  2.2712 -2.2255
 9379SOL    HW239600   3.457   4.051   1.834 -0.0134  1.6145 -0.1931
 9380SOL     OW39601   0.281   3.611   6.813  0.2689  0.0002 -0.0195
 9380SOL    HW139602   0.296   3.690   6.761  2.0847 -1.5690 -1.8955
 9380SOL    HW239603   0.212   3.564   6.768  0.0412  1.0423 -0.7501
 9381SOL     OW39604   3.125   1.454   0.783 -0.6734  0.1157  0.6986
 9381SOL    HW139605   3.162   1.486   0.866  1.2555  1.0829 -0.5433
 9381SOL    HW239606   3.052   1.399   0.810 -0.6366 -1.3517 -2.2456
 9382SOL     OW39607   4.072   1.367   6.315  0.4287 -0.6574  0.8487
 9382SOL    HW139608   4.155   1.351   6.361  1.4211  1.6407 -0.1707
 9382SOL    HW239609   4.064   1.284   6.268  0.2995  0.3152 -0.8350
 9383SOL     OW39610   1.580   2.410   9.972  0.8910  0.3428 -0.2755
 9383SOL    HW139611   1.561   2.325  10.012  1.3827 -0.1082 -1.0151
 9383SOL    HW239612   1.536   2.467  10.036  1.8403  0.0688  0.6130
 9384SOL     OW39613   0.712   0.567   5.940  0.3927  0.4267  0.0524
 9384SOL    HW139614   0.782   0.518   5.897 -0.7197 -1.8224  0.8200
 9384SOL    HW239615   0.637   0.533   5.891 -0.2288 -0.7352  1.8114
 9385SOL     OW39616   3.906   3.574  10.570 -0.2993 -0.1766 -0.2726
 9385SOL    HW139617   3.834   3.636  10.564 -0.5532 -0.8448 -4.1985
 9385SOL    HW239618   3.865   3.507  10.515 -0.3645  0.0403 -0.4894
 9386SOL     OW39619   2.191   0.155   5.506  0.1920 -0.1106 -0.3295
 9386SOL    HW139620   2.148   0.169   5.590  0.4221  1.3653 -0.4427
 9386SOL    HW239621   2.267   0.212   5.522 -0.4275  1.3095 -2.3523
 9387SOL     OW39622   3.745   1.635  12.764 -0.0757  0.0069 -0.4243
 9387SOL    HW139623   3.761   1.728  12.754  0.7374 -0.3308 -2.3337
 9387SOL    HW239624   3.818   1.589  12.723  1.3353 -0.1554  2.2706
 9388SOL     OW39625   1.988   4.255   5.471  0.2683 -0.0793  0.2432
 9388SOL    HW139626   2.006   4.347   5.450  0.0214  0.0292  0.4906
 9388SOL    HW239627   1.997   4.259   5.566 -0.5134 -0.0331  0.3160
 9389SOL     OW39628   3.232   0.026   1.373  0.4651  0.2990 -0.2491
 9389SOL    HW139629   3.144   0.010   1.339  0.3709 -0.0796  0.1649
 9389SOL    HW239630   3.272   4.675   1.324 -3.0300  0.7024 -3.6957
 9390SOL     OW39631   3.557   3.599   3.905  0.4754 -0.6153  0.1745
 9390SOL    HW139632   3.588   3.584   3.994  0.7287  0.5331  0.2833
 9390SOL    HW239633   3.602   3.532   3.853 -0.3664  0.4466 -1.9617
 9391SOL     OW39634   2.919   2.139   8.854 -0.5809  0.2090  0.6136
 9391SOL    HW139635   2.876   2.073   8.799  2.4739 -1.0149 -0.2711
 9391SOL    HW239636   2.986   2.086   8.897 -0.0082  0.7311  0.3530
 9392SOL     OW39637   1.703   2.433   1.468 -0.5811  0.0799  0.1496
 9392SOL    HW139638   1.630   2.449   1.408 -1.6894  1.6885  1.9303
 9392SOL    HW239639   1.768   2.449   1.400  0.9900  1.1430  1.9073
 9393SOL     OW39640   4.494   0.466   6.205  0.3231 -0.5114 -0.3261
 9393SOL    HW139641   4.488   0.373   6.183  1.9057 -1.3427  2.6219
 9393SOL    HW239642   4.401   0.485   6.213  0.9106  2.1971 -0.0341
 9394SOL     OW39643   4.326   1.543   6.493 -0.2884  0.0593 -0.5514
 9394SOL    HW139644   4.336   1.624   6.542 -0.4748 -0.5080  0.4183
 9394SOL    HW239645   4.367   1.484   6.556  0.1292  1.5625  0.5639
 9395SOL     OW39646   1.900   1.206   9.772 -0.3402  0.5229  1.1743
 9395SOL    HW139647   1.871   1.163   9.852 -0.1917 -3.0634 -0.7312
 9395SOL    HW239648   1.828   1.181   9.714 -1.9973  0.6952  3.1775
 9396SOL     OW39649   3.683   4.493   4.944 -0.6967 -0.1504 -0.0472
 9396SOL    HW139650   3.594   4.491   4.978 -1.4123 -1.4165 -2.0343
 9396SOL    HW239651   3.673   4.511   4.851  0.7798  0.9134  0.0061
 9397SOL     OW39652   4.715   0.141   1.452  0.4695  0.3738 -0.1668
 9397SOL    HW139653   4.719   0.108   1.362 -0.3138  0.1746 -0.1287
 9397SOL    HW239654   4.629   0.105   1.475  0.5889 -0.4088 -0.9834
 9398SOL     OW39655   1.829   3.465   8.183 -0.3322  0.2743 -0.3468
 9398SOL    HW139656   1.822   3.377   8.220  0.9038 -0.0972 -1.0178
 9398SOL    HW239657   1.880   3.509   8.251 -2.1376 -0.1909  1.3360
 9399SOL     OW39658   3.393   2.988  17.175 -0.9429 -0.1026  0.1193
 9399SOL    HW139659   3.338   2.925  17.128  1.2864 -1.7039 -0.3393
 9399SOL    HW239660   3.358   2.981  17.264 -1.1319  0.5917  0.0997
 9400SOL     OW39661   2.781   2.450   5.288 -0.6053 -0.0796 -0.0705
 9400SOL    HW139662   2.808   2.384   5.353  0.6753  1.2320  0.7189
 9400SOL    HW239663   2.723   2.398   5.232 -0.9667 -0.5171  0.7178
 9401SOL     OW39664   4.120   1.078   3.315 -0.3090  0.1098  0.7451
 9401SOL    HW139665   4.178   1.147   3.347  1.7435 -0.7028 -1.2235
 9401SOL    HW239666   4.065   1.071   3.393 -0.2769  0.9560  0.8465
 9402SOL     OW39667   4.115   1.307   3.024 -0.6139 -0.0240 -0.1032
 9402SOL    HW139668   4.195   1.257   3.045 -1.1369 -0.8689 -0.1280
 9402SOL    HW239669   4.044   1.268   3.075  0.5621 -0.8244  0.9464
 9403SOL     OW39670   0.243   3.492  14.861  0.3485 -0.0189 -0.1247
 9403SOL    HW139671   0.248   3.579  14.900  1.7007  0.2642 -0.9359
 9403SOL    HW239672   0.200   3.445  14.933  0.5051  1.6601  1.0551
 9404SOL     OW39673   4.517   4.679  12.402 -0.0568  0.3920 -0.0416
 9404SOL    HW139674   4.506   4.596  12.448 -2.8516  1.6601  1.6205
 9404SOL    HW239675   4.608   4.697  12.426  0.4485 -0.8383 -1.0220
 9405SOL     OW39676   2.377   0.992   1.318  0.0490 -0.3164 -0.4127
 9405SOL    HW139677   2.407   0.976   1.407  0.0957  4.6488  0.4653
 9405SOL    HW239678   2.359   0.904   1.285  2.0393 -1.1756  0.8131
 9406SOL     OW39679   0.888   4.497  15.486 -0.2219 -0.1077 -0.1511
 9406SOL    HW139680   0.930   4.583  15.486 -1.2659  0.3968 -0.2273
 9406SOL    HW239681   0.802   4.518  15.449  0.1312 -1.2185 -1.5628
 9407SOL     OW39682   3.645   4.601   5.271  0.2259  0.2012 -0.4271
 9407SOL    HW139683   3.642   4.525   5.329  0.7878  0.5923  0.1147
 9407SOL    HW239684   3.738   4.623   5.276  0.3527  0.0077 -1.9862
 9408SOL     OW39685   0.060   2.496   6.598 -0.5418  0.1641 -0.1741
 9408SOL    HW139686   0.019   2.550   6.530 -0.8925  0.0456 -0.0604
 9408SOL    HW239687   0.126   2.553   6.636 -0.1846  0.6637 -1.5412
 9409SOL     OW39688   0.038   0.934  16.464 -0.1624 -0.2232  0.1722
 9409SOL    HW139689   4.679   0.883  16.452 -1.6123  1.8592  1.0325
 9409SOL    HW239690   0.029   0.976  16.378 -0.2879 -1.6564 -0.5138
 9410SOL     OW39691   2.867   4.253   8.658  0.1841  0.9519  0.2021
 9410SOL    HW139692   2.843   4.179   8.603  1.7316  1.0991 -0.6726
 9410SOL    HW239693   2.953   4.215   8.678  0.7726  1.9201 -0.5093
 9411SOL     OW39694   2.431   1.951  11.898 -0.5167 -0.0509  0.4171
 9411SOL    HW139695   2.438   1.859  11.874  2.9453  0.7842 -1.7046
 9411SOL    HW239696   2.353   1.954  11.955  0.2585  0.1021  1.4662
 9412SOL     OW39697   0.020   1.559   1.736 -0.0377 -0.4085 -0.9803
 9412SOL    HW139698   0.014   1.532   1.827  2.0155  1.0809 -0.3950
 9412SOL    HW239699   4.690   1.493   1.691  1.1148 -0.1662 -2.6484
 9413SOL     OW39700   1.240   4.353  16.742  0.3289 -0.0435  0.5508
 9413SOL    HW139701   1.333   4.346  16.766  0.1049  0.2310  1.4846
 9413SOL    HW239702   1.211   4.263  16.730 -1.3841  0.7879 -1.4810
 9414SOL     OW39703   2.010   2.972   1.616 -0.3028 -0.0930  0.5321
 9414SOL    HW139704   1.957   2.907   1.662  0.6811  0.4795  2.4619
 9414SOL    HW239705   2.025   3.029   1.691  0.3540  1.3383 -0.6963
 9415SOL     OW39706   2.460   3.817  14.542  0.3448  0.4310  0.5759
 9415SOL    HW139707   2.552   3.844  14.536  0.0472  1.4991  0.8111
 9415SOL    HW239708   2.421   3.850  14.461 -1.0895  1.6845  1.7776
 9416SOL     OW39709   4.349   3.155   5.837 -0.3388 -0.3801 -0.7442
 9416SOL    HW139710   4.368   3.102   5.915  0.9433  0.7913 -0.2571
 9416SOL    HW239711   4.253   3.156   5.834 -0.2728  0.3002 -2.5275
 9417SOL     OW39712   3.372   2.496  13.520 -0.3530  0.1020  0.0009
 9417SOL    HW139713   3.328   2.433  13.462 -0.0865 -0.6792  0.6535
 9417SOL    HW239714   3.301   2.539  13.568 -0.7299 -0.8754  0.3256
 9418SOL     OW39715   3.104   3.733   4.915  0.3165 -0.4724  0.4698
 9418SOL    HW139716   3.012   3.706   4.922 -0.2867  1.9930  1.9711
 9418SOL    HW239717   3.106   3.755   4.822 -0.7376 -0.1365  0.5264
 9419SOL     OW39718   2.615   0.410   4.727 -0.9094  0.3022  0.1649
 9419SOL    HW139719   2.630   0.370   4.812 -1.2644 -1.9266 -0.8166
 9419SOL    HW239720   2.621   0.496   4.768 -0.4934 -0.1854  1.1217
 9420SOL     OW39721   0.904   0.934   6.918 -0.4498  0.1989 -0.0354
 9420SOL    HW139722   0.839   1.003   6.903 -1.0205  0.0456  1.6457
 9420SOL    HW239723   0.863   0.853   6.889 -1.3722 -0.1678  2.3025
 9421SOL     OW39724   3.549   2.161   7.602  0.9723  0.7850 -0.0976
 9421SOL    HW139725   3.595   2.120   7.675 -1.7342  1.3018  1.8695
 9421SOL    HW239726   3.544   2.253   7.629 -2.5071  0.7049 -0.5693
 9422SOL     OW39727   0.311   1.486  11.261  0.2972  1.0490 -0.8542
 9422SOL    HW139728   0.240   1.544  11.287 -0.4221 -0.9458  1.6428
 9422SOL    HW239729   0.303   1.490  11.166  0.7830 -1.4056 -0.9950
 9423SOL     OW39730   3.717   3.467   3.718  0.4059 -0.4265 -0.3877
 9423SOL    HW139731   3.808   3.442   3.733  0.7239  0.8050 -0.2147
 9423SOL    HW239732   3.732   3.529   3.647 -0.8432 -0.2019 -0.4617
 9424SOL     OW39733   2.409   2.107   2.206  0.5744  0.2496 -0.2555
 9424SOL    HW139734   2.473   2.146   2.147  0.8748 -1.0471 -0.7725
 9424SOL    HW239735   2.469   2.057   2.262  0.8994 -1.9704 -2.6081
 9425SOL     OW39736   1.291   1.661   4.034  0.3519 -0.6791  0.1982
 9425SOL    HW139737   1.295   1.751   4.001  1.1758  0.0094  2.1281
 9425SOL    HW239738   1.377   1.632   4.004  0.6550  1.7365 -1.2349
 9426SOL     OW39739   0.627   1.920  16.959 -0.4258 -0.6006 -0.0528
 9426SOL    HW139740   0.705   1.885  16.916 -1.4784 -1.7131 -1.0570
 9426SOL    HW239741   0.587   1.847  17.007 -1.1285 -1.3289 -1.7576
 9427SOL     OW39742   1.862   4.280   9.436 -0.4396 -0.6890  0.0971
 9427SOL    HW139743   1.911   4.199   9.422 -0.7090 -0.9085  0.4300
 9427SOL    HW239744   1.891   4.317   9.520 -0.9115 -1.7256  0.7199
 9428SOL     OW39745   2.959   4.291   7.626  0.0348 -0.3934 -0.2988
 9428SOL    HW139746   2.909   4.300   7.707 -0.5844  0.6428 -0.7877
 9428SOL    HW239747   3.025   4.228   7.655  1.1360 -0.2646 -2.5244
 9429SOL     OW39748   4.687   1.635   2.424 -0.5378  0.1803  0.4061
 9429SOL    HW139749   0.018   1.703   2.467 -0.4494  0.6734 -0.4937
 9429SOL    HW239750   4.710   1.650   2.333 -0.7123 -0.9960  0.1694
 9430SOL     OW39751   3.347   0.405   7.501 -0.2800  0.1033 -0.0253
 9430SOL    HW139752   3.324   0.467   7.433 -0.6170 -0.9871 -0.9074
 9430SOL    HW239753   3.408   0.456   7.554 -0.6651  0.8626 -0.3221
 9431SOL     OW39754   1.409   0.374  13.662 -0.1019  0.0138  0.2904
 9431SOL    HW139755   1.390   0.391  13.754 -1.5493  0.7062 -0.1296
 9431SOL    HW239756   1.447   0.287  13.668  1.7977  0.7478 -1.0306
 9432SOL     OW39757   4.249   0.800   4.040  0.2954 -0.3747  0.1098
 9432SOL    HW139758   4.321   0.863   4.032  0.9764 -1.2969 -1.1213
 9432SOL    HW239759   4.239   0.794   3.945  2.3948  2.1555 -0.2989
 9433SOL     OW39760   0.608   3.077   4.168  0.3918  0.4178 -0.3995
 9433SOL    HW139761   0.606   3.172   4.168  0.6037  0.4189 -0.7344
 9433SOL    HW239762   0.517   3.050   4.160  0.5678  0.2713 -1.9135
 9434SOL     OW39763   2.628   0.529   7.784 -0.3083  0.5902  0.3895
 9434SOL    HW139764   2.565   0.483   7.839  0.8063 -0.2170  0.9919
 9434SOL    HW239765   2.601   0.616   7.813 -1.0658  0.2103  0.8425
 9435SOL     OW39766   2.335   3.003  10.237  0.0496 -0.1214 -0.6462
 9435SOL    HW139767   2.323   2.941  10.165 -0.9511 -1.4932  0.6994
 9435SOL    HW239768   2.269   3.071  10.223 -1.3154 -1.4102 -0.5310
 9436SOL     OW39769   0.254   1.893   5.955 -0.2809 -0.3273 -0.2209
 9436SOL    HW139770   0.191   1.826   5.927 -0.8746 -0.2980  1.0666
 9436SOL    HW239771   0.209   1.975   5.937 -2.3694 -0.9031  2.4873
 9437SOL     OW39772   1.851   2.358   8.020 -0.5061 -0.2065 -0.2896
 9437SOL    HW139773   1.852   2.265   7.997  0.6988 -0.1045 -0.6542
 9437SOL    HW239774   1.927   2.392   7.972  0.4441 -0.6285  0.9400
 9438SOL     OW39775   4.061   0.267   4.309  0.1960 -0.2956  0.4518
 9438SOL    HW139776   4.018   0.288   4.392  1.1542  1.9871  0.3671
 9438SOL    HW239777   4.002   0.293   4.239  1.3599 -1.1306 -0.8540
 9439SOL     OW39778   3.211   1.044  11.171 -0.5432 -0.7433 -0.2170
 9439SOL    HW139779   3.187   1.120  11.117 -2.5102 -0.7070  0.6988
 9439SOL    HW239780   3.122   1.023  11.202 -0.8065 -0.9527 -1.1136
 9440SOL     OW39781   3.103   3.452   3.862 -0.0921  0.3214 -0.0846
 9440SOL    HW139782   3.185   3.451   3.911 -0.6912 -1.1219  0.8726
 9440SOL    HW239783   3.119   3.538   3.822  1.3754 -0.8986 -2.1418
 9441SOL     OW39784   2.286   4.326   2.730  0.3302 -0.0402 -0.3057
 9441SOL    HW139785   2.201   4.294   2.701  0.4782 -0.5980 -0.1237
 9441SOL    HW239786   2.322   4.327   2.642  0.0719 -1.9181 -0.4398
 9442SOL     OW39787   1.129   2.621   1.129  0.4626  0.4018  0.0399
 9442SOL    HW139788   1.209   2.619   1.077 -1.1383  2.0100 -2.4787
 9442SOL    HW239789   1.099   2.699   1.082  2.1007  0.0957 -1.5020
 9443SOL     OW39790   1.146   0.966  15.062 -0.3260 -0.1546  0.3088
 9443SOL    HW139791   1.129   0.976  15.156 -2.4191 -1.5616  0.0601
 9443SOL    HW239792   1.161   0.872  15.065  3.5853  0.3856 -1.3807
 9444SOL     OW39793   1.999   0.542  15.062 -0.0855  0.5547 -0.2506
 9444SOL    HW139794   2.071   0.493  15.022  1.5790  2.2539  0.6393
 9444SOL    HW239795   1.984   0.608  14.994  0.0459 -0.1372 -0.9420
 9445SOL     OW39796   0.700   3.019   2.390 -0.5317  0.1906 -0.0225
 9445SOL    HW139797   0.723   3.026   2.483 -2.4527  2.5222  0.2641
 9445SOL    HW239798   0.711   3.110   2.363 -0.7685 -0.0659 -0.9682
 9446SOL     OW39799   0.992   2.727   3.012 -0.7916 -0.4581 -0.1611
 9446SOL    HW139800   1.067   2.694   2.963  0.2753 -0.7577  1.6929
 9446SOL    HW239801   0.976   2.814   2.974  0.0594 -0.2134  0.0404
 9447SOL     OW39802   2.985   1.595   4.726  0.9485 -0.0673  0.5764
 9447SOL    HW139803   3.075   1.562   4.721  0.7620 -0.6675  1.2231
 9447SOL    HW239804   2.930   1.518   4.709  0.7233  0.3104 -0.4112
 9448SOL     OW39805   0.859   0.081   0.108 -0.0817  0.8218  0.0559
 9448SOL    HW139806   0.946   0.043   0.099  0.9355  2.8910  1.1699
 9448SOL    HW239807   0.806   0.040   0.039  1.4566 -1.4542  0.2478
 9449SOL     OW39808   1.669   0.896   2.483 -0.0143  0.2001 -0.3924
 9449SOL    HW139809   1.676   0.916   2.576  1.8180 -0.1658 -0.4500
 9449SOL    HW239810   1.626   0.811   2.482 -1.8844  1.1996 -3.2948
 9450SOL     OW39811   3.529   4.145   5.825 -0.3063 -0.4096 -0.1129
 9450SOL    HW139812   3.438   4.139   5.795 -0.7736 -0.9245  1.4111
 9450SOL    HW239813   3.525   4.236   5.852  0.4473 -0.4981  0.2998
 9451SOL     OW39814   2.699   2.540   7.364 -0.2743  0.3990  0.3060
 9451SOL    HW139815   2.707   2.455   7.321 -0.7041  1.2269 -1.4051
 9451SOL    HW239816   2.647   2.592   7.303 -1.6320 -1.4645 -0.1069
 9452SOL     OW39817   3.870   2.367   8.930 -0.2102  0.1894 -0.6159
 9452SOL    HW139818   3.879   2.358   9.025 -1.1896 -0.5658 -0.5926
 9452SOL    HW239819   3.955   2.331   8.906 -2.3858 -3.9693 -2.1728
 9453SOL     OW39820   0.960   0.731  12.381 -0.2674  0.3911  0.2444
 9453SOL    HW139821   0.991   0.796  12.445  0.3942 -0.9644  1.2872
 9453SOL    HW239822   0.890   0.688  12.430 -2.0614  1.2002 -1.5789
 9454SOL     OW39823   2.134   3.136  11.138  0.0593 -0.5076  0.2619
 9454SOL    HW139824   2.067   3.098  11.082  0.0475  1.5097 -1.1155
 9454SOL    HW239825   2.213   3.116  11.088  0.8862  1.8978  0.5629
 9455SOL     OW39826   1.807   3.122   7.369  0.2476  0.3247 -0.2874
 9455SOL    HW139827   1.888   3.171   7.375 -0.4493  1.4036  0.2035
 9455SOL    HW239828   1.733   3.178   7.393 -0.6660 -0.3425 -1.4891
 9456SOL     OW39829   3.759   4.070   2.723  0.2108 -0.0114 -0.2070
 9456SOL    HW139830   3.743   3.976   2.713 -1.3912  0.2195  0.1930
 9456SOL    HW239831   3.851   4.075   2.697  0.6766 -0.7760  1.2846
 9457SOL     OW39832   2.592   2.983  12.289 -0.3840 -0.5785  0.7320
 9457SOL    HW139833   2.583   3.034  12.209  2.4351  0.8267  1.3033
 9457SOL    HW239834   2.501   2.961  12.308 -0.0466 -0.8472  2.0820
 9458SOL     OW39835   0.824   4.520   5.296 -0.6466 -0.3806  0.4005
 9458SOL    HW139836   0.781   4.494   5.378 -0.1574 -0.2816  0.6839
 9458SOL    HW239837   0.912   4.545   5.325 -0.8490  0.6881  0.0793
 9459SOL     OW39838   2.905   2.152   8.040  0.2826 -0.1923 -0.4273
 9459SOL    HW139839   2.905   2.240   8.002 -0.0122 -0.6245 -1.4509
 9459SOL    HW239840   2.859   2.104   7.970 -0.4208 -0.8097  0.4652
 9460SOL     OW39841   3.322   0.976  10.574 -0.0196  0.4021  0.0025
 9460SOL    HW139842   3.263   1.009  10.643  0.6399  0.5908  0.4711
 9460SOL    HW239843   3.379   1.052  10.568  2.0043 -1.1554 -0.6058
 9461SOL     OW39844   1.360   0.405   7.207  0.4586  0.4531  0.4690
 9461SOL    HW139845   1.266   0.420   7.194  0.0137 -2.0212  0.8943
 9461SOL    HW239846   1.370   0.430   7.299 -0.3967  2.1465  0.1039
 9462SOL     OW39847   2.076   1.219  11.319  0.0996 -0.2372 -0.2393
 9462SOL    HW139848   2.083   1.131  11.356  0.8100 -0.1659 -0.1914
 9462SOL    HW239849   2.018   1.210  11.244 -1.4866 -2.3947  1.2781
 9463SOL     OW39850   4.249   2.552   6.333 -1.0429 -0.1703 -0.1359
 9463SOL    HW139851   4.315   2.574   6.399  1.9965  1.7625 -3.8369
 9463SOL    HW239852   4.184   2.620   6.350 -0.9970 -0.2403  0.3187
 9464SOL     OW39853   0.959   0.171  13.081 -0.1080 -0.3913  0.8342
 9464SOL    HW139854   0.928   0.197  13.168  0.4857 -0.3519  1.0346
 9464SOL    HW239855   0.890   0.199  13.020 -0.6992 -1.6563  0.9313
 9465SOL     OW39856   1.742   2.181   3.270  0.8143 -0.3267 -0.0872
 9465SOL    HW139857   1.808   2.228   3.321  1.4348 -0.8236 -0.4271
 9465SOL    HW239858   1.690   2.253   3.236 -3.2903 -3.8846 -1.3175
 9466SOL     OW39859   1.477   1.872   5.395  0.0276 -0.2458  0.4481
 9466SOL    HW139860   1.550   1.829   5.439 -0.2039 -0.1494  0.9319
 9466SOL    HW239861   1.409   1.823   5.441 -0.1658 -0.3714  0.0226
 9467SOL     OW39862   1.325   3.517   3.021 -0.6548  0.3897  0.1453
 9467SOL    HW139863   1.280   3.461   3.085  2.4670 -2.2886  0.0099
 9467SOL    HW239864   1.275   3.487   2.945  0.3474 -0.4423 -0.1945
 9468SOL     OW39865   4.680   3.974   1.998 -0.1816 -0.4695 -0.6263
 9468SOL    HW139866   4.678   3.890   1.951  0.7594 -0.5987 -0.4453
 9468SOL    HW239867   0.054   3.981   1.994 -0.3045  0.7868 -1.3099
 9469SOL     OW39868   3.803   3.833   3.690 -0.1067  0.1501  0.8015
 9469SOL    HW139869   3.837   3.787   3.613  0.3791  1.3634  0.2791
 9469SOL    HW239870   3.713   3.802   3.692  1.0459 -3.4184 -1.9683
 9470SOL     OW39871   1.983   1.631   2.441 -0.2561 -0.5715  0.4753
 9470SOL    HW139872   2.013   1.679   2.364  0.3000 -1.0426  0.3974
 9470SOL    HW239873   1.895   1.657   2.465  0.4865  3.0377 -0.7481
 9471SOL     OW39874   1.098   3.564  14.513 -0.9122  0.2982  0.7775
 9471SOL    HW139875   1.133   3.623  14.446 -1.3401  0.3836  0.6277
 9471SOL    HW239876   1.108   3.479  14.471  1.2407  0.5088  0.9014
 9472SOL     OW39877   3.907   0.715   7.466 -0.5369  0.0129  0.3692
 9472SOL    HW139878   3.836   0.746   7.523 -2.2915 -2.3105 -0.5224
 9472SOL    HW239879   3.983   0.768   7.489  0.5932 -2.0911  1.4727
 9473SOL     OW39880   0.481   2.109   7.972 -0.0221 -0.9995 -0.0277
 9473SOL    HW139881   0.484   2.102   8.067 -0.3957  2.2365  0.2229
 9473SOL    HW239882   0.576   2.112   7.963 -0.2515 -0.7117 -2.4336
 9474SOL     OW39883   1.362   2.900   0.821 -0.2100 -0.2789 -0.0910
 9474SOL    HW139884   1.285   2.946   0.786  0.4147  0.0683 -1.0103
 9474SOL    HW239885   1.377   2.950   0.901  3.0246 -0.8540 -0.3199
 9475SOL     OW39886   4.350   4.619  10.453  0.4902  0.1550  0.2566
 9475SOL    HW139887   4.362   4.538  10.404 -0.3514 -0.9164  1.8537
 9475SOL    HW239888   4.257   4.620  10.472  0.1775  1.5231 -1.2529
 9476SOL     OW39889   0.594   0.501   0.843 -0.3053 -0.5119  0.4500
 9476SOL    HW139890   0.655   0.427   0.842 -0.5684 -0.7245  0.0096
 9476SOL    HW239891   0.573   0.510   0.936 -1.0596  1.3263  0.1125
 9477SOL     OW39892   4.375   4.007   0.609  0.1829  0.4890 -0.0280
 9477SOL    HW139893   4.469   4.026   0.604  0.2994  0.0243  0.4559
 9477SOL    HW239894   4.351   3.997   0.517  1.4227 -2.4824 -0.0204
 9478SOL     OW39895   3.398   4.014   5.234 -0.2258 -0.3199  0.0769
 9478SOL    HW139896   3.336   4.039   5.303  0.4727 -1.0785  0.9945
 9478SOL    HW239897   3.480   4.026   5.282 -0.0817 -0.8571 -0.0372
 9479SOL     OW39898   2.707   4.574  13.472 -0.1322  0.1745 -0.5560
 9479SOL    HW139899   2.683   4.582  13.380  1.6034 -0.2530 -1.0498
 9479SOL    HW239900   2.625   4.534  13.499  0.7851 -0.6218  1.1004
 9480SOL     OW39901   3.781   2.304  17.249  0.0203 -0.1724 -0.5427
 9480SOL    HW139902   3.735   2.277  17.329  1.2978 -2.9148 -0.7349
 9480SOL    HW239903   3.708   2.334  17.195 -0.7317 -0.7036  0.1936
 9481SOL     OW39904   1.605   2.888   5.668 -0.1527 -0.0571  0.6634
 9481SOL    HW139905   1.598   2.793   5.652 -0.1539 -0.1802  1.3809
 9481SOL    HW239906   1.526   2.894   5.722 -1.0343 -3.0600 -0.2657
 9482SOL     OW39907   0.472   3.626   5.524 -0.4704 -0.0666 -0.6966
 9482SOL    HW139908   0.382   3.630   5.557 -0.4035  0.4716 -0.5754
 9482SOL    HW239909   0.458   3.580   5.441  2.7488 -0.7688 -0.8348
 9483SOL     OW39910   0.059   0.616   2.025  0.4798  0.0906 -0.6392
 9483SOL    HW139911   0.061   0.708   2.053  0.6976 -0.2118  0.3277
 9483SOL    HW239912   0.036   0.617   1.932  1.4492 -1.4054 -0.8869
 9484SOL     OW39913   1.712   2.403   2.190 -0.2895  0.5305  0.3729
 9484SOL    HW139914   1.700   2.355   2.108  2.2155 -0.0906  0.3603
 9484SOL    HW239915   1.806   2.390   2.207 -0.2326 -0.0942 -0.4736
 9485SOL     OW39916   3.107   0.579  17.247  0.5616  0.0361  0.1288
 9485SOL    HW139917   3.169   0.653  17.245  2.1342 -1.2962  0.0714
 9485SOL    HW239918   3.071   0.582  17.336 -0.6999  2.8439 -0.4612
 9486SOL     OW39919   1.847   0.779   6.531 -0.0247 -0.0483  0.2357
 9486SOL    HW139920   1.907   0.712   6.565  0.2418  0.6566  1.1705
 9486SOL    HW239921   1.867   0.758   6.440  0.2482 -2.1603  0.7628
 9487SOL     OW39922   0.149   0.488   7.876 -0.3363  0.4435 -0.2536
 9487SOL    HW139923   0.061   0.474   7.912 -0.3802  0.6387 -0.2848
 9487SOL    HW239924   0.137   0.518   7.786  1.5837 -2.0010 -1.3314
 9488SOL     OW39925   2.412   2.454   1.278  0.5396  0.1773 -0.1230
 9488SOL    HW139926   2.448   2.401   1.349  0.4893 -0.0057 -0.2338
 9488SOL    HW239927   2.428   2.544   1.307 -0.8682  0.4930 -0.3368
 9489SOL     OW39928   2.416   2.270   5.745  0.1813  0.1951 -0.7270
 9489SOL    HW139929   2.425   2.354   5.791 -2.5378 -1.3373  2.6896
 9489SOL    HW239930   2.321   2.265   5.731  0.0118  0.3433  0.3436
 9490SOL     OW39931   1.086   3.547   7.739 -0.3247 -0.2689  0.4140
 9490SOL    HW139932   1.173   3.584   7.752  0.0214 -1.1013  0.4751
 9490SOL    HW239933   1.024   3.620   7.735  0.6555  0.5392 -0.0074
 9491SOL     OW39934   0.535   3.256   0.185 -0.2737 -0.4361  0.2452
 9491SOL    HW139935   0.457   3.310   0.175 -0.5716 -0.5488  2.0954
 9491SOL    HW239936   0.531   3.204   0.104 -1.8091 -0.6410  0.4552
 9492SOL     OW39937   0.913   3.953   3.708 -0.0258 -0.3894  0.3665
 9492SOL    HW139938   0.853   3.944   3.633 -0.9637 -2.2543  1.3400
 9492SOL    HW239939   0.887   4.036   3.748 -0.0884  1.7808 -4.1055
 9493SOL     OW39940   0.926   2.775   4.076 -0.0789 -0.0296 -0.6396
 9493SOL    HW139941   0.996   2.754   4.138 -0.1825  2.4110  0.3119
 9493SOL    HW239942   0.897   2.689   4.047 -0.0493  0.1614 -1.2395
 9494SOL     OW39943   0.435   3.872   3.228 -0.2802  0.1707  0.2904
 9494SOL    HW139944   0.530   3.866   3.225 -0.2339 -2.0997  5.3338
 9494SOL    HW239945   0.400   3.783   3.230 -1.5949  0.6443 -1.0224
 9495SOL     OW39946   1.439   3.613   5.519  0.2500 -0.0985 -0.1785
 9495SOL    HW139947   1.454   3.611   5.424 -0.9133  1.1500 -0.4022
 9495SOL    HW239948   1.474   3.527   5.542  2.2948  1.0327  0.9343
 9496SOL     OW39949   2.544   2.505   5.988 -0.1360 -0.2755  0.4728
 9496SOL    HW139950   2.512   2.562   6.058  1.3819  0.5390  0.4975
 9496SOL    HW239951   2.509   2.562   5.919 -0.9805 -0.5118  0.7128
 9497SOL     OW39952   2.270   2.360  13.688  0.2259  0.5018 -1.1571
 9497SOL    HW139953   2.268   2.370  13.783  3.1595  0.0293 -1.0473
 9497SOL    HW239954   2.177   2.344  13.672 -0.2480  1.9970  0.1618
 9498SOL     OW39955   0.562   3.528   3.067  0.4136 -0.8476  0.2996
 9498SOL    HW139956   0.563   3.546   2.973 -1.2725 -0.7591  0.3061
 9498SOL    HW239957   0.542   3.436   3.082  0.7450 -1.3800 -2.5748
 9499SOL     OW39958   3.333   0.346   5.301 -0.7723 -0.0387 -0.3300
 9499SOL    HW139959   3.250   0.301   5.319 -0.9599  0.8430  1.0532
 9499SOL    HW239960   3.375   0.262   5.285  0.8168  0.9747 -1.4158
 9500SOL     OW39961   2.365   4.179   3.337  0.0547  0.0806 -0.2280
 9500SOL    HW139962   2.353   4.101   3.391  1.0552  0.7854  1.0360
 9500SOL    HW239963   2.304   4.159   3.267 -1.8081 -1.5935  1.8663
 9501SOL     OW39964   0.744   3.319   1.351 -0.0018 -0.2310 -0.2830
 9501SOL    HW139965   0.679   3.355   1.411 -0.2801 -0.0308 -0.6985
 9501SOL    HW239966   0.812   3.282   1.407 -0.5962 -1.9015 -0.6559
 9502SOL     OW39967   0.111   2.446   3.545  0.2585  0.3063 -0.5463
 9502SOL    HW139968   0.074   2.422   3.630 -3.3236  3.3449 -1.2856
 9502SOL    HW239969   0.078   2.380   3.484  1.1390 -2.9917  2.5131
 9503SOL     OW39970   4.675   2.802   4.242  0.4740  0.3292 -0.5539
 9503SOL    HW139971   4.666   2.845   4.157 -1.9217  0.8096 -0.0275
 9503SOL    HW239972   0.046   2.820   4.260 -0.1676 -0.2060  3.3168
 9504SOL     OW39973   0.155   2.173  15.203  0.1031 -0.0332  0.1731
 9504SOL    HW139974   0.126   2.086  15.175 -1.3428 -0.0915  1.8674
 9504SOL    HW239975   0.224   2.187  15.139 -0.2178 -0.8727 -0.3569
 9505SOL     OW39976   4.265   4.369   6.899 -0.4241 -0.8678 -0.3193
 9505SOL    HW139977   4.340   4.310   6.911 -1.4989 -1.9509  0.9400
 9505SOL    HW239978   4.193   4.309   6.879 -0.8569 -0.0616 -1.1461
 9506SOL     OW39979   4.647   1.937   0.881  0.9688  1.2898 -0.0850
 9506SOL    HW139980   4.694   1.879   0.822  1.1230 -1.5821  2.8541
 9506SOL    HW239981   4.559   1.947   0.845  1.1951 -0.3319 -1.0878
 9507SOL     OW39982   3.554   1.772   7.238 -0.5596  0.1838 -0.1344
 9507SOL    HW139983   3.638   1.784   7.193 -0.2812  0.0284  0.3504
 9507SOL    HW239984   3.552   1.856   7.283  1.7031  0.2108 -0.0665
 9508SOL     OW39985   2.124   1.010   9.846  0.5658  0.3623  0.4360
 9508SOL    HW139986   2.156   0.922   9.822 -1.0784 -0.3869  1.0185
 9508SOL    HW239987   2.146   1.065   9.771 -1.6520  0.2014 -0.3222
 9509SOL     OW39988   4.515   3.490   1.112  0.7609  0.4590 -0.0722
 9509SOL    HW139989   4.517   3.561   1.048  1.2705  0.4621 -0.0539
 9509SOL    HW239990   4.569   3.421   1.072  2.0657  1.4519 -0.0272
 9510SOL     OW39991   1.520   1.848   8.038  0.0034  0.5031 -0.3419
 9510SOL    HW139992   1.593   1.886   7.990  0.7249  1.2359  1.3103
 9510SOL    HW239993   1.456   1.910   8.002  0.3269  0.9480 -0.1564
 9511SOL     OW39994   1.803   2.914   6.034  0.2782  0.4090 -0.4556
 9511SOL    HW139995   1.837   2.973   6.101 -2.4483  1.4137  0.0395
 9511SOL    HW239996   1.760   2.971   5.971  3.2152  0.0197 -2.8235
 9512SOL     OW39997   4.368   3.472   2.076  0.0755 -0.4509  1.4385
 9512SOL    HW139998   4.358   3.565   2.096 -2.0721 -0.3848  0.0912
 9512SOL    HW239999   4.451   3.468   2.028  0.7663  1.2197  2.4821
 9513SOL     OW40000   3.709   0.962   5.188 -0.1963 -0.2014 -0.0846
 9513SOL    HW140001   3.616   0.981   5.200 -0.2009  1.0167 -1.9790
 9513SOL    HW240002   3.729   0.883   5.239 -0.6957  0.2149  0.7547
 9514SOL     OW40003   0.403   2.055   2.708 -0.1593  0.0710  0.5782
 9514SOL    HW140004   0.454   2.036   2.629  0.5121  3.3011  0.1981
 9514SOL    HW240005   0.465   2.036   2.778  1.4579  0.4002 -0.7761
 9515SOL     OW40006   0.088   1.087   0.870  0.2589  0.2114 -0.2986
 9515SOL    HW140007   0.171   1.122   0.836  1.9258 -0.7283  2.7764
 9515SOL    HW240008   0.066   1.147   0.941 -1.1549  1.9470 -2.1841
 9516SOL     OW40009   0.519   4.044   2.136 -0.0208 -0.2525  0.0727
 9516SOL    HW140010   0.476   4.000   2.062  2.0866  0.3248 -1.4826
 9516SOL    HW240011   0.442   4.081   2.180  1.8160  3.9402 -0.2418
 9517SOL     OW40012   1.410   2.143   9.211  0.0894 -0.4975 -0.1560
 9517SOL    HW140013   1.321   2.125   9.243 -0.1764 -0.0902 -0.6656
 9517SOL    HW240014   1.426   2.206   9.282  1.4526  0.9320 -1.7501
 9518SOL     OW40015   1.618   0.014  11.381  0.5850  0.2447 -0.0472
 9518SOL    HW140016   1.687   4.669  11.379 -2.0257 -2.5436  1.7402
 9518SOL    HW240017   1.623   0.057  11.467 -0.6074  0.6315 -0.1754
 9519SOL     OW40018   3.030   2.829   4.145 -0.0943  0.4421  0.3918
 9519SOL    HW140019   3.019   2.796   4.056 -0.5205 -0.1691  0.6744
 9519SOL    HW240020   3.123   2.852   4.143 -0.5246  2.1997  0.8655
 9520SOL     OW40021   0.350   0.854   2.867  0.3622 -0.1981 -0.7995
 9520SOL    HW140022   0.396   0.902   2.798 -0.9001  1.8177 -0.2425
 9520SOL    HW240023   0.425   0.803   2.898  2.7510  3.1327 -1.0665
 9521SOL     OW40024   1.214   2.312   7.573 -0.2538  0.6961  0.0207
 9521SOL    HW140025   1.193   2.232   7.622 -0.3599 -0.8142 -2.4282
 9521SOL    HW240026   1.308   2.311   7.558 -0.4237  1.1179 -1.0954
 9522SOL     OW40027   2.075   0.616   6.563 -0.0702 -0.3653 -0.4837
 9522SOL    HW140028   2.135   0.672   6.512 -0.4859  0.0223 -0.5462
 9522SOL    HW240029   2.125   0.607   6.644  1.1063  2.7125 -0.8410
 9523SOL     OW40030   1.258   0.117   5.372  0.1491 -0.5045  0.0837
 9523SOL    HW140031   1.346   0.113   5.410  0.7903  2.3829 -1.0576
 9523SOL    HW240032   1.252   0.210   5.350 -0.6770 -0.6136 -0.1473
 9524SOL     OW40033   4.483   4.077   2.880 -0.0804  0.2033 -0.0402
 9524SOL    HW140034   4.525   4.146   2.828 -1.3332  1.2693  0.3511
 9524SOL    HW240035   4.554   4.014   2.872 -1.1434 -1.1577  1.2658
 9525SOL     OW40036   0.137   0.237  15.838 -0.2254  0.5880 -0.0782
 9525SOL    HW140037   0.196   0.178  15.884 -1.0113  0.0528  0.2566
 9525SOL    HW240038   0.095   0.268  15.918 -3.2636 -0.6096 -1.1994
 9526SOL     OW40039   2.243   0.608   0.990 -0.6526  0.3318 -0.3908
 9526SOL    HW140040   2.318   0.551   1.008 -0.3840  1.1175  0.9570
 9526SOL    HW240041   2.167   0.552   1.003  1.7055 -2.9196 -0.7374
 9527SOL     OW40042   1.428   2.672  13.923 -0.1090  0.4733  0.2448
 9527SOL    HW140043   1.364   2.605  13.946 -0.9263  1.8442  1.9939
 9527SOL    HW240044   1.509   2.628  13.947 -0.4591 -1.7025 -2.5368
 9528SOL     OW40045   3.814   0.696  15.067  0.8776 -0.2431 -0.0473
 9528SOL    HW140046   3.723   0.681  15.041  0.0881  0.7977  2.0792
 9528SOL    HW240047   3.862   0.669  14.989 -1.1272 -1.7242 -0.7736
 9529SOL     OW40048   0.344   2.502   2.072  0.2646  0.0795 -0.1538
 9529SOL    HW140049   0.384   2.487   2.158  0.7499 -2.6985 -0.8449
 9529SOL    HW240050   0.384   2.588   2.058 -3.2025  1.3678 -2.0800
 9530SOL     OW40051   1.475   4.641   9.900 -0.1739  0.1127 -0.0403
 9530SOL    HW140052   1.421   4.690   9.838  1.0389 -0.4239 -1.5513
 9530SOL    HW240053   1.557   4.633   9.850  0.4930  1.7121  0.8036
 9531SOL     OW40054   0.712   3.549  16.155 -0.0067  0.2600  0.3201
 9531SOL    HW140055   0.707   3.455  16.139 -0.5956  0.1275  1.2675
 9531SOL    HW240056   0.619   3.565  16.138 -0.1113 -0.3861  0.2583
 9532SOL     OW40057   3.250   1.022   3.350 -0.1762  0.2528 -0.1863
 9532SOL    HW140058   3.241   0.931   3.377  0.8526  0.3438  0.4601
 9532SOL    HW240059   3.288   1.008   3.263 -1.9004  2.1928 -1.2647
 9533SOL     OW40060   3.000   2.755   3.869  0.2156 -0.2028 -0.9672
 9533SOL    HW140061   3.021   2.812   3.794 -0.5208 -0.4896 -1.3896
 9533SOL    HW240062   2.986   2.672   3.825 -3.2006  0.2568 -0.7139
 9534SOL     OW40063   3.568   2.334   5.810  0.0324  0.4511 -0.2483
 9534SOL    HW140064   3.615   2.395   5.867 -0.7299  2.7503 -2.0691
 9534SOL    HW240065   3.543   2.266   5.873  1.8585  0.2523  0.2446
 9535SOL     OW40066   2.038   2.689   1.486 -0.0649  0.6296  0.0864
 9535SOL    HW140067   1.972   2.758   1.474 -0.6791  0.1136  0.4989
 9535SOL    HW240068   2.074   2.683   1.398 -1.5139 -1.4435 -0.3793
 9536SOL     OW40069   1.032   1.676   6.295 -0.2897 -0.1966 -0.8698
 9536SOL    HW140070   0.940   1.691   6.275 -0.1755  0.6803 -0.7370
 9536SOL    HW240071   1.023   1.600   6.353 -0.0736  0.5460  0.1478
 9537SOL     OW40072   0.323   2.300   8.547 -0.0508 -0.1130  0.6209
 9537SOL    HW140073   0.397   2.322   8.603  0.7955  0.6457 -0.8246
 9537SOL    HW240074   0.246   2.285   8.602 -0.3250 -0.8748  0.0264
 9538SOL     OW40075   4.705   1.400  11.758  0.0161  0.6707 -0.2346
 9538SOL    HW140076   4.625   1.348  11.748  0.5595 -0.4663  1.2722
 9538SOL    HW240077   0.034   1.382  11.679 -0.2155 -0.1156 -0.2096
 9539SOL     OW40078   0.331   1.872  10.495  0.1138  0.3070 -0.9175
 9539SOL    HW140079   0.267   1.904  10.559  1.1090 -0.9889  0.7110
 9539SOL    HW240080   0.399   1.838  10.553 -1.3946 -1.7880 -0.3810
 9540SOL     OW40081   3.770   4.159   1.040 -0.4973 -0.2500  0.6658
 9540SOL    HW140082   3.820   4.208   0.974 -1.0959  0.3069  0.6247
 9540SOL    HW240083   3.728   4.095   0.983  1.0464 -0.8447  0.1937
 9541SOL     OW40084   2.678   3.333   9.319  0.6249 -0.6795  0.1576
 9541SOL    HW140085   2.737   3.402   9.351  0.0651 -0.4854  0.7635
 9541SOL    HW240086   2.634   3.400   9.266 -0.3575 -0.5556  1.1318
 9542SOL     OW40087   3.342   2.224  10.484  0.1654  0.0600 -0.0013
 9542SOL    HW140088   3.354   2.307  10.437  2.3395  0.9491  2.0975
 9542SOL    HW240089   3.304   2.168  10.417 -0.0603 -0.6094  0.6761
 9543SOL     OW40090   3.109   2.523   3.224  0.3568  0.0695 -0.3256
 9543SOL    HW140091   3.103   2.466   3.147 -1.9271 -1.8569  1.2562
 9543SOL    HW240092   3.145   2.465   3.290 -0.8942 -0.9292 -0.5297
 9544SOL     OW40093   2.797   4.181   5.642 -0.0117  0.1845 -0.0372
 9544SOL    HW140094   2.809   4.198   5.735  0.4615 -0.7216  0.0641
 9544SOL    HW240095   2.710   4.142   5.638  0.3309 -0.5349 -0.4204
 9545SOL     OW40096   3.808   3.591   6.079 -0.1075 -0.1577 -0.3254
 9545SOL    HW140097   3.717   3.568   6.099 -0.7896  1.3191 -1.7686
 9545SOL    HW240098   3.851   3.566   6.161  0.3536 -0.3929 -0.6351
 9546SOL     OW40099   4.051   3.954  12.713  0.8913  0.3251  0.3105
 9546SOL    HW140100   4.126   3.978  12.658  1.9255 -0.7696  1.2544
 9546SOL    HW240101   3.995   3.938  12.637  3.3571  1.5200 -1.7540
 9547SOL     OW40102   3.974   3.255   5.691  0.1102  0.0754  0.3486
 9547SOL    HW140103   4.000   3.196   5.762  2.6239  0.8139  0.0299
 9547SOL    HW240104   3.906   3.197   5.657 -0.4957  0.0477  1.5976
 9548SOL     OW40105   1.003   1.750  12.689 -0.3122 -0.2973  0.2546
 9548SOL    HW140106   0.982   1.681  12.752  1.5314 -0.1025  1.0907
 9548SOL    HW240107   0.953   1.822  12.726 -0.2591 -0.3794  0.4890
 9549SOL     OW40108   3.175   1.410   7.157  0.1571 -0.5545  0.0515
 9549SOL    HW140109   3.118   1.427   7.232 -0.1642  1.1046 -0.5558
 9549SOL    HW240110   3.243   1.477   7.156 -1.3541  0.9788  0.5120
 9550SOL     OW40111   2.217   2.961   4.462 -0.2822  0.3183  0.0518
 9550SOL    HW140112   2.234   2.867   4.465  0.6927  0.5343  1.4994
 9550SOL    HW240113   2.185   2.994   4.546  3.7971  2.1011  0.9320
 9551SOL     OW40114   4.284   1.755   3.474 -0.7226  0.1736  0.5407
 9551SOL    HW140115   4.310   1.688   3.537  0.8987  3.9341  3.8399
 9551SOL    HW240116   4.339   1.825   3.508 -0.0199  0.5131 -1.2716
 9552SOL     OW40117   0.498   3.380   3.523 -0.2448 -0.3809 -0.4940
 9552SOL    HW140118   0.542   3.421   3.597  0.1409 -0.9618 -0.4056
 9552SOL    HW240119   0.565   3.323   3.484 -1.0277 -1.1248 -0.7438
 9553SOL     OW40120   2.106   4.274   6.032  0.0560  0.7601  0.2044
 9553SOL    HW140121   2.049   4.339   6.073 -0.1743  0.1336  0.8654
 9553SOL    HW240122   2.147   4.340   5.976  1.0081 -0.5854 -0.6725
 9554SOL     OW40123   4.598   4.604   7.965  0.2532 -0.7847 -0.3677
 9554SOL    HW140124   4.677   4.645   7.931 -0.7343  1.3299 -0.1010
 9554SOL    HW240125   4.555   4.585   7.881 -2.2070  3.2479 -0.0173
 9555SOL     OW40126   0.598   1.886   7.377  0.3862  0.0786  0.2474
 9555SOL    HW140127   0.554   1.964   7.411  1.6042  0.5926  0.6550
 9555SOL    HW240128   0.672   1.931   7.336  0.6793 -0.3699  0.2751
 9556SOL     OW40129   1.140   1.421   0.899 -0.4565  0.2434 -0.5842
 9556SOL    HW140130   1.117   1.392   0.811  0.5478  1.1817 -1.1617
 9556SOL    HW240131   1.182   1.505   0.877  3.1982 -1.4098  0.0767
 9557SOL     OW40132   3.515   4.320  12.362  0.1877 -0.2043 -0.2776
 9557SOL    HW140133   3.463   4.372  12.423 -1.1700 -2.4818  0.5284
 9557SOL    HW240134   3.599   4.331  12.407 -0.6047 -0.9762  1.4072
 9558SOL     OW40135   2.432   0.293   5.532  0.3013  0.2380 -0.4281
 9558SOL    HW140136   2.460   0.338   5.453 -0.3311  0.3637 -0.5810
 9558SOL    HW240137   2.477   0.343   5.600  0.3830 -3.3879  2.2236
 9559SOL     OW40138   2.684   0.116   9.440  0.7289  0.0224  0.0884
 9559SOL    HW140139   2.629   0.191   9.418  0.1714 -0.7882 -1.2341
 9559SOL    HW240140   2.622   0.065   9.493  1.6695 -0.4537  0.7331
 9560SOL     OW40141   1.700   3.762   2.322 -0.3270  0.1929 -0.2110
 9560SOL    HW140142   1.624   3.813   2.295  0.1074  0.0523 -1.7160
 9560SOL    HW240143   1.735   3.835   2.372 -1.1687 -1.4625  2.8219
 9561SOL     OW40144   3.162   2.181   0.204 -0.4049 -0.3909  0.0247
 9561SOL    HW140145   3.086   2.223   0.164 -0.3316 -1.0129 -0.7634
 9561SOL    HW240146   3.218   2.257   0.221 -0.4022 -0.1146 -1.2459
 9562SOL     OW40147   4.301   1.021   4.227  0.5701  0.4423  0.4557
 9562SOL    HW140148   4.228   1.056   4.175  1.3495  0.4421 -0.6318
 9562SOL    HW240149   4.298   1.071   4.309 -0.3829 -0.7041  1.1186
 9563SOL     OW40150   3.207   3.198  11.675  0.4003 -0.3492  0.5371
 9563SOL    HW140151   3.271   3.139  11.715  0.3307  0.0375  1.2261
 9563SOL    HW240152   3.147   3.213  11.748 -0.5695  0.6640 -0.4784
 9564SOL     OW40153   4.348   1.559   7.230 -0.5856  0.0829  0.1424
 9564SOL    HW140154   4.282   1.601   7.175 -1.3184 -0.7733  0.3712
 9564SOL    HW240155   4.333   1.466   7.211  1.0434  0.0203 -0.8928
 9565SOL     OW40156   2.607   1.267  10.980 -0.1915 -0.4374 -0.2134
 9565SOL    HW140157   2.580   1.175  10.982 -1.1171 -0.1833 -0.8559
 9565SOL    HW240158   2.600   1.283  10.886  0.2400  1.2703  0.0550
 9566SOL     OW40159   0.710   1.523   7.530 -0.2078  0.1255  0.4475
 9566SOL    HW140160   0.782   1.463   7.511 -0.6643  0.1403 -1.2671
 9566SOL    HW240161   0.672   1.461   7.593 -0.4757  0.8753  1.0291
 9567SOL     OW40162   3.597   4.214   7.231 -0.3936 -0.5928  0.1562
 9567SOL    HW140163   3.514   4.176   7.258  0.3575 -3.2633 -1.2912
 9567SOL    HW240164   3.569   4.296   7.192 -0.3798 -0.6202  0.0883
 9568SOL     OW40165   3.613   4.049   2.983  0.4479  0.7045 -0.2773
 9568SOL    HW140166   3.677   4.075   2.917 -0.1927 -0.1864 -1.2541
 9568SOL    HW240167   3.668   4.042   3.061  1.7388 -3.3321 -1.5378
   4.72130   4.72130  17.68753
