Membrane in water
40167
    1TCq1    O1    1   4.188   0.311  11.353  0.2341  0.2848  0.3963
    1TCq1    C1    2   4.075   0.337  11.420  1.2320  0.2232 -0.9949
    1TCq1    O2    3   4.075   0.420  11.509 -0.6159 -0.0698 -0.4457
    1TCq1    C2    4   4.009   0.207  11.427  0.0652  0.7434 -0.9669
    1TCq1    C3    5   3.954   0.153  11.316 -0.2067  0.1622 -0.7523
    1TCq1    C4    6   3.908   0.024  11.312 -0.1199  0.3445 -0.3866
    1TCq1    C5    7   3.907   4.671  11.427 -1.1300  0.4269  0.2444
    1TCq1    C6    8   3.961   0.005  11.539  0.0175 -0.4241 -0.8746
    1TCq1    C7    9   4.011   0.132  11.541 -0.0106  0.1989 -0.8191
    1TCq1    C8   10   3.963   4.657  11.667 -0.0309  0.0123  0.3190
    1TCq1    O4   11   3.958   4.538  11.653 -0.1579  0.2613  0.5290
    1TCq1    C9   12   3.844   4.703  11.199  0.4750 -0.3100  0.5623
    1TCq1    O5   13   3.888   0.019  11.088 -0.0164  0.1623 -0.4934
    1TCq1    O6   14   3.779   4.594  11.209  0.0468 -0.3157 -0.1736
    1TCq1    H1   15   4.175   0.228  11.302  0.8642  0.0950  0.5494
    1TCq1    H2   16   3.949   0.204  11.220 -1.8073  1.4385  0.0161
    1TCq1    H3   17   3.872   4.569  11.416  1.3224 -0.5479  1.4361
    1TCq1    H4   18   4.064   0.177  11.625 -3.5419 -1.7444  2.4691
    2MPD2     C   19   3.972   4.601  12.170  0.4168  0.7166  0.0508
    2MPD2    C1   20   3.944   0.012  12.146 -0.1361  0.1563 -0.0055
    2MPD2    C2   21   3.937   0.049  12.016  0.0473 -0.0342 -0.2169
    2MPD2    C3   22   3.964   4.683  11.911  0.0844 -0.1548 -0.0463
    2MPD2    C4   23   3.976   4.545  11.937  0.0956 -0.4455  0.0752
    2MPD2    C5   24   3.992   4.506  12.071 -0.0023  0.2032  0.0905
    2MPD2     H   25   3.925   0.156  12.002  1.2804  0.1404  0.0200
    2MPD2    H1   26   3.998   4.467  11.865 -1.1756 -0.5106 -0.2292
    2MPD2    H2   27   4.003   4.555  12.264  2.1446  1.0452 -0.3562
    2MPD2    H3   28   4.030   4.405  12.084 -1.0533 -0.1223  0.5657
    2MPD2     N   29   3.961   0.012  11.780  0.9526  0.1400 -0.7232
    2MPD2    H5   30   3.929   0.107  11.768 -0.1093  0.1031  1.7599
    2MPD2    N1   31   3.900   0.105  12.244  0.2244 -0.2702  0.3217
    2MPD2    H7   32   3.870   0.196  12.212 -3.0302 -1.1638  0.8447
    3TCq1    O1   33   3.432   0.441  10.176 -0.6070  0.8583 -0.4300
    3TCq1    C1   34   3.454   0.567  10.145 -0.6221  0.7043  0.0811
    3TCq1    O2   35   3.477   0.594  10.029 -0.0710 -0.5664  0.1067
    3TCq1    C2   36   3.446   0.666  10.254 -0.1722 -0.3325 -0.7072
    3TCq1    C3   37   3.507   0.789  10.230 -0.4239  0.5344  0.0482
    3TCq1    C4   38   3.482   0.883  10.334 -0.0432  0.3677  0.6559
    3TCq1    C5   39   3.394   0.861  10.436 -0.2464 -0.1087  0.0607
    3TCq1    C6   40   3.327   0.742  10.436  0.4718 -0.0485 -0.2888
    3TCq1    C7   41   3.368   0.636  10.353  0.6128  0.3314 -0.4428
    3TCq1    C8   42   3.218   0.706  10.523 -1.0212  0.0382 -0.2235
    3TCq1    O4   43   3.176   0.591  10.529  0.2412  0.3656 -0.1211
    3TCq1    C9   44   3.522   1.019  10.314  0.2334 -0.3211 -1.0039
    3TCq1    O5   45   3.452   1.102  10.383 -0.0173  0.6149  0.4407
    3TCq1    O6   46   3.613   1.047  10.233 -0.4805  0.3706  0.4056
    3TCq1    H1   47   3.445   0.423  10.271 -0.8003  0.2768 -0.5133
    3TCq1    H2   48   3.554   0.823  10.139 -0.9812  2.5910  0.5405
    3TCq1    H3   49   3.380   0.933  10.516  2.6959  1.1182 -0.5391
    3TCq1    H4   50   3.296   0.558  10.329  0.4250 -0.2607  2.0066
    4MPD2     C   51   2.881   0.824  10.887 -0.3503 -0.5464 -0.0199
    4MPD2    C1   52   2.924   0.946  10.833 -0.2924 -0.4458  0.3452
    4MPD2    C2   53   3.026   0.936  10.739  0.0997  0.3326 -0.8664
    4MPD2    C3   54   3.080   0.820  10.698  0.8536  0.4203  0.0250
    4MPD2    C4   55   3.032   0.700  10.751  0.0551  0.0513 -0.9448
    4MPD2    C5   56   2.938   0.709  10.845 -0.5067  0.9419 -0.6183
    4MPD2     H   57   3.070   1.024  10.692  1.0949 -0.2918 -1.0894
    4MPD2    H1   58   3.064   0.600  10.726 -0.2102 -0.3239  0.2084
    4MPD2    H2   59   2.809   0.822  10.968 -2.7135  0.2806 -2.1076
    4MPD2    H3   60   2.910   0.612  10.885  0.2492  0.9820 -0.0017
    4MPD2     N   61   3.174   0.822  10.585  0.2916 -0.4635  0.7198
    4MPD2    H5   62   3.198   0.913  10.549 -3.6630  1.0703  1.9302
    4MPD2    N1   63   2.895   1.074  10.878 -0.2490  0.1399 -0.5453
    4MPD2    H7   64   2.940   1.153  10.834 -0.7352  1.3425  1.0937
    5TCq1    O1   65   4.627   3.114  11.537  0.1602  0.4119 -0.3280
    5TCq1    C1   66   4.552   3.023  11.473 -0.6064  0.1215 -0.5550
    5TCq1    O2   67   4.495   3.044  11.366  0.1625  0.0931  0.1730
    5TCq1    C2   68   4.584   2.884  11.517 -0.2663 -0.4536 -0.0907
    5TCq1    C3   69   4.581   2.853  11.649  0.1094  0.4053  0.5061
    5TCq1    C4   70   4.561   2.720  11.687 -0.3236  0.2302  0.0577
    5TCq1    C5   71   4.520   2.626  11.595 -0.2876  0.4379  0.4110
    5TCq1    C6   72   4.508   2.669  11.465 -0.7622 -0.6042  0.0006
    5TCq1    C7   73   4.535   2.794  11.419  0.2181 -0.5058 -0.2096
    5TCq1    C8   74   4.432   2.578  11.377 -0.1310 -0.9336 -0.3608
    5TCq1    O4   75   4.353   2.489  11.409  0.2360  0.0337 -0.0819
    5TCq1    C9   76   4.558   2.686  11.824 -0.7168 -0.2385 -0.3416
    5TCq1    O5   77   4.642   2.750  11.899 -0.9096 -0.0047  0.0317
    5TCq1    O6   78   4.521   2.568  11.848  0.6291 -0.3375 -0.1635
    5TCq1    H1   79   4.677   3.073  11.610  0.5261  3.8001  1.3185
    5TCq1    H2   80   4.600   2.930  11.724  1.1333 -0.2296  0.9043
    5TCq1    H3   81   4.512   2.522  11.623  2.3047 -0.2601 -1.4309
    5TCq1    H4   82   4.497   2.825  11.323  2.4453  0.5807 -0.7569
    6MPD2     C   83   4.474   2.576  11.021 -0.1872 -0.2846 -0.2877
    6MPD2    C1   84   4.405   2.543  11.138  0.6135  1.0445  0.5565
    6MPD2    C2   85   4.285   2.463  11.134  0.1165 -0.2581  0.1845
    6MPD2    C3   86   4.231   2.430  11.014 -0.1566 -0.7107  0.4869
    6MPD2    C4   87   4.302   2.456  10.900  0.7410 -0.3021  0.4794
    6MPD2    C5   88   4.413   2.534  10.906 -0.0212 -0.4662 -0.0403
    6MPD2     H   89   4.221   2.451  11.221  0.9224  0.5205  0.8856
    6MPD2    H1   90   4.266   2.428  10.801 -0.0441 -0.0198  0.6854
    6MPD2    H2   91   4.567   2.631  11.021  0.3256 -1.1401 -0.3182
    6MPD2    H3   92   4.465   2.560  10.814 -0.6352 -0.1805 -0.3113
    6MPD2     N   93   4.110   2.361  11.017 -0.2884  0.3699  0.1040
    6MPD2    H5   94   4.063   2.354  11.107 -0.9181 -2.3883 -0.4311
    6MPD2    N1   95   4.467   2.598  11.248  0.8753 -0.7037  0.1660
    6MPD2    H7   96   4.549   2.657  11.241 -0.5405  1.2363 -0.0682
    7TCq1    O1   97   0.673   2.756  13.064  0.2700 -0.5175  0.8350
    7TCq1    C1   98   0.765   2.837  13.019  0.0041  0.3087  0.1835
    7TCq1    O2   99   0.750   2.916  12.926 -0.3263  0.1109  0.2587
    7TCq1    C2  100   0.869   2.845  13.111 -0.1575 -0.4278  0.3779
    7TCq1    C3  101   0.891   2.957  13.174  0.4065  0.3017  0.4554
    7TCq1    C4  102   0.991   2.959  13.258  0.7067  0.2345  0.5798
    7TCq1    C5  103   1.066   2.849  13.293 -0.3098  0.6389  0.0042
    7TCq1    C6  104   1.037   2.732  13.223 -0.1993  0.5179  0.3872
    7TCq1    C7  105   0.936   2.729  13.129 -0.1305 -0.1420  0.2699
    7TCq1    C8  106   1.129   2.619  13.230 -0.5080 -0.7067  0.4968
    7TCq1    O4  107   1.083   2.512  13.192 -0.0977  0.0031  0.4445
    7TCq1    C9  108   1.020   3.087  13.324  0.4032  0.2272  0.2346
    7TCq1    O5  109   0.927   3.171  13.345  0.2316  0.1008 -0.3354
    7TCq1    O6  110   1.126   3.080  13.397 -0.1841  0.3153  0.1297
    7TCq1    H1  111   0.704   2.722  13.151  0.1466 -1.8296  0.3644
    7TCq1    H2  112   0.849   3.052  13.142 -0.0315 -0.2376 -0.5641
    7TCq1    H3  113   1.133   2.849  13.378 -0.7591 -2.7082  0.3538
    7TCq1    H4  114   0.911   2.635  13.081  2.0325 -0.3867 -0.3843
    8MPD2     C  115   1.601   2.436  13.358  0.1070  0.2856 -0.4241
    8MPD2    C1  116   1.483   2.368  13.326  0.3093 -0.6706  0.0127
    8MPD2    C2  117   1.364   2.438  13.296  0.4797 -0.2520  0.3938
    8MPD2    C3  118   1.368   2.575  13.287  0.0132  0.1755  0.4293
    8MPD2    C4  119   1.484   2.642  13.308 -0.2881 -0.3116 -0.6787
    8MPD2    C5  120   1.596   2.571  13.352 -1.0829  0.3983 -0.1216
    8MPD2     H  121   1.272   2.385  13.275  1.0516 -0.4543 -1.6331
    8MPD2    H1  122   1.497   2.748  13.292 -0.7375 -0.2134 -0.3994
    8MPD2    H2  123   1.697   2.391  13.379 -0.3344 -0.4983 -0.0914
    8MPD2    H3  124   1.688   2.625  13.371 -0.2481 -0.8149 -0.7371
    8MPD2     N  125   1.258   2.657  13.262  0.3899  0.2151 -0.1404
    8MPD2    H5  126   1.276   2.756  13.280 -1.4694  0.7691 -1.3103
    8MPD2    N1  127   1.484   2.225  13.338 -0.0545  0.4444 -0.2762
    8MPD2    H7  128   1.571   2.180  13.365 -2.7023 -2.6123  3.2236
    9TCq1    O1  129   3.290   0.597  10.933 -0.9747  0.0691  0.3719
    9TCq1    C1  130   3.321   0.495  10.851  0.1061  0.0642 -0.1735
    9TCq1    O2  131   3.255   0.397  10.824 -0.2234  0.5395 -0.0765
    9TCq1    C2  132   3.447   0.524  10.789  0.2969 -0.6282  0.4457
    9TCq1    C3  133   3.461   0.485  10.661  0.1982 -0.0234 -0.4792
    9TCq1    C4  134   3.590   0.494  10.608 -0.1894  0.2432 -0.3385
    9TCq1    C5  135   3.693   0.547  10.676 -0.1696  0.5270  0.4244
    9TCq1    C6  136   3.670   0.589  10.806 -0.4788  0.5572  0.2090
    9TCq1    C7  137   3.546   0.579  10.864 -0.1878 -0.8821 -0.4165
    9TCq1    C8  138   3.774   0.657  10.877  0.3364  1.1561  0.2786
    9TCq1    O4  139   3.887   0.640  10.833 -0.1696 -0.0257  0.3993
    9TCq1    C9  140   3.614   0.454  10.470  0.4965 -0.0266 -0.5604
    9TCq1    O5  141   3.727   0.489  10.429 -0.2496  0.0649 -0.3927
    9TCq1    O6  142   3.522   0.393  10.402 -0.0025 -0.0152 -0.6608
    9TCq1    H1  143   3.339   0.680  10.913 -1.3150  0.2221  0.1797
    9TCq1    H2  144   3.379   0.441  10.605 -1.6881  0.7382  1.6776
    9TCq1    H3  145   3.789   0.572  10.632  0.2038  0.5214  1.2359
    9TCq1    H4  146   3.533   0.607  10.968  1.7024 -0.7981 -0.2059
   10MPD2     C  147   3.926   0.865  11.025 -0.1295 -0.0930  0.1430
   10MPD2    C1  148   3.809   0.814  11.068 -0.2993  0.0302  0.8377
   10MPD2    C2  149   3.760   0.863  11.193  0.3300 -0.5398 -1.6303
   10MPD2    C3  150   3.836   0.944  11.276 -0.1666 -0.2479  0.7964
   10MPD2    C4  151   3.960   0.988  11.225 -0.6835 -0.1620 -0.1678
   10MPD2    C5  152   3.996   0.957  11.097  0.2680 -0.2149  0.4324
   10MPD2     H  153   3.657   0.830  11.209  0.8653 -1.4165  0.0199
   10MPD2    H1  154   4.028   1.046  11.288 -2.5758  1.4152  0.4384
   10MPD2    H2  155   3.954   0.841  10.923  2.7588  1.0169  0.6889
   10MPD2    H3  156   4.089   0.994  11.055  0.1184  2.2592  2.2665
   10MPD2     N  157   3.786   0.984  11.404 -0.0499  0.5792  0.1662
   10MPD2    H5  158   3.854   1.029  11.464 -0.3013  2.4420 -0.9438
   10MPD2    N1  159   3.730   0.729  10.984 -0.1845  0.4785 -0.0909
   10MPD2    H7  160   3.631   0.751  10.986 -0.7147 -1.7899 -1.7005
   11TCq1    O1  161   0.244   1.580  14.386 -0.1656 -0.6717  0.0913
   11TCq1    C1  162   0.120   1.552  14.424 -0.3808  0.2924  0.2275
   11TCq1    O2  163   0.013   1.592  14.380  0.1956 -0.1123 -0.1469
   11TCq1    C2  164   0.122   1.461  14.538  0.2924 -0.6469  0.2563
   11TCq1    C3  165   0.187   1.501  14.653  0.1693  0.0497  0.4130
   11TCq1    C4  166   0.160   1.451  14.776 -0.1352  0.2623  0.2385
   11TCq1    C5  167   0.052   1.373  14.789  0.0853 -0.6216 -0.0314
   11TCq1    C6  168   4.699   1.338  14.680 -0.5069  0.4709 -0.0046
   11TCq1    C7  169   0.003   1.394  14.561  0.9571 -0.4523  0.0579
   11TCq1    C8  170   4.584   1.248  14.707  0.3894  1.2474  0.0005
   11TCq1    O4  171   4.546   1.236  14.824 -0.4350 -0.1236 -0.1917
   11TCq1    C9  172   0.228   1.487  14.895 -0.4607  0.3676  0.0838
   11TCq1    O5  173   0.167   1.484  15.006  0.1602  0.2545  0.1890
   11TCq1    O6  174   0.345   1.535  14.871  0.3542  0.0836  0.1112
   11TCq1    H1  175   0.310   1.523  14.431  1.7795  0.9185 -0.8005
   11TCq1    H2  176   0.274   1.564  14.641 -0.0935  0.4001  0.3789
   11TCq1    H3  177   0.032   1.315  14.879 -1.1077 -0.4681 -0.1952
   11TCq1    H4  178   4.672   1.382  14.468 -0.4497  1.7191  0.6235
   12MPD2     C  179   4.312   1.149  14.695 -0.1925 -0.5516  0.3514
   12MPD2    C1  180   4.402   1.141  14.592 -0.6836  0.2041  0.4950
   12MPD2    C2  181   4.363   1.082  14.474 -0.0102 -0.2768  0.4239
   12MPD2    C3  182   4.235   1.028  14.459 -0.3204 -0.7677  0.0660
   12MPD2    C4  183   4.151   1.031  14.567  0.6889  0.6438 -0.1156
   12MPD2    C5  184   4.182   1.102  14.678  0.6263 -0.1682 -0.1312
   12MPD2     H  185   4.432   1.080  14.390 -1.5611  2.3543 -0.8966
   12MPD2    H1  186   4.057   0.978  14.560  0.5334  0.6653  1.7916
   12MPD2    H2  187   4.329   1.211  14.782 -1.4219  1.3736 -0.7856
   12MPD2    H3  188   4.110   1.123  14.757 -1.5006 -1.2611 -1.7727
   12MPD2     N  189   4.208   0.941  14.349  0.2142  0.4195  0.6215
   12MPD2    H5  190   4.284   0.926  14.283 -0.8658 -0.2869 -0.4818
   12MPD2    N1  191   4.534   1.185  14.598  0.4453  0.3411  0.3109
   12MPD2    H7  192   4.588   1.199  14.513 -1.1445 -1.8920 -1.0575
   13TCq1    O1  193   4.529   0.694  11.243 -0.1045  0.0471 -0.6479
   13TCq1    C1  194   4.420   0.634  11.278  0.3565 -0.1998 -0.3937
   13TCq1    O2  195   4.396   0.591  11.391 -0.0712 -0.4213 -0.3839
   13TCq1    C2  196   4.320   0.625  11.173 -0.3642 -0.1536 -0.6257
   13TCq1    C3  197   4.376   0.597  11.052 -0.3887  1.0236  0.1427
   13TCq1    C4  198   4.291   0.552  10.951 -0.0934  0.1827 -0.3819
   13TCq1    C5  199   4.161   0.527  10.976 -0.3113 -0.3613  0.0667
   13TCq1    C6  200   4.116   0.560  11.103 -0.2425 -0.2619 -0.6146
   13TCq1    C7  201   4.191   0.611  11.204 -0.4243  0.3576  0.3349
   13TCq1    C8  202   3.978   0.538  11.143 -0.1021 -0.7979 -0.1531
   13TCq1    O4  203   3.935   0.587  11.245  0.3751  0.2138 -0.5348
   13TCq1    C9  204   4.346   0.511  10.828 -0.2915  0.3809 -0.3730
   13TCq1    O5  205   4.462   0.555  10.797 -0.5804  0.7430 -0.2219
   13TCq1    O6  206   4.277   0.434  10.758 -0.7327  0.7894  0.8119
   13TCq1    H1  207   4.518   0.733  11.154 -0.7736  3.0380  0.7448
   13TCq1    H2  208   4.484   0.599  11.041 -0.4220  1.5627 -0.0833
   13TCq1    H3  209   4.092   0.485  10.904  2.0867 -1.5089 -1.5672
   13TCq1    H4  210   4.166   0.627  11.308 -0.5647 -0.1668  0.3847
   14MPD2     C  211   3.772   0.279  10.977  0.1821 -0.0294  0.0753
   14MPD2    C1  212   3.799   0.373  11.072  0.1092  0.3200 -0.5048
   14MPD2    C2  213   3.697   0.409  11.158  0.6020  0.8956  0.4275
   14MPD2    C3  214   3.575   0.336  11.166  0.2529  0.3709 -0.2413
   14MPD2    C4  215   3.560   0.233  11.079 -0.0455  0.2990 -0.1450
   14MPD2    C5  216   3.652   0.212  10.983 -0.7115 -0.3656  0.6638
   14MPD2     H  217   3.715   0.491  11.227  2.5904 -0.0214  1.0089
   14MPD2    H1  218   3.470   0.174  11.072 -0.7770  1.5570 -1.3153
   14MPD2    H2  219   3.850   0.247  10.909 -0.0090  0.7972 -0.5230
   14MPD2    H3  220   3.643   0.133  10.909  0.0722  0.0068  0.1795
   14MPD2     N  221   3.468   0.377  11.248 -0.4439  0.1179 -0.0602
   14MPD2    H5  222   3.476   0.468  11.292  2.0438 -1.5699  2.9829
   14MPD2    N1  223   3.925   0.434  11.069 -0.1013 -0.5601  0.4460
   14MPD2    H7  224   3.988   0.396  10.999 -0.6032 -0.1155 -0.2466
   15TCq1    O1  225   1.796   0.205   1.933  0.3957  0.3121  0.2949
   15TCq1    C1  226   1.720   0.302   1.884 -0.0860  0.7164 -0.7867
   15TCq1    O2  227   1.758   0.420   1.878 -0.0835 -0.4716 -0.2272
   15TCq1    C2  228   1.584   0.253   1.876  0.0139 -0.4619  0.4386
   15TCq1    C3  229   1.481   0.330   1.925 -0.1083 -0.0764  0.3931
   15TCq1    C4  230   1.353   0.294   1.896 -0.4100 -0.6358 -0.4790
   15TCq1    C5  231   1.318   0.183   1.825  0.4276 -0.0463  0.0168
   15TCq1    C6  232   1.424   0.113   1.778 -0.2828 -0.5078  0.6082
   15TCq1    C7  233   1.555   0.142   1.803  0.6118 -0.2719  0.3896
   15TCq1    C8  234   1.395   0.001   1.679 -0.1106  0.9372  0.1389
   15TCq1    O4  235   1.482   4.636   1.683  0.1646  0.2720 -0.0904
   15TCq1    C9  236   1.241   0.389   1.936 -0.0781 -0.1237  0.1070
   15TCq1    O5  237   1.128   0.362   1.886 -0.0601 -0.3280 -0.5938
   15TCq1    O6  238   1.260   0.459   2.040 -0.6965 -0.0675 -0.4978
   15TCq1    H1  239   1.750   0.120   1.951 -0.1885  0.8741  1.4465
   15TCq1    H2  240   1.494   0.423   1.980 -3.8667 -0.0320  1.1515
   15TCq1    H3  241   1.214   0.154   1.819  0.3943  0.2586 -0.8883
   15TCq1    H4  242   1.631   0.077   1.763  1.6437  1.1077  0.0995
   16MPD2     C  243   1.099   4.669   1.455  0.8194 -0.6736 -0.5811
   16MPD2    C1  244   1.213   4.628   1.523  0.8978  0.2434  0.0248
   16MPD2    C2  245   1.273   4.507   1.506 -0.1813 -0.2552  0.2487
   16MPD2    C3  246   1.208   4.416   1.420 -0.0235  0.2951 -0.1819
   16MPD2    C4  247   1.090   4.449   1.354 -0.1745  0.0920  0.1660
   16MPD2    C5  248   1.037   4.574   1.374 -0.2853 -0.3958 -0.5719
   16MPD2     H  249   1.356   4.471   1.565  2.2155  0.6406 -2.5674
   16MPD2    H1  250   1.035   4.382   1.289  2.5159 -1.4974 -0.4834
   16MPD2    H2  251   1.057   0.043   1.474  0.6828 -0.9277  0.4626
   16MPD2    H3  252   0.945   4.593   1.320 -0.8481 -1.2267  0.1074
   16MPD2     N  253   1.270   4.290   1.406  0.9727 -0.2486 -0.3675
   16MPD2    H5  254   1.356   4.279   1.458  1.3032 -0.0032 -0.8639
   16MPD2    N1  255   1.273   0.013   1.608  0.1256  0.5731  0.2449
   16MPD2    H7  256   1.226   0.103   1.604 -0.3743  0.4232  2.6847
   17TCq1    O1  257   3.996   4.294  11.637  0.0006  0.2445  0.7716
   17TCq1    C1  258   4.047   4.232  11.523 -0.4248 -0.5260 -0.0447
   17TCq1    O2  259   4.032   4.115  11.492  0.5379  0.2794  0.3261
   17TCq1    C2  260   4.046   4.330  11.416 -0.6204 -0.2274 -0.4141
   17TCq1    C3  261   4.001   4.297  11.291 -0.1505  0.3069  0.1623
   17TCq1    C4  262   4.033   4.371  11.178 -0.2310 -0.1826  0.6677
   17TCq1    C5  263   4.123   4.474  11.181 -0.3038 -0.3684 -0.3945
   17TCq1    C6  264   4.176   4.505  11.303 -0.4807 -0.3138 -0.9366
   17TCq1    C7  265   4.139   4.437  11.418 -0.2763 -0.6326  0.0506
   17TCq1    C8  266   4.261   4.625  11.308 -0.6515 -0.0301  0.3991
   17TCq1    O4  267   4.287   4.665  11.417  0.4958 -0.5015  0.3932
   17TCq1    C9  268   3.953   4.351  11.056 -0.8240 -0.0930 -0.7876
   17TCq1    O5  269   3.852   4.275  11.070 -0.1398 -0.0917  0.8340
   17TCq1    O6  270   3.961   4.425  10.953 -0.2761 -1.0207  0.3684
   17TCq1    H1  271   3.973   4.389  11.633 -2.7364 -0.5286 -2.0912
   17TCq1    H2  272   3.934   4.212  11.278  0.0706  0.1269  0.2038
   17TCq1    H3  273   4.141   4.536  11.093 -0.7345 -1.3076 -1.1400
   17TCq1    H4  274   4.195   4.459  11.508 -0.2482  0.8371 -0.3265
   18MPD2     C  275   4.455   0.109  11.268 -0.2276 -0.0759  0.2439
   18MPD2    C1  276   4.420   0.023  11.167  0.0562 -0.8812 -0.1908
   18MPD2    C2  277   4.477   0.024  11.046  0.1199  0.9374 -0.1502
   18MPD2    C3  278   4.565   0.132  11.022  0.0154  0.0836  0.3827
   18MPD2    C4  279   4.599   0.225  11.116  0.1053  0.5497  0.4370
   18MPD2    C5  280   4.543   0.205  11.240 -0.8324  0.0562  0.2048
   18MPD2     H  281   4.439   4.679  10.972 -0.6488 -0.0703  1.1846
   18MPD2    H1  282   4.657   0.312  11.086  0.4695 -0.1681 -0.9342
   18MPD2    H2  283   4.417   0.104  11.370 -2.6798 -2.0067 -0.7533
   18MPD2    H3  284   4.564   0.269  11.324 -0.7615  0.2114  0.0668
   18MPD2     N  285   4.620   0.147  10.896  0.3043 -0.2462 -0.2112
   18MPD2    H5  286   4.696   0.214  10.889 -1.0383  1.6182  3.0169
   18MPD2    N1  287   4.325   4.652  11.186  0.6631  0.5072  0.1161
   18MPD2    H7  288   4.312   4.589  11.108  0.9522  1.1248 -0.4248
   19TMC2    C1  289   0.735   1.020  13.895 -0.2896  0.3736 -0.2210
   19TMC2    C2  290   0.704   1.069  13.774 -0.1345 -0.4020  0.4925
   19TMC2    C3  291   0.611   0.999  13.703 -1.1619 -0.2607 -0.2641
   19TMC2    C4  292   0.651   0.927  13.956 -0.8067 -0.5132 -0.0346
   19TMC2    C5  293   0.559   0.860  13.879  0.1820  0.6114  0.2486
   19TMC2    C6  294   0.544   0.893  13.751 -0.5469 -0.1108  0.8681
   19TMC2     C  295   0.842   1.087  13.969  0.0079  0.6469  0.6729
   19TMC2     O  296   0.909   1.174  13.919  0.3141  0.1922  0.7145
   19TMC2     H  297   0.766   1.145  13.728 -0.7110  0.2011  0.7134
   19TMC2    H1  298   0.659   0.909  14.063  1.8550 -0.2764 -0.1795
   19TMC2    H2  299   0.464   0.843  13.697  1.9567 -1.1487 -1.8395
   19TMC2    C7  300   0.480   0.747  13.930 -0.2429  0.5265 -0.0773
   19TMC2    C8  301   0.620   0.994  13.557 -0.4078 -0.3772  0.2159
   19TMC2    O1  302   0.420   0.670  13.858  0.3217 -0.1007 -0.0949
   19TMC2    O2  303   0.602   0.892  13.487  0.6745 -0.3406  0.2738
   19TMC2    O5  304   0.662   1.113  13.516  0.5937 -0.4901  0.1997
   19TMC2    H5  305   0.664   1.184  13.585 -1.9293  0.6643 -0.8884
   20MPD2     C  306   0.991   1.222  14.185  0.2800 -0.1699  0.2561
   20MPD2    C1  307   0.964   1.088  14.184  0.1821 -0.7894 -0.3096
   20MPD2    C2  308   1.011   1.014  14.291 -0.7025  0.2791 -0.1116
   20MPD2    C3  309   1.086   1.062  14.392  0.3734 -0.1135  0.7917
   20MPD2    C4  310   1.113   1.204  14.389  0.1529 -0.2072 -0.5658
   20MPD2    C5  311   1.058   1.275  14.292 -0.3097 -0.4664  0.1975
   20MPD2     H  312   0.977   0.911  14.296 -0.5611  0.2928  1.1693
   20MPD2    H1  313   1.169   1.254  14.467  0.6707 -0.6647 -0.6501
   20MPD2    H2  314   0.940   1.290  14.117  3.7096 -0.1222 -2.2408
   20MPD2    H3  315   1.049   1.381  14.313 -0.0438  0.2028 -3.0028
   20MPD2     N  316   1.132   0.988  14.501 -0.3132  0.0549  0.9850
   20MPD2    H5  317   1.189   1.039  14.567  0.2571  0.8578 -0.1391
   20MPD2    N1  318   0.885   1.025  14.087 -0.3977  0.2667  0.6516
   20MPD2    H7  319   0.862   0.928  14.105 -0.2865  0.1086 -0.0369
   21MPD2     C  320   3.288   0.359  14.493  0.0173  0.5106  0.2557
   21MPD2    C1  321   3.259   0.484  14.540 -0.4829 -0.0027  0.8075
   21MPD2    C2  322   3.131   0.513  14.571 -0.0056  0.1687  0.7111
   21MPD2    C3  323   3.030   0.423  14.554  0.2026 -0.0056  0.3639
   21MPD2    C4  324   3.057   0.297  14.517 -0.3315  0.2127 -1.0004
   21MPD2    C5  325   3.186   0.265  14.486  0.2575  0.1009 -0.9760
   21MPD2     H  326   3.114   0.617  14.597  1.5113 -0.1821  3.1372
   21MPD2    H1  327   2.983   0.218  14.507 -1.3869  1.0810  0.0071
   21MPD2    H2  328   3.385   0.335  14.452 -2.2068 -1.3251 -3.9751
   21MPD2    H3  329   3.206   0.164  14.452 -0.7352  0.5180 -2.8522
   21MPD2     N  330   2.892   0.447  14.577 -1.3427 -0.2515  0.1613
   21MPD2    H5  331   2.828   0.370  14.561 -0.7625 -0.6754 -0.1251
   21MPD2    N1  332   3.357   0.578  14.579 -0.2373  0.2727 -0.3781
   21MPD2    H7  333   3.340   0.670  14.618  0.2548  0.3321 -0.3061
   22TCq2    C1  334   2.839   0.563  14.625 -0.0586  1.0563  0.0313
   22TCq2    O2  335   2.899   0.661  14.674 -0.2671  0.4736  0.5653
   22TCq2    C2  336   2.699   0.582  14.592  0.1936 -0.0870 -0.6897
   22TCq2    C3  337   2.633   0.488  14.508  0.0784  0.3382 -0.0895
   22TCq2    C4  338   2.508   0.520  14.460  0.6088 -0.1139  0.0047
   22TCq2    C5  339   2.449   0.639  14.500  0.0469  0.3560 -0.0244
   22TCq2    C6  340   2.512   0.721  14.588  0.5185 -0.3510  0.1206
   22TCq2    C7  341   2.642   0.702  14.632  0.0261 -0.4597 -0.5940
   22TCq2    C8  342   2.426   0.819  14.653  0.1255 -0.0234  0.1035
   22TCq2    O4  343   2.472   0.866  14.759  0.0296  0.8282  0.1733
   22TCq2    C9  344   2.424   0.428  14.387 -0.1408  0.6076  0.6787
   22TCq2    O5  345   2.309   0.469  14.352  0.3967 -0.8705 -0.3888
   22TCq2    O6  346   2.481   0.324  14.349  0.0055 -0.0916 -0.3180
   22TCq2    H2  347   2.672   0.397  14.465 -1.0555  0.5329 -1.5174
   22TCq2    H3  348   2.349   0.662  14.466 -0.7470  0.0564  2.0615
   22TCq2    H4  349   2.701   0.773  14.689 -0.6819 -1.1952  1.0592
   23MPD2     C  350   0.394   2.004  14.951  0.1652  0.5646 -0.3809
   23MPD2    C1  351   0.312   1.903  14.987 -0.8515  0.5595 -0.0380
   23MPD2    C2  352   0.176   1.912  14.958  0.1523  0.4677  0.4823
   23MPD2    C3  353   0.124   2.019  14.886 -0.5381  0.2496  0.2115
   23MPD2    C4  354   0.210   2.129  14.869 -0.0223  0.3877 -0.1835
   23MPD2    C5  355   0.343   2.120  14.890 -0.7246 -0.3476  0.4232
   23MPD2     H  356   0.105   1.834  14.984  2.5305 -2.0821 -0.6836
   23MPD2    H1  357   0.173   2.222  14.828 -2.6467 -0.9198 -0.8511
   23MPD2    H2  358   0.501   1.990  14.952  0.3499  1.9042 -0.2839
   23MPD2    H3  359   0.400   2.199  14.842 -2.2985  1.2850  1.2563
   23MPD2     N  360   4.713   2.045  14.846  0.2142 -0.4917 -0.0881
   23MPD2    H5  361   4.692   2.132  14.800  0.0730 -0.0830  0.7405
   23MPD2    N1  362   0.348   1.788  15.067 -0.4915 -0.0279 -0.8441
   23MPD2    H7  363   0.283   1.715  15.095 -1.6530  1.0441 -0.7613
   24TCq2    C1  364   4.611   1.954  14.859 -0.7502  0.1086  0.2821
   24TCq2    O2  365   4.607   1.840  14.898  0.1250  0.0763 -0.1791
   24TCq2    C2  366   4.481   1.993  14.806 -0.8220  0.4301 -0.6781
   24TCq2    C3  367   4.469   2.087  14.706  0.1105 -0.8577 -0.3727
   24TCq2    C4  368   4.349   2.143  14.684  0.2770  0.9636  0.0391
   24TCq2    C5  369   4.235   2.099  14.750  0.6716  0.0072  0.0405
   24TCq2    C6  370   4.248   1.998  14.834  0.4046  0.6468  0.2937
   24TCq2    C7  371   4.371   1.939  14.864  0.2490  0.4137 -0.4754
   24TCq2    C8  372   4.134   1.923  14.877 -0.4888  0.2412 -0.5514
   24TCq2    O4  373   4.150   1.841  14.963 -0.0431  0.0796 -0.0205
   24TCq2    C9  374   4.350   2.264  14.603 -0.1422  0.2217 -0.3925
   24TCq2    O5  375   4.460   2.316  14.577 -0.2391  0.2379  0.0030
   24TCq2    O6  376   4.245   2.328  14.592 -0.6515 -0.0344 -0.0826
   24TCq2    H2  377   4.552   2.118  14.644  0.0224  0.4261  0.1395
   24TCq2    H3  378   4.151   2.168  14.751  3.1129  2.9881 -1.1471
   24TCq2    H4  379   4.377   1.855  14.931  1.4364  0.7625 -0.1509
   25TMC2    C1  380   3.590   4.386  11.543  0.1077  0.8990  1.0190
   25TMC2    C2  381   3.628   4.518  11.536 -0.3769  0.1420 -0.6387
   25TMC2    C3  382   3.591   4.597  11.645  0.0037  0.6024 -0.5040
   25TMC2    C4  383   3.542   4.335  11.659 -0.0667 -0.2824 -0.1551
   25TMC2    C5  384   3.537   4.415  11.771  0.0556 -0.3015  0.8812
   25TMC2    C6  385   3.561   4.547  11.765 -0.1606  0.6735 -0.1438
   25TMC2     C  386   3.621   4.292  11.441  0.4063 -0.4676 -0.9278
   25TMC2     O  387   3.699   4.328  11.354  0.2097  0.2824  0.0473
   25TMC2     H  388   3.657   4.551  11.436 -1.0501 -1.6654 -1.4356
   25TMC2    H1  389   3.541   4.229  11.681 -1.4348 -0.3636 -0.6268
   25TMC2    H2  390   3.531   4.613  11.846  1.2848  0.8517  0.2496
   25TMC2    C7  391   3.434   4.374  11.867 -0.0238 -0.3088 -0.2676
   25TMC2    C8  392   3.629   0.017  11.652 -0.6798 -0.5310  0.3257
   25TMC2    O1  393   3.447   4.409  11.985 -0.7292 -0.2608  0.5262
   25TMC2    O2  394   3.643   0.077  11.757  0.3165  0.1073  0.6714
   25TMC2    O5  395   3.623   0.078  11.523  0.4735 -0.3515  0.2963
   25TMC2    H5  396   3.575   0.020  11.460  0.1718 -0.1292  0.3210
   26MPD2     C  397   3.597   3.821  11.276  0.1714  0.4821 -0.0311
   26MPD2    C1  398   3.471   3.857  11.320  0.5114 -0.0348  0.5794
   26MPD2    C2  399   3.446   3.979  11.372 -0.2489  0.5401  0.2197
   26MPD2    C3  400   3.546   4.069  11.382 -0.4034  0.6156 -0.0644
   26MPD2    C4  401   3.671   4.027  11.337 -0.0016  0.1167  0.0531
   26MPD2    C5  402   3.695   3.908  11.279  0.2363  1.1389  0.4686
   26MPD2     H  403   3.353   3.999  11.423 -0.9923 -4.1721  0.7242
   26MPD2    H1  404   3.759   4.088  11.353 -0.0908  0.0941  0.6285
   26MPD2    H2  405   3.613   3.720  11.241 -1.1534  0.8021 -1.5431
   26MPD2    H3  406   3.797   3.884  11.250 -0.7935 -1.1638 -1.2303
   26MPD2     N  407   3.531   4.187  11.441  0.0238 -0.4802  0.0607
   26MPD2    H5  408   3.441   4.204  11.486  0.6645  0.2037  1.0841
   26MPD2    N1  409   3.367   3.766  11.307 -0.4519 -0.4892 -0.5087
   26MPD2    H7  410   3.396   3.673  11.279 -0.5843 -0.3130 -1.2118
   27TMC2    C1  411   1.883   1.123  11.995 -0.4289  0.5843  0.6088
   27TMC2    C2  412   1.789   1.183  11.924 -0.3432  0.9053 -0.0138
   27TMC2    C3  413   1.830   1.268  11.825 -0.1968  1.3519  0.2749
   27TMC2    C4  414   2.010   1.147  11.987 -0.7193 -0.6989  0.8316
   27TMC2    C5  415   2.048   1.256  11.909 -0.1573  1.1227  0.8981
   27TMC2    C6  416   1.955   1.318  11.824  0.0225 -0.0678  0.0334
   27TMC2     C  417   1.846   1.035  12.098  0.3960 -1.0586  0.2949
   27TMC2     O  418   1.914   0.936  12.113 -0.1772 -0.0592 -0.7160
   27TMC2     H  419   1.687   1.149  11.931 -0.0047 -0.4431 -1.4388
   27TMC2    H1  420   2.067   1.081  12.051  1.7644 -0.6589 -1.3789
   27TMC2    H2  421   1.981   1.406  11.766 -1.6977 -0.1915 -0.9478
   27TMC2    C7  422   2.113   1.354  11.996  0.5123 -0.0926 -0.5988
   27TMC2    C8  423   1.731   1.341  11.754  0.6216  0.6489 -0.4759
   27TMC2    O1  424   2.168   1.302  12.090 -0.5329 -0.3559 -0.5398
   27TMC2    O2  425   1.615   1.346  11.789  0.2736  0.2765  0.0864
   27TMC2    O5  426   1.776   1.326  11.628 -0.3790 -1.1257 -0.8946
   27TMC2    H5  427   1.867   1.291  11.624 -0.7360 -2.2440  0.4281
   28MPD2     C  428   1.575   0.919  12.522  0.7647  0.2530 -0.0223
   28MPD2    C1  429   1.536   1.045  12.479  0.2738 -0.0110 -0.3374
   28MPD2    C2  430   1.578   1.099  12.358  0.5910  0.4057  0.0659
   28MPD2    C3  431   1.679   1.024  12.289  0.1437 -0.2508 -0.7382
   28MPD2    C4  432   1.708   0.899  12.330  0.0175 -0.2119 -0.3650
   28MPD2    C5  433   1.658   0.839  12.445 -0.0383  0.8911  0.4911
   28MPD2     H  434   1.545   1.198  12.330 -1.1216 -0.5085 -1.1455
   28MPD2    H1  435   1.791   0.848  12.281  1.5989  1.5042  0.5439
   28MPD2    H2  436   1.552   0.887  12.622 -0.3119 -0.5535 -0.5315
   28MPD2    H3  437   1.689   0.744  12.486 -0.1003  0.0727 -1.3347
   28MPD2     N  438   1.745   1.087  12.175  0.3220  0.6978 -0.2130
   28MPD2    H5  439   1.714   1.182  12.158 -1.7945 -0.1229 -0.9544
   28MPD2    N1  440   1.451   1.111  12.572  0.3657 -0.7169 -0.0971
   28MPD2    H7  441   1.405   1.058  12.645  0.8466 -0.8006  0.1419
   29MPD2     C  442   1.857   3.441  14.082 -0.1547  0.3228  1.1954
   29MPD2    C1  443   1.892   3.474  14.211 -0.2862  0.6101 -0.0351
   29MPD2    C2  444   1.924   3.602  14.235  0.5558  0.1280 -0.7335
   29MPD2    C3  445   1.924   3.705  14.140 -0.6564 -0.6931 -0.3200
   29MPD2    C4  446   1.889   3.666  14.008  0.4035 -0.3690 -0.2123
   29MPD2    C5  447   1.854   3.534  13.986 -0.0857  0.3414 -0.6163
   29MPD2     H  448   1.959   3.623  14.336 -2.6782  0.6730  0.2858
   29MPD2    H1  449   1.869   3.736  13.927  0.3466 -0.9768 -0.7296
   29MPD2    H2  450   1.832   3.336  14.066 -0.8670  0.3939  1.8495
   29MPD2    H3  451   1.842   3.495  13.886 -2.4316  0.0640 -0.2287
   29MPD2     N  452   1.952   3.838  14.168 -0.1033  0.0917  0.6600
   29MPD2    H5  453   1.935   3.902  14.090  2.3421 -0.0881 -0.0227
   29MPD2    N1  454   1.910   3.381  14.321 -0.1104  0.5387  0.2437
   29MPD2    H7  455   1.971   3.421  14.392  0.6032 -1.5943  0.8334
   30TCq2    C1  456   1.974   3.891  14.291 -0.2222 -0.2839  0.5107
   30TCq2    O2  457   1.981   3.846  14.404  0.1161  0.2130 -0.2998
   30TCq2    C2  458   2.005   4.033  14.286  0.4540  0.6323 -0.1906
   30TCq2    C3  459   2.056   4.085  14.175  0.2029  0.1792 -0.1332
   30TCq2    C4  460   2.035   4.222  14.165  0.1237  0.5772  0.0753
   30TCq2    C5  461   1.993   4.299  14.266  0.2668 -0.5924 -0.5029
   30TCq2    C6  462   1.956   4.244  14.382 -0.7822 -0.8543 -0.0001
   30TCq2    C7  463   1.958   4.110  14.394 -0.2039  0.5822  0.1853
   30TCq2    C8  464   1.907   4.314  14.500  0.9144  0.1717 -0.1469
   30TCq2    O4  465   1.830   4.252  14.573  0.0406 -0.2884 -0.6910
   30TCq2    C9  466   2.069   4.279  14.043 -0.1657 -0.2175  0.3375
   30TCq2    O5  467   2.021   4.394  14.032 -0.0712 -0.5495  0.2415
   30TCq2    O6  468   2.134   4.211  13.959  0.2140  0.0335  0.0633
   30TCq2    H2  469   2.092   4.018  14.098  1.0672  0.6974 -0.1865
   30TCq2    H3  470   1.981   4.406  14.247 -0.2554 -0.8354 -1.5566
   30TCq2    H4  471   1.922   4.055  14.481 -0.3916  0.0705 -0.2175
   31MPD2     C  472   0.119   3.406  14.818  0.4680 -0.6101  0.0898
   31MPD2    C1  473   0.012   3.334  14.766  0.3396  0.4736 -0.6860
   31MPD2    C2  474   4.723   3.195  14.780  0.3807 -0.3835  0.1954
   31MPD2    C3  475   0.094   3.131  14.860 -0.3463  0.1556 -0.2758
   31MPD2    C4  476   0.198   3.208  14.916  0.3059  0.0355  0.4287
   31MPD2    C5  477   0.203   3.342  14.906 -0.1539 -0.0584 -0.6832
   31MPD2     H  478   4.645   3.137  14.732 -0.0008 -0.5061  0.9746
   31MPD2    H1  479   0.269   3.165  14.985  1.4020  0.3260 -0.5307
   31MPD2    H2  480   0.124   3.511  14.792  2.4620 -0.2423  1.9625
   31MPD2    H3  481   0.284   3.399  14.948 -0.8577 -1.2019  2.2380
   31MPD2     N  482   0.096   2.991  14.874  0.0107 -0.6759 -0.7387
   31MPD2    H5  483   0.036   2.933  14.817  0.1091 -0.2284 -1.3059
   31MPD2    N1  484   4.661   3.410  14.674  0.7304  0.1837  0.2105
   31MPD2    H7  485   4.693   3.506  14.663  0.7974  0.1046 -0.3101
   32TCq2    C1  486   0.168   2.920  14.968  0.1662  1.1127 -0.3998
   32TCq2    O2  487   0.257   2.958  15.044 -0.8152  0.3986  0.6924
   32TCq2    C2  488   0.136   2.781  14.962 -0.1298  1.3921 -0.0275
   32TCq2    C3  489   0.003   2.747  14.935 -0.2030  0.1973  0.5629
   32TCq2    C4  490   4.693   2.613  14.955  0.3353 -0.3014  0.5046
   32TCq2    C5  491   0.063   2.524  14.997  0.3964  0.0657 -0.0852
   32TCq2    C6  492   0.191   2.566  15.020  0.6700  0.0919 -0.1950
   32TCq2    C7  493   0.232   2.693  15.004  0.5071 -0.3170  0.1624
   32TCq2    C8  494   0.278   2.469  15.077 -0.0712 -0.1553  0.5374
   32TCq2    O4  495   0.229   2.377  15.142 -0.3623 -0.3521  0.2352
   32TCq2    C9  496   4.562   2.572  14.919 -0.6426 -0.0818  0.7584
   32TCq2    O5  497   4.500   2.646  14.840  0.6743 -0.2025  0.3015
   32TCq2    O6  498   4.510   2.462  14.968  0.4296 -0.4364 -0.0875
   32TCq2    H2  499   4.651   2.823  14.921 -1.0511 -0.8295 -0.4786
   32TCq2    H3  500   0.033   2.421  15.011 -1.0176  0.5980  0.7568
   32TCq2    H4  501   0.332   2.729  15.025  0.2322 -0.5988  1.9311
   33MPD2     C  502   4.655   4.430  10.195 -0.5802 -0.4817  0.1895
   33MPD2    C1  503   4.675   4.570  10.186 -0.0241 -0.5145  0.2432
   33MPD2    C2  504   4.670   4.632  10.062 -0.3827 -0.0140 -0.4995
   33MPD2    C3  505   4.655   4.560   9.945  0.2067  0.7724  0.2252
   33MPD2    C4  506   4.649   4.422   9.956 -0.3996  0.0373  0.0330
   33MPD2    C5  507   4.652   4.363  10.075 -0.9872 -0.7954  0.1596
   33MPD2     H  508   4.681   0.016  10.059  0.2393  0.0333  3.7517
   33MPD2    H1  509   4.632   4.360   9.869 -2.8337  1.6615 -0.6590
   33MPD2    H2  510   4.658   4.372  10.286  1.1557  0.1618  0.5341
   33MPD2    H3  511   4.642   4.256  10.064 -0.5382 -0.7183 -0.9308
   33MPD2     N  512   4.630   4.618   9.821 -0.3583  0.3002  0.5907
   33MPD2    H5  513   4.623   4.559   9.738  0.3684  1.5508 -0.3680
   33MPD2    N1  514   4.694   4.633  10.313  0.1778  0.6146  0.9881
   33MPD2    H7  515   4.684   4.579  10.398  0.3423  0.4762  0.9186
   34TCq2    C1  516   4.646   0.026   9.802 -0.6620  0.1915  0.3511
   34TCq2    O2  517   4.625   0.119   9.880  0.0647 -0.1573  0.0950
   34TCq2    C2  518   4.689   0.069   9.670 -0.1270 -0.1642  0.3015
   34TCq2    C3  519   4.680   4.701   9.567 -0.1258 -0.1468 -0.0415
   34TCq2    C4  520   0.003   0.024   9.451 -0.3629 -0.6059 -0.3359
   34TCq2    C5  521   0.049   0.152   9.430  0.0343  0.6209  0.3048
   34TCq2    C6  522   0.047   0.241   9.532  0.0303  0.3650  0.5969
   34TCq2    C7  523   0.004   0.203   9.655 -0.1684 -0.6133 -0.9340
   34TCq2    C8  524   0.078   0.385   9.509  0.2029  0.0266 -1.0540
   34TCq2    O4  525   0.084   0.448   9.613  0.1024 -0.2185 -0.4118
   34TCq2    C9  526   4.718   4.673   9.331 -0.1920  0.2415 -0.1408
   34TCq2    O5  527   4.662   4.564   9.342  0.4484  0.0187  0.6831
   34TCq2    O6  528   0.084   4.686   9.244  0.4302 -0.9420  0.3626
   34TCq2    H2  529   4.638   4.602   9.571  2.0560 -0.9686  2.5826
   34TCq2    H3  530   0.098   0.179   9.337  0.1308 -0.5271  0.0187
   34TCq2    H4  531   0.003   0.267   9.743 -0.6360 -0.3526 -1.1305
   35MPD2     C  532   1.316   1.960  12.040 -0.0533 -0.0155  0.1235
   35MPD2    C1  533   1.226   1.857  12.044  0.0093  0.2662 -0.6923
   35MPD2    C2  534   1.130   1.847  11.941  0.4541 -0.1083 -0.0001
   35MPD2    C3  535   1.124   1.941  11.841  0.0378 -0.4242 -0.7036
   35MPD2    C4  536   1.217   2.043  11.839 -0.2542  0.2723  0.6982
   35MPD2    C5  537   1.315   2.051  11.938 -0.2920  0.3855  0.9352
   35MPD2     H  538   1.073   1.756  11.931 -0.1609  0.1753  0.9626
   35MPD2    H1  539   1.219   2.115  11.759 -1.9292 -0.9372 -0.4333
   35MPD2    H2  540   1.389   1.959  12.120  1.5927 -1.3043 -1.4009
   35MPD2    H3  541   1.383   2.135  11.945 -0.3391  0.4672  0.3450
   35MPD2     N  542   1.022   1.921  11.747  0.0004  0.0345 -0.0351
   35MPD2    H5  543   0.939   1.874  11.782  0.6613 -0.6440  0.6162
   35MPD2    N1  544   1.235   1.765  12.151  0.1077 -0.1207  0.3462
   35MPD2    H7  545   1.298   1.780  12.229  1.6363  2.0839 -1.3063
   36TCq2    C1  546   1.032   1.973  11.619  0.1299  0.1838 -0.2237
   36TCq2    O2  547   1.131   2.009  11.559 -0.5154 -0.3601 -0.0587
   36TCq2    C2  548   0.905   1.966  11.547  0.5399 -0.1937  0.3790
   36TCq2    C3  549   0.889   2.055  11.445 -0.2002 -0.6792 -0.2186
   36TCq2    C4  550   0.783   2.041  11.360 -0.3521  0.2423  0.3615
   36TCq2    C5  551   0.705   1.930  11.374  0.7587  0.1893 -0.0819
   36TCq2    C6  552   0.727   1.838  11.470 -0.8190  0.7569  0.2993
   36TCq2    C7  553   0.821   1.862  11.563 -0.0300 -0.1819  1.3830
   36TCq2    C8  554   0.637   1.727  11.481  0.7740 -0.1783 -0.2926
   36TCq2    O4  555   0.571   1.692  11.381 -0.0950 -0.5650  0.0358
   36TCq2    C9  556   0.778   2.126  11.241  0.2595 -0.3423  0.1360
   36TCq2    O5  557   0.676   2.122  11.168 -0.1049 -0.2907  0.2374
   36TCq2    O6  558   0.889   2.171  11.192  0.3946  0.5873  0.1946
   36TCq2    H2  559   0.956   2.139  11.429  0.9254 -2.0737 -2.7474
   36TCq2    H3  560   0.630   1.916  11.297 -0.3915 -2.6700  1.5201
   36TCq2    H4  561   0.845   1.787  11.637 -0.1731 -1.6103 -0.0216
   37TMC2    C1  562   3.095   2.771  11.058 -0.2921  0.0424  0.5415
   37TMC2    C2  563   3.043   2.888  10.999  0.6715 -0.0599  0.0970
   37TMC2    C3  564   3.130   2.995  10.999 -0.8598  0.2317 -0.5633
   37TMC2    C4  565   3.213   2.765  11.127 -0.3585  0.0177  0.0753
   37TMC2    C5  566   3.292   2.876  11.118 -0.6352 -0.0590  0.1593
   37TMC2    C6  567   3.255   2.993  11.059  0.2703  0.3960  0.4375
   37TMC2     C  568   3.008   2.658  11.056 -0.7249 -0.0221 -0.0246
   37TMC2     O  569   2.926   2.649  10.962  0.1939 -0.2860 -0.4148
   37TMC2     H  570   2.947   2.889  10.949  0.8809  2.1775 -0.2568
   37TMC2    H1  571   3.264   2.674  11.157 -0.5029  0.4727  1.6729
   37TMC2    H2  572   3.309   3.087  11.064  2.2965 -0.7676 -0.1052
   37TMC2    C7  573   3.408   2.871  11.199 -0.1607  0.2489 -1.1825
   37TMC2    C8  574   3.096   3.124  10.947  0.5539 -0.6871 -0.0160
   37TMC2    O1  575   3.416   2.794  11.294  0.2841 -0.4109 -0.1262
   37TMC2    O2  576   3.147   3.228  10.984 -0.0861 -0.2832 -0.6819
   37TMC2    O5  577   3.007   3.108  10.842 -0.0744  0.2740 -0.1414
   37TMC2    H5  578   3.011   3.017  10.806  0.4683  1.0163 -1.9580
   38MPD2     C  579   2.771   2.272  11.282 -0.0079  0.0621 -0.0027
   38MPD2    C1  580   2.877   2.292  11.360 -0.5670 -1.2343  0.3343
   38MPD2    C2  581   2.958   2.399  11.318 -0.1368  0.7880  0.8069
   38MPD2    C3  582   2.932   2.477  11.209  0.1088 -0.1187  0.0401
   38MPD2    C4  583   2.817   2.447  11.135 -0.7131 -0.2972  0.3875
   38MPD2    C5  584   2.734   2.350  11.177  0.2289 -0.1681  0.1007
   38MPD2     H  585   3.057   2.416  11.360  0.4293  0.6698 -0.5018
   38MPD2    H1  586   2.785   2.505  11.049 -1.8282 -0.3369  0.7774
   38MPD2    H2  587   2.692   2.204  11.312 -0.8548  0.5405 -1.1533
   38MPD2    H3  588   2.644   2.332  11.120 -0.6872 -0.3359  1.6294
   38MPD2     N  589   3.023   2.581  11.170  0.5111 -0.1007  0.2540
   38MPD2    H5  590   3.099   2.612  11.230  0.3091  0.9388 -0.0165
   38MPD2    N1  591   2.896   2.232  11.488  0.3432 -0.2505 -0.0892
   38MPD2    H7  592   2.970   2.273  11.543  0.6545  0.5072 -1.0821
   39MPD2     C  593   1.375   3.627   1.521  0.7302 -0.3513 -0.0159
   39MPD2    C1  594   1.289   3.730   1.539  0.0196  0.1920 -0.9488
   39MPD2    C2  595   1.165   3.726   1.474 -0.4893 -0.0789 -0.3797
   39MPD2    C3  596   1.129   3.628   1.382 -0.7803 -0.7045 -0.2348
   39MPD2    C4  597   1.214   3.520   1.379  0.3655 -0.3730 -0.7730
   39MPD2    C5  598   1.331   3.520   1.443 -0.5337 -0.0980 -0.3942
   39MPD2     H  599   1.086   3.797   1.498 -0.4515 -0.0748 -0.2659
   39MPD2    H1  600   1.198   3.442   1.306 -2.5025 -0.3678 -0.1498
   39MPD2    H2  601   1.472   3.612   1.566  0.3589 -0.7553  0.6701
   39MPD2    H3  602   1.390   3.432   1.418  0.5158 -0.6059  3.9388
   39MPD2     N  603   1.013   3.629   1.298  0.3870  0.4045 -0.2784
   39MPD2    H5  604   0.981   3.544   1.252 -0.1131  0.0626  0.7134
   39MPD2    N1  605   1.319   3.838   1.628 -0.0153  0.3848 -0.0961
   39MPD2    H7  606   1.408   3.832   1.677 -0.3362  1.8345  0.6609
   40TCq2    C1  607   1.250   3.958   1.638  0.1382 -0.4623  0.5193
   40TCq2    O2  608   1.156   3.992   1.569  0.1890 -1.0939  0.7223
   40TCq2    C2  609   1.296   4.045   1.744  0.4469  0.3534 -0.3169
   40TCq2    C3  610   1.221   4.152   1.771  0.4179 -0.1662 -0.1021
   40TCq2    C4  611   1.272   4.250   1.842  0.3979  0.1035 -0.3123
   40TCq2    C5  612   1.399   4.245   1.897  0.2908  0.4654  0.6349
   40TCq2    C6  613   1.471   4.134   1.871 -0.3554  0.0834 -0.4085
   40TCq2    C7  614   1.427   4.025   1.795 -0.2185  0.1424  0.3287
   40TCq2    C8  615   1.604   4.119   1.932  0.3726 -1.0871  0.1019
   40TCq2    O4  616   1.634   4.173   2.040  0.0112  0.0137  0.2760
   40TCq2    C9  617   1.185   4.365   1.877 -0.1523 -0.5858  0.4571
   40TCq2    O5  618   1.236   4.467   1.927 -0.1689  0.0314 -0.2272
   40TCq2    O6  619   1.063   4.348   1.852  0.0558  0.4977  0.0469
   40TCq2    H2  620   1.130   4.173   1.717  0.8567  0.7263 -0.4983
   40TCq2    H3  621   1.446   4.319   1.960  2.2574 -2.5283  2.7083
   40TCq2    H4  622   1.488   3.936   1.783 -0.5284  0.1202 -1.1830
   41TMC2    C1  623   4.454   1.692  13.627  0.0376 -0.2733 -0.0256
   41TMC2    C2  624   4.340   1.711  13.696  0.0903 -0.5708 -0.4490
   41TMC2    C3  625   4.214   1.725  13.642 -0.1367  0.4868 -0.0915
   41TMC2    C4  626   4.454   1.694  13.497 -0.4004  0.5980  0.1602
   41TMC2    C5  627   4.330   1.698  13.438 -0.6160  0.5999 -0.7461
   41TMC2    C6  628   4.214   1.713  13.508 -0.1057 -0.4745 -0.6049
   41TMC2     C  629   4.582   1.637  13.691  0.0216 -0.0280 -0.0535
   41TMC2     O  630   4.645   1.555  13.623  0.0541 -0.2264  0.2890
   41TMC2     H  631   4.352   1.727  13.802 -0.5160 -1.2007 -0.2852
   41TMC2    H1  632   4.549   1.680  13.446  0.1110 -0.4110  1.3786
   41TMC2    H2  633   4.118   1.714  13.457  0.4045  1.9468 -1.5167
   41TMC2    C7  634   4.324   1.653  13.301  0.0687  0.1607 -0.5845
   41TMC2    C8  635   4.130   1.807  13.726 -0.3265  0.3323  0.5456
   41TMC2    O1  636   4.216   1.603  13.265 -0.1693 -0.1109  0.0068
   41TMC2    O2  637   4.171   1.878  13.813  0.3203  1.1229 -0.5909
   41TMC2    O5  638   4.003   1.772  13.714  0.1864 -0.3277 -0.2133
   41TMC2    H5  639   3.979   1.713  13.639 -1.1114 -0.7266  0.5076
   42MPD2     C  640   0.099   1.571  13.854  0.0665  0.5263 -0.8825
   42MPD2    C1  641   0.002   1.661  13.891 -1.0354  0.6592  0.3471
   42MPD2    C2  642   0.022   1.753  13.994 -0.1968 -0.2148  0.7457
   42MPD2    C3  643   0.141   1.731  14.073  0.3014 -0.4527 -0.2495
   42MPD2    C4  644   0.228   1.626  14.047  0.3222 -0.1446 -0.4297
   42MPD2    C5  645   0.202   1.544  13.940  0.6864 -0.4104 -0.4435
   42MPD2     H  646   4.664   1.817  14.024  1.0625  1.4768  0.5502
   42MPD2    H1  647   0.317   1.607  14.107  0.9639 -1.5595 -1.8198
   42MPD2    H2  648   0.090   1.517  13.760 -1.7843 -2.2720  0.8928
   42MPD2    H3  649   0.269   1.463  13.914  0.4815 -1.0666  1.0435
   42MPD2     N  650   0.176   1.809  14.177 -0.1703  0.3342 -0.6631
   42MPD2    H5  651   0.263   1.787  14.224 -0.6725  0.2936  0.2537
   42MPD2    N1  652   4.604   1.683  13.820  0.2941  0.3170 -0.3736
   42MPD2    H7  653   4.541   1.752  13.859  0.8495  0.5048  0.1916
   43MPD2     C  654   1.799   4.554   0.853 -0.1782 -0.4987  0.1562
   43MPD2    C1  655   1.928   4.603   0.832  0.3889 -0.2297 -0.0571
   43MPD2    C2  656   1.958   0.006   0.879  0.2954 -0.7774  0.5360
   43MPD2    C3  657   1.857   0.079   0.949  0.2811  0.6367 -0.0935
   43MPD2    C4  658   1.727   0.027   0.950  0.3078 -0.6390  0.4426
   43MPD2    C5  659   1.699   4.631   0.898 -0.0557 -0.6073  0.3596
   43MPD2     H  660   2.059   0.040   0.858  0.2629 -0.0446  1.5919
   43MPD2    H1  661   1.652   0.088   0.998  2.3153  0.9996  1.4996
   43MPD2    H2  662   1.766   4.459   0.812 -1.4118  0.9983 -2.3287
   43MPD2    H3  663   1.600   4.594   0.922  0.0832 -1.5593 -0.5413
   43MPD2     N  664   1.874   0.208   0.999  0.5081 -0.1245  0.9374
   43MPD2    H5  665   1.797   0.262   1.036  1.1844 -1.3340  4.1114
   43MPD2    N1  666   2.031   4.537   0.760  0.6129 -0.6388 -0.2616
   43MPD2    H7  667   2.112   4.595   0.741  0.1703 -0.4743 -1.6391
   44TCq2    C1  668   2.110   0.500   1.453  0.2846 -0.8115  0.0938
   44TCq2    O2  669   2.186   0.405   1.459 -0.1922  0.2911  0.2773
   44TCq2    C2  670   2.023   0.485   1.335  0.2764  0.0050  0.0257
   44TCq2    C3  671   1.921   0.571   1.315 -0.5911  0.5838 -0.1375
   44TCq2    C4  672   1.840   0.551   1.207  0.1000  0.0186 -0.0197
   44TCq2    C5  673   1.859   0.452   1.111 -0.1483  0.3499 -0.2546
   44TCq2    C6  674   1.975   0.382   1.124 -0.3105  0.1330 -0.2079
   44TCq2    C7  675   2.048   0.385   1.241  0.6272 -0.3967 -0.4892
   44TCq2    C8  676   1.993   0.257   1.048 -0.0204 -0.3151  0.6242
   44TCq2    O4  677   2.098   0.196   1.064 -0.4838  0.0096  0.4719
   44TCq2    C9  678   1.723   0.633   1.186 -0.2287 -1.0983 -0.9674
   44TCq2    O5  679   1.699   0.721   1.277  0.2471  0.0205  0.0570
   44TCq2    O6  680   1.647   0.601   1.095 -0.2835 -0.6816 -0.4418
   44TCq2    H2  681   1.890   0.650   1.382  0.7550  0.1369  1.0048
   44TCq2    H3  682   1.806   0.442   1.016 -0.0449 -0.3149 -0.2471
   44TCq2    H4  683   2.137   0.325   1.251  1.1076  0.4988  0.5396
   45TMC2    C1  684   3.266   1.896   9.674  0.2454  0.4288 -0.3207
   45TMC2    C2  685   3.347   1.868   9.569 -0.2182 -0.1678 -0.6101
   45TMC2    C3  686   3.418   1.964   9.519 -0.7438 -0.3854 -0.4517
   45TMC2    C4  687   3.258   2.022   9.723 -0.5786 -0.3992  0.8863
   45TMC2    C5  688   3.347   2.122   9.673  0.4898 -0.1395 -0.2026
   45TMC2    C6  689   3.432   2.089   9.572  0.0227 -0.5132 -0.9872
   45TMC2     C  690   3.147   1.814   9.691 -0.2006  0.0378 -0.6234
   45TMC2     O  691   3.168   1.697   9.670  0.0048 -0.3654  0.2585
   45TMC2     H  692   3.357   1.770   9.523 -2.3657 -0.5744 -0.2032
   45TMC2    H1  693   3.214   2.039   9.820 -1.1542  0.0634  0.5409
   45TMC2    H2  694   3.516   2.147   9.536 -1.9640  2.8058 -0.3025
   45TMC2    C7  695   3.321   2.256   9.725  0.4673  0.1766 -0.4139
   45TMC2    C8  696   3.508   1.934   9.410 -0.5646  0.2871  0.0047
   45TMC2    O1  697   3.239   2.271   9.811 -0.0765  0.1421  0.3035
   45TMC2    O2  698   3.586   1.838   9.408 -0.4931  0.9232  0.3027
   45TMC2    O5  699   3.514   2.032   9.323  0.6037 -0.2961  0.3855
   45TMC2    H5  700   3.433   2.087   9.317  0.5559 -0.5284 -1.1720
   46MPD2     C  701   2.873   1.690   9.720 -0.6227  0.2995  0.3649
   46MPD2    C1  702   2.902   1.828   9.704 -0.4785  0.5072 -0.0019
   46MPD2    C2  703   2.805   1.922   9.704 -0.5035 -0.5160 -0.1278
   46MPD2    C3  704   2.669   1.893   9.717 -0.1461  0.1264  0.1526
   46MPD2    C4  705   2.637   1.758   9.729  0.2744  1.2285 -0.3008
   46MPD2    C5  706   2.740   1.663   9.739  0.9195 -0.4636 -0.2735
   46MPD2     H  707   2.829   2.027   9.696  0.0398 -0.5749  0.7785
   46MPD2    H1  708   2.539   1.712   9.728  0.1486  1.5180 -1.2232
   46MPD2    H2  709   2.949   1.613   9.726 -1.0072 -0.1284 -0.2789
   46MPD2    H3  710   2.709   1.559   9.745 -1.7657  0.3003 -0.5801
   46MPD2     N  711   2.579   1.999   9.704  0.5046 -0.0187  0.0446
   46MPD2    H5  712   2.614   2.094   9.698  0.8104 -0.2905 -2.4279
   46MPD2    N1  713   3.031   1.882   9.709  0.7463 -0.3405 -0.5890
   46MPD2    H7  714   3.034   1.984   9.713 -1.0913 -0.2724 -0.9413
   47TMC2    C1  715   4.475   2.856   9.669 -0.0872  0.4353  0.1004
   47TMC2    C2  716   4.470   2.734   9.602 -0.7139  0.0713 -0.3566
   47TMC2    C3  717   4.442   2.745   9.468  0.2869  0.3108  1.3287
   47TMC2    C4  718   4.453   2.971   9.602 -0.1835 -0.1115 -0.0854
   47TMC2    C5  719   4.447   2.968   9.468  0.4798 -0.4522 -0.3509
   47TMC2    C6  720   4.448   2.859   9.391 -0.7261 -0.7217  0.2505
   47TMC2     C  721   4.545   2.872   9.795 -0.3298 -0.5162  0.2232
   47TMC2     O  722   4.523   2.970   9.865  0.2967 -0.1913  0.4662
   47TMC2     H  723   4.468   2.637   9.651 -1.5909  0.9704  1.3684
   47TMC2    H1  724   4.480   3.066   9.646 -0.3185 -0.8090  1.4887
   47TMC2    H2  725   4.431   2.869   9.284  2.6293  0.0893 -0.1816
   47TMC2    C7  726   4.399   3.095   9.406  0.3015  0.0343  0.3844
   47TMC2    C8  727   4.376   2.634   9.401 -0.3938  0.2380  0.1244
   47TMC2    O1  728   4.466   3.134   9.310  0.3023 -0.3438  0.0735
   47TMC2    O2  729   4.389   2.525   9.452  0.3768  0.3498 -0.7368
   47TMC2    O5  730   4.249   2.686   9.379  0.0468  0.6243  0.4552
   47TMC2    H5  731   4.246   2.783   9.365  3.2129  0.4848 -1.0086
   48MPD2     C  732   0.073   2.888   9.936 -0.2180 -0.1962  0.1486
   48MPD2    C1  733   0.023   2.771   9.885 -0.4789  0.0534 -0.6159
   48MPD2    C2  734   0.093   2.650   9.903  0.3566 -0.2753 -0.4678
   48MPD2    C3  735   0.218   2.642   9.964  0.9331 -0.4087  0.3330
   48MPD2    C4  736   0.269   2.762  10.015  0.5846  0.0863 -0.2648
   48MPD2    C5  737   0.194   2.876   9.996 -0.6731 -0.2397 -0.2289
   48MPD2     H  738   0.061   2.560   9.852  3.1735 -2.8953  2.3822
   48MPD2    H1  739   0.361   2.758  10.072 -1.1488 -1.2412  2.4881
   48MPD2    H2  740   0.026   2.986   9.942  0.3086  0.1536 -1.3687
   48MPD2    H3  741   0.221   2.973  10.036 -1.1632  0.5056 -1.7193
   48MPD2     N  742   0.277   2.512   9.973 -0.2195 -0.2061 -0.7026
   48MPD2    H5  743   0.232   2.432   9.930 -0.1356 -1.6067  1.8408
   48MPD2    N1  744   4.625   2.768   9.805  0.2350 -0.0493 -0.0974
   48MPD2    H7  745   4.611   2.693   9.738 -1.1245 -0.4162  0.5900
   49MPD2     C  746   3.143   0.231  10.194  0.0739  0.0229 -0.2230
   49MPD2    C1  747   3.232   0.126  10.221  0.2818  0.3777  0.4696
   49MPD2    C2  748   3.277   0.100  10.345  0.1275  0.2826 -0.2320
   49MPD2    C3  749   3.248   0.184  10.448  0.0592 -0.2746 -0.0169
   49MPD2    C4  750   3.159   0.283  10.429 -0.7637 -0.3242 -0.2666
   49MPD2    C5  751   3.107   0.305  10.306 -0.3061  0.1683  0.1889
   49MPD2     H  752   3.338   0.012  10.361 -0.8469 -0.5558 -1.1330
   49MPD2    H1  753   3.128   0.348  10.510  0.1050  2.6400 -2.2977
   49MPD2    H2  754   3.105   0.250  10.094  0.0776 -2.2991 -0.6547
   49MPD2    H3  755   3.046   0.393  10.291  2.4502  1.7671 -1.8389
   49MPD2     N  756   3.282   0.172  10.584  0.4986 -0.3761  0.6581
   49MPD2    H5  757   3.230   0.229  10.650  0.5424 -2.1781  2.2547
   49MPD2    N1  758   3.265   0.022  10.128 -0.0991 -0.2903  0.9734
   49MPD2    H7  759   3.310   4.662  10.163 -0.7759 -0.4155  1.5396
   50TCq2    C1  760   3.231   0.023   9.995  0.5002 -0.3956  0.1263
   50TCq2    O2  761   3.185   0.115   9.927 -0.4580  0.0232 -0.2569
   50TCq2    C2  762   3.287   4.638   9.923 -0.8610  0.0579 -0.4896
   50TCq2    C3  763   3.309   4.664   9.792  0.3712 -0.9186 -0.2826
   50TCq2    C4  764   3.377   4.571   9.710  0.2467  0.0711  0.3085
   50TCq2    C5  765   3.412   4.447   9.762 -0.0367 -0.6755 -0.0341
   50TCq2    C6  766   3.368   4.423   9.893  0.5239 -0.6052 -0.4351
   50TCq2    C7  767   3.320   4.514   9.979 -0.4929  0.2818  0.4736
   50TCq2    C8  768   3.411   4.299   9.951  0.3065  0.1270  0.2695
   50TCq2    O4  769   3.426   4.205   9.870  0.5134 -0.4284 -0.3095
   50TCq2    C9  770   3.409   4.607   9.573 -0.2823 -0.0544 -0.0744
   50TCq2    O5  771   3.400   0.003   9.536 -0.1616 -0.0771  0.4481
   50TCq2    O6  772   3.465   4.516   9.504  0.0676  0.0831 -0.4383
   50TCq2    H2  773   3.280   0.036   9.751  0.2921 -0.3150  1.2165
   50TCq2    H3  774   3.447   4.366   9.699 -0.0297 -0.8281  0.1638
   50TCq2    H4  775   3.287   4.486  10.079 -0.9419 -1.0470 -0.0509
   51MPD2     C  776   3.422   2.337   1.912  0.1457 -0.2654 -0.1215
   51MPD2    C1  777   3.461   2.366   1.783  0.4820 -0.2846 -0.4472
   51MPD2    C2  778   3.545   2.474   1.764  0.2700  0.0025 -0.4669
   51MPD2    C3  779   3.601   2.547   1.870 -0.4566  0.0521 -0.3041
   51MPD2    C4  780   3.566   2.513   1.999 -0.5660  0.6875 -0.0253
   51MPD2    C5  781   3.487   2.405   2.016 -0.2079  0.4351  0.0445
   51MPD2     H  782   3.579   2.486   1.662  0.7968 -0.1335 -0.3086
   51MPD2    H1  783   3.609   2.557   2.088  0.9255  1.2585 -1.0322
   51MPD2    H2  784   3.362   2.253   1.942  1.3984 -0.6961  1.1921
   51MPD2    H3  785   3.465   2.376   2.119  0.9983  1.3227  0.5546
   51MPD2     N  786   3.695   2.651   1.855  0.4042  0.0015 -0.5282
   51MPD2    H5  787   3.743   2.697   1.932 -1.6343 -0.0311  0.7528
   51MPD2    N1  788   3.425   2.291   1.666 -0.3992  0.4192  0.2789
   51MPD2    H7  789   3.456   2.325   1.575 -2.0445 -0.9182 -0.7675
   52TCq2    C1  790   3.716   2.701   1.740  0.4037  0.5899  0.3970
   52TCq2    O2  791   3.654   2.688   1.637 -0.2890  0.8111  0.1059
   52TCq2    C2  792   3.836   2.774   1.745  0.8252 -0.2228 -0.0934
   52TCq2    C3  793   3.934   2.752   1.835  0.7914 -0.2591  0.3284
   52TCq2    C4  794   4.051   2.821   1.815 -0.5035 -0.5071  0.3659
   52TCq2    C5  795   4.070   2.901   1.706 -0.1093  0.3293  0.0558
   52TCq2    C6  796   3.967   2.918   1.619 -0.3900  1.5440 -0.7112
   52TCq2    C7  797   3.849   2.864   1.641 -0.3529 -0.1592 -0.4955
   52TCq2    C8  798   3.980   3.002   1.500 -0.1948  1.0729 -0.1782
   52TCq2    O4  799   4.061   3.090   1.494 -0.7018  0.0764  0.5501
   52TCq2    C9  800   4.164   2.789   1.900  0.8720 -0.2932  0.6718
   52TCq2    O5  801   4.272   2.856   1.874  0.2124  0.4708  0.4032
   52TCq2    O6  802   4.163   2.683   1.972 -0.2494  0.1986  0.6184
   52TCq2    H2  803   3.933   2.671   1.907 -1.3400 -0.3022  0.2581
   52TCq2    H3  804   4.164   2.949   1.681  0.0457  0.8302  1.5646
   52TCq2    H4  805   3.761   2.885   1.581  0.6247  0.8251 -1.5617
   53TMC2    C1  806   3.914   2.859  11.740  0.0122  0.3358  0.1967
   53TMC2    C2  807   4.032   2.841  11.806  0.5897 -0.0858 -0.7239
   53TMC2    C3  808   4.027   2.788  11.937 -0.6302  0.2050  0.1797
   53TMC2    C4  809   3.793   2.832  11.799 -0.1465 -0.2134  0.0008
   53TMC2    C5  810   3.798   2.772  11.922  0.0928  0.0105 -0.1294
   53TMC2    C6  811   3.912   2.756  11.998  0.2970 -0.0249  0.4446
   53TMC2     C  812   3.915   2.890  11.598 -0.5208  0.4921  0.0592
   53TMC2     O  813   4.025   2.887  11.542 -0.9425  0.3347  0.3382
   53TMC2     H  814   4.120   2.876  11.753 -0.0715 -0.8475 -2.3240
   53TMC2    H1  815   3.703   2.853  11.742 -1.1630  0.7836  1.9726
   53TMC2    H2  816   3.901   2.710  12.095 -1.2595  1.0312  0.7625
   53TMC2    C7  817   3.681   2.721  11.973 -0.0863  0.2117  1.0917
   53TMC2    C8  818   4.142   2.757  12.012  0.1876  0.2847 -0.4042
   53TMC2    O1  819   3.577   2.771  11.932 -0.5069 -0.1010 -0.2797
   53TMC2    O2  820   4.144   2.740  12.132 -0.3930 -0.0616 -0.0011
   53TMC2    O5  821   4.236   2.727  11.918 -0.3127  0.2998  0.1083
   53TMC2    H5  822   4.201   2.733  11.827  0.7611  1.2328 -0.2427
   54MPD2     C  823   3.890   2.992  11.311 -0.2305 -0.7401  0.0920
   54MPD2    C1  824   3.784   2.941  11.390 -0.0441  0.0566  0.0530
   54MPD2    C2  825   3.659   2.924  11.339 -0.9251 -0.3155  0.1886
   54MPD2    C3  826   3.632   2.970  11.210  0.8830 -0.5891  0.1866
   54MPD2    C4  827   3.729   3.030  11.132  0.5389  0.1595 -0.0926
   54MPD2    C5  828   3.860   3.035  11.185  0.4499  0.2974  0.7768
   54MPD2     H  829   3.584   2.884  11.407  1.2302 -2.1612  1.4905
   54MPD2    H1  830   3.707   3.051  11.028 -0.6860  0.8542  0.3051
   54MPD2    H2  831   3.989   3.009  11.352  0.0314  1.7385 -1.5623
   54MPD2    H3  832   3.935   3.083  11.123  0.1441  1.5625  1.3875
   54MPD2     N  833   3.507   2.944  11.142  0.1550 -0.2444 -0.0296
   54MPD2    H5  834   3.490   2.996  11.056 -0.3077 -0.0849  0.1566
   54MPD2    N1  835   3.796   2.904  11.533  0.3912  0.4562  0.0897
   54MPD2    H7  836   3.706   2.883  11.575  1.6652 -0.3766  2.4043
   55MPD2     C  837   4.699   4.639  17.372 -0.8773 -0.2095  0.2460
   55MPD2    C1  838   4.698   4.544  17.472  0.1632  0.1215 -0.3551
   55MPD2    C2  839   4.585   4.540  17.550 -0.9640  0.3419 -0.0301
   55MPD2    C3  840   4.501   4.652  17.558 -0.5417 -0.1019  0.2042
   55MPD2    C4  841   4.519   0.038  17.470 -0.6362  0.4206 -0.4883
   55MPD2    C5  842   4.620   0.025  17.373 -0.2781  0.0615 -0.0220
   55MPD2     H  843   4.561   4.443  17.594  1.2444 -0.5124 -0.7034
   55MPD2    H1  844   4.467   0.131  17.489 -1.0485  0.1632 -0.3463
   55MPD2    H2  845   0.055   4.638  17.299 -0.9567  0.4545  0.1556
   55MPD2    H3  846   4.648   0.099  17.299  2.8536 -2.5972 -1.5284
   55MPD2     N  847   4.401   4.650  17.661  0.3727  0.2338  0.2206
   55MPD2    H5  848   4.393   4.568   0.021  0.8354 -0.0343 -0.0879
   55MPD2    N1  849   0.066   4.437  17.456 -0.0113  0.3804 -0.1896
   55MPD2    H7  850   0.120   4.449  17.371 -1.1461  1.8538 -0.6998
   56TCq2    C1  851   0.091   4.340  17.553 -1.0114 -0.1943 -0.2483
   56TCq2    O2  852   0.046   4.330  17.667 -0.2794 -0.6015 -0.4733
   56TCq2    C2  853   0.192   4.234  17.519 -0.0903 -0.5705 -0.1912
   56TCq2    C3  854   0.285   4.256  17.425 -0.6335  0.3240 -0.3558
   56TCq2    C4  855   0.377   4.157  17.402 -0.0874  0.1958 -0.5081
   56TCq2    C5  856   0.384   4.046  17.478 -0.0415  0.0451  0.3293
   56TCq2    C6  857   0.291   4.034  17.580  0.9972 -0.7070 -0.1121
   56TCq2    C7  858   0.192   4.125  17.601 -1.0749 -0.0961 -0.3283
   56TCq2    C8  859   0.299   3.912  17.659  0.2952 -0.5488  0.9802
   56TCq2    O4  860   0.336   3.813  17.601  0.3846 -0.6196 -0.3852
   56TCq2    C9  861   0.468   4.175  17.291 -0.0197  0.6475 -0.8210
   56TCq2    O5  862   0.480   4.291  17.251  0.9093 -0.0132  0.1846
   56TCq2    O6  863   0.540   4.074  17.266  0.1418  0.2425  0.0776
   56TCq2    H2  864   0.286   4.332  17.347  1.0792  0.0958 -0.5519
   56TCq2    H3  865   0.467   3.979  17.459 -1.3218 -0.6152 -3.0185
   56TCq2    H4  866   0.134   4.116  17.692  1.7855 -3.2065  1.2316
   57TMC2    C1  867   3.823   1.191  14.119 -0.5211  1.1261 -0.9951
   57TMC2    C2  868   3.844   1.250  14.240  0.3784  0.1047  0.0370
   57TMC2    C3  869   3.972   1.266  14.280  0.2288  0.1543 -0.4435
   57TMC2    C4  870   3.922   1.154  14.029  0.0906 -0.1316  0.6820
   57TMC2    C5  871   4.051   1.158  14.078  0.8136  0.5426 -0.9004
   57TMC2    C6  872   4.074   1.219  14.204 -0.1728 -0.0935  0.8891
   57TMC2     C  873   3.682   1.175  14.089  0.1464  0.6173 -0.3169
   57TMC2     O  874   3.604   1.248  14.152  0.3565  0.1424 -0.0010
   57TMC2     H  875   3.762   1.287  14.302  0.6603 -0.5304  0.7832
   57TMC2    H1  876   3.898   1.114  13.931  0.4142  0.0836  0.5126
   57TMC2    H2  877   4.180   1.213  14.229  0.5821 -0.3387 -2.3275
   57TMC2    C7  878   4.162   1.106  14.001 -0.0674  0.0770  0.8268
   57TMC2    C8  879   3.986   1.307  14.418  0.0533  0.0266 -0.7674
   57TMC2    O1  880   4.276   1.097  14.045 -0.5886 -0.2717  0.3771
   57TMC2    O2  881   3.894   1.308  14.500 -0.5745  0.3557  0.1408
   57TMC2    O5  882   4.110   1.365  14.431  0.0085 -0.1387  0.1778
   57TMC2    H5  883   4.171   1.346  14.357  0.4280  1.2805  0.1624
   58MPD2     C  884   3.278   0.893  13.963  0.1451 -0.3812  0.2213
   58MPD2    C1  885   3.280   1.009  14.036  0.1353  0.0293 -0.5039
   58MPD2    C2  886   3.406   1.063  14.053 -0.2994 -0.4859  0.5122
   58MPD2    C3  887   3.520   1.011  13.998 -0.6339 -0.7113 -0.0554
   58MPD2    C4  888   3.509   0.893  13.933 -1.0066  0.3007  0.3727
   58MPD2    C5  889   3.390   0.837  13.914  0.1946  0.6221  0.6995
   58MPD2     H  890   3.404   1.151  14.116 -0.6884  2.1734 -3.1792
   58MPD2    H1  891   3.600   0.837  13.915 -1.2050  0.3907 -0.9319
   58MPD2    H2  892   3.179   0.856  13.942 -2.1833  4.2520  3.0105
   58MPD2    H3  893   3.380   0.739  13.869  2.5297  0.0523  1.4099
   58MPD2     N  894   3.650   1.070  14.003  0.2166 -0.3375 -0.3537
   58MPD2    H5  895   3.729   1.018  13.965  2.3049  1.4718  1.5296
   58MPD2    N1  896   3.171   1.070  14.095  0.7686  0.2709 -0.0887
   58MPD2    H7  897   3.193   1.152  14.152 -0.7501 -0.8198  2.0898
   59MPD2     C  898   1.051   0.907  13.310  0.2223 -0.1735 -0.2655
   59MPD2    C1  899   1.146   0.893  13.211 -0.2974 -0.2734 -0.2828
   59MPD2    C2  900   1.261   0.967  13.206 -0.1862 -0.0201  0.1556
   59MPD2    C3  901   1.295   1.051  13.307 -0.3069  0.5293 -0.7274
   59MPD2    C4  902   1.204   1.067  13.408 -0.0705  0.4247 -0.6412
   59MPD2    C5  903   1.084   1.001  13.403  0.3245  0.1862 -0.3206
   59MPD2     H  904   1.324   0.961  13.118 -0.6857  0.2263 -0.2205
   59MPD2    H1  905   1.220   1.141  13.486 -0.2640 -1.2537  1.0053
   59MPD2    H2  906   0.961   0.849  13.327 -0.2375  0.3555 -0.8986
   59MPD2    H3  907   1.026   1.018  13.492 -1.2375 -1.5186 -1.0204
   59MPD2     N  908   1.415   1.126  13.310 -0.0998  0.3348 -0.0943
   59MPD2    H5  909   1.413   1.207  13.371  1.7786  0.5495 -0.3157
   59MPD2    N1  910   1.131   0.792  13.116  0.0553  0.6729 -0.3346
   59MPD2    H7  911   1.195   0.795  13.038  0.6400  0.8587  0.1471
   60TCq2    C1  912   1.031   0.700  13.110  0.2437 -0.0714 -0.2059
   60TCq2    O2  913   0.960   0.658  13.202 -0.3382 -0.4906  0.0865
   60TCq2    C2  914   1.041   0.615  12.992  0.6927  0.1624  0.1674
   60TCq2    C3  915   1.056   0.481  13.004 -0.2451 -0.2766 -0.5708
   60TCq2    C4  916   1.071   0.404  12.897  0.3327 -0.4041  0.1808
   60TCq2    C5  917   1.065   0.455  12.767 -0.1854 -0.8485  0.1482
   60TCq2    C6  918   1.073   0.596  12.753 -0.1017 -0.0645 -0.3869
   60TCq2    C7  919   1.048   0.680  12.865  0.4861 -0.2508  0.3352
   60TCq2    C8  920   1.132   0.647  12.636 -0.3121 -0.6510 -0.8686
   60TCq2    O4  921   1.212   0.575  12.578 -0.7042 -0.1306 -0.1589
   60TCq2    C9  922   1.082   0.261  12.909 -0.5283  0.4502 -0.2019
   60TCq2    O5  923   1.120   0.218  13.021  0.3363 -0.4065  0.1442
   60TCq2    O6  924   1.040   0.192  12.815 -0.6983 -0.6522 -0.1430
   60TCq2    H2  925   1.052   0.447  13.107  1.8688  1.4696  0.0837
   60TCq2    H3  926   1.060   0.399  12.674 -2.4648 -2.1717  1.0714
   60TCq2    H4  927   1.049   0.788  12.864  3.3747 -0.3080 -2.4746
   61MPD2     C  928   1.221   2.623  14.323 -0.6507  0.5692 -0.0771
   61MPD2    C1  929   1.100   2.661  14.373 -0.1922 -1.0424 -0.4788
   61MPD2    C2  930   1.016   2.753  14.301  0.2837 -0.3034 -0.1448
   61MPD2    C3  931   1.050   2.786  14.172 -0.0016 -0.0729  0.0351
   61MPD2    C4  932   1.168   2.740  14.120  0.9551  0.4831 -0.3437
   61MPD2    C5  933   1.257   2.669  14.198 -0.5800 -0.0297  0.0228
   61MPD2     H  934   0.928   2.790  14.353 -0.0980  0.1169 -1.1035
   61MPD2    H1  935   1.200   2.767  14.020  2.4234 -1.5498 -0.4187
   61MPD2    H2  936   1.284   2.557  14.382 -0.2015  1.1466  0.0823
   61MPD2    H3  937   1.350   2.643  14.148 -0.5755  0.0990 -0.0354
   61MPD2     N  938   0.969   2.863  14.090 -0.2773  0.7176  0.1643
   61MPD2    H5  939   0.990   2.848  13.992 -1.7596 -1.6364  0.2072
   61MPD2    N1  940   1.063   2.638  14.508  0.0274 -0.2997  0.3137
   61MPD2    H7  941   0.970   2.675  14.527  0.4428  1.5492 -1.2548
   62TCq2    C1  942   1.139   2.586  14.616 -0.5833 -0.6147  0.9560
   62TCq2    O2  943   1.246   2.532  14.606  0.3349 -0.3433 -0.0060
   62TCq2    C2  944   1.095   2.613  14.756  0.2813  0.0314  0.1886
   62TCq2    C3  945   1.130   2.514  14.851 -0.1904  1.0173  0.0881
   62TCq2    C4  946   1.108   2.555  14.981 -0.7984  1.2490  0.1800
   62TCq2    C5  947   1.058   2.680  15.010  0.0995 -0.8656 -0.2010
   62TCq2    C6  948   1.023   2.768  14.913 -0.3184  0.1090  0.7480
   62TCq2    C7  949   1.040   2.737  14.778 -0.9587  0.1022  0.3535
   62TCq2    C8  950   0.986   2.902  14.957 -0.2014  0.4484  0.3844
   62TCq2    O4  951   1.031   2.940  15.065 -0.4371 -0.2235 -0.1843
   62TCq2    C9  952   1.127   2.451  15.087  0.2693  0.0376  0.0199
   62TCq2    O5  953   1.198   2.352  15.057  0.5102  0.6805  0.0533
   62TCq2    O6  954   1.128   2.489  15.206 -0.3657 -0.0933 -0.1351
   62TCq2    H2  955   1.186   2.425  14.827 -2.7733 -0.7345  0.6022
   62TCq2    H3  956   1.043   2.698  15.116  1.5030  1.1343 -0.3444
   62TCq2    H4  957   1.003   2.797  14.696  0.9607  1.3100  0.3540
   63TMC2    C1  958   0.051   2.373  11.254  0.2219 -0.1262 -0.8631
   63TMC2    C2  959   0.109   2.433  11.361 -0.0679  0.3694  0.0196
   63TMC2    C3  960   0.228   2.493  11.347 -0.5357  0.7292 -0.1664
   63TMC2    C4  961   0.114   2.380  11.131  0.0827  0.5444  0.7589
   63TMC2    C5  962   0.230   2.454  11.121 -0.0538 -0.5484  0.5484
   63TMC2    C6  963   0.292   2.517  11.229 -0.2317  0.0789 -0.4121
   63TMC2     C  964   4.655   2.299  11.276  0.0661 -0.1840  0.2535
   63TMC2     O  965   4.609   2.300  11.387  0.0763  0.5358 -0.1394
   63TMC2     H  966   0.068   2.414  11.459 -1.3069  4.1002  0.2368
   63TMC2    H1  967   0.061   2.340  11.046  1.0242  1.6253 -0.3302
   63TMC2    H2  968   0.379   2.582  11.218 -0.4583  0.1920 -1.5514
   63TMC2    C7  969   0.281   2.468  10.986 -0.7988  0.7649 -0.6121
   63TMC2    C8  970   0.275   2.547  11.475 -0.1552 -0.4304  0.4909
   63TMC2    O1  971   0.215   2.419  10.896  0.0880 -0.6909 -0.0826
   63TMC2    O2  972   0.203   2.586  11.567  0.2010  0.4296  0.0918
   63TMC2    O5  973   0.411   2.540  11.485 -0.2582  0.3419  0.2874
   63TMC2    H5  974   0.463   2.510  11.408 -1.0700  0.4646 -0.3107
   64MPD2     C  975   4.342   1.923  11.160 -0.8193 -0.2214 -0.2874
   64MPD2    C1  976   4.461   1.904  11.080  0.5911 -0.4992 -0.3274
   64MPD2    C2  977   4.566   1.990  11.096  0.6997  0.7055  0.2255
   64MPD2    C3  978   4.540   2.109  11.175  0.4435  0.8984  0.0404
   64MPD2    C4  979   4.422   2.130  11.247  0.2059  0.0278 -0.2117
   64MPD2    C5  980   4.324   2.030  11.243  0.4368  0.3776  0.0906
   64MPD2     H  981   4.663   1.958  11.061  0.2622  0.0771 -0.4212
   64MPD2    H1  982   4.406   2.215  11.312  1.3913 -0.3278  0.5334
   64MPD2    H2  983   4.255   1.859  11.158 -1.1124  0.1944 -0.7722
   64MPD2    H3  984   4.240   2.034  11.311  0.8823 -0.4431  0.6977
   64MPD2     N  985   4.648   2.197  11.181 -0.1694 -0.2524 -0.2528
   64MPD2    H5  986   0.004   2.176  11.121  0.5360  0.5114  0.4265
   64MPD2    N1  987   4.488   1.796  11.005 -0.3438 -0.9882 -0.1229
   64MPD2    H7  988   4.574   1.803  10.952 -1.2799 -0.1307 -1.5389
   65MPD2     C  989   1.526   1.880  16.113  0.5554  0.4936  1.0602
   65MPD2    C1  990   1.504   1.876  15.976  0.4697 -0.0461 -0.8598
   65MPD2    C2  991   1.481   1.757  15.912  0.0425  0.2682 -0.2311
   65MPD2    C3  992   1.483   1.639  15.985  0.6792 -0.2726  0.9656
   65MPD2    C4  993   1.492   1.644  16.123  0.5712  0.0151 -0.4551
   65MPD2    C5  994   1.520   1.763  16.184  0.0192 -0.0819  0.2149
   65MPD2     H  995   1.445   1.759  15.810  3.5069 -1.5358 -1.4695
   65MPD2    H1  996   1.481   1.555  16.183  0.0900  1.6705  1.9197
   65MPD2    H2  997   1.532   1.974  16.165  1.6034  0.9003  0.1925
   65MPD2    H3  998   1.530   1.780  16.291  0.8337 -0.3025  0.1721
   65MPD2     N  999   1.464   1.511  15.924 -0.4725 -0.5702  0.2255
   65MPD2    H5 1000   1.451   1.434  15.988 -2.5188 -0.9352 -0.6506
   65MPD2    N1 1001   1.503   1.999  15.909  0.0382 -0.1878 -0.1428
   65MPD2    H7 1002   1.495   1.987  15.808  1.3663  2.2885 -0.5560
   66TCq2    C1 1003   1.512   2.130  15.945  0.0475 -0.2697 -0.1441
   66TCq2    O2 1004   1.553   2.176  16.052 -0.5232  0.1378 -0.5046
   66TCq2    C2 1005   1.488   2.220  15.835 -0.6081  0.1311 -0.1382
   66TCq2    C3 1006   1.383   2.206  15.754 -0.7093  0.3386  0.4016
   66TCq2    C4 1007   1.344   2.312  15.679  0.1556 -0.7433  0.2060
   66TCq2    C5 1008   1.406   2.431  15.677 -0.1226  0.4406  0.9004
   66TCq2    C6 1009   1.513   2.445  15.765  0.5068 -0.1701  0.0827
   66TCq2    C7 1010   1.554   2.342  15.846 -0.7245  0.7627  0.4589
   66TCq2    C8 1011   1.575   2.569  15.789  0.2451 -0.9905 -0.4167
   66TCq2    O4 1012   1.693   2.564  15.822  0.2604 -0.1095  0.1724
   66TCq2    C9 1013   1.238   2.300  15.578 -0.4175 -0.3273 -0.5488
   66TCq2    O5 1014   1.176   2.194  15.561  0.3851 -0.1494 -0.6671
   66TCq2    O6 1015   1.229   2.392  15.495  0.1747 -0.1950 -0.3720
   66TCq2    H2 1016   1.336   2.111  15.734 -0.5242 -0.0922  1.9833
   66TCq2    H3 1017   1.367   2.511  15.616  1.0134 -0.2600 -0.7507
   66TCq2    H4 1018   1.639   2.362  15.911 -0.0144  0.2899 -0.3324
   67MPD2     C 1019   1.407   1.480  14.055  0.7178  0.1760 -0.1831
   67MPD2    C1 1020   1.362   1.554  14.170 -0.4507 -0.3666 -0.5395
   67MPD2    C2 1021   1.224   1.582  14.181 -0.6539 -0.5706 -0.0802
   67MPD2    C3 1022   1.127   1.551  14.085  1.0021  0.2798  0.1318
   67MPD2    C4 1023   1.177   1.485  13.971  0.0479 -0.1781  0.1503
   67MPD2    C5 1024   1.309   1.457  13.959  0.0456  0.2598  0.5984
   67MPD2     H 1025   1.198   1.625  14.277 -2.5865 -0.3846 -0.6915
   67MPD2    H1 1026   1.108   1.456  13.893 -0.9608  0.3802  0.8356
   67MPD2    H2 1027   1.505   1.437  14.043  0.2805 -0.7243 -0.6045
   67MPD2    H3 1028   1.331   1.398  13.870 -0.0393  0.2783  0.5645
   67MPD2     N 1029   0.989   1.579  14.086 -0.2499 -0.5363  0.2255
   67MPD2    H5 1030   0.942   1.546  14.001  0.2894  0.4957 -0.4673
   67MPD2    N1 1031   1.456   1.589  14.276  0.4120 -0.7227  0.0568
   67MPD2    H7 1032   1.415   1.643  14.351  0.3991  0.0725 -0.5221
   68TCq2    C1 1033   1.589   1.554  14.293  0.0096 -0.8225 -0.5543
   68TCq2    O2 1034   1.667   1.476  14.231  0.5925 -0.0822 -0.4641
   68TCq2    C2 1035   1.632   1.621  14.409 -0.2998 -0.0661  0.3547
   68TCq2    C3 1036   1.554   1.725  14.456  0.1190  0.8309  0.3862
   68TCq2    C4 1037   1.585   1.782  14.575 -0.3176  1.1174  0.2872
   68TCq2    C5 1038   1.678   1.730  14.658 -0.4670  0.2228  0.4180
   68TCq2    C6 1039   1.748   1.621  14.616  0.2715 -0.7251 -0.1649
   68TCq2    C7 1040   1.719   1.559  14.493  0.6641 -0.4805 -0.0592
   68TCq2    C8 1041   1.863   1.578  14.697  0.4527 -0.3154 -0.0609
   68TCq2    O4 1042   1.951   1.511  14.643  0.1532  0.3113  0.6536
   68TCq2    C9 1043   1.509   1.891  14.614 -0.5588 -0.3812  0.1363
   68TCq2    O5 1044   1.440   1.954  14.527  0.1017 -0.0263 -0.0070
   68TCq2    O6 1045   1.515   1.919  14.734 -0.4439  0.2036 -0.4803
   68TCq2    H2 1046   1.475   1.777  14.404  0.0798  0.8943  0.5094
   68TCq2    H3 1047   1.701   1.773  14.755 -1.6127 -1.9363  1.6607
   68TCq2    H4 1048   1.788   1.482  14.459 -0.6034 -1.8524  0.5049
   69TMC2    C1 1049   3.498   2.943  12.604 -0.0894 -0.0651 -0.4163
   69TMC2    C2 1050   3.455   3.036  12.514 -0.2233 -0.2738  0.0090
   69TMC2    C3 1051   3.522   3.045  12.404 -0.4801  0.9162 -0.2424
   69TMC2    C4 1052   3.613   2.867  12.590 -0.0702 -0.1199 -0.1829
   69TMC2    C5 1053   3.686   2.895  12.479 -0.2605  0.4472 -0.7989
   69TMC2    C6 1054   3.635   2.973  12.381  0.0551  0.6221 -0.3729
   69TMC2     C 1055   3.402   2.907  12.705 -0.6692  0.1669 -0.1909
   69TMC2     O 1056   3.285   2.947  12.700 -0.9268  0.0576 -0.8059
   69TMC2     H 1057   3.360   3.085  12.529  1.1978  2.1375  1.1712
   69TMC2    H1 1058   3.640   2.785  12.655 -0.5837 -0.3005 -0.1924
   69TMC2    H2 1059   3.688   2.977  12.286  0.6734 -0.6368 -0.0809
   69TMC2    C7 1060   3.772   2.793  12.434  0.4983  0.7020 -0.4057
   69TMC2    C8 1061   3.454   3.106  12.295  0.0298  0.3131 -0.0294
   69TMC2    O1 1062   3.766   2.774  12.312 -0.2827 -0.5046  0.5242
   69TMC2    O2 1063   3.335   3.139  12.289 -0.4460 -0.2284  0.1311
   69TMC2    O5 1064   3.549   3.191  12.244  0.1606 -0.1182 -0.3273
   69TMC2    H5 1065   3.644   3.172  12.255  0.3054 -0.1718 -1.6430
   70MPD2     C 1066   3.470   2.731  13.026  0.8379  0.1778  0.6625
   70MPD2    C1 1067   3.392   2.778  12.919 -0.0616 -0.2115  0.1479
   70MPD2    C2 1068   3.269   2.716  12.891  0.1052 -0.0856  0.1141
   70MPD2    C3 1069   3.217   2.616  12.978 -0.0399 -0.4466 -0.3199
   70MPD2    C4 1070   3.291   2.574  13.085  0.0114  0.5629 -0.2915
   70MPD2    C5 1071   3.419   2.621  13.097  0.1221  1.1457  0.9670
   70MPD2     H 1072   3.218   2.736  12.797 -0.2340 -0.3703  0.2382
   70MPD2    H1 1073   3.254   2.493  13.148  0.7012  1.7090  1.6084
   70MPD2    H2 1074   3.566   2.778  13.046  2.4877 -3.5837  1.5875
   70MPD2    H3 1075   3.491   2.581  13.168  0.3129 -0.2143  0.0022
   70MPD2     N 1076   3.091   2.554  12.959  0.0672  0.9201 -0.0717
   70MPD2    H5 1077   3.070   2.472  13.015  0.5924  2.0636  1.7942
   70MPD2    N1 1078   3.457   2.863  12.820  0.1796 -0.1292  0.2137
   70MPD2    H7 1079   3.554   2.893  12.828  0.4448 -1.0822  0.5336
   71TMC2    C1 1080   0.979   2.236   1.703 -0.1696  0.2976  0.1926
   71TMC2    C2 1081   0.868   2.319   1.712 -0.2858  0.6353 -0.7539
   71TMC2    C3 1082   0.738   2.276   1.701 -0.7634  0.2163 -0.1275
   71TMC2    C4 1083   0.960   2.104   1.674 -0.0501  0.0490 -0.6545
   71TMC2    C5 1084   0.832   2.074   1.635 -0.2430  0.0101 -0.0665
   71TMC2    C6 1085   0.722   2.159   1.643 -0.7706  0.0939 -0.3971
   71TMC2     C 1086   1.111   2.284   1.681  0.8746  0.3810 -0.5173
   71TMC2     O 1087   1.212   2.227   1.720 -0.7628 -0.7005 -0.4757
   71TMC2     H 1088   0.894   2.422   1.734  4.0474 -0.6044 -0.0634
   71TMC2    H1 1089   1.045   2.042   1.648  0.1711  0.6052 -1.2400
   71TMC2    H2 1090   0.624   2.113   1.638 -1.2351  1.2563 -2.0386
   71TMC2    C7 1091   0.813   1.946   1.568 -0.3534  0.5155 -0.0061
   71TMC2    C8 1092   0.638   2.368   1.744 -0.4423 -0.2026 -0.0493
   71TMC2    O1 1093   0.915   1.876   1.579 -0.3873 -0.1536  0.4728
   71TMC2    O2 1094   0.656   2.488   1.755 -0.3679 -0.1264 -0.0610
   71TMC2    O5 1095   0.559   2.298   1.824 -0.3423 -0.0836 -0.3006
   71TMC2    H5 1096   0.568   2.200   1.824 -2.0655 -0.2322  2.9533
   72MPD2     C 1097   1.416   2.660   1.498  0.4178 -0.9806 -0.1203
   72MPD2    C1 1098   1.298   2.656   1.423 -0.6667 -0.4296 -0.0053
   72MPD2    C2 1099   1.196   2.565   1.458 -0.6441  0.4277 -0.2503
   72MPD2    C3 1100   1.214   2.480   1.568  0.2513  1.1367 -0.1327
   72MPD2    C4 1101   1.330   2.484   1.639 -0.1883 -0.2013  0.4820
   72MPD2    C5 1102   1.440   2.562   1.597  0.5896  0.2751 -0.0679
   72MPD2     H 1103   1.100   2.569   1.407  1.1992  0.2366 -3.7775
   72MPD2    H1 1104   1.342   2.429   1.732 -0.2169  0.7899  1.0664
   72MPD2    H2 1105   1.496   2.730   1.475  1.0383 -1.9069 -0.8042
   72MPD2    H3 1106   1.527   2.558   1.661  0.0284 -3.3296  0.4867
   72MPD2     N 1107   1.104   2.394   1.606 -0.7480  0.6370 -0.3164
   72MPD2    H5 1108   1.015   2.409   1.560 -0.2203 -2.3797 -2.3217
   72MPD2    N1 1109   1.282   2.734   1.309  0.3641 -0.0135 -1.0258
   72MPD2    H7 1110   1.214   2.700   1.241  0.6200  1.2006 -1.9000
   73TMC2    C1 1111   1.392   0.022  14.508  0.1325  0.3309 -0.2633
   73TMC2    C2 1112   1.495   4.671  14.458  0.3591 -0.2342  0.1581
   73TMC2    C3 1113   1.622   4.698  14.503  0.8057  0.2215 -0.9280
   73TMC2    C4 1114   1.411   0.095  14.625  0.3317  0.2717 -0.1517
   73TMC2    C5 1115   1.539   0.107  14.677 -0.3728 -0.8688 -0.3959
   73TMC2    C6 1116   1.645   0.047  14.619  0.2461  1.2301 -0.5285
   73TMC2     C 1117   1.328   0.114  14.417 -0.1670  0.4108  0.0213
   73TMC2     O 1118   1.315   0.233  14.452 -1.0459 -0.3557 -0.0100
   73TMC2     H 1119   1.488   4.626  14.360  2.2512  2.1835 -1.0965
   73TMC2    H1 1120   1.333   0.151  14.675 -0.9469 -0.2682 -1.5595
   73TMC2    H2 1121   1.744   0.078  14.650  0.2646  1.0191 -0.3741
   73TMC2    C7 1122   1.560   0.242  14.716  0.5481  0.1549  0.0829
   73TMC2    C8 1123   1.731   4.636  14.432  0.2587  0.3871  0.9476
   73TMC2    O1 1124   1.656   0.251  14.791 -0.2489 -0.3572 -0.2334
   73TMC2    O2 1125   1.704   4.553  14.350  0.0171  0.1415  0.1467
   73TMC2    O5 1126   1.823   0.008  14.417  0.5062  0.1189 -0.0978
   73TMC2    H5 1127   1.809   0.089  14.470  1.5675  1.1662 -1.4410
   74MPD2     C 1128   1.216   0.232  13.934  0.2013  0.4855 -0.6492
   74MPD2    C1 1129   1.222   0.321  14.035  0.6647  0.3025  0.1390
   74MPD2    C2 1130   1.253   0.260  14.162 -0.2839  0.3221  0.4404
   74MPD2    C3 1131   1.263   0.122  14.174 -0.0023  0.0364 -0.1368
   74MPD2    C4 1132   1.248   0.041  14.066  0.0219  0.4697 -0.5915
   74MPD2    C5 1133   1.230   0.095  13.944 -0.0771 -0.6678  0.0060
   74MPD2     H 1134   1.275   0.324  14.246  0.0287  1.9941 -0.8975
   74MPD2    H1 1135   1.263   4.658  14.074  1.3354  0.7184  0.2019
   74MPD2    H2 1136   1.203   0.267  13.832  3.0429  0.9382 -0.8638
   74MPD2    H3 1137   1.226   0.034  13.854  0.4377 -0.0091 -0.4692
   74MPD2     N 1138   1.313   0.061  14.292 -0.5167 -0.2409 -0.0679
   74MPD2    H5 1139   1.313   4.683  14.290 -1.3695 -0.2381 -0.8317
   74MPD2    N1 1140   1.213   0.459  14.006 -0.9233 -0.0238  0.4319
   74MPD2    H7 1141   1.215   0.494  13.911  1.5123  1.3729  0.9902
   75TCq2    C1 1142   0.925   1.635  14.191 -0.7575  0.5193  0.1034
   75TCq2    O2 1143   0.986   1.674  14.291  0.4622 -0.2132 -0.0254
   75TCq2    C2 1144   0.777   1.614  14.198  0.0485 -0.0064 -0.4981
   75TCq2    C3 1145   0.728   1.601  14.323 -0.4479  0.6550 -0.0280
   75TCq2    C4 1146   0.616   1.522  14.347  0.8201  0.6714 -0.1990
   75TCq2    C5 1147   0.549   1.461  14.238  0.5844 -0.6115  0.3536
   75TCq2    C6 1148   0.600   1.476  14.117  0.3747  0.1213  0.0674
   75TCq2    C7 1149   0.714   1.559  14.091  0.4637  0.1939  0.2215
   75TCq2    C8 1150   0.536   1.427  14.001 -0.3908  0.2792 -0.5812
   75TCq2    O4 1151   0.525   1.510  13.909 -0.4881 -0.1975  0.0813
   75TCq2    C9 1152   0.570   1.512  14.483  0.2173  0.7163  0.3779
   75TCq2    O5 1153   0.647   1.555  14.570 -0.3157  0.8231  0.3581
   75TCq2    O6 1154   0.456   1.462  14.493  0.3978 -0.8120  0.0913
   75TCq2    H2 1155   0.779   1.637  14.411 -1.6747 -0.5525  1.1775
   75TCq2    H3 1156   0.452   1.417  14.258 -0.0519  1.0098  0.8624
   75TCq2    H4 1157   0.745   1.568  13.988 -1.8250  2.7807 -0.2313
   76MPD2     C 1158   4.696   2.079  11.921 -0.1847 -0.6552  0.4049
   76MPD2    C1 1159   4.591   1.989  11.938 -0.1996 -0.4183  0.1503
   76MPD2    C2 1160   4.618   1.855  11.913 -0.0109 -0.5869 -0.4102
   76MPD2    C3 1161   0.016   1.813  11.873 -0.0671 -0.1320  0.3703
   76MPD2    C4 1162   0.112   1.908  11.848  0.3021 -0.2822 -1.0506
   76MPD2    C5 1163   0.090   2.040  11.869 -0.5688  0.0960 -0.0964
   76MPD2     H 1164   4.545   1.777  11.932  0.5962 -0.7260  1.3822
   76MPD2    H1 1165   0.204   1.873  11.804  1.3380 -0.4253  1.2720
   76MPD2    H2 1166   4.675   2.183  11.943  2.1836 -0.1062  0.0843
   76MPD2    H3 1167   0.171   2.112  11.855 -0.3929  0.0455  0.6460
   76MPD2     N 1168   0.052   1.680  11.862 -0.4258 -0.5431  0.7563
   76MPD2    H5 1169   0.148   1.661  11.837 -0.1774  0.3846  1.0021
   76MPD2    N1 1170   4.457   2.021  11.965 -0.3585 -0.7041  1.2055
   76MPD2    H7 1171   4.386   1.949  11.972 -0.4033 -0.9599 -1.7483
   77TCq2    C1 1172   4.685   1.580  11.861 -0.0880 -0.2166 -0.3661
   77TCq2    O2 1173   4.562   1.584  11.835  0.1312 -0.2883 -0.1451
   77TCq2    C2 1174   0.024   1.449  11.858 -0.7901  0.0864  0.0329
   77TCq2    C3 1175   4.672   1.352  11.795  0.1058  0.0152 -0.1302
   77TCq2    C4 1176   0.001   1.225  11.797 -0.8158 -0.2980  0.3196
   77TCq2    C5 1177   0.122   1.193  11.854  0.0439  0.1416  0.5007
   77TCq2    C6 1178   0.190   1.294  11.909  0.0791  0.4839 -0.2820
   77TCq2    C7 1179   0.151   1.423  11.908 -0.1962 -0.3416 -0.2254
   77TCq2    C8 1180   0.305   1.266  11.992 -0.0751  0.0047  0.0377
   77TCq2    O4 1181   0.359   1.158  11.978 -0.3206  0.2558 -0.0272
   77TCq2    C9 1182   4.655   1.117  11.732 -0.3621 -0.1323 -0.2291
   77TCq2    O5 1183   4.715   1.007  11.731  0.2332 -0.4245 -0.1068
   77TCq2    O6 1184   4.543   1.145  11.673  0.9045  0.3957 -0.2478
   77TCq2    H2 1185   4.568   1.363  11.768 -0.6034 -4.2447  0.8556
   77TCq2    H3 1186   0.169   1.096  11.860  2.1321  1.1663  0.5444
   77TCq2    H4 1187   0.208   1.504  11.952  0.4855 -0.3139 -1.1522
   78MPD1     C 1188   2.520   3.423   0.888  0.2496 -0.0109 -0.3009
   78MPD1    C1 1189   2.655   3.400   0.909  0.1810 -0.7532  0.1795
   78MPD1    C2 1190   2.700   3.270   0.918 -0.2705  0.4565  0.0307
   78MPD1    C3 1191   2.611   3.161   0.912  0.0228  0.2577 -0.0640
   78MPD1    C4 1192   2.474   3.182   0.891 -0.8347 -0.4853 -0.5566
   78MPD1    C5 1193   2.432   3.311   0.877 -0.3479 -0.3859 -0.0111
   78MPD1     H 1194   2.805   3.264   0.946 -0.4978 -2.1801  0.2776
   78MPD1    H1 1195   2.399   3.104   0.894 -0.9404 -0.3399  0.4326
   78MPD1    H2 1196   2.472   3.518   0.868 -0.8940 -0.4249  0.5126
   78MPD1    H3 1197   2.333   3.338   0.844  0.0100  3.4651  1.9834
   78MPD1     N 1198   2.659   3.031   0.917  0.2109 -0.6189 -0.1795
   78MPD1    H5 1199   2.594   2.961   0.881 -1.3330  1.5611 -1.5768
   78MPD1    N1 1200   2.731   3.510   0.936 -0.3581 -0.1242  0.4129
   78MPD1    H6 1201   2.826   3.482   0.913 -0.5133  0.1200 -0.5230
   78MPD1    H7 1202   2.708   3.590   0.877  0.7814  0.8221  1.2820
   79TCq2    C1 1203   2.775   2.978   0.971  0.2864  0.3323  0.0312
   79TCq2    O2 1204   2.876   3.041   1.011  0.5884  0.2331 -0.3395
   79TCq2    C2 1205   2.785   2.838   0.951  0.0473  0.5238  0.1883
   79TCq2    C3 1206   2.713   2.770   0.858 -0.1071  0.8566  0.1955
   79TCq2    C4 1207   2.717   2.635   0.855  0.5316 -0.1912 -0.2385
   79TCq2    C5 1208   2.779   2.570   0.948  0.1185 -0.0903  0.1849
   79TCq2    C6 1209   2.852   2.637   1.050 -0.2648  0.0961  0.3691
   79TCq2    C7 1210   2.858   2.774   1.048  0.3301  0.1919  0.5421
   79TCq2    C8 1211   2.898   2.551   1.159 -0.1695 -0.4768 -0.3692
   79TCq2    O4 1212   2.923   2.610   1.262 -0.0520  0.9049  0.2748
   79TCq2    C9 1213   2.648   2.564   0.748  0.2684 -0.1357 -1.0200
   79TCq2    O5 1214   2.582   2.636   0.673 -0.4889 -0.4166  0.5330
   79TCq2    O6 1215   2.660   2.440   0.738  0.5003 -0.3369 -0.0972
   79TCq2    H2 1216   2.654   2.825   0.785 -0.4794  0.3210  0.0969
   79TCq2    H3 1217   2.754   2.465   0.944 -2.5488  0.5499  0.4263
   79TCq2    H4 1218   2.881   2.835   1.135  0.7755 -1.3456  1.4902
   80MPD2     C 1219   3.668   2.067  11.961  0.4928  0.5876 -0.2664
   80MPD2    C1 1220   3.598   1.949  11.957 -0.3087  0.1205  0.4928
   80MPD2    C2 1221   3.464   1.954  11.945 -0.1511  0.1853  0.7777
   80MPD2    C3 1222   3.395   2.066  11.929 -0.3830 -0.2037  0.7197
   80MPD2    C4 1223   3.465   2.187  11.942 -0.1829  0.4171 -0.4104
   80MPD2    C5 1224   3.602   2.186  11.960 -0.2932  0.1185 -0.2152
   80MPD2     H 1225   3.400   1.869  11.927  0.6303 -0.4737  1.1471
   80MPD2    H1 1226   3.419   2.285  11.935  0.4051  0.8143  1.3662
   80MPD2    H2 1227   3.776   2.062  11.971  0.3443  2.3982  2.0853
   80MPD2    H3 1228   3.653   2.281  11.965 -1.9767  1.0951 -1.3524
   80MPD2     N 1229   3.260   2.059  11.894  0.3307 -0.4398  0.1633
   80MPD2    H5 1230   3.220   1.966  11.907 -0.8722  0.1503  0.7140
   80MPD2    N1 1231   3.657   1.818  11.948  0.5560 -0.2199 -1.0888
   80MPD2    H7 1232   3.595   1.738  11.946 -0.2468  0.4762 -4.4384
   81TCq2    C1 1233   3.791   1.797  11.954  0.9223 -0.1295 -0.3170
   81TCq2    O2 1234   3.877   1.866  12.002 -0.0973 -0.2378  0.0160
   81TCq2    C2 1235   3.827   1.663  11.916 -0.3537  0.6863  0.9317
   81TCq2    C3 1236   3.959   1.624  11.911  0.3175  0.1197 -0.9131
   81TCq2    C4 1237   3.998   1.512  11.841  0.6471  0.5547 -0.5867
   81TCq2    C5 1238   3.902   1.438  11.780 -1.0488 -1.0837 -0.1494
   81TCq2    C6 1239   3.770   1.478  11.781  0.5959  0.3990 -0.0893
   81TCq2    C7 1240   3.730   1.590  11.853 -0.0649  0.1032 -0.2609
   81TCq2    C8 1241   3.669   1.407  11.705 -0.7994 -0.1766  0.2060
   81TCq2    O4 1242   3.682   1.391  11.584  0.0809  0.2559 -0.4602
   81TCq2    C9 1243   4.139   1.481  11.822  0.4837  0.3453  0.8534
   81TCq2    O5 1244   4.214   1.578  11.856 -0.0160 -0.7609 -0.2193
   81TCq2    O6 1245   4.163   1.391  11.739 -0.4516 -0.3262  0.1435
   81TCq2    H2 1246   4.029   1.674  11.976  0.5931  1.1989 -2.0517
   81TCq2    H3 1247   3.939   1.343  11.743  1.5624 -0.2671  0.3294
   81TCq2    H4 1248   3.624   1.610  11.846  0.2399  1.4560 -1.0512
   82MPD2     C 1249   2.204   0.825  10.248 -0.2568  0.0615  0.4182
   82MPD2    C1 1250   2.084   0.834  10.311  0.5751  0.5529  0.4393
   82MPD2    C2 1251   2.057   0.756  10.421 -0.5418  0.6496  0.1342
   82MPD2    C3 1252   2.152   0.677  10.483  0.3701  0.2188  0.3799
   82MPD2    C4 1253   2.283   0.681  10.426 -0.2122  0.1699  0.6624
   82MPD2    C5 1254   2.302   0.758  10.311 -0.0522 -0.5017  0.7085
   82MPD2     H 1255   1.955   0.753  10.459 -0.5619  2.1021  0.1742
   82MPD2    H1 1256   2.369   0.623  10.457 -0.4593  0.2368  1.4746
   82MPD2    H2 1257   2.226   0.866  10.150 -0.5347 -0.2522  0.2251
   82MPD2    H3 1258   2.401   0.766  10.267  0.2423  0.3132  1.5319
   82MPD2     N 1259   2.125   0.581  10.592  0.9473 -0.5998 -0.1583
   82MPD2    H5 1260   2.209   0.541  10.634  0.4500  0.7349  2.0879
   82MPD2    N1 1261   1.992   0.931  10.261  0.1968  0.4849  0.2037
   82MPD2    H7 1262   2.027   0.986  10.184 -0.9088  1.3909  0.3488
   83TCq2    C1 1263   1.996   0.541  10.632 -0.1684  0.4070 -0.6452
   83TCq2    O2 1264   1.889   0.574  10.590  0.2547  0.5727  0.7074
   83TCq2    C2 1265   1.989   0.432  10.728 -0.5537  0.0351 -0.0703
   83TCq2    C3 1266   2.103   0.366  10.759 -0.0567  0.1124  0.0773
   83TCq2    C4 1267   2.092   0.270  10.852 -0.1038 -0.1585 -0.4535
   83TCq2    C5 1268   1.972   0.242  10.920  1.0711  0.2447  0.3313
   83TCq2    C6 1269   1.862   0.321  10.885 -0.2690  0.1676  0.3330
   83TCq2    C7 1270   1.867   0.415  10.786  0.5547  1.0688  0.4439
   83TCq2    C8 1271   1.733   0.262  10.911 -0.2308  0.2008  0.3244
   83TCq2    O4 1272   1.718   0.198  11.015 -0.5102  0.3825 -0.1180
   83TCq2    C9 1273   2.209   0.195  10.878  0.8649 -0.5502 -0.3953
   83TCq2    O5 1274   2.305   0.202  10.794 -0.1839 -0.3067 -0.3110
   83TCq2    O6 1275   2.217   0.152  10.992 -0.0584 -0.2513 -0.9264
   83TCq2    H2 1276   2.188   0.375  10.692 -0.6670  0.4084 -0.6484
   83TCq2    H3 1277   1.942   0.159  10.983  1.0074  0.2142  0.2602
   83TCq2    H4 1278   1.778   0.467  10.753  2.0879  3.7235  0.5444
   84TCq2    C1 1279   3.365   0.071  10.633 -0.5397  0.3260  0.4933
   84TCq2    O2 1280   3.446   0.014  10.565 -0.6130  0.1191 -0.6160
   84TCq2    C2 1281   3.352   0.043  10.772 -0.7400  0.3637  0.4490
   84TCq2    C3 1282   3.449   4.685  10.831 -0.9834 -0.4664 -0.0801
   84TCq2    C4 1283   3.430   4.648  10.961 -0.5527 -0.1537  0.2757
   84TCq2    C5 1284   3.321   4.687  11.034 -0.8735 -0.1575  0.4584
   84TCq2    C6 1285   3.234   0.047  10.975  0.3872  0.1174 -0.2072
   84TCq2    C7 1286   3.244   0.093  10.844 -0.3073 -0.0620 -0.2618
   84TCq2    C8 1287   3.135   0.107  11.055 -1.0351 -0.1963 -0.1182
   84TCq2    O4 1288   3.073   0.032  11.130 -0.0343  0.5141  0.7097
   84TCq2    C9 1289   3.519   4.550  11.010  0.5966 -0.0587  0.1934
   84TCq2    O5 1290   3.499   4.502  11.123 -0.1640 -0.0821 -0.1134
   84TCq2    O6 1291   3.629   4.529  10.945  0.7113 -0.5167 -0.1420
   84TCq2    H2 1292   3.529   4.647  10.768  1.5075  0.1112  2.7658
   84TCq2    H3 1293   3.305   4.652  11.136  0.5799  0.7900  1.0156
   84TCq2    H4 1294   3.167   0.163  10.813 -0.1314  0.8444  1.3611
   85MPD2     C 1295   3.661   2.596  16.382  0.1286  0.1629 -0.2509
   85MPD2    C1 1296   3.549   2.592  16.298  0.6590  0.0844 -0.0210
   85MPD2    C2 1297   3.546   2.678  16.191 -0.0696 -0.6248 -0.8971
   85MPD2    C3 1298   3.651   2.773  16.175  0.5887  0.3956 -0.3295
   85MPD2    C4 1299   3.752   2.785  16.267 -0.4555 -0.2985 -0.6471
   85MPD2    C5 1300   3.753   2.695  16.367 -0.0354  0.2138  0.7254
   85MPD2     H 1301   3.476   2.666  16.109  0.3029 -2.3002 -0.9824
   85MPD2    H1 1302   3.821   2.868  16.260  1.4175 -1.7882  0.0921
   85MPD2    H2 1303   3.670   2.520  16.460  0.9451  1.2855  0.7485
   85MPD2    H3 1304   3.841   2.687  16.429  1.1963 -0.6651 -1.1440
   85MPD2     N 1305   3.655   2.873  16.085  0.2321 -0.1841 -0.1106
   85MPD2    H5 1306   3.735   2.934  16.088  0.2421 -0.2182  0.3396
   85MPD2    N1 1307   3.445   2.495  16.318 -0.2047 -0.1673  0.3308
   85MPD2    H7 1308   3.363   2.500  16.258 -0.8174  0.6230  1.2518
   86TCq2    C1 1309   3.548   2.905  16.000 -0.5007  0.2748  0.4811
   86TCq2    O2 1310   3.431   2.872  16.001  0.1158 -0.1957 -0.4395
   86TCq2    C2 1311   3.598   3.012  15.915  0.1585 -0.2106  0.3780
   86TCq2    C3 1312   3.517   3.112  15.877 -0.4830  0.0816  1.0288
   86TCq2    C4 1313   3.574   3.206  15.796 -0.7000 -0.2951 -0.5040
   86TCq2    C5 1314   3.696   3.197  15.740  0.7526 -0.0673  0.5374
   86TCq2    C6 1315   3.773   3.077  15.769 -0.1124 -0.0927  0.0422
   86TCq2    C7 1316   3.722   2.993  15.862  0.4248 -0.4670 -0.0361
   86TCq2    C8 1317   3.890   3.029  15.698  0.5926  0.1185  0.9190
   86TCq2    O4 1318   3.945   2.934  15.744 -0.3851 -0.2688 -0.1516
   86TCq2    C9 1319   3.482   3.315  15.761 -0.5327 -0.0551  0.1554
   86TCq2    O5 1320   3.535   3.421  15.722  0.0774 -0.4215 -0.0396
   86TCq2    O6 1321   3.361   3.298  15.783 -0.0408  0.4178  0.3340
   86TCq2    H2 1322   3.414   3.120  15.908 -1.3085 -2.2658 -1.0838
   86TCq2    H3 1323   3.734   3.286  15.691  2.5136 -0.3640  1.3756
   86TCq2    H4 1324   3.783   2.907  15.882  0.1344 -0.8187 -0.6577
   87MPD2     C 1325   1.396   1.366   1.368  0.3451 -0.0455 -0.0586
   87MPD2    C1 1326   1.433   1.456   1.460  0.2553  0.5404 -0.9387
   87MPD2    C2 1327   1.359   1.578   1.467  0.2603  0.6398 -0.3577
   87MPD2    C3 1328   1.236   1.594   1.399 -0.4118  0.5105  0.1655
   87MPD2    C4 1329   1.187   1.486   1.333 -0.0112  0.9073  0.8090
   87MPD2    C5 1330   1.265   1.375   1.322 -0.7972  0.3341  0.4212
   87MPD2     H 1331   1.395   1.659   1.530 -0.8706  2.1154 -1.6184
   87MPD2    H1 1332   1.099   1.483   1.269  2.1006  2.0555 -2.1448
   87MPD2    H2 1333   1.439   1.267   1.356  1.2633  0.1759  1.4520
   87MPD2    H3 1334   1.234   1.290   1.262 -0.3656  0.7331 -0.3674
   87MPD2     N 1335   1.166   1.723   1.396 -0.7364  0.1245 -0.2844
   87MPD2    H5 1336   1.087   1.725   1.333  0.6397 -0.0880 -2.0501
   87MPD2    N1 1337   1.560   1.446   1.515 -0.2461  0.4882 -0.0903
   87MPD2    H7 1338   1.613   1.369   1.475 -0.1348 -0.0208  1.0475
   88TCq2    C1 1339   1.616   1.527   1.605  0.1061 -0.0114  0.5108
   88TCq2    O2 1340   1.560   1.606   1.679 -0.4237 -0.0730  0.1581
   88TCq2    C2 1341   1.755   1.507   1.624  0.1356 -0.3933  0.7648
   88TCq2    C3 1342   1.808   1.561   1.739 -0.1931 -0.6297  0.5620
   88TCq2    C4 1343   1.939   1.549   1.753  0.0214 -0.6679  0.5791
   88TCq2    C5 1344   2.018   1.476   1.667 -0.5423  0.1087  0.1090
   88TCq2    C6 1345   1.967   1.430   1.549 -0.4262 -0.3724  0.6793
   88TCq2    C7 1346   1.836   1.458   1.520 -0.2680 -0.0367  0.4285
   88TCq2    C8 1347   2.059   1.354   1.460 -0.5382 -0.2924 -0.2525
   88TCq2    O4 1348   2.179   1.346   1.486  0.4935  0.1803 -0.1694
   88TCq2    C9 1349   2.002   1.613   1.870 -0.4019 -1.0093  0.5245
   88TCq2    O5 1350   1.929   1.678   1.948 -0.2939 -0.5096  0.2402
   88TCq2    O6 1351   2.129   1.628   1.869 -0.0979 -0.0294  0.0948
   88TCq2    H2 1352   1.749   1.609   1.816 -1.9294 -1.3648 -0.3010
   88TCq2    H3 1353   2.117   1.438   1.692 -0.2201  2.3046  2.1881
   88TCq2    H4 1354   1.799   1.457   1.418  2.1211 -1.3669 -0.4184
   89MPD2     C 1355   1.852   3.961   2.002 -0.7635  0.0491 -0.3069
   89MPD2    C1 1356   1.815   4.006   1.873  0.4439  0.4899 -0.4528
   89MPD2    C2 1357   1.903   3.997   1.771 -0.1375  0.4653 -0.3819
   89MPD2    C3 1358   2.027   3.955   1.793  0.5033 -0.6488  0.4134
   89MPD2    C4 1359   2.061   3.908   1.917 -0.1799  1.1824  0.2544
   89MPD2    C5 1360   1.969   3.903   2.018  0.4212  0.9437  0.5116
   89MPD2     H 1361   1.881   4.027   1.669  1.9021  0.3653 -0.8485
   89MPD2    H1 1362   2.157   3.866   1.943 -0.8856 -1.3984 -1.2811
   89MPD2    H2 1363   1.800   3.986   2.093  0.3996  2.2236 -0.2421
   89MPD2    H3 1364   2.001   3.871   2.117  0.1028 -1.3622 -0.1234
   89MPD2     N 1365   2.122   3.964   1.694  0.0143 -0.2154 -0.2822
   89MPD2    H5 1366   2.088   4.025   1.620  0.1521  0.1105 -0.0751
   89MPD2    N1 1367   1.691   4.060   1.843  0.5143  0.1086 -0.2442
   89MPD2    H7 1368   1.652   4.044   1.751 -0.8301 -0.5889  0.4550
   90TCq2    C1 1369   2.232   3.881   1.688  0.7231  0.0375  0.3205
   90TCq2    O2 1370   2.274   3.794   1.760 -0.6851  0.2290  0.3190
   90TCq2    C2 1371   2.309   3.905   1.567 -0.2785  0.1425 -0.5677
   90TCq2    C3 1372   2.450   3.889   1.577  0.4815 -0.2165 -0.0267
   90TCq2    C4 1373   2.533   3.920   1.472 -0.2643 -0.2876  0.7150
   90TCq2    C5 1374   2.480   3.963   1.359 -0.9145 -0.3112 -0.2920
   90TCq2    C6 1375   2.347   3.978   1.349 -0.1356  0.0089 -0.3815
   90TCq2    C7 1376   2.254   3.960   1.452  1.0348  0.1025 -0.6270
   90TCq2    C8 1377   2.304   4.065   1.242  0.6713  0.4383 -0.0610
   90TCq2    O4 1378   2.185   4.070   1.216  0.2160  0.2462 -0.3588
   90TCq2    C9 1379   2.672   3.891   1.486 -0.4447 -0.0185 -0.2018
   90TCq2    O5 1380   2.712   3.828   1.592 -0.0696 -0.6528  0.0902
   90TCq2    O6 1381   2.751   3.948   1.403 -0.2437 -0.1813 -0.6873
   90TCq2    H2 1382   2.498   3.847   1.665 -1.3840  1.0500  1.5904
   90TCq2    H3 1383   2.560   3.965   1.286 -1.0095 -0.5249 -0.4014
   90TCq2    H4 1384   2.149   3.949   1.427  1.2716 -0.7743 -1.2597
   91TMC2    C1 1385   3.797   3.136  16.389 -0.2554  0.4661  0.5551
   91TMC2    C2 1386   3.898   3.146  16.478 -0.5740  0.1751 -0.2449
   91TMC2    C3 1387   3.866   3.195  16.598 -0.4531 -0.1391 -0.0760
   91TMC2    C4 1388   3.670   3.186  16.412  0.2336 -0.4421 -0.5421
   91TMC2    C5 1389   3.648   3.244  16.529 -0.2541 -0.1164  0.0767
   91TMC2    C6 1390   3.741   3.250  16.627 -0.2990 -1.1210  0.3001
   91TMC2     C 1391   3.847   3.138  16.254  0.0475 -0.7105 -0.0874
   91TMC2     O 1392   3.777   3.112  16.162 -0.5063  0.2987  0.5941
   91TMC2     H 1393   3.997   3.103  16.468 -0.3628  1.2797 -2.7087
   91TMC2    H1 1394   3.602   3.196  16.328  0.3063 -0.2454 -0.5790
   91TMC2    H2 1395   3.737   3.313  16.715  0.5573 -1.7242  0.7779
   91TMC2    C7 1396   3.508   3.276  16.568  0.1495  0.2406  0.2023
   91TMC2    C8 1397   3.979   3.220  16.693 -0.3996  0.2901  0.2986
   91TMC2    O1 1398   3.495   3.335  16.677 -0.8918 -0.0584  0.3019
   91TMC2    O2 1399   3.991   3.318  16.764 -0.1197  0.2787  0.4538
   91TMC2    O5 1400   4.053   3.109  16.693 -0.1418  0.4644 -0.1686
   91TMC2    H5 1401   4.017   3.032  16.645  1.4097  0.6885 -1.6697
   92MPD2     C 1402   4.042   3.124  16.022 -0.0107  0.6148  0.3725
   92MPD2    C1 1403   4.048   3.213  16.130 -0.1590  0.0934 -0.0680
   92MPD2    C2 1404   4.154   3.306  16.133  0.3969  0.2578 -0.4665
   92MPD2    C3 1405   4.248   3.324  16.029  0.4521  0.1177 -0.0837
   92MPD2    C4 1406   4.235   3.240  15.921  0.5326  1.1214 -0.1152
   92MPD2    C5 1407   4.139   3.139  15.919  1.0888 -0.3821  0.7772
   92MPD2     H 1408   4.164   3.364  16.224 -1.7016 -1.6918  1.0174
   92MPD2    H1 1409   4.311   3.221  15.846 -0.5339 -0.5835 -0.7647
   92MPD2    H2 1410   3.975   3.039  16.027  0.3900  0.2605 -0.2771
   92MPD2    H3 1411   4.145   3.061  15.844  1.4653 -0.3094  0.7309
   92MPD2     N 1412   4.354   3.402  16.063  0.0020 -0.2868  0.1836
   92MPD2    H5 1413   4.344   3.454  16.149  0.6690  1.2818 -0.7060
   92MPD2    N1 1414   3.967   3.206  16.243 -0.1399 -0.1792  1.0044
   92MPD2    H7 1415   3.994   3.264  16.322 -2.2615 -0.2157  1.7664
   93MPD2     C 1416   0.569   4.531  13.533  0.7455  0.8547 -0.0580
   93MPD2    C1 1417   0.554   4.481  13.665  0.5932 -0.0966  0.3240
   93MPD2    C2 1418   0.427   4.442  13.700  0.1379  0.2012 -0.5720
   93MPD2    C3 1419   0.311   4.456  13.619  0.3527 -0.0215 -0.1048
   93MPD2    C4 1420   0.331   4.503  13.486  0.4755  0.0119  0.0245
   93MPD2    C5 1421   0.458   4.542  13.453  0.0555  0.0704  0.4329
   93MPD2     H 1422   0.409   4.411  13.803  1.1613 -0.6371 -0.6461
   93MPD2    H1 1423   0.250   4.515  13.415 -1.7466 -1.6369  2.2768
   93MPD2    H2 1424   0.662   4.576  13.500  1.9088 -0.8806  0.8936
   93MPD2    H3 1425   0.485   4.585  13.357  0.2230  0.0472  0.4706
   93MPD2     N 1426   0.181   4.415  13.651 -0.0561 -0.8347 -0.2066
   93MPD2    H5 1427   0.107   4.435  13.585  0.7382  0.8379 -0.6023
   93MPD2    N1 1428   0.656   4.487  13.762  0.6319  0.3055 -0.0888
   93MPD2    H7 1429   0.620   4.451  13.850  1.2094 -1.1382 -0.4476
   94TCq2    C1 1430   0.786   4.514  13.740  0.2032  0.1693  0.6781
   94TCq2    O2 1431   0.847   4.530  13.637  0.6679  0.3693  0.1089
   94TCq2    C2 1432   0.868   4.502  13.857 -0.4236  0.3352 -0.7242
   94TCq2    C3 1433   0.825   4.548  13.978 -0.0131 -0.4241  0.1456
   94TCq2    C4 1434   0.909   4.539  14.087 -0.0433  0.2511 -0.2840
   94TCq2    C5 1435   1.027   4.486  14.074  0.6362 -0.1388 -0.5075
   94TCq2    C6 1436   1.080   4.456  13.944 -0.8892 -0.2838  0.9861
   94TCq2    C7 1437   1.001   4.465  13.836  0.0656  0.2204 -0.2881
   94TCq2    C8 1438   1.208   4.394  13.937 -0.2445 -0.1351 -0.1545
   94TCq2    O4 1439   1.243   4.364  13.825 -0.0363  0.3551 -0.5032
   94TCq2    C9 1440   0.863   4.573  14.221 -0.0693 -0.2683  0.2268
   94TCq2    O5 1441   0.953   4.573  14.310  0.2070 -0.5989  0.0479
   94TCq2    O6 1442   0.738   4.590  14.228 -0.1387 -0.0005 -0.9237
   94TCq2    H2 1443   0.734   4.605  13.991 -1.2435 -2.5044  0.7425
   94TCq2    H3 1444   1.081   4.465  14.166  0.2860  1.7151  0.1252
   94TCq2    H4 1445   1.039   4.435  13.739  0.0852 -0.3283 -0.1095
   95TMC2    C1 1446   0.935   0.908  16.493 -0.0269 -0.2533  0.2913
   95TMC2    C2 1447   0.957   1.025  16.569  0.1721  0.3307 -0.2318
   95TMC2    C3 1448   0.943   1.004  16.708  0.0764 -0.2769  0.5161
   95TMC2    C4 1449   0.894   0.781  16.543  0.4764 -0.8489  0.5494
   95TMC2    C5 1450   0.873   0.771  16.678  0.7501 -0.1005  0.1465
   95TMC2    C6 1451   0.899   0.882  16.758  0.3732 -0.1788  0.4457
   95TMC2     C 1452   0.979   0.917  16.355  0.6754  0.4308 -0.3925
   95TMC2     O 1453   1.066   0.997  16.331 -0.3153 -0.1089  0.8178
   95TMC2     H 1454   0.989   1.119  16.525 -0.1508  0.3550 -0.4104
   95TMC2    H1 1455   0.877   0.699  16.474  0.7294 -1.5752  1.3515
   95TMC2    H2 1456   0.885   0.860  16.863 -0.3478 -0.8937  0.1982
   95TMC2    C7 1457   0.807   0.657  16.733 -0.3138  0.6655 -0.2689
   95TMC2    C8 1458   0.947   1.124  16.785 -0.0319 -0.7502 -0.4265
   95TMC2    O1 1459   0.824   0.641  16.850 -0.0593 -0.1475  0.3253
   95TMC2    O2 1460   0.938   1.234  16.730  0.2701 -0.3196 -0.1521
   95TMC2    O5 1461   1.007   1.091  16.902 -0.6652  0.4519  0.2390
   95TMC2    H5 1462   1.040   0.998  16.901  2.9433  1.6905  1.8701
   96MPD2     C 1463   0.897   0.905  15.851  0.0720 -0.5922  0.4578
   96MPD2    C1 1464   1.000   0.965  15.920 -0.1080  0.4821 -1.0312
   96MPD2    C2 1465   1.009   0.939  16.058  0.0101  0.6358  0.2589
   96MPD2    C3 1466   0.911   0.864  16.123  0.0815 -0.6561 -0.2312
   96MPD2    C4 1467   0.810   0.809  16.050  0.7299  0.8470  0.4887
   96MPD2    C5 1468   0.800   0.833  15.918 -1.1574  0.3230 -0.7844
   96MPD2     H 1469   1.090   0.983  16.116  0.0501  2.2541 -1.0289
   96MPD2    H1 1470   0.741   0.740  16.096  1.2102 -0.8739 -1.3753
   96MPD2    H2 1471   0.880   0.918  15.745 -1.6358 -0.6258  0.7164
   96MPD2    H3 1472   0.726   0.779  15.859 -0.5768  0.3778 -1.5599
   96MPD2     N 1473   0.900   0.852  16.263  0.0870  0.3747  0.1705
   96MPD2    H5 1474   0.825   0.791  16.294 -0.7960  0.9623 -0.7767
   96MPD2    N1 1475   1.100   1.048  15.853 -0.1975 -0.7128 -0.7642
   96MPD2    H7 1476   1.075   1.081  15.760 -0.6270 -2.4510 -1.2835
   97MPD2     C 1477   3.247   2.471   1.094 -0.1810 -0.0440 -0.0420
   97MPD2    C1 1478   3.249   2.607   1.070 -0.7426  0.0510 -0.3439
   97MPD2    C2 1479   3.215   2.659   0.947 -0.9511 -0.3847  0.6495
   97MPD2    C3 1480   3.165   2.579   0.843 -0.1989  0.0855 -0.1698
   97MPD2    C4 1481   3.159   2.444   0.864 -1.0540 -0.0141 -0.4837
   97MPD2    C5 1482   3.198   2.392   0.992  0.3264  0.3569  0.4178
   97MPD2     H 1483   3.215   2.767   0.941  1.8001 -0.2931  2.0216
   97MPD2    H1 1484   3.132   2.370   0.791 -1.6646 -0.3766  0.1031
   97MPD2    H2 1485   3.267   2.420   1.187  0.1231  1.4881  0.7180
   97MPD2    H3 1486   3.207   2.285   1.006  0.4758  0.1897 -0.9602
   97MPD2     N 1487   3.098   2.640   0.728  0.0912  0.1804 -0.8797
   97MPD2    H5 1488   3.055   2.577   0.661  2.6701 -0.2806 -2.0965
   97MPD2    N1 1489   3.282   2.686   1.189 -0.0737 -0.0665 -0.3700
   97MPD2    H7 1490   3.295   2.630   1.273 -1.3879  2.0307  1.2246
   98TCq2    C1 1491   3.111   2.770   0.688  0.4340  0.5403 -0.5413
   98TCq2    O2 1492   3.162   2.866   0.740 -0.0511  0.7751  0.4916
   98TCq2    C2 1493   3.073   2.781   0.547  0.0208 -0.4809 -0.1666
   98TCq2    C3 1494   2.974   2.702   0.495 -0.5969 -0.2837 -0.0461
   98TCq2    C4 1495   2.932   2.734   0.369 -0.2536  0.2274  0.3934
   98TCq2    C5 1496   2.978   2.846   0.303 -0.1486  0.6395 -0.7993
   98TCq2    C6 1497   3.072   2.923   0.359 -0.2900 -0.0116  0.6455
   98TCq2    C7 1498   3.117   2.894   0.482 -0.5968 -0.0302 -0.2777
   98TCq2    C8 1499   3.140   3.026   0.276  0.6015  0.5804  0.2225
   98TCq2    O4 1500   3.259   3.052   0.291 -0.4133  0.3497 -0.0758
   98TCq2    C9 1501   2.809   2.671   0.321 -0.0638 -0.1603 -0.6854
   98TCq2    O5 1502   2.777   2.560   0.360  0.4058 -0.0382  0.4183
   98TCq2    O6 1503   2.723   2.758   0.286  0.0952  0.5234 -0.7161
   98TCq2    H2 1504   2.924   2.631   0.561 -0.8203  0.7138  0.8617
   98TCq2    H3 1505   2.926   2.864   0.210 -0.7127  1.1672 -0.3840
   98TCq2    H4 1506   3.199   2.948   0.528 -0.8853 -0.3869  0.6528
   99MPD2     C 1507   2.308   0.691   1.891 -0.5612 -1.0584 -0.1921
   99MPD2    C1 1508   2.187   0.754   1.869 -0.4554  0.0966 -0.3694
   99MPD2    C2 1509   2.119   0.731   1.749  0.3053 -0.0035 -0.6315
   99MPD2    C3 1510   2.162   0.640   1.657 -0.3498  1.0001 -0.1388
   99MPD2    C4 1511   2.286   0.582   1.676 -0.5700  0.3992  1.2485
   99MPD2    C5 1512   2.358   0.615   1.791  0.0165 -0.5387  0.2609
   99MPD2     H 1513   2.029   0.790   1.735  2.0983  2.8889  0.0565
   99MPD2    H1 1514   2.335   0.518   1.604 -2.2908 -0.3904  0.7753
   99MPD2    H2 1515   2.367   0.689   1.982 -1.4686  1.9571  0.4806
   99MPD2    H3 1516   2.456   0.578   1.819  1.2174  2.0263 -0.6141
   99MPD2     N 1517   2.085   0.605   1.542  0.3532 -0.1373  0.4887
   99MPD2    H5 1518   2.003   0.661   1.519 -0.6769 -2.6534 -2.0355
   99MPD2    N1 1519   2.115   0.833   1.969  0.2610  0.5610 -0.3831
   99MPD2    H7 1520   2.017   0.854   1.957 -0.3503 -1.9085  0.3009
  100TCq2    C1 1521   2.172   0.869   2.086 -0.2106 -0.4888 -0.3951
  100TCq2    O2 1522   2.281   0.836   2.133 -0.1062 -0.7879  0.3516
  100TCq2    C2 1523   2.093   0.967   2.156 -0.5753 -0.1588  0.9015
  100TCq2    C3 1524   2.166   1.030   2.249  0.2038 -0.4484  0.1273
  100TCq2    C4 1525   2.099   1.119   2.333 -0.6337 -0.2110  0.1050
  100TCq2    C5 1526   1.961   1.137   2.324 -0.1037  0.7261 -0.4525
  100TCq2    C6 1527   1.893   1.068   2.226  1.1270  0.1217  0.6796
  100TCq2    C7 1528   1.957   0.982   2.139 -0.3723  0.5758  0.2328
  100TCq2    C8 1529   1.747   1.079   2.228 -0.1657  0.5362  0.1326
  100TCq2    O4 1530   1.706   1.138   2.327  0.4140  0.0658 -0.5248
  100TCq2    C9 1531   2.181   1.172   2.433  0.1763  0.5595  0.1340
  100TCq2    O5 1532   2.307   1.172   2.412  0.1285  0.3925  0.4749
  100TCq2    O6 1533   2.118   1.231   2.527  0.6044  0.1386 -0.0732
  100TCq2    H2 1534   2.268   1.003   2.273  0.4620 -1.4045 -2.1182
  100TCq2    H3 1535   1.926   1.208   2.398  1.4428 -0.3460  1.3023
  100TCq2    H4 1536   1.900   0.911   2.079  0.4691  0.0649  0.0291
  101MPD2     C 1537   2.202   1.543  12.711  0.1114  0.5035 -0.3476
  101MPD2    C1 1538   2.159   1.623  12.811  0.0598 -0.0100 -0.5063
  101MPD2    C2 1539   2.097   1.574  12.921 -0.1330 -0.7273  0.7704
  101MPD2    C3 1540   2.077   1.432  12.933  0.8837 -0.3232 -0.0398
  101MPD2    C4 1541   2.128   1.348  12.840 -0.1238  0.4211  0.8220
  101MPD2    C5 1542   2.198   1.404  12.730  0.3413  0.4748  0.0424
  101MPD2     H 1543   2.063   1.644  12.997  0.8544  0.3470  0.2257
  101MPD2    H1 1544   2.094   1.245  12.839  2.6885 -0.4999  0.1791
  101MPD2    H2 1545   2.250   1.579  12.621 -0.4138  1.2989 -0.3069
  101MPD2    H3 1546   2.249   1.346  12.654  0.3630 -0.1196  0.5183
  101MPD2     N 1547   1.997   1.395  13.041  0.1618  0.4383  0.3681
  101MPD2    H5 1548   1.963   1.470  13.099 -0.8206 -1.2803  2.0273
  101MPD2    N1 1549   2.171   1.764  12.791  0.9076 -1.0529  0.0356
  101MPD2    H7 1550   2.198   1.787  12.696  1.3289  1.4774  0.7701
  102TCq2    C1 1551   2.352   2.296  12.919  0.0582  0.9385  0.1150
  102TCq2    O2 1552   2.385   2.275  13.033  0.0548  0.2691 -0.1074
  102TCq2    C2 1553   2.252   2.212  12.858 -0.6646  0.3499  0.0632
  102TCq2    C3 1554   2.196   2.252  12.741  0.4482 -0.2309  0.1283
  102TCq2    C4 1555   2.135   2.158  12.661 -0.0555 -0.5009  0.2656
  102TCq2    C5 1556   2.133   2.028  12.700 -0.3249 -0.0988  0.0889
  102TCq2    C6 1557   2.177   1.994  12.826  0.1248  0.2886 -0.5344
  102TCq2    C7 1558   2.244   2.086  12.902 -0.4293  0.5305  0.0213
  102TCq2    C8 1559   2.155   1.861  12.885  0.0946 -0.8405 -0.7696
  102TCq2    O4 1560   2.142   1.851  13.006 -0.1450 -0.3802 -0.2289
  102TCq2    C9 1561   2.049   2.200  12.547 -0.2356 -0.1871 -0.2051
  102TCq2    O5 1562   2.037   2.107  12.466  0.1090 -0.0873  0.0973
  102TCq2    O6 1563   2.022   2.324  12.531  0.1996 -0.2728  0.4211
  102TCq2    H2 1564   2.190   2.357  12.717 -2.2313 -1.0832 -2.8021
  102TCq2    H3 1565   2.072   1.952  12.652 -2.1091  1.2183  0.2753
  102TCq2    H4 1566   2.286   2.053  12.996 -0.0734 -1.1266 -0.7195
  103TMC2    C1 1567   0.387   1.702  12.624 -0.0646  0.2381  1.3488
  103TMC2    C2 1568   0.506   1.732  12.686 -0.1177 -0.4952  0.3314
  103TMC2    C3 1569   0.500   1.734  12.823  0.5272  0.0599 -0.2927
  103TMC2    C4 1570   0.271   1.695  12.693  0.8327  0.2599 -0.6350
  103TMC2    C5 1571   0.268   1.714  12.829 -0.2948  0.2051 -0.0430
  103TMC2    C6 1572   0.380   1.729  12.894 -0.0958  0.0117  0.1325
  103TMC2     C 1573   0.390   1.630  12.501 -0.5016 -0.4912 -0.0231
  103TMC2     O 1574   0.284   1.630  12.434  0.1082  0.2416 -0.3880
  103TMC2     H 1575   0.601   1.729  12.634 -0.1007  3.4162  0.1573
  103TMC2    H1 1576   0.180   1.657  12.648  0.7515 -0.2637 -0.0194
  103TMC2    H2 1577   0.371   1.734  13.002  0.9459  1.1334  0.1599
  103TMC2    C7 1578   0.148   1.702  12.921  0.1379  0.1481 -0.9229
  103TMC2    C8 1579   0.630   1.751  12.890  0.0633  0.8255  1.2997
  103TMC2    O1 1580   0.154   1.734  13.038  0.5805 -0.1413  0.5411
  103TMC2    O2 1581   0.735   1.731  12.834 -0.1496  0.0747  0.9706
  103TMC2    O5 1582   0.606   1.758  13.021 -0.2220  0.6226 -0.0903
  103TMC2    H5 1583   0.525   1.800  13.057 -0.3404 -0.1158  0.5049
  104MPD2     C 1584   0.643   1.397  12.377  0.3826 -0.0939 -0.3168
  104MPD2    C1 1585   0.532   1.479  12.370 -0.3068 -0.0506  0.7721
  104MPD2    C2 1586   0.441   1.466  12.262 -0.1785  0.7638  0.1469
  104MPD2    C3 1587   0.448   1.367  12.166  0.1493 -0.0647 -0.7896
  104MPD2    C4 1588   0.555   1.281  12.174 -0.1929  0.0850  0.6053
  104MPD2    C5 1589   0.654   1.300  12.278 -0.0073  0.5163  0.6723
  104MPD2     H 1590   0.349   1.523  12.259 -0.6325  0.1952  2.7986
  104MPD2    H1 1591   0.579   1.211  12.095 -4.9199 -0.7904 -0.0410
  104MPD2    H2 1592   0.727   1.407  12.445  0.1387 -2.0759  0.2589
  104MPD2    H3 1593   0.742   1.238  12.282 -1.7101 -1.9294  0.0581
  104MPD2     N 1594   0.334   1.366  12.082  0.2986 -0.4656 -0.0625
  104MPD2    H5 1595   0.267   1.442  12.086  0.9648  0.1200  0.0875
  104MPD2    N1 1596   0.505   1.559  12.483  0.0619 -0.5959  0.1459
  104MPD2    H7 1597   0.573   1.540  12.555  0.2682  0.0884  0.1288
  105MPD2     C 1598   2.639   0.950   0.183 -0.4753 -0.1483 -0.2083
  105MPD2    C1 1599   2.541   1.028   0.251 -0.4442 -0.4154  0.0526
  105MPD2    C2 1600   2.551   1.080   0.383 -0.1432 -0.2934 -0.3190
  105MPD2    C3 1601   2.670   1.063   0.449 -0.3711 -0.3675  0.3997
  105MPD2    C4 1602   2.771   0.997   0.379  0.6238  0.1891 -0.7133
  105MPD2    C5 1603   2.760   0.942   0.254  0.1066 -0.0242 -0.2331
  105MPD2     H 1604   2.484   1.154   0.423  2.1146  0.2643  2.4942
  105MPD2    H1 1605   2.863   0.971   0.431  0.3089 -0.8312 -0.6712
  105MPD2    H2 1606   2.629   0.909   0.084 -0.8876 -1.3423  0.3314
  105MPD2    H3 1607   2.849   0.893   0.216 -1.3260 -1.2198 -2.0225
  105MPD2     N 1608   2.677   1.097   0.585  0.4525  0.1146  0.8375
  105MPD2    H5 1609   2.588   1.124   0.624  1.0898  1.4167  1.3899
  105MPD2    N1 1610   2.418   1.061   0.185  0.0799  0.2456  0.0532
  105MPD2    H7 1611   2.364   1.132   0.233  0.9744  0.5446  0.6085
  106TCq2    C1 1612   2.782   1.091   0.670  0.0396  0.1348  0.1724
  106TCq2    O2 1613   2.902   1.098   0.652 -0.1455  0.0236 -0.0631
  106TCq2    C2 1614   2.719   1.111   0.804  0.3771 -0.2043  0.4159
  106TCq2    C3 1615   2.807   1.131   0.907 -0.2962 -0.6453  0.3546
  106TCq2    C4 1616   2.757   1.132   1.030 -1.4580 -0.4318 -0.4178
  106TCq2    C5 1617   2.623   1.119   1.062 -0.1107 -0.1394 -0.0248
  106TCq2    C6 1618   2.539   1.094   0.954  0.2250  0.0528 -0.4949
  106TCq2    C7 1619   2.586   1.091   0.825 -0.3194  0.3897  0.1906
  106TCq2    C8 1620   2.403   1.068   0.977  0.2358 -0.6103  0.6905
  106TCq2    O4 1621   2.343   1.011   0.887  0.0553  0.2663 -0.3738
  106TCq2    C9 1622   2.844   1.162   1.143 -0.6386  0.9792  0.0195
  106TCq2    O5 1623   2.952   1.221   1.115  0.3597  0.0461 -0.5959
  106TCq2    O6 1624   2.810   1.122   1.253  0.2769  0.0839  0.0517
  106TCq2    H2 1625   2.915   1.123   0.904 -0.0107  2.5799  2.4271
  106TCq2    H3 1626   2.594   1.120   1.167  0.1140  0.7050  0.0276
  106TCq2    H4 1627   2.520   1.057   0.746  1.2413 -0.7656 -0.6125
  107TMC2    C1 1628   2.448   0.328  11.709  0.6541 -0.5458  0.1969
  107TMC2    C2 1629   2.487   0.212  11.771  0.2459  0.6078  0.0226
  107TMC2    C3 1630   2.610   0.165  11.733 -0.3331  0.1103 -0.3742
  107TMC2    C4 1631   2.521   0.380  11.603 -0.0459 -0.0668  0.6962
  107TMC2    C5 1632   2.638   0.319  11.562 -0.3236  0.2705 -1.1275
  107TMC2    C6 1633   2.689   0.210  11.632 -0.4518  0.4041 -0.4059
  107TMC2     C 1634   2.312   0.368  11.742  0.5007  0.7569 -0.6329
  107TMC2     O 1635   2.280   0.361  11.861  0.4697  0.1917  0.3176
  107TMC2     H 1636   2.439   0.192  11.866  1.7683  0.5376  0.7810
  107TMC2    H1 1637   2.476   0.461  11.547 -0.2252 -0.8985 -0.3715
  107TMC2    H2 1638   2.791   0.175  11.618  0.0569  2.1841 -1.1293
  107TMC2    C7 1639   2.714   0.396  11.467  0.3598  0.4521 -0.1448
  107TMC2    C8 1640   2.664   0.041  11.795  0.0637 -0.1088  0.3888
  107TMC2    O1 1641   2.682   0.515  11.469  0.1258  0.7450  0.1117
  107TMC2    O2 1642   2.767   4.713  11.754 -0.2320  0.1915  0.3821
  107TMC2    O5 1643   2.562   4.701  11.854 -0.2474 -0.1668 -0.2254
  107TMC2    H5 1644   2.496   0.042  11.888 -2.5523 -1.3426 -2.4446
  108MPD2     C 1645   2.072   0.466  11.486  0.1618 -0.5386  0.6597
  108MPD2    C1 1646   2.113   0.437  11.611  0.5064  0.6777 -0.5211
  108MPD2    C2 1647   2.032   0.463  11.722 -0.1716  0.1354 -0.1181
  108MPD2    C3 1648   1.899   0.502  11.686  0.4685 -0.3313  0.0693
  108MPD2    C4 1649   1.860   0.524  11.561 -0.5590  0.2643 -0.0394
  108MPD2    C5 1650   1.945   0.503  11.457 -0.9509 -0.0719 -0.0647
  108MPD2     H 1651   2.051   0.429  11.823 -0.9221  2.9926  1.0035
  108MPD2    H1 1652   1.760   0.558  11.535 -1.0888 -2.1803 -1.1423
  108MPD2    H2 1653   2.143   0.461  11.404 -2.3061 -0.4655 -1.4663
  108MPD2    H3 1654   1.918   0.526  11.354  0.3583  1.1857 -0.1266
  108MPD2     N 1655   1.797   0.514  11.785 -0.4376 -0.4238 -0.0108
  108MPD2    H5 1656   1.706   0.540  11.748  0.4508 -0.4111 -2.1946
  108MPD2    N1 1657   2.246   0.394  11.624 -0.7440  0.4818  0.1625
  108MPD2    H7 1658   2.298   0.399  11.537  0.2417  2.7970  0.8943
  109MPD2     C 1659   3.238   2.513   2.463 -0.5694  0.2343 -0.5665
  109MPD2    C1 1660   3.263   2.537   2.326 -0.3008  0.0436  1.2057
  109MPD2    C2 1661   3.356   2.634   2.291  1.2264  0.0459 -0.1366
  109MPD2    C3 1662   3.425   2.705   2.381  0.6625  0.0286  0.4895
  109MPD2    C4 1663   3.412   2.668   2.510 -0.3970 -0.1807 -0.0846
  109MPD2    C5 1664   3.321   2.572   2.556 -0.1520  0.5865 -0.3113
  109MPD2     H 1665   3.373   2.662   2.188  2.2766 -0.9409 -0.2338
  109MPD2    H1 1666   3.479   2.701   2.588 -2.4368  0.4988  1.3661
  109MPD2    H2 1667   3.166   2.438   2.492  1.3488 -1.7122 -0.8209
  109MPD2    H3 1668   3.328   2.545   2.661  0.5259  1.6817 -0.0777
  109MPD2     N 1669   3.502   2.814   2.333  0.3971 -0.0558  0.1042
  109MPD2    H5 1670   3.489   2.839   2.236  2.1326  0.0878 -0.0920
  109MPD2    N1 1671   3.185   2.460   2.234 -0.3963 -0.1085  0.6287
  109MPD2    H7 1672   3.118   2.396   2.276 -0.0792 -0.5431  0.4727
  110TCq2    C1 1673   3.587   2.883   2.405  0.6570  1.0528  0.1549
  110TCq2    O2 1674   3.607   2.878   2.525 -0.5004 -0.0618 -0.0333
  110TCq2    C2 1675   3.679   2.964   2.325 -0.9146  0.3137 -0.2641
  110TCq2    C3 1676   3.741   3.069   2.388  0.0598 -0.5305  0.9060
  110TCq2    C4 1677   3.801   3.166   2.313  0.3795  0.2557  0.4306
  110TCq2    C5 1678   3.825   3.147   2.181  0.1243  0.3433  0.9960
  110TCq2    C6 1679   3.772   3.034   2.126 -0.2991  0.0922  0.0259
  110TCq2    C7 1680   3.703   2.939   2.190 -0.2318  0.1727  0.1207
  110TCq2    C8 1681   3.745   3.020   1.981  0.7825 -0.6822 -0.2828
  110TCq2    O4 1682   3.648   2.952   1.944  0.3552 -0.2510 -0.4389
  110TCq2    C9 1683   3.846   3.289   2.389 -0.3018 -0.2220  0.1276
  110TCq2    O5 1684   3.929   3.367   2.333 -0.3692  0.5932  0.2156
  110TCq2    O6 1685   3.823   3.293   2.516 -0.2481 -0.3587 -0.0884
  110TCq2    H2 1686   3.720   3.084   2.493  1.1746  0.0549  1.0459
  110TCq2    H3 1687   3.873   3.228   2.128 -0.4158  1.3524  2.0539
  110TCq2    H4 1688   3.667   2.847   2.147  1.7713  0.3029 -1.8668
  111TMC2    C1 1689   2.293   2.182  11.377  0.1678  0.0312 -0.2668
  111TMC2    C2 1690   2.205   2.103  11.447 -0.0919 -0.1940  0.3913
  111TMC2    C3 1691   2.219   2.093  11.583  0.8261  0.7294 -0.1319
  111TMC2    C4 1692   2.391   2.250  11.443 -0.1184  1.1109 -0.0601
  111TMC2    C5 1693   2.401   2.244  11.582  0.1367 -0.5228 -0.3907
  111TMC2    C6 1694   2.318   2.166  11.655  0.0192  0.8429 -0.6214
  111TMC2     C 1695   2.278   2.192  11.229 -0.3344  0.1438 -0.8543
  111TMC2     O 1696   2.352   2.273  11.176 -0.6802 -0.2596 -0.8730
  111TMC2     H 1697   2.111   2.075  11.401  0.6734 -1.8818 -0.1815
  111TMC2    H1 1698   2.446   2.323  11.386  0.5754  1.3943  0.9697
  111TMC2    H2 1699   2.333   2.167  11.763 -2.4291  0.7287 -0.2718
  111TMC2    C7 1700   2.497   2.325  11.656  0.0475 -0.1209  0.0127
  111TMC2    C8 1701   2.131   1.998  11.643  0.4852  0.6476  0.0028
  111TMC2    O1 1702   2.493   2.314  11.779 -0.3712 -0.1423  0.0090
  111TMC2    O2 1703   2.093   1.901  11.575  0.1278 -0.2506  0.1295
  111TMC2    O5 1704   2.112   2.017  11.778 -0.1683 -0.2474  0.0678
  111TMC2    H5 1705   2.126   2.105  11.819  1.4974 -0.9865  1.0898
  112MPD2     C 1706   2.130   1.994  10.769  0.4232  0.1393 -0.3060
  112MPD2    C1 1707   2.211   2.106  10.791  0.0572 -0.0228 -0.1908
  112MPD2    C2 1708   2.253   2.138  10.921  0.1847 -0.8979 -0.4300
  112MPD2    C3 1709   2.194   2.067  11.027  0.2491  0.4177 -0.0484
  112MPD2    C4 1710   2.108   1.964  10.999 -0.5128 -0.6854  0.0824
  112MPD2    C5 1711   2.085   1.925  10.873 -1.0946 -0.2614 -0.6784
  112MPD2     H 1712   2.320   2.220  10.945 -2.0458  0.6125  0.7350
  112MPD2    H1 1713   2.057   1.915  11.081 -0.6662 -1.2125 -0.3273
  112MPD2    H2 1714   2.099   1.964  10.669 -1.9576 -1.1180  0.8112
  112MPD2    H3 1715   2.031   1.834  10.853 -0.6121 -0.7012  0.0251
  112MPD2     N 1716   2.207   2.087  11.169 -0.2078  0.0618 -0.7212
  112MPD2    H5 1717   2.165   2.018  11.230  0.7010 -2.1191 -2.5627
  112MPD2    N1 1718   2.250   2.185  10.681 -0.3674 -0.0533  0.0819
  112MPD2    H7 1719   2.305   2.268  10.701 -5.1857  3.0949  0.3331
  113MPD2     C 1720   1.308   0.641   1.250  0.2048 -0.1558 -0.2855
  113MPD2    C1 1721   1.198   0.726   1.242  0.0087  0.0278  0.3828
  113MPD2    C2 1722   1.098   0.694   1.159  0.6450 -0.0734  0.1098
  113MPD2    C3 1723   1.112   0.570   1.087 -0.3626  0.9963 -0.2770
  113MPD2    C4 1724   1.221   0.494   1.091  0.0980  0.4617  0.1776
  113MPD2    C5 1725   1.315   0.521   1.185 -0.1748  0.0387  0.2033
  113MPD2     H 1726   1.010   0.755   1.144  1.1010  0.5422 -0.0358
  113MPD2    H1 1727   1.244   0.409   1.028 -0.9982  0.3379 -0.0661
  113MPD2    H2 1728   1.398   0.665   1.306 -0.0570  1.1711 -0.4423
  113MPD2    H3 1729   1.409   0.469   1.200 -0.4172 -0.5616 -0.3410
  113MPD2     N 1730   1.011   0.518   1.005  0.3273 -0.0599 -0.0233
  113MPD2    H5 1731   1.019   0.417   0.991 -0.4384 -0.2339  0.7808
  113MPD2    N1 1732   1.196   0.850   1.318 -0.5393  0.0461  0.4336
  113MPD2    H7 1733   1.120   0.916   1.300 -1.1072 -1.2591 -1.9493
  114TCq2    C1 1734   0.897   0.585   0.963 -0.5362 -0.5756 -0.2297
  114TCq2    O2 1735   0.872   0.705   0.964  0.0258 -0.6745  0.0784
  114TCq2    C2 1736   0.796   0.493   0.908  0.1548 -0.1657 -0.4390
  114TCq2    C3 1737   0.707   0.547   0.823 -0.0231  0.1475 -0.1875
  114TCq2    C4 1738   0.603   0.468   0.781  0.2480 -1.3870  0.1858
  114TCq2    C5 1739   0.580   0.348   0.835 -0.4811  0.4049  0.5473
  114TCq2    C6 1740   0.656   0.303   0.941 -0.9204 -0.7243  0.0005
  114TCq2    C7 1741   0.772   0.382   0.983  0.0456  0.6212 -0.0295
  114TCq2    C8 1742   0.649   0.179   0.996 -0.0609  0.4502  0.8788
  114TCq2    O4 1743   0.740   0.132   1.060 -0.0043  0.5698  0.6048
  114TCq2    C9 1744   0.508   0.516   0.687 -0.3001  0.2703  0.2456
  114TCq2    O5 1745   0.535   0.631   0.639 -0.2621  0.4151  0.2326
  114TCq2    O6 1746   0.423   0.434   0.634 -0.1588 -0.6781 -0.1498
  114TCq2    H2 1747   0.719   0.647   0.783 -2.9295  0.9709  1.0290
  114TCq2    H3 1748   0.497   0.294   0.792  2.0086 -3.6145  0.8258
  114TCq2    H4 1749   0.829   0.343   1.067 -0.0413  0.2564 -0.1417
  115TMC2    C1 1750   1.441   2.997   0.137  0.0216  0.3660  0.7699
  115TMC2    C2 1751   1.566   2.978   0.197 -0.6325  0.2070  0.4116
  115TMC2    C3 1752   1.636   3.092   0.217  0.6369  0.9451 -0.1603
  115TMC2    C4 1753   1.389   3.119   0.098 -0.4811 -0.5091  0.3162
  115TMC2    C5 1754   1.463   3.223   0.128 -0.5770  0.3083 -0.6159
  115TMC2    C6 1755   1.583   3.211   0.198 -0.3652 -0.2308  0.1781
  115TMC2     C 1756   1.359   2.880   0.111 -0.4620 -0.2650 -0.4931
  115TMC2     O 1757   1.419   2.774   0.117 -0.9159  0.2524  0.3507
  115TMC2     H 1758   1.611   2.882   0.220  1.6097  1.2236  0.2339
  115TMC2    H1 1759   1.294   3.129   0.048 -1.0761 -0.7868  1.4084
  115TMC2    H2 1760   1.653   3.292   0.217  0.5690 -0.3549 -2.6886
  115TMC2    C7 1761   1.397   3.346   0.146 -0.8925  0.8198 -0.1411
  115TMC2    C8 1762   1.761   3.083   0.289  0.4432  0.2301 -0.3499
  115TMC2    O1 1763   1.278   3.340   0.182 -0.9233  0.2465 -0.7693
  115TMC2    O2 1764   1.838   2.988   0.283  0.3952 -0.1357  0.1723
  115TMC2    O5 1765   1.770   3.186   0.379 -0.3586  0.0857 -0.3610
  115TMC2    H5 1766   1.692   3.244   0.388 -2.2977 -2.9566  2.2847
  116MPD2     C 1767   0.933   2.663  17.653 -0.0490  0.0756 -0.0257
  116MPD2    C1 1768   1.063   2.622  17.640  0.2319  0.1200  0.0488
  116MPD2    C2 1769   1.169   2.695  17.696  0.2614 -0.4227  0.6809
  116MPD2    C3 1770   1.135   2.810   0.065 -0.1950  0.3424 -0.0063
  116MPD2    C4 1771   1.002   2.849   0.089 -0.1000  0.1225  0.3856
  116MPD2    C5 1772   0.899   2.784   0.022 -0.7386  0.1230  0.1010
  116MPD2     H 1773   1.273   2.673  17.675  0.3054  2.1206 -1.7189
  116MPD2    H1 1774   0.973   2.941   0.138 -0.9657 -0.1372  0.3658
  116MPD2    H2 1775   0.853   2.606  17.607  1.2324 -1.9206  0.1843
  116MPD2    H3 1776   0.798   2.815   0.046 -0.4725 -0.4687  1.9533
  116MPD2     N 1777   1.227   2.907   0.110 -0.3808  0.7294 -0.4424
  116MPD2    H5 1778   1.193   2.999   0.135  0.9767  1.4911 -1.3717
  116MPD2    N1 1779   1.089   2.514  17.551 -0.2847 -0.4856  0.4210
  116MPD2    H7 1780   1.009   2.474  17.504  1.0121 -1.0931 -1.2670
  117TMC2    C1 1781   0.065   0.009  13.999 -0.8528 -0.8627 -1.2641
  117TMC2    C2 1782   0.146   4.628  14.003  1.0028  0.9420 -0.2669
  117TMC2    C3 1783   0.275   4.642  14.037  0.8515  0.2120 -0.1877
  117TMC2    C4 1784   0.109   0.134  14.027  0.2984  0.5872  0.2709
  117TMC2    C5 1785   0.240   0.145  14.063 -0.0063  0.0106 -1.4871
  117TMC2    C6 1786   0.328   0.039  14.065 -0.1328  0.2650 -0.5176
  117TMC2     C 1787   4.644   4.711  13.986 -0.2531  0.0060  0.0911
  117TMC2     O 1788   4.603   4.596  13.961  0.5206 -0.5542 -0.0423
  117TMC2     H 1789   0.110   4.530  13.975  1.8457  0.9309 -1.3335
  117TMC2    H1 1790   0.053   0.225  14.009 -2.0492 -0.9303  0.0224
  117TMC2    H2 1791   0.427   0.045  14.109 -0.6896  1.5712  0.5551
  117TMC2    C7 1792   0.294   0.278  14.082  0.3397  0.2082 -0.1110
  117TMC2    C8 1793   0.355   4.520  14.043 -0.6375 -0.1478 -0.2438
  117TMC2    O1 1794   0.407   0.292  14.040  0.3241  0.0952 -0.1704
  117TMC2    O2 1795   0.309   4.413  14.073 -0.1432 -0.3007 -0.2374
  117TMC2    O5 1796   0.479   4.548  13.999  0.3316 -0.1070 -0.5424
  117TMC2    H5 1797   0.508   4.637  13.969  0.5411 -0.2411 -0.7350
  118MPD2     C 1798   0.174   0.548  14.293  0.6628  0.5129 -0.1030
  118MPD2    C1 1799   0.246   0.490  14.189 -0.0815  0.5644 -0.2370
  118MPD2    C2 1800   0.323   0.565  14.105 -0.7567  0.4868 -0.0959
  118MPD2    C3 1801   0.349   0.701  14.137 -0.2454 -0.1393  0.5580
  118MPD2    C4 1802   0.283   0.762  14.244  0.4104  0.5079  0.3094
  118MPD2    C5 1803   0.187   0.689  14.309  0.2295  0.1947  0.1952
  118MPD2     H 1804   0.377   0.513  14.026 -0.5613  0.5191  0.0152
  118MPD2    H1 1805   0.321   0.854  14.287  0.2692  1.0722 -0.7751
  118MPD2    H2 1806   0.116   0.491  14.365  0.4629 -0.2086 -0.8341
  118MPD2    H3 1807   0.141   0.726  14.400 -0.6011 -1.3234  0.4112
  118MPD2     N 1808   0.453   0.771  14.069 -0.3022 -0.2497  0.0172
  118MPD2    H5 1809   0.478   0.862  14.105 -0.6250 -1.3592  3.0881
  118MPD2    N1 1810   0.211   0.358  14.157  0.9050 -0.0248  0.4829
  118MPD2    H7 1811   0.125   0.321  14.197  0.1120  1.0225 -0.2285
  119MPD2     C 1812   3.229   1.564  14.088 -0.6567  0.6479 -0.0369
  119MPD2    C1 1813   3.097   1.526  14.086 -0.0001 -0.7587  0.4762
  119MPD2    C2 1814   3.031   1.497  13.972  0.5780 -0.0194  0.3981
  119MPD2    C3 1815   3.093   1.492  13.851  0.1029  0.4885 -0.0509
  119MPD2    C4 1816   3.231   1.515  13.856  0.3944 -0.0483 -0.1534
  119MPD2    C5 1817   3.298   1.550  13.971 -0.1514 -0.1304  0.7823
  119MPD2     H 1818   2.926   1.469  13.980  0.5085  0.7165  2.0313
  119MPD2    H1 1819   3.287   1.506  13.764 -0.2837 -0.1897 -0.5539
  119MPD2    H2 1820   3.281   1.589  14.179 -1.5469  0.6930  0.4571
  119MPD2    H3 1821   3.405   1.566  13.973 -0.0023 -1.1791  1.1636
  119MPD2     N 1822   3.031   1.481  13.718  0.2807 -0.2701  0.6193
  119MPD2    H5 1823   3.090   1.474  13.635 -1.7288 -0.7533 -0.7665
  119MPD2    N1 1824   3.038   1.530  14.216 -0.1933  0.3026 -0.1850
  119MPD2    H7 1825   3.101   1.558  14.291  1.3017  1.1384 -1.7551
  120TCq2    C1 1826   2.898   1.470  13.700  0.3151 -0.0401  0.2201
  120TCq2    O2 1827   2.812   1.453  13.789  0.0718  0.6725 -0.0454
  120TCq2    C2 1828   2.849   1.484  13.561  0.6716  0.0615 -0.1461
  120TCq2    C3 1829   2.931   1.534  13.460  0.9757  0.2212  0.6734
  120TCq2    C4 1830   2.880   1.517  13.329 -0.1554  0.7321  0.1516
  120TCq2    C5 1831   2.754   1.470  13.303 -0.2015  0.4047  0.0606
  120TCq2    C6 1832   2.677   1.447  13.413  0.0068 -0.4179  0.0365
  120TCq2    C7 1833   2.719   1.451  13.541 -0.7037 -0.2142 -0.1819
  120TCq2    C8 1834   2.557   1.369  13.388  0.3409 -0.0740  0.3106
  120TCq2    O4 1835   2.502   1.377  13.277  0.7637 -0.2379  0.0322
  120TCq2    C9 1836   2.958   1.558  13.216 -0.2569  0.4897 -0.1760
  120TCq2    O5 1837   2.916   1.544  13.097  0.3960  0.4204 -0.4979
  120TCq2    O6 1838   3.071   1.615  13.233  0.4311 -0.2745 -0.6435
  120TCq2    H2 1839   3.029   1.567  13.492  0.8562  0.3037  0.9514
  120TCq2    H3 1840   2.711   1.481  13.205  1.0840  0.1754 -0.5314
  120TCq2    H4 1841   2.658   1.425  13.627 -1.4352  2.3175  0.0625
  121TMC2    C1 1842   4.094   2.964  13.875  0.3827  1.0704  0.7387
  121TMC2    C2 1843   4.174   2.851  13.853 -0.2537  0.2437 -0.0958
  121TMC2    C3 1844   4.135   2.734  13.916 -0.9476  0.3991  0.0565
  121TMC2    C4 1845   3.977   2.952  13.945 -0.8479 -0.2974  0.2521
  121TMC2    C5 1846   3.932   2.832  13.987  0.5278  0.4678 -0.3363
  121TMC2    C6 1847   4.009   2.721  13.970 -0.0148 -0.2366 -0.0678
  121TMC2     C 1848   4.150   3.092  13.849 -0.4930 -0.2980  0.1973
  121TMC2     O 1849   4.134   3.170  13.942 -0.2607  0.0253  0.7329
  121TMC2     H 1850   4.277   2.866  13.823  0.6301 -2.0583  1.8373
  121TMC2    H1 1851   3.929   3.048  13.964  0.8223  0.2947  1.5268
  121TMC2    H2 1852   3.962   2.626  13.991 -0.2443 -0.6726 -2.4878
  121TMC2    C7 1853   3.810   2.829  14.068  1.3953 -0.1627  0.5047
  121TMC2    C8 1854   4.226   2.622  13.918 -0.4097 -0.4910  0.1151
  121TMC2    O1 1855   3.791   2.730  14.135 -0.1495 -0.0433  0.0309
  121TMC2    O2 1856   4.302   2.594  13.829 -0.6318 -0.1150 -0.1937
  121TMC2    O5 1857   4.217   2.547  14.031 -0.0992  0.4717 -0.1745
  121TMC2    H5 1858   4.157   2.594  14.093  0.8980  1.0785  0.3237
  122MPD2     C 1859   4.286   3.330  13.746  0.4061 -0.4241  0.4907
  122MPD2    C1 1860   4.272   3.216  13.675  0.2957  0.3915 -0.0292
  122MPD2    C2 1861   4.338   3.209  13.556 -0.1574 -0.1333 -0.7514
  122MPD2    C3 1862   4.408   3.314  13.504  0.4307 -0.2909 -0.3814
  122MPD2    C4 1863   4.405   3.435  13.572  0.4370  0.0687 -0.2147
  122MPD2    C5 1864   4.346   3.443  13.695 -0.0062  0.8986 -0.5858
  122MPD2     H 1865   4.331   3.115  13.503  0.0748 -0.9716  0.7113
  122MPD2    H1 1866   4.464   3.522  13.546  1.2390 -0.7425 -1.0951
  122MPD2    H2 1867   4.237   3.347  13.842 -1.5972  2.1089 -0.9711
  122MPD2    H3 1868   4.354   3.531  13.757 -1.8737 -0.1346  1.1143
  122MPD2     N 1869   4.472   3.319  13.370  0.5828 -0.0461  0.2936
  122MPD2    H5 1870   4.509   3.409  13.342  0.3485 -0.2387 -0.6238
  122MPD2    N1 1871   4.209   3.102  13.724 -0.1258  0.1171  0.7225
  122MPD2    H7 1872   4.221   3.022  13.663 -2.6526  0.6352 -0.4780
  123MPD2     C 1873   2.353   0.831   9.179 -0.6200 -0.3683  0.4200
  123MPD2    C1 1874   2.397   0.757   9.285 -0.2202 -1.4070  0.5036
  123MPD2    C2 1875   2.338   0.642   9.325  0.1986  0.3815 -0.1634
  123MPD2    C3 1876   2.219   0.599   9.260  0.0165  0.3984 -0.4186
  123MPD2    C4 1877   2.173   0.677   9.157  0.0302 -0.4542  0.3881
  123MPD2    C5 1878   2.236   0.790   9.120 -0.1748 -0.0498  0.7348
  123MPD2     H 1879   2.387   0.572   9.393 -0.9842 -0.4032 -0.1160
  123MPD2    H1 1880   2.078   0.660   9.109 -0.4616  2.6586  0.2704
  123MPD2    H2 1881   2.402   0.920   9.140 -0.0163  0.4416  3.0455
  123MPD2    H3 1882   2.196   0.834   9.029  1.7912 -0.8219 -0.4853
  123MPD2     N 1883   2.159   0.477   9.300 -0.2963  0.3602  0.4934
  123MPD2    H5 1884   2.204   0.421   9.372  1.1828  0.1524 -0.5927
  123MPD2    N1 1885   2.513   0.799   9.354  0.2447  0.5336  0.4744
  123MPD2    H7 1886   2.562   0.882   9.320 -1.2009  1.5168  0.7668
  124TCq2    C1 1887   2.040   0.433   9.260 -0.3526 -0.3416 -0.3859
  124TCq2    O2 1888   1.965   0.477   9.175 -0.1055 -0.5090 -0.3813
  124TCq2    C2 1889   2.000   0.331   9.357 -0.3211  0.2142 -0.2124
  124TCq2    C3 1890   1.881   0.276   9.339 -0.7743 -0.1776 -0.0022
  124TCq2    C4 1891   1.830   0.177   9.416 -0.9496 -0.1185 -0.1640
  124TCq2    C5 1892   1.900   0.146   9.531  0.0830 -0.1274  0.1189
  124TCq2    C6 1893   2.024   0.195   9.552 -0.0064  0.7116  0.4484
  124TCq2    C7 1894   2.079   0.283   9.459  0.1217 -1.0642 -0.9635
  124TCq2    C8 1895   2.102   0.166   9.676 -0.7755  0.5459  0.1168
  124TCq2    O4 1896   2.219   0.209   9.678  0.0891  0.8739  1.0572
  124TCq2    C9 1897   1.703   0.108   9.388  0.1477  0.0383  0.5661
  124TCq2    O5 1898   1.664   0.008   9.457 -0.5895  0.1122  0.2764
  124TCq2    O6 1899   1.642   0.157   9.290  0.2994 -0.5236 -0.2412
  124TCq2    H2 1900   1.823   0.317   9.257 -0.6235  0.7840  0.3749
  124TCq2    H3 1901   1.854   0.069   9.591  0.7763  0.6428  1.6296
  124TCq2    H4 1902   2.185   0.302   9.472 -0.0849  0.1230 -1.0165
  125TMC2    C1 1903   4.559   3.794   9.067  0.1845 -0.2923  0.2467
  125TMC2    C2 1904   4.527   3.867   8.958 -0.6224 -0.3028 -0.5610
  125TMC2    C3 1905   4.399   3.886   8.938 -0.2403 -1.1107  1.1679
  125TMC2    C4 1906   4.471   3.734   9.142  0.0243  1.1682 -0.1850
  125TMC2    C5 1907   4.340   3.748   9.109  0.1642 -0.8478  0.2292
  125TMC2    C6 1908   4.300   3.821   9.006  0.2622  0.0861  0.3094
  125TMC2     C 1909   4.698   3.767   9.109  0.5880 -0.1434 -0.8191
  125TMC2     O 1910   4.724   3.659   9.162  0.1995 -0.6895 -0.2846
  125TMC2     H 1911   4.598   3.909   8.887 -0.8103 -0.9469 -1.1303
  125TMC2    H1 1912   4.502   3.687   9.235  1.0603  2.5053  0.1434
  125TMC2    H2 1913   4.197   3.826   8.973  0.0317  0.5620  1.0910
  125TMC2    C7 1914   4.244   3.681   9.190  0.0544 -0.2893  0.7271
  125TMC2    C8 1915   4.376   3.938   8.807  0.2205 -0.0107  1.1019
  125TMC2    O1 1916   4.125   3.721   9.186  0.3835  0.4435  0.0161
  125TMC2    O2 1917   4.458   3.916   8.714  0.4580  0.3723 -0.4407
  125TMC2    O5 1918   4.273   4.018   8.823 -0.2029 -0.2444 -0.2337
  125TMC2    H5 1919   4.238   4.028   8.914 -1.0449  2.2582 -0.8373
  126MPD1     C 1920   0.470   3.872   9.125  0.7144  0.4360 -0.3109
  126MPD1    C1 1921   0.406   3.987   9.075  0.2369  0.3463 -0.7494
  126MPD1    C2 1922   0.267   3.979   9.063  0.1303  0.3085 -0.4533
  126MPD1    C3 1923   0.199   3.866   9.091 -0.5451  0.3064 -0.2498
  126MPD1    C4 1924   0.265   3.756   9.143  0.1257 -0.4462 -0.6583
  126MPD1    C5 1925   0.399   3.761   9.168 -0.4815  0.3603 -0.4161
  126MPD1     H 1926   0.218   4.070   9.031  0.3838  0.7579  0.4323
  126MPD1    H1 1927   0.214   3.662   9.161  0.9506 -0.6378  0.6195
  126MPD1    H2 1928   0.578   3.875   9.132  0.6933  0.8842 -0.2481
  126MPD1    H3 1929   0.448   3.679   9.217 -1.2296  0.7779  1.0339
  126MPD1     N 1930   0.062   3.868   9.067  0.6420 -0.3446 -0.1821
  126MPD1    H5 1931   0.019   3.951   9.028  0.7741 -0.2445 -0.1167
  126MPD1    N1 1932   0.476   4.098   9.032  0.3154  0.1333 -0.0833
  126MPD1    H6 1933   0.561   4.109   9.088 -0.1476 -0.2807  0.7011
  126MPD1    H7 1934   0.418   4.180   9.047  0.7300  0.3789  0.2020
  127MPD2     C 1935   0.357   1.682   9.479 -0.1304 -0.7728 -0.1179
  127MPD2    C1 1936   0.362   1.632   9.607 -0.1163  0.7963 -0.3416
  127MPD2    C2 1937   0.372   1.718   9.715 -1.7210  1.0031  0.2514
  127MPD2    C3 1938   0.373   1.858   9.695  0.1508 -0.2949 -0.5072
  127MPD2    C4 1939   0.358   1.904   9.564  0.0384  0.0476  0.3167
  127MPD2    C5 1940   0.350   1.816   9.463  0.3742  0.5720  0.2088
  127MPD2     H 1941   0.374   1.673   9.813  1.2670 -0.9864 -0.7462
  127MPD2    H1 1942   0.359   2.010   9.545  1.8636  0.0522  0.4382
  127MPD2    H2 1943   0.358   1.618   9.391  1.1618 -0.1528 -0.5651
  127MPD2    H3 1944   0.350   1.846   9.359 -0.1576 -0.0967  0.0113
  127MPD2     N 1945   0.394   1.943   9.811  0.0998  0.3340 -0.4963
  127MPD2    H5 1946   0.435   1.896   9.892  0.4596  1.4272 -0.0485
  127MPD2    N1 1947   0.354   1.489   9.617  0.0997  0.2548  0.1770
  127MPD2    H7 1948   0.382   1.448   9.528 -0.8775 -3.0325  1.3803
  128TCq2    C1 1949   0.375   1.409   9.723 -0.0573 -0.4296 -0.1194
  128TCq2    O2 1950   0.400   1.434   9.841 -0.3118 -0.3772  0.1158
  128TCq2    C2 1951   0.406   1.268   9.684  0.1440  0.4125 -0.0425
  128TCq2    C3 1952   0.484   1.195   9.776 -0.1973 -0.6331  0.2616
  128TCq2    C4 1953   0.475   1.057   9.768 -0.0944  0.3481 -0.3127
  128TCq2    C5 1954   0.403   0.996   9.669 -0.2189  0.2992 -0.6026
  128TCq2    C6 1955   0.339   1.069   9.571 -0.1061  0.0976  0.1307
  128TCq2    C7 1956   0.341   1.207   9.581 -0.0581 -0.4553  0.2272
  128TCq2    C8 1957   0.263   1.012   9.466  0.7454 -0.2031 -0.3157
  128TCq2    O4 1958   0.215   1.087   9.382 -0.0562  0.2178  0.4467
  128TCq2    C9 1959   0.536   0.976   9.872  0.2045  0.2325 -0.2397
  128TCq2    O5 1960   0.546   1.032   9.984  0.0216 -0.8425  0.3069
  128TCq2    O6 1961   0.528   0.851   9.852  0.2631 -0.5715  0.6125
  128TCq2    H2 1962   0.509   1.234   9.874 -0.9142  0.9074 -0.1621
  128TCq2    H3 1963   0.404   0.888   9.667  0.3616  0.2885  0.1976
  128TCq2    H4 1964   0.291   1.267   9.506  0.8204 -1.0469 -0.8358
  129MPD2     C 1965   3.887   1.531   1.806  0.3350 -0.7302 -0.3536
  129MPD2    C1 1966   3.807   1.617   1.873 -0.1054 -1.2449 -0.4695
  129MPD2    C2 1967   3.715   1.695   1.809  0.9245  0.0516  0.2537
  129MPD2    C3 1968   3.687   1.686   1.675 -0.0245  0.1857 -0.2848
  129MPD2    C4 1969   3.775   1.603   1.609  0.6039 -0.2628  0.2009
  129MPD2    C5 1970   3.865   1.525   1.674 -0.5586 -0.5184 -0.1660
  129MPD2     H 1971   3.654   1.762   1.870  1.2493 -0.4535  1.1352
  129MPD2    H1 1972   3.774   1.595   1.501  0.6540 -0.8217  0.2424
  129MPD2    H2 1973   3.959   1.465   1.852  0.3069  0.2607  1.1320
  129MPD2    H3 1974   3.923   1.456   1.614  1.0927  1.1910 -0.5494
  129MPD2     N 1975   3.585   1.766   1.609 -0.5146  0.9670  0.2491
  129MPD2    H5 1976   3.543   1.835   1.671 -1.7930 -0.2222  0.7144
  129MPD2    N1 1977   3.811   1.626   2.013 -0.0803  0.1595  0.5015
  129MPD2    H7 1978   3.752   1.696   2.056 -2.3521 -0.9412 -0.7873
  130TCq2    C1 1979   3.901   1.567   2.095  0.1820  0.4776 -0.6870
  130TCq2    O2 1980   4.012   1.521   2.071  0.4196 -0.2794  0.5778
  130TCq2    C2 1981   3.876   1.611   2.231 -0.0520 -0.3428 -0.5907
  130TCq2    C3 1982   3.985   1.629   2.303 -0.1906 -0.4474 -0.7398
  130TCq2    C4 1983   3.955   1.669   2.430  0.4702  0.7381 -1.0154
  130TCq2    C5 1984   3.828   1.703   2.481  0.5296 -0.1210  0.1066
  130TCq2    C6 1985   3.729   1.679   2.393  0.3660  0.1639 -0.9218
  130TCq2    C7 1986   3.750   1.637   2.266 -0.4743 -0.0938 -0.2290
  130TCq2    C8 1987   3.597   1.730   2.417  0.2269  0.6004 -0.3794
  130TCq2    O4 1988   3.500   1.659   2.395 -0.5743  0.2333 -0.3100
  130TCq2    C9 1989   4.066   1.670   2.527  0.1180 -0.7709 -0.1824
  130TCq2    O5 1990   4.044   1.655   2.652  0.1964  0.0519 -0.2538
  130TCq2    O6 1991   4.178   1.657   2.465 -0.0761  0.8180 -0.0259
  130TCq2    H2 1992   4.083   1.610   2.261  0.3060  0.9453 -0.2022
  130TCq2    H3 1993   3.811   1.739   2.581  0.0741 -0.5521  0.1849
  130TCq2    H4 1994   3.672   1.603   2.198  0.0923 -1.3642 -0.2462
  131MPD2     C 1995   3.290   1.104  10.044  0.4623 -0.6415  0.2429
  131MPD2    C1 1996   3.177   1.184  10.071  0.1660  0.4854 -0.2261
  131MPD2    C2 1997   3.055   1.136  10.031  0.1063  0.3117  0.2027
  131MPD2    C3 1998   3.030   1.029   9.952 -0.0827  1.1995 -0.2169
  131MPD2    C4 1999   3.140   0.954   9.925  0.5042  0.3583  0.7121
  131MPD2    C5 2000   3.270   0.986   9.975  0.5124  0.0176  0.9046
  131MPD2     H 2001   2.965   1.190  10.056  1.0472  1.4091  1.1927
  131MPD2    H1 2002   3.138   0.865   9.863  0.6202  1.8353 -1.3869
  131MPD2    H2 2003   3.392   1.127  10.074  0.1442 -2.3106  2.6818
  131MPD2    H3 2004   3.351   0.920   9.945 -1.5757 -1.3018 -1.9238
  131MPD2     N 2005   2.902   1.009   9.887 -0.4787  0.3199  0.5062
  131MPD2    H5 2006   2.844   1.092   9.899  0.5412  1.3649 -1.8882
  131MPD2    N1 2007   3.196   1.300  10.143  0.5910  0.3196 -0.2064
  131MPD2    H7 2008   3.294   1.328  10.146  0.6447  0.0650  0.5703
  132TCq2    C1 2009   3.401   1.740  10.096  0.1260  0.1556 -0.4723
  132TCq2    O2 2010   3.456   1.669  10.013 -0.0327 -0.5285 -0.1795
  132TCq2    C2 2011   3.304   1.683  10.195  0.2189  0.3977 -0.0263
  132TCq2    C3 2012   3.246   1.759  10.293 -1.2687 -0.3463  0.0396
  132TCq2    C4 2013   3.136   1.710  10.359 -0.6667  0.1199 -0.4184
  132TCq2    C5 2014   3.087   1.589  10.328  0.2571 -0.7049  0.1395
  132TCq2    C6 2015   3.148   1.509  10.232 -0.0233 -0.5045  0.7971
  132TCq2    C7 2016   3.253   1.563  10.164 -0.2320  0.5332 -0.3026
  132TCq2    C8 2017   3.096   1.380  10.195  0.0267  0.3482  0.6892
  132TCq2    O4 2018   2.980   1.360  10.222 -0.7116  0.0007  0.1369
  132TCq2    C9 2019   3.065   1.798  10.446 -0.0725 -0.4875 -0.4601
  132TCq2    O5 2020   3.006   1.738  10.540  0.7592 -0.1342 -0.1523
  132TCq2    O6 2021   3.082   1.924  10.437 -0.4396  0.1432  0.0705
  132TCq2    H2 2022   3.269   1.861  10.320 -2.4994  0.4014 -1.7223
  132TCq2    H3 2023   3.012   1.545  10.392 -1.2022  0.5627 -0.6805
  132TCq2    H4 2024   3.289   1.519  10.071 -1.3177  0.1404 -0.5432
  133MPD2     C 2025   2.775   2.791   9.583 -0.3087 -0.0194 -0.2483
  133MPD2    C1 2026   2.666   2.796   9.669  0.0996  0.0296 -1.0557
  133MPD2    C2 2027   2.590   2.682   9.688 -0.3053  0.4014 -0.2338
  133MPD2    C3 2028   2.619   2.565   9.618 -0.0224 -0.1354 -0.2674
  133MPD2    C4 2029   2.732   2.564   9.540  0.0732 -0.3916  1.0342
  133MPD2    C5 2030   2.810   2.676   9.530 -0.3687 -0.3364  0.0637
  133MPD2     H 2031   2.506   2.692   9.756  0.8255  1.7532  0.9658
  133MPD2    H1 2032   2.772   2.484   9.479 -0.3329  0.3486 -0.2042
  133MPD2    H2 2033   2.840   2.876   9.563  0.5321 -0.7442 -0.5580
  133MPD2    H3 2034   2.909   2.668   9.488  1.0039 -0.1846  3.2545
  133MPD2     N 2035   2.544   2.449   9.629  0.6782 -0.6521  0.8431
  133MPD2    H5 2036   2.590   2.361   9.612  1.0850 -0.0242 -1.2589
  133MPD2    N1 2037   2.643   2.923   9.728  0.7861  0.1047 -0.0372
  133MPD2    H7 2038   2.708   2.997   9.705 -0.0639  1.1603  0.9133
  134TCq2    C1 2039   2.555   2.955   9.830  0.4857 -0.2276 -0.5155
  134TCq2    O2 2040   2.479   2.892   9.901 -0.6327  0.1126  0.5459
  134TCq2    C2 2041   2.567   3.093   9.874 -0.1466 -0.2446  0.6228
  134TCq2    C3 2042   2.497   3.127   9.991  0.1117  0.4021 -0.3718
  134TCq2    C4 2043   2.524   3.249  10.044  0.2987  0.0853  0.2201
  134TCq2    C5 2044   2.603   3.332   9.978  0.3661 -0.3185 -0.3102
  134TCq2    C6 2045   2.650   3.302   9.847 -0.7322 -0.0686 -0.3136
  134TCq2    C7 2046   2.642   3.178   9.800  0.4025 -0.1262  0.2296
  134TCq2    C8 2047   2.701   3.405   9.757 -0.5266 -0.5383  0.2875
  134TCq2    O4 2048   2.755   3.357   9.659  0.1612 -0.2687  0.0296
  134TCq2    C9 2049   2.458   3.297  10.161 -0.2958 -0.3979  0.3058
  134TCq2    O5 2050   2.373   3.216  10.209 -0.3129  0.7075  0.1272
  134TCq2    O6 2051   2.479   3.413  10.208 -0.3224 -0.2109  0.6019
  134TCq2    H2 2052   2.434   3.058  10.046  0.9311  0.7764  1.0496
  134TCq2    H3 2053   2.608   3.431  10.021 -2.0210 -0.7314  0.9225
  134TCq2    H4 2054   2.698   3.159   9.709  0.4815  0.8905  0.0663
  135MPD2     C 2055   0.093   3.347   9.910 -0.6020 -0.4424  0.4288
  135MPD2    C1 2056   0.002   3.263   9.854 -0.2572  0.0867  0.2949
  135MPD2    C2 2057   0.044   3.178   9.755  0.1413 -0.6226  0.1258
  135MPD2    C3 2058   0.173   3.174   9.711  0.1032  0.4396  0.4911
  135MPD2    C4 2059   0.266   3.259   9.773  0.4889 -0.2889 -0.0589
  135MPD2    C5 2060   0.223   3.349   9.868 -0.1765 -0.1781  0.3675
  135MPD2     H 2061   4.691   3.116   9.711  0.6419 -1.1380 -0.0205
  135MPD2    H1 2062   0.369   3.266   9.739  0.5941  1.3676  0.6354
  135MPD2    H2 2063   0.071   3.400  10.002 -0.1687  0.3018  0.0970
  135MPD2    H3 2064   0.288   3.411   9.929 -0.3792  0.6196 -0.2310
  135MPD2     N 2065   0.218   3.085   9.615  0.5999  0.4847 -1.2234
  135MPD2    H5 2066   0.319   3.075   9.614  0.4918 -0.5742 -1.1343
  135MPD2    N1 2067   4.590   3.260   9.887  0.2171 -0.0834 -0.0731
  135MPD2    H7 2068   4.540   3.177   9.856 -0.8086  0.5986 -0.2407
  136TCq2    C1 2069   4.525   3.357   9.969  0.2428  0.3898 -0.0477
  136TCq2    O2 2070   4.572   3.456  10.017 -0.1345  0.0984  0.4115
  136TCq2    C2 2071   4.384   3.319   9.997  0.9534 -0.4037 -0.0558
  136TCq2    C3 2072   4.334   3.342  10.119 -0.0524 -0.2826  0.6023
  136TCq2    C4 2073   4.218   3.275  10.152  0.6263 -0.3366 -0.7663
  136TCq2    C5 2074   4.154   3.190  10.061 -0.1311 -0.1396  0.6147
  136TCq2    C6 2075   4.202   3.179   9.933  0.1802  1.1916 -0.1386
  136TCq2    C7 2076   4.311   3.253   9.897 -0.4566  0.5159  0.1299
  136TCq2    C8 2077   4.184   3.060   9.859  0.0793  0.8132 -0.3038
  136TCq2    O4 2078   4.193   3.059   9.737 -0.0040  0.0949  0.0924
  136TCq2    C9 2079   4.177   3.265  10.289  0.6401 -0.0270 -0.6626
  136TCq2    O5 2080   4.064   3.212  10.310  0.2046 -0.4827  0.0021
  136TCq2    O6 2081   4.258   3.320  10.371  0.6576  0.3559 -0.1493
  136TCq2    H2 2082   4.396   3.397  10.189  0.0681 -1.8683  1.7257
  136TCq2    H3 2083   4.069   3.135  10.098 -1.7194 -0.5610 -3.6411
  136TCq2    H4 2084   4.364   3.216   9.810  0.4775  0.3713  0.7616
  137MPD2     C 2085   4.234   1.629   9.360 -0.4793  0.1729 -1.2089
  137MPD2    C1 2086   4.173   1.728   9.439 -0.3980  0.8519  0.8044
  137MPD2    C2 2087   4.206   1.746   9.572  0.1190  0.2588 -0.2624
  137MPD2    C3 2088   4.287   1.643   9.627  0.0857 -0.9327 -0.8175
  137MPD2    C4 2089   4.349   1.540   9.555  0.5288  0.2322  0.4825
  137MPD2    C5 2090   4.316   1.532   9.419  0.7056 -0.1245 -0.4299
  137MPD2     H 2091   4.156   1.814   9.640 -2.0094  0.2809 -1.8385
  137MPD2    H1 2092   4.428   1.478   9.597  1.3365  0.0181 -1.3343
  137MPD2    H2 2093   4.218   1.630   9.253  1.4781  0.6857 -1.4961
  137MPD2    H3 2094   4.359   1.466   9.344  0.4021 -1.9609  0.9963
  137MPD2     N 2095   4.313   1.659   9.763 -0.9952 -0.1899 -0.2777
  137MPD2    H5 2096   4.258   1.733   9.805 -0.2646 -0.8408  1.8131
  137MPD2    N1 2097   4.082   1.821   9.379  0.3675  0.8302  0.4295
  137MPD2    H7 2098   4.058   1.815   9.281 -2.7800  1.8057  1.1578
  138TCq2    C1 2099   4.011   1.925   9.438 -0.2508 -0.1461 -0.4480
  138TCq2    O2 2100   3.983   1.948   9.555  0.2625 -0.2393  0.1998
  138TCq2    C2 2101   3.950   2.015   9.337  0.2301  0.1943  0.4582
  138TCq2    C3 2102   4.007   2.044   9.216 -0.4141 -0.4438  0.2201
  138TCq2    C4 2103   3.968   2.166   9.157 -0.2259  0.6208  0.8496
  138TCq2    C5 2104   3.886   2.255   9.218  0.3886 -0.4862  0.2425
  138TCq2    C6 2105   3.827   2.215   9.332  0.5611 -0.6089 -0.2680
  138TCq2    C7 2106   3.854   2.095   9.392 -0.2046  0.1248  0.0779
  138TCq2    C8 2107   3.797   2.317   9.430 -0.6946 -0.3308 -0.2269
  138TCq2    O4 2108   3.715   2.287   9.520 -0.6427  0.2180  0.1127
  138TCq2    C9 2109   4.035   2.203   9.034  0.0181 -0.5057 -0.0118
  138TCq2    O5 2110   4.107   2.112   8.989  0.4179 -0.5581  0.4654
  138TCq2    O6 2111   3.995   2.302   8.970  0.1783 -0.2162 -0.7800
  138TCq2    H2 2112   4.082   1.980   9.172  0.2570  2.2213 -2.4887
  138TCq2    H3 2113   3.867   2.351   9.171 -1.5372 -0.9546  0.0572
  138TCq2    H4 2114   3.801   2.079   9.485  0.1831  0.6423  0.3874
  139TMC2    C1 2115   4.450   0.995  13.378  0.3007 -0.7230 -0.3412
  139TMC2    C2 2116   4.370   0.991  13.263  0.4045 -0.4447  0.4800
  139TMC2    C3 2117   4.252   1.050  13.258 -0.2958 -0.8702 -0.4871
  139TMC2    C4 2118   4.397   1.052  13.490  0.0947  0.4705 -0.2795
  139TMC2    C5 2119   4.268   1.113  13.478  0.2491  0.5212  0.1527
  139TMC2    C6 2120   4.191   1.099  13.369 -0.3365 -0.0210  0.4701
  139TMC2     C 2121   4.558   0.900  13.400 -0.7767  0.1542 -0.2347
  139TMC2     O 2122   4.598   0.893  13.519  0.3305 -0.0175  0.3591
  139TMC2     H 2123   4.406   0.944  13.172 -1.8836 -1.1109 -0.0664
  139TMC2    H1 2124   4.439   1.039  13.589 -1.4567 -3.2079 -0.0930
  139TMC2    H2 2125   4.084   1.115  13.370 -0.1844  1.0164 -0.1945
  139TMC2    C7 2126   4.206   1.189  13.586 -0.0780  0.3999  0.2226
  139TMC2    C8 2127   4.163   0.990  13.163  0.4658 -0.0376 -0.5491
  139TMC2    O1 2128   4.086   1.201  13.589 -0.0662 -0.4619 -0.6247
  139TMC2    O2 2129   4.172   0.878  13.120 -0.5218  0.0612  0.0108
  139TMC2    O5 2130   4.142   1.097  13.079  0.3968 -0.0836  0.0590
  139TMC2    H5 2131   4.164   1.173  13.137 -0.0320  0.4045 -0.4188
  140MPD2     C 2132   4.665   0.614  13.451  0.5723 -0.4953  1.2117
  140MPD2    C1 2133   4.614   0.658  13.328  0.9595  0.3691  0.1540
  140MPD2    C2 2134   4.618   0.578  13.220  0.0906 -0.4912 -0.1775
  140MPD2    C3 2135   4.667   0.448  13.224 -0.0648 -0.7097 -0.1552
  140MPD2    C4 2136   4.722   0.409  13.343  0.3444  0.0353  0.3007
  140MPD2    C5 2137   0.006   0.491  13.454 -0.4506  0.1832 -0.2517
  140MPD2     H 2138   4.570   0.617  13.132  1.4393 -0.0193 -0.7050
  140MPD2    H1 2139   0.052   0.315  13.353  0.2533 -0.0465  0.0116
  140MPD2    H2 2140   4.675   0.680  13.537 -0.6573  1.9805 -0.5512
  140MPD2    H3 2141   0.047   0.448  13.545  2.2027  0.3351 -1.3653
  140MPD2     N 2142   4.663   0.368  13.108  0.4016  0.2037 -0.3954
  140MPD2    H5 2143   4.622   0.410  13.025 -0.5624  0.8923  0.4211
  140MPD2    N1 2144   4.561   0.795  13.309 -0.3678  0.5143 -0.3888
  140MPD2    H7 2145   4.513   0.819  13.223  0.2569 -2.6154 -1.6149
  141TCq2    C1 2146   0.114   1.925  14.208  1.0019 -0.6929  0.0776
  141TCq2    O2 2147   0.032   1.987  14.141  0.2715 -0.1864  0.0593
  141TCq2    C2 2148   0.164   2.004  14.321  0.0100  0.1459 -0.5391
  141TCq2    C3 2149   0.280   1.960  14.377  0.3111 -0.1217  0.6624
  141TCq2    C4 2150   0.330   2.030  14.481  0.5903 -0.3347 -0.5360
  141TCq2    C5 2151   0.294   2.161  14.495 -1.0139  0.7015  0.3860
  141TCq2    C6 2152   0.188   2.218  14.419  0.7954 -0.3532 -0.0654
  141TCq2    C7 2153   0.115   2.134  14.335 -0.0446  0.2393 -0.5526
  141TCq2    C8 2154   0.152   2.360  14.441  0.1904  0.4222  0.5844
  141TCq2    O4 2155   0.041   2.405  14.409  0.1027  0.3508 -0.3824
  141TCq2    C9 2156   0.449   1.986  14.539  0.1302  0.2614 -0.8351
  141TCq2    O5 2157   0.505   1.885  14.486  0.0208  0.0107  0.6248
  141TCq2    O6 2158   0.520   2.080  14.587  0.1016 -0.2073 -0.4718
  141TCq2    H2 2159   0.311   1.856  14.370 -0.5514 -0.3485  0.1881
  141TCq2    H3 2160   0.341   2.229  14.566 -1.5370  0.0846  1.3310
  141TCq2    H4 2161   0.025   2.173  14.288 -1.4750 -1.3392  0.8907
  142MPD2     C 2162   3.081   4.337   9.720 -0.4767 -0.8644 -0.2327
  142MPD2    C1 2163   3.058   4.301   9.848 -0.0340  0.5369 -0.0814
  142MPD2    C2 2164   3.006   4.388   9.942  0.1072  0.7582 -0.3062
  142MPD2    C3 2165   2.964   4.513   9.905  0.3994  0.2809  0.1970
  142MPD2    C4 2166   2.990   4.549   9.770 -0.6978  0.3088  0.0609
  142MPD2    C5 2167   3.056   4.468   9.685 -0.3896 -0.7064 -0.0838
  142MPD2     H 2168   2.993   4.357  10.045 -0.9974 -1.1429 -1.0146
  142MPD2    H1 2169   2.973   4.653   9.743 -2.1386 -0.3367 -1.5243
  142MPD2    H2 2170   3.119   4.270   9.644 -1.5230 -2.0498  0.2801
  142MPD2    H3 2171   3.089   4.505   9.588 -0.3568 -1.4175 -0.3438
  142MPD2     N 2172   2.903   4.603   9.990  0.3950 -0.2038  0.3700
  142MPD2    H5 2173   2.870   4.690   9.950 -3.2516 -2.2349 -1.0051
  142MPD2    N1 2174   3.098   4.168   9.865 -0.4316  0.0113 -0.2220
  142MPD2    H7 2175   3.135   4.123   9.783  0.2582 -0.7985  0.5360
  143TCq2    C1 2176   2.903   4.588  10.132 -0.0884 -0.4461 -0.4278
  143TCq2    O2 2177   2.949   4.498  10.201 -0.4223  0.1007 -0.0607
  143TCq2    C2 2178   2.805   4.680  10.192 -0.4012 -0.6092  0.8597
  143TCq2    C3 2179   2.778   4.674  10.329  0.1517 -0.1821  0.3449
  143TCq2    C4 2180   2.656   4.706  10.381  0.0579 -0.0878 -0.2234
  143TCq2    C5 2181   2.552   0.019  10.301  0.6764  0.2326 -0.3441
  143TCq2    C6 2182   2.581   0.045  10.168 -0.1504  0.2463 -0.0606
  143TCq2    C7 2183   2.704   0.012  10.108 -0.5983  0.1519  0.1929
  143TCq2    C8 2184   2.475   0.059  10.074 -0.1328 -0.0273  0.0207
  143TCq2    O4 2185   2.505   0.112   9.966 -0.6426  0.3235 -0.0499
  143TCq2    C9 2186   2.633   4.694  10.523 -1.0857 -0.8939 -0.0476
  143TCq2    O5 2187   2.723   4.652  10.600  0.4429 -0.0410  0.3693
  143TCq2    O6 2188   2.529   0.031  10.563  0.4329 -0.5342 -0.4086
  143TCq2    H2 2189   2.847   4.636  10.403  1.1129 -0.3328 -0.6377
  143TCq2    H3 2190   2.458   0.052  10.343  0.5875 -2.6345  1.6550
  143TCq2    H4 2191   2.726   0.033  10.004 -0.4982 -2.7031 -0.3822
  144MPD2     C 2192   0.794   4.659   0.748 -0.3641  0.5670  0.2112
  144MPD2    C1 2193   0.806   4.528   0.772  0.3884  0.5722  0.3888
  144MPD2    C2 2194   0.909   4.478   0.844  0.4563  0.3574 -0.1633
  144MPD2    C3 2195   1.007   4.562   0.894 -0.3704  0.1610 -0.4964
  144MPD2    C4 2196   0.996   4.698   0.865 -0.1814 -0.5911 -0.0487
  144MPD2    C5 2197   0.890   0.019   0.794 -0.5359 -0.1738  0.0340
  144MPD2     H 2198   0.912   4.371   0.863 -2.0110  0.2787 -0.2700
  144MPD2    H1 2199   1.075   0.042   0.892  1.1189 -1.6668 -1.1410
  144MPD2    H2 2200   0.706   4.707   0.707 -0.7952 -1.1851 -0.9485
  144MPD2    H3 2201   0.876   0.125   0.779  2.5339  0.5496  2.2893
  144MPD2     N 2202   1.134   4.523   0.942  0.0866 -0.1043 -0.6684
  144MPD2    H5 2203   1.188   4.601   0.978 -1.4904  0.1111  1.2256
  144MPD2    N1 2204   0.706   4.436   0.724 -0.2191 -0.6706 -0.1072
  144MPD2    H7 2205   0.713   4.339   0.752 -1.1015 -0.4950  0.7263
  145TCq2    C1 2206   1.184   4.394   0.957  0.2963 -0.3530  0.1899
  145TCq2    O2 2207   1.138   4.291   0.906 -0.1926  0.3801  0.4221
  145TCq2    C2 2208   1.317   4.381   1.020 -0.4648 -0.3885  0.6389
  145TCq2    C3 2209   1.403   4.276   0.970 -0.3565  0.7681 -0.9416
  145TCq2    C4 2210   1.536   4.273   1.016 -0.5527  0.4327 -0.2029
  145TCq2    C5 2211   1.578   4.367   1.099 -0.1612  0.4484 -0.1819
  145TCq2    C6 2212   1.494   4.462   1.149  0.2137 -0.9485  0.4436
  145TCq2    C7 2213   1.360   4.473   1.114 -0.1389  0.0459 -0.3529
  145TCq2    C8 2214   1.558   4.562   1.236 -0.5209 -0.6302  0.2497
  145TCq2    O4 2215   1.656   4.525   1.302  0.7516  0.0009 -0.7774
  145TCq2    C9 2216   1.624   4.165   0.980 -0.0717  0.2386 -0.6462
  145TCq2    O5 2217   1.747   4.155   1.014 -0.5934 -0.6207 -0.8187
  145TCq2    O6 2218   1.574   4.075   0.914 -0.4924  0.0169 -0.4833
  145TCq2    H2 2219   1.361   4.199   0.906  0.6256 -1.2529  0.8266
  145TCq2    H3 2220   1.681   4.373   1.133 -0.9400 -0.0047  2.2406
  145TCq2    H4 2221   1.291   4.541   1.162 -0.8784  0.2572 -1.7064
  146TMC2    C1 2222   2.357   3.172  12.121 -0.0968 -0.8080 -0.0655
  146TMC2    C2 2223   2.313   3.170  11.993  0.8076 -0.5471  0.2475
  146TMC2    C3 2224   2.388   3.103  11.902  0.2314 -0.0943  0.3656
  146TMC2    C4 2225   2.476   3.116  12.161  0.7547 -0.2313  0.0101
  146TMC2    C5 2226   2.544   3.039  12.069  0.2621 -0.0811  0.1357
  146TMC2    C6 2227   2.490   3.020  11.938  0.4609 -0.4534 -0.1798
  146TMC2     C 2228   2.268   3.239  12.212 -0.3936  1.0360 -0.2695
  146TMC2     O 2229   2.217   3.343  12.176  0.4985  0.4661 -0.5147
  146TMC2     H 2230   2.226   3.230  11.969  0.0963 -0.7823  2.2498
  146TMC2    H1 2231   2.515   3.136  12.260  2.0223  2.8236 -1.0915
  146TMC2    H2 2232   2.551   2.958  11.873  0.6499  1.2584 -1.6548
  146TMC2    C7 2233   2.674   2.981  12.106 -0.2665  0.1423  0.9006
  146TMC2    C8 2234   2.326   3.085  11.767  0.7577 -0.1704 -0.1635
  146TMC2    O1 2235   2.740   2.937  12.012 -0.3697  0.1071  0.1605
  146TMC2    O2 2236   2.392   3.066  11.662 -0.5292 -0.1867  0.0597
  146TMC2    O5 2237   2.206   3.029  11.795 -0.0329  0.2553  0.2425
  146TMC2    H5 2238   2.166   3.055  11.881 -1.2864 -2.6304  0.5381
  147MPD2     C 2239   3.073   2.928  12.433 -0.1072  0.2209  1.0539
  147MPD2    C1 2240   2.958   2.963  12.509 -0.1036 -0.7894 -0.0842
  147MPD2    C2 2241   2.843   2.989  12.442  0.4570 -0.2282  0.7928
  147MPD2    C3 2242   2.840   2.976  12.298  0.3063 -0.1542 -0.5285
  147MPD2    C4 2243   2.955   2.963  12.227 -0.2156  0.5611 -0.0457
  147MPD2    C5 2244   3.066   2.937  12.300 -0.4588  0.2165 -0.1633
  147MPD2     H 2245   2.752   3.021  12.492 -1.3026 -0.4840 -2.2215
  147MPD2    H1 2246   2.972   2.958  12.120  0.9771  1.2235  0.1119
  147MPD2    H2 2247   3.166   2.913  12.486  0.6936 -3.3729 -1.3139
  147MPD2    H3 2248   3.152   2.935  12.235  0.8502  1.6270  1.5465
  147MPD2     N 2249   2.710   2.992  12.242 -0.1720  0.0184 -0.1644
  147MPD2    H5 2250   2.630   3.012  12.301 -0.7844 -2.0695 -0.2540
  147MPD2    N1 2251   2.971   2.985  12.650 -0.3699 -0.7061 -0.3485
  147MPD2    H7 2252   3.070   2.984  12.675 -1.1436  2.5514  2.8276
  148MPD2     C 2253   2.177   1.460  10.322 -0.0685  0.0542  0.6118
  148MPD2    C1 2254   2.243   1.337  10.281 -0.6225 -0.1598  0.1635
  148MPD2    C2 2255   2.186   1.250  10.189 -0.0174 -0.3833 -0.1808
  148MPD2    C3 2256   2.075   1.295  10.119 -0.3889 -1.1749  0.7132
  148MPD2    C4 2257   2.021   1.426  10.149  0.6659 -0.1041 -0.4025
  148MPD2    C5 2258   2.068   1.504  10.249  0.1361 -0.8600  0.0447
  148MPD2     H 2259   2.236   1.161  10.152  0.6691  0.0198 -0.2334
  148MPD2    H1 2260   1.925   1.449  10.104  0.9162  2.0175  0.1609
  148MPD2    H2 2261   2.215   1.535  10.390  0.5678  1.8184 -1.6984
  148MPD2    H3 2262   2.020   1.597  10.278  0.5951 -1.2312  2.0012
  148MPD2     N 2263   2.027   1.247   9.999 -0.4224 -0.0173 -0.2067
  148MPD2    H5 2264   1.974   1.316   9.946 -0.5429  0.1031  0.0750
  148MPD2    N1 2265   2.371   1.294  10.333 -0.3099  0.3012 -0.1853
  148MPD2    H7 2266   2.422   1.215  10.295  1.2483  2.0497 -1.7039
  149TCq2    C1 2267   2.444   1.360  10.433 -0.2399 -0.5368 -0.2760
  149TCq2    O2 2268   2.419   1.473  10.478 -0.0049  0.2365  0.0585
  149TCq2    C2 2269   2.578   1.304  10.459 -0.7765 -0.4696  0.2484
  149TCq2    C3 2270   2.680   1.378  10.514  0.1473  0.4746  0.1344
  149TCq2    C4 2271   2.805   1.320  10.529 -0.2248  0.1839 -0.4132
  149TCq2    C5 2272   2.827   1.187  10.508  0.5353 -0.5918 -0.9034
  149TCq2    C6 2273   2.718   1.115  10.461  0.5790 -0.1288 -0.6309
  149TCq2    C7 2274   2.594   1.170  10.438 -0.1529  0.3441 -0.2249
  149TCq2    C8 2275   2.745   0.979  10.414 -0.0933  0.3256 -0.5970
  149TCq2    O4 2276   2.647   0.905  10.406  0.0530  0.2142  0.4708
  149TCq2    C9 2277   2.901   1.390  10.604  0.0781  0.2048 -0.6743
  149TCq2    O5 2278   2.853   1.489  10.663 -0.3764  0.0631 -0.1867
  149TCq2    O6 2279   3.004   1.331  10.635  0.2173 -0.3055  0.6423
  149TCq2    H2 2280   2.651   1.476  10.550  0.3933  1.6653 -2.8949
  149TCq2    H3 2281   2.919   1.136  10.530  0.6929  0.6856  1.3969
  149TCq2    H4 2282   2.516   1.116  10.386  0.4282  0.4723 -1.2299
  150MPD2     C 2283   3.879   1.201  12.225 -1.2534  0.7556 -0.2844
  150MPD2    C1 2284   3.924   1.197  12.098  0.2334  0.8722 -0.2554
  150MPD2    C2 2285   4.058   1.195  12.076  0.8963  0.2943 -0.3793
  150MPD2    C3 2286   4.149   1.219  12.176 -0.3823  0.8013 -0.1030
  150MPD2    C4 2287   4.107   1.241  12.304  0.3158  0.1416  0.1603
  150MPD2    C5 2288   3.970   1.224  12.326  0.5680  0.1739 -0.4115
  150MPD2     H 2289   4.097   1.184  11.975 -1.0395 -1.7411 -0.9090
  150MPD2    H1 2290   4.175   1.246  12.389  1.7585 -2.3818 -0.8385
  150MPD2    H2 2291   3.773   1.207  12.246 -1.2131  2.0377 -0.4669
  150MPD2    H3 2292   3.937   1.250  12.426  0.9000  1.8206 -0.7170
  150MPD2     N 2293   4.286   1.212  12.147 -0.0601  0.2379  0.5246
  150MPD2    H5 2294   4.321   1.170  12.062 -0.0404  1.4631 -0.0758
  150MPD2    N1 2295   3.827   1.164  12.003 -0.7692  0.2243  0.4287
  150MPD2    H7 2296   3.731   1.189  12.023 -0.7897  0.3552  0.1665
  151TCq2    C1 2297   4.385   1.259  12.227  0.3535  0.3105 -0.1990
  151TCq2    O2 2298   4.374   1.340  12.318  0.7360  0.3300  0.1107
  151TCq2    C2 2299   4.515   1.222  12.177 -0.6152  0.7646 -0.2343
  151TCq2    C3 2300   4.529   1.113  12.096  0.4403  0.0765  0.3264
  151TCq2    C4 2301   4.659   1.062  12.090 -0.1411  0.5325  0.0707
  151TCq2    C5 2302   0.033   1.102  12.172  0.9534  0.1256  0.0769
  151TCq2    C6 2303   0.014   1.218  12.247  0.6378 -1.5187  0.7105
  151TCq2    C7 2304   4.619   1.281  12.239 -0.6159  0.1041  0.2760
  151TCq2    C8 2305   0.102   1.262  12.352 -0.3154  0.6154  0.4142
  151TCq2    O4 2306   0.083   1.376  12.396 -0.8990 -0.1769 -0.4089
  151TCq2    C9 2307   4.676   0.942  12.012 -0.4488 -0.0182 -0.1101
  151TCq2    O5 2308   4.571   0.894  11.964  0.2735 -0.0146  0.2800
  151TCq2    O6 2309   0.062   0.884  12.006  0.2583 -0.1856 -0.6639
  151TCq2    H2 2310   4.455   1.080  12.023  0.3110  0.5849  0.2237
  151TCq2    H3 2311   0.132   1.058  12.174  1.4229  1.1264 -1.3940
  151TCq2    H4 2312   4.610   1.384  12.272 -2.9546  0.5248 -1.6719
  152MPD2     C 2313   3.298   0.989  12.876 -0.6364  0.2882  0.0952
  152MPD2    C1 2314   3.371   1.036  12.776 -0.2838 -0.5489  0.5450
  152MPD2    C2 2315   3.315   1.057  12.646  0.1459  0.1904 -0.3185
  152MPD2    C3 2316   3.178   1.045  12.628  0.0946  0.1683 -0.2659
  152MPD2    C4 2317   3.101   1.015  12.742 -0.5802 -0.1607 -0.3840
  152MPD2    C5 2318   3.161   0.970  12.860  0.6050  0.1284  0.7247
  152MPD2     H 2319   3.381   1.086  12.564  0.4146  1.5912  0.3983
  152MPD2    H1 2320   2.993   1.013  12.738 -0.6226  0.6662  0.0987
  152MPD2    H2 2321   3.350   0.968  12.968 -1.4099  1.4197  0.7834
  152MPD2    H3 2322   3.100   0.936  12.943 -0.5088  0.8261  0.1945
  152MPD2     N 2323   3.119   1.061  12.494 -0.1307 -0.1155 -0.1464
  152MPD2    H5 2324   3.183   1.069  12.416  0.8948 -1.0259  0.5932
  152MPD2    N1 2325   3.507   1.062  12.804 -0.0733  0.7066 -0.4009
  152MPD2    H7 2326   3.533   1.064  12.902 -2.7539 -0.6904  0.3301
  153TCq2    C1 2327   3.614   1.100  12.723 -0.0653  0.0873 -0.3999
  153TCq2    O2 2328   3.621   1.086  12.600 -0.3004 -0.6352 -0.4441
  153TCq2    C2 2329   3.737   1.134  12.795  0.1187 -0.8134 -0.6658
  153TCq2    C3 2330   3.719   1.213  12.907 -0.4657  0.0762  0.1927
  153TCq2    C4 2331   3.838   1.260  12.959 -0.4546  0.4890  0.0793
  153TCq2    C5 2332   3.957   1.242  12.897 -0.1977  0.3000  0.2179
  153TCq2    C6 2333   3.966   1.156  12.790 -0.0165  0.7520  0.1117
  153TCq2    C7 2334   3.853   1.109  12.723  0.4224  0.5923 -0.4885
  153TCq2    C8 2335   4.098   1.156  12.721  0.0718  0.6740  0.9173
  153TCq2    O4 2336   4.100   1.139  12.597  0.0259 -1.1208 -0.4337
  153TCq2    C9 2337   3.824   1.362  13.058 -0.5966  0.0327  0.4644
  153TCq2    O5 2338   3.936   1.400  13.111 -0.4981  0.0253  0.4244
  153TCq2    O6 2339   3.708   1.413  13.080  0.0146  0.1519 -0.6558
  153TCq2    H2 2340   3.621   1.237  12.946  0.4386  0.0421  2.4782
  153TCq2    H3 2341   4.030   1.313  12.935  1.4899 -0.8665 -0.9047
  153TCq2    H4 2342   3.860   1.053  12.631  0.2389 -1.8647  0.9913
  154MPD2     C 2343   0.813   0.873   0.220  0.5322  0.2260 -0.1954
  154MPD2    C1 2344   0.870   0.875   0.345 -0.1301  0.2785 -0.0647
  154MPD2    C2 2345   0.813   0.961   0.438  0.2039 -0.4554  0.4587
  154MPD2    C3 2346   0.699   1.032   0.410  0.1575 -0.1045  0.0487
  154MPD2    C4 2347   0.636   1.022   0.282 -0.4846 -0.3732  0.5088
  154MPD2    C5 2348   0.701   0.948   0.185  0.0053 -0.0906  0.1616
  154MPD2     H 2349   0.868   0.988   0.527 -0.5445 -2.7330  1.5964
  154MPD2    H1 2350   0.549   1.080   0.256  0.1168  0.6360  0.7388
  154MPD2    H2 2351   0.860   0.809   0.147 -0.0462  1.6066 -1.7676
  154MPD2    H3 2352   0.652   0.928   0.090  3.3582 -0.5877 -1.4319
  154MPD2     N 2353   0.661   1.114   0.517  0.0895 -0.0294  0.7267
  154MPD2    H5 2354   0.714   1.109   0.603 -0.3741 -0.3684  0.9913
  154MPD2    N1 2355   0.985   0.789   0.365  0.3009 -0.5490 -0.1751
  154MPD2    H7 2356   1.006   0.732   0.284  1.7163 -2.4609  1.5606
  155TCq2    C1 2357   1.034   0.761   0.491  0.4544  0.2941  0.0267
  155TCq2    O2 2358   1.003   0.808   0.600  0.0447  0.2798 -0.3615
  155TCq2    C2 2359   1.155   0.679   0.494  0.4236 -0.5900  0.3909
  155TCq2    C3 2360   1.221   0.680   0.613 -0.6222 -0.1559  0.5953
  155TCq2    C4 2361   1.351   0.642   0.611 -0.4321 -0.0082  0.3596
  155TCq2    C5 2362   1.415   0.586   0.502 -0.0648 -0.2768 -0.4168
  155TCq2    C6 2363   1.335   0.571   0.387  0.3937  0.2849  0.3536
  155TCq2    C7 2364   1.208   0.627   0.378  0.1486  0.2500 -0.2478
  155TCq2    C8 2365   1.392   0.519   0.271  0.3796 -0.9058  0.1900
  155TCq2    O4 2366   1.331   0.530   0.162  0.1612  0.4484 -0.2948
  155TCq2    C9 2367   1.432   0.678   0.727 -0.8064 -0.7673 -0.4197
  155TCq2    O5 2368   1.406   0.787   0.792  0.3144  0.1656 -0.2651
  155TCq2    O6 2369   1.543   0.619   0.733  0.0087  0.2332  0.0675
  155TCq2    H2 2370   1.186   0.735   0.700  1.4909  2.0824  0.0359
  155TCq2    H3 2371   1.519   0.556   0.503  0.2200  0.7682  0.9906
  155TCq2    H4 2372   1.152   0.629   0.285 -3.1933 -1.3208  1.7398
  156MPD2     C 2373   4.679   3.114  12.466  1.0908  0.2563  0.1982
  156MPD2    C1 2374   4.624   3.213  12.393 -1.1876  0.7549  0.1299
  156MPD2    C2 2375   4.511   3.276  12.444 -0.2287 -0.5512 -0.0745
  156MPD2    C3 2376   4.458   3.234  12.561  0.1138 -0.4261 -0.2956
  156MPD2    C4 2377   4.511   3.121  12.625  0.4653 -0.2964  0.0030
  156MPD2    C5 2378   4.631   3.063  12.583 -0.0391 -0.2612  0.0547
  156MPD2     H 2379   4.460   3.355  12.390 -0.5389 -1.0497 -0.5130
  156MPD2    H1 2380   4.457   3.076  12.707 -0.2049  0.6219  0.0665
  156MPD2    H2 2381   0.040   3.061  12.425 -0.7032 -3.1084  0.8585
  156MPD2    H3 2382   4.680   2.979  12.631  1.8092  0.8386  0.1212
  156MPD2     N 2383   4.347   3.308  12.608  0.3799 -0.3796  0.1213
  156MPD2    H5 2384   4.320   3.384  12.546 -1.2211 -1.1282 -0.1204
  156MPD2    N1 2385   4.671   3.239  12.262 -0.4465 -1.2412 -0.0649
  156MPD2    H7 2386   0.019   3.178  12.225 -1.9913 -3.3148  0.3436
  157TCq2    C1 2387   4.604   3.318  12.169 -0.3794 -0.0542  1.2636
  157TCq2    O2 2388   4.506   3.389  12.188 -0.2662 -0.4742  0.2374
  157TCq2    C2 2389   4.668   3.330  12.042 -0.0164 -0.2591  0.5740
  157TCq2    C3 2390   0.024   3.232  11.998  0.1469 -0.1549 -0.4955
  157TCq2    C4 2391   0.040   3.213  11.862  0.4406 -1.3570  0.0473
  157TCq2    C5 2392   4.710   3.292  11.766  0.4148 -0.0562  0.1377
  157TCq2    C6 2393   4.632   3.395  11.817  0.1102  0.0940  0.4734
  157TCq2    C7 2394   4.605   3.411  11.951 -0.5197  0.8459 -0.3006
  157TCq2    C8 2395   4.563   3.483  11.721  0.1294  0.0803  0.4555
  157TCq2    O4 2396   4.509   3.582  11.765 -0.0069 -0.2910 -0.0218
  157TCq2    C9 2397   0.120   3.103  11.816  0.3099  0.3884 -0.0560
  157TCq2    O5 2398   0.182   3.042  11.913  0.5455  1.0282 -0.0710
  157TCq2    O6 2399   0.078   3.041  11.714  0.3067  0.4188  0.4528
  157TCq2    H2 2400   0.048   3.150  12.064  0.5093 -0.2942 -0.7945
  157TCq2    H3 2401   0.025   3.278  11.666  1.1359  1.9201  0.1567
  157TCq2    H4 2402   4.536   3.491  11.976 -1.3302  0.9565 -2.8138
  158TMC2    C1 2403   3.899   2.418  13.079 -0.2870 -0.8546  0.4265
  158TMC2    C2 2404   3.877   2.490  12.964 -0.0231 -0.1129  0.7320
  158TMC2    C3 2405   3.752   2.480  12.906  0.2371  0.5797  0.5081
  158TMC2    C4 2406   3.813   2.323  13.127  0.2047 -0.2253  0.2005
  158TMC2    C5 2407   3.689   2.320  13.060 -0.2278 -0.3255 -0.0155
  158TMC2    C6 2408   3.657   2.404  12.957 -0.5854 -0.7973 -0.3000
  158TMC2     C 2409   4.017   2.448  13.154  0.6301 -0.2184 -0.1807
  158TMC2     O 2410   4.105   2.498  13.088 -0.5839  0.6376 -0.1025
  158TMC2     H 2411   3.948   2.566  12.932 -0.5839 -0.6744 -1.8580
  158TMC2    H1 2412   3.848   2.252  13.201  1.8844  0.0933 -0.2847
  158TMC2    H2 2413   3.565   2.396  12.901 -0.9747  2.4628 -0.1120
  158TMC2    C7 2414   3.593   2.214  13.089 -0.1914 -0.1105 -0.0261
  158TMC2    C8 2415   3.714   2.599  12.840 -0.3590 -0.0940 -0.8471
  158TMC2    O1 2416   3.490   2.204  13.020  0.0841 -0.3192  0.4239
  158TMC2    O2 2417   3.777   2.702  12.856  0.7161  0.1920  0.6409
  158TMC2    O5 2418   3.627   2.565  12.744  0.1124  0.1596  0.4601
  158TMC2    H5 2419   3.607   2.470  12.733 -2.2304  0.9612 -2.0443
  159MPD2     C 2420   4.329   2.346  13.545 -0.6357  0.0358 -0.4509
  159MPD2    C1 2421   4.203   2.321  13.591 -0.0147 -0.5089 -1.4289
  159MPD2    C2 2422   4.101   2.339  13.501  0.0090  0.0822 -0.5942
  159MPD2    C3 2423   4.122   2.400  13.378 -0.8336 -0.3734 -0.0535
  159MPD2    C4 2424   4.253   2.416  13.330 -0.1242  0.3587  0.1260
  159MPD2    C5 2425   4.354   2.388  13.420 -0.0027 -0.0973  0.0954
  159MPD2     H 2426   3.999   2.315  13.531  0.5163 -1.1137  0.1908
  159MPD2    H1 2427   4.282   2.456  13.233 -0.4012  2.1253  0.7809
  159MPD2    H2 2428   4.412   2.339  13.614 -1.6030 -0.7859  0.6246
  159MPD2    H3 2429   4.458   2.391  13.390  0.3793 -0.5465  1.3576
  159MPD2     N 2430   4.009   2.421  13.290 -0.1954  0.8867  0.2923
  159MPD2    H5 2431   3.915   2.395  13.320 -0.1802 -0.4167 -0.7825
  159MPD2    N1 2432   4.180   2.290  13.725  0.1821  0.5466 -0.8479
  159MPD2    H7 2433   4.260   2.272  13.784 -1.1808 -0.3107  0.7477
  160TMC2    C1 2434   0.515   4.482   1.552  0.0192  0.9371 -0.2254
  160TMC2    C2 2435   0.572   4.539   1.663  0.0873  0.3158  0.7828
  160TMC2    C3 2436   0.620   4.661   1.654 -0.5238 -0.6768 -0.1826
  160TMC2    C4 2437   0.519   4.549   1.438  0.1653  0.7699 -0.3594
  160TMC2    C5 2438   0.561   4.683   1.434 -0.0043  0.4070  0.4820
  160TMC2    C6 2439   0.619   0.012   1.544 -0.0469  0.2837  1.0702
  160TMC2     C 2440   0.393   4.413   1.572 -0.2260 -1.1575  0.5209
  160TMC2     O 2441   0.382   4.322   1.655  0.0746 -0.6137 -0.2279
  160TMC2     H 2442   0.553   4.503   1.764 -0.5614 -0.0675  0.5255
  160TMC2    H1 2443   0.479   4.501   1.349  1.3054 -0.1546 -0.3805
  160TMC2    H2 2444   0.633   0.119   1.544 -0.7235  0.3713 -1.4009
  160TMC2    C7 2445   0.445   0.032   1.386  0.7278  0.0912  0.0363
  160TMC2    C8 2446   0.634   0.013   1.775  0.3154 -0.5566  0.4208
  160TMC2    O1 2447   0.340   4.707   1.428  0.0547  0.2830  0.0853
  160TMC2    O2 2448   0.610   0.131   1.787  0.0427 -0.2705 -0.7483
  160TMC2    O5 2449   0.717   4.664   1.852  0.0262 -0.1470  0.0152
  160TMC2    H5 2450   0.769   4.601   1.798 -0.2695 -0.6933  0.3632
  161MPD2     C 2451   0.102   4.324   1.570 -0.5570 -0.5857 -0.2649
  161MPD2    C1 2452   0.151   4.432   1.501 -0.0495 -0.2722 -0.1998
  161MPD2    C2 2453   0.060   4.517   1.447  0.0357 -0.1952  1.1244
  161MPD2    C3 2454   4.648   4.508   1.454 -0.3752  0.2828 -0.1123
  161MPD2    C4 2455   4.601   4.392   1.517  0.1663  0.5583 -0.7213
  161MPD2    C5 2456   4.690   4.311   1.577 -0.1038  0.4887  0.0483
  161MPD2     H 2457   0.107   4.599   1.394 -1.0605 -1.1181 -1.2426
  161MPD2    H1 2458   4.495   4.368   1.515 -0.6109  3.5966  1.6393
  161MPD2    H2 2459   0.161   4.246   1.615  0.3183 -1.2666 -2.6016
  161MPD2    H3 2460   4.653   4.221   1.625  2.3877  0.1363  1.3007
  161MPD2     N 2461   4.567   4.600   1.391  0.0873  0.1037  0.2711
  161MPD2    H5 2462   4.468   4.580   1.389  0.3250 -0.8977 -1.5548
  161MPD2    N1 2463   0.291   4.466   1.495 -0.7605  0.5017  0.3562
  161MPD2    H7 2464   0.309   4.555   1.450 -2.9254  0.5634 -0.4028
  162TMC2    C1 2465   2.671   2.121   1.297 -0.5367 -0.5317 -0.5281
  162TMC2    C2 2466   2.627   2.205   1.193  0.4559  0.2019  0.6018
  162TMC2    C3 2467   2.606   2.336   1.225  0.1247  0.2891  0.4780
  162TMC2    C4 2468   2.706   2.162   1.417 -0.1161  0.5899  0.3696
  162TMC2    C5 2469   2.678   2.298   1.444 -0.1429  0.1650  0.4402
  162TMC2    C6 2470   2.621   2.381   1.348 -0.6183 -0.3511 -0.6160
  162TMC2     C 2471   2.728   1.993   1.250  0.0723 -0.8747 -0.5649
  162TMC2     O 2472   2.736   1.978   1.125 -0.3075  0.6835 -0.5897
  162TMC2     H 2473   2.613   2.166   1.093  1.4319  1.5226 -0.0474
  162TMC2    H1 2474   2.762   2.108   1.492 -1.2443  0.0712  0.8334
  162TMC2    H2 2475   2.591   2.481   1.377 -0.4601 -0.4964  0.0570
  162TMC2    C7 2476   2.687   2.359   1.577 -0.5738  0.2444 -0.4914
  162TMC2    C8 2477   2.534   2.410   1.121 -0.4814  0.3181  0.1877
  162TMC2    O1 2478   2.699   2.478   1.578 -0.0813 -0.6533 -0.0934
  162TMC2    O2 2479   2.534   2.377   1.004 -0.2238  0.0229  0.1706
  162TMC2    O5 2480   2.440   2.487   1.185  0.1927  0.0309  0.5100
  162TMC2    H5 2481   2.429   2.478   1.282 -0.7578 -0.0939  0.3918
  163MPD2     C 2482   2.864   1.501   1.315  0.3655  0.0928 -0.2104
  163MPD2    C1 2483   2.889   1.578   1.208  0.1693 -0.2920 -0.2502
  163MPD2    C2 2484   2.857   1.712   1.215  0.1401  0.4393  0.3450
  163MPD2    C3 2485   2.781   1.759   1.327 -0.1992  0.0506  0.6380
  163MPD2    C4 2486   2.753   1.676   1.431  0.2217 -0.4391 -0.1958
  163MPD2    C5 2487   2.804   1.546   1.427 -0.0401  0.6258 -0.7126
  163MPD2     H 2488   2.890   1.789   1.146 -0.0821  0.3494  0.1389
  163MPD2    H1 2489   2.708   1.710   1.524 -0.4094  1.3124 -1.1444
  163MPD2    H2 2490   2.890   1.396   1.307 -2.3927 -0.7115  1.2649
  163MPD2    H3 2491   2.769   1.477   1.504 -2.1274  2.5386  0.0593
  163MPD2     N 2492   2.727   1.889   1.346 -0.6583 -0.3147 -0.1898
  163MPD2    H5 2493   2.691   1.907   1.439  0.9055  2.6733 -0.1435
  163MPD2    N1 2494   2.945   1.512   1.094 -0.1677 -0.3171  0.3876
  163MPD2    H7 2495   2.950   1.411   1.092  2.8013 -0.1214 -1.7611
  164TCq2    C1 2496   2.797   1.092  10.975  0.4913 -0.2539  0.2857
  164TCq2    O2 2497   2.712   1.017  11.021 -0.4409  0.2116  0.3009
  164TCq2    C2 2498   2.782   1.233  11.023  0.3314  0.7262 -0.0134
  164TCq2    C3 2499   2.885   1.323  10.985 -0.4744  0.2275  0.5413
  164TCq2    C4 2500   2.902   1.431  11.069 -0.3514  0.0706 -0.2575
  164TCq2    C5 2501   2.810   1.458  11.172  0.2398 -0.9483 -0.1522
  164TCq2    C6 2502   2.713   1.365  11.202  0.5939 -0.2350  0.1465
  164TCq2    C7 2503   2.703   1.246  11.137  0.3437 -0.4839  0.4838
  164TCq2    C8 2504   2.601   1.396  11.286 -0.0041 -0.4101 -0.0876
  164TCq2    O4 2505   2.490   1.340  11.273 -0.4619 -0.0344 -0.1624
  164TCq2    C9 2506   3.003   1.538  11.030 -0.0490 -0.1881 -0.2493
  164TCq2    O5 2507   3.017   1.633  11.112  0.0772 -0.0287  0.4547
  164TCq2    O6 2508   3.064   1.533  10.921 -0.2041  0.0632 -0.5755
  164TCq2    H2 2509   2.935   1.316  10.889 -2.8924 -0.4178 -0.6843
  164TCq2    H3 2510   2.811   1.549  11.231  1.2021 -1.0882  0.0477
  164TCq2    H4 2511   2.621   1.181  11.166  0.0956  0.3170  1.5450
  165MPD2     C 2512   3.843   2.928   1.175 -0.3324 -0.0475  0.4342
  165MPD2    C1 2513   3.892   3.011   1.273  0.1127 -0.3575 -0.2003
  165MPD2    C2 2514   3.899   3.150   1.254 -0.2659 -0.3196 -0.3673
  165MPD2    C3 2515   3.859   3.198   1.127 -0.4203 -0.2942 -0.3077
  165MPD2    C4 2516   3.799   3.117   1.038  0.9119 -0.5819  0.5424
  165MPD2    C5 2517   3.792   2.983   1.057 -0.1512 -0.3264  0.3668
  165MPD2     H 2518   3.936   3.216   1.331  0.8724 -0.6727 -0.6117
  165MPD2    H1 2519   3.772   3.158   0.941 -0.3581 -1.6304  0.4511
  165MPD2    H2 2520   3.841   2.820   1.177  1.4608 -0.0621  2.5055
  165MPD2    H3 2521   3.752   2.931   0.971 -2.1670 -1.0371  1.7539
  165MPD2     N 2522   3.824   3.332   1.104  0.0453 -0.6002  0.0063
  165MPD2    H5 2523   3.767   3.351   1.023  0.8539  2.3778  0.1235
  165MPD2    N1 2524   3.915   2.944   1.397 -0.1406 -0.4240  0.8892
  165MPD2    H7 2525   3.863   2.857   1.409 -3.2414  1.1079 -1.5340
  166TCq2    C1 2526   3.891   3.435   1.160 -0.6077 -0.6280 -0.3814
  166TCq2    O2 2527   3.999   3.436   1.214 -0.0613  0.5984  0.7795
  166TCq2    C2 2528   3.855   3.562   1.097  0.8310 -0.4955  0.1742
  166TCq2    C3 2529   3.732   3.579   1.035 -0.1507 -0.6398 -0.0326
  166TCq2    C4 2530   3.722   3.669   0.930  0.6223  0.2782 -0.7578
  166TCq2    C5 2531   3.822   3.754   0.903 -0.4419 -0.5203 -0.1544
  166TCq2    C6 2532   3.938   3.742   0.971 -0.4706 -0.8624  1.0100
  166TCq2    C7 2533   3.964   3.645   1.058 -0.3842 -0.2176 -0.1182
  166TCq2    C8 2534   4.022   3.861   0.990  0.3670  1.1104 -0.0757
  166TCq2    O4 2535   4.126   3.842   1.051  0.5165 -0.5278  0.5696
  166TCq2    C9 2536   3.596   3.670   0.859 -0.1736  0.8723 -0.2383
  166TCq2    O5 2537   3.524   3.565   0.862  0.5027  0.1855  0.2798
  166TCq2    O6 2538   3.560   3.777   0.807 -0.1389 -0.0179 -0.3114
  166TCq2    H2 2539   3.656   3.508   1.064 -2.8310  2.5216  0.6757
  166TCq2    H3 2540   3.807   3.836   0.832 -0.2745 -0.6762 -0.3676
  166TCq2    H4 2541   4.065   3.632   1.097  0.2370  1.4068 -1.1858
  167TMC2    C1 2542   1.845   1.532  12.648 -0.0838 -0.3916 -0.4734
  167TMC2    C2 2543   1.764   1.586  12.738  0.5068  0.1662 -0.0707
  167TMC2    C3 2544   1.696   1.505  12.822 -0.3452 -1.2991  0.0532
  167TMC2    C4 2545   1.853   1.397  12.641  0.3137  0.0464  0.7103
  167TMC2    C5 2546   1.778   1.316  12.726 -0.1909  0.2805 -0.6588
  167TMC2    C6 2547   1.696   1.371  12.820 -0.5272  0.9207  0.1032
  167TMC2     C 2548   1.915   1.619  12.560 -0.3391  0.1842  1.0461
  167TMC2     O 2549   1.921   1.738  12.590 -0.2656 -0.0831 -0.3104
  167TMC2     H 2550   1.765   1.694  12.749 -1.0988  0.1448  0.2794
  167TMC2    H1 2551   1.934   1.346  12.590 -1.8549 -0.0904 -2.5853
  167TMC2    H2 2552   1.635   1.314  12.889 -0.7700 -0.8083 -1.5334
  167TMC2    C7 2553   1.786   1.174  12.731 -0.3778  0.1442  1.2315
  167TMC2    C8 2554   1.620   1.576  12.923  0.0640 -0.6348 -0.4186
  167TMC2    O1 2555   1.737   1.128  12.834  0.2771 -0.1334  0.4718
  167TMC2    O2 2556   1.649   1.688  12.960  0.5219 -1.0578 -0.0635
  167TMC2    O5 2557   1.549   1.492  12.992  0.0888  0.2156  0.2276
  167TMC2    H5 2558   1.508   1.528  13.074  0.6331  2.1809 -0.3710
  168MPD2     C 2559   2.057   1.740  12.320  0.2708  0.2098  0.6506
  168MPD2    C1 2560   2.024   1.608  12.338  0.9569  0.3349 -0.8059
  168MPD2    C2 2561   2.050   1.522  12.233 -0.5521  0.3630 -0.3325
  168MPD2    C3 2562   2.081   1.569  12.110  0.0194  0.0530  0.3401
  168MPD2    C4 2563   2.090   1.706  12.093  0.1800 -0.1555 -1.2404
  168MPD2    C5 2564   2.089   1.791  12.198  0.9337 -0.2676 -0.0007
  168MPD2     H 2565   2.022   1.417  12.239 -2.2212  0.8672  0.7209
  168MPD2    H1 2566   2.116   1.742  11.995 -1.5888 -1.1762 -2.0766
  168MPD2    H2 2567   2.062   1.809  12.404 -0.2628 -0.9753  1.6601
  168MPD2    H3 2568   2.106   1.898  12.194 -1.7187  0.1962  1.2521
  168MPD2     N 2569   2.071   1.487  11.997 -0.0066 -0.0730  0.6215
  168MPD2    H5 2570   2.048   1.528  11.907  0.5353 -0.0394  0.4963
  168MPD2    N1 2571   1.966   1.552  12.453 -0.2477 -0.0299 -0.1955
  168MPD2    H7 2572   1.958   1.452  12.463 -2.0487  0.1773  0.4330
  169MPD1     C 2573   0.298   0.031  10.039 -0.2590  0.3434  0.0428
  169MPD1    C1 2574   0.273   4.689   9.924 -0.5535  0.1560 -0.6506
  169MPD1    C2 2575   0.309   0.012   9.803 -0.3213 -0.4093 -0.2328
  169MPD1    C3 2576   0.366   0.138   9.794  0.1533  0.6333 -0.6848
  169MPD1    C4 2577   0.368   0.216   9.903  0.3216  0.3697  0.2117
  169MPD1    C5 2578   0.328   0.163  10.027  0.3199 -0.2520 -0.1167
  169MPD1     H 2579   0.291   4.671   9.719 -1.6802 -1.2000  0.6592
  169MPD1    H1 2580   0.395   0.321   9.892 -0.7053  0.6762  0.6640
  169MPD1    H2 2581   0.259   4.719  10.134  1.4677  0.0079  0.6162
  169MPD1    H3 2582   0.334   0.222  10.118 -0.9454  0.4512 -0.4897
  169MPD1     N 2583   0.408   0.182   9.665  0.0177  0.1385  0.0979
  169MPD1    H5 2584   0.390   0.116   9.590 -2.7072 -0.0300  0.9222
  169MPD1    N1 2585   0.244   4.557   9.940 -0.2449  0.1079 -0.1327
  169MPD1    H6 2586   0.198   4.534  10.028 -0.5350  0.1776 -0.2658
  169MPD1    H7 2587   0.187   4.526   9.861 -0.3889  2.7013 -1.0726
  170MPD1     C 2588   2.999   3.995  12.893 -0.1310  0.1542  1.0272
  170MPD1    C1 2589   3.013   4.130  12.908 -0.3902  0.9633 -0.2333
  170MPD1    C2 2590   3.033   4.174  13.033 -0.9878  1.0576  0.1193
  170MPD1    C3 2591   3.006   4.090  13.141 -0.5241 -0.0229  0.0435
  170MPD1    C4 2592   2.990   3.959  13.129 -0.6925  0.4671 -0.3948
  170MPD1    C5 2593   2.995   3.909  13.004  0.2912  0.2873 -0.0015
  170MPD1     H 2594   3.061   4.277  13.053  0.7326  0.3555  1.2659
  170MPD1    H1 2595   2.983   3.889  13.212 -0.6757  0.6025 -0.2807
  170MPD1    H2 2596   3.005   3.956  12.792  2.7621  0.7923  0.9434
  170MPD1    H3 2597   3.007   3.801  12.997  0.5655  0.2329  1.3005
  170MPD1     N 2598   3.020   4.161  13.265  0.0999 -0.3310 -0.1582
  170MPD1    H5 2599   3.043   4.260  13.257  0.3043 -0.3523  0.1287
  170MPD1    N1 2600   3.041   4.214  12.800  0.5547 -0.1171 -0.5296
  170MPD1    H6 2601   3.037   4.316  12.801 -1.4215 -0.2113  1.1156
  170MPD1    H7 2602   3.010   4.184  12.708 -2.3691  0.5995  0.2220
  171MPD1     C 2603   1.791   0.588  15.392  0.4720 -0.4178  0.2480
  171MPD1    C1 2604   1.804   0.459  15.352  0.2450  0.0063  0.0902
  171MPD1    C2 2605   1.900   0.384  15.416  0.2911  0.3232 -0.5038
  171MPD1    C3 2606   1.966   0.415  15.535  0.2824 -0.0712  0.3310
  171MPD1    C4 2607   1.944   0.548  15.581  0.5625  0.0788 -0.6227
  171MPD1    C5 2608   1.856   0.630  15.511  0.4491 -0.3954  0.0007
  171MPD1     H 2609   1.929   0.295  15.362  1.0969  0.7094 -0.7186
  171MPD1    H1 2610   1.990   0.580  15.674  0.6998  1.4411 -1.1600
  171MPD1    H2 2611   1.734   0.669  15.347  1.0194  0.7551  1.6618
  171MPD1    H3 2612   1.843   0.731  15.548  0.4704 -2.0621  4.5386
  171MPD1     N 2613   2.057   0.332  15.599 -0.2957 -0.2543  0.4141
  171MPD1    H5 2614   2.094   0.364  15.688 -1.3449 -2.0899  1.5103
  171MPD1    N1 2615   1.752   0.412  15.226 -1.0775  0.3114 -0.2673
  171MPD1    H6 2616   1.766   0.313  15.211  2.4730  1.0306 -1.5657
  171MPD1    H7 2617   1.651   0.425  15.235 -1.1872 -0.1759 -0.8011
  172MPD1     C 2618   0.867   4.019   0.472  0.4175 -0.0222  0.4382
  172MPD1    C1 2619   0.992   3.976   0.499  0.9206  0.3439  0.4975
  172MPD1    C2 2620   1.082   4.071   0.537 -0.5148 -0.9946 -0.3582
  172MPD1    C3 2621   1.059   4.204   0.529 -0.3105 -0.0249  0.0659
  172MPD1    C4 2622   0.937   4.250   0.493  0.5650  0.2209 -0.3619
  172MPD1    C5 2623   0.840   4.154   0.469 -0.4078  0.3553  0.0174
  172MPD1     H 2624   1.172   4.032   0.584 -0.8937  0.1770  1.3589
  172MPD1    H1 2625   0.913   4.356   0.492 -1.2662 -0.2084 -2.0645
  172MPD1    H2 2626   0.788   3.949   0.448 -0.5809  0.9765  0.7830
  172MPD1    H3 2627   0.740   4.192   0.448 -1.0189 -0.2694  1.8464
  172MPD1     N 2628   1.152   4.305   0.561 -0.4230 -0.3562 -0.5724
  172MPD1    H5 2629   1.121   4.401   0.544 -2.3548 -0.8253  0.3780
  172MPD1    N1 2630   1.010   3.843   0.537  0.2223  0.2307  0.1901
  172MPD1    H6 2631   0.951   3.778   0.485  0.9742  1.1681 -1.8351
  172MPD1    H7 2632   1.107   3.814   0.524 -0.2839 -1.6816  0.6135
  173MPD1     C 2633   2.350   4.282  14.412  0.2817 -0.2448 -0.5571
  173MPD1    C1 2634   2.346   4.378  14.507 -0.0210  0.6432  0.3080
  173MPD1    C2 2635   2.291   4.348  14.638  0.3963  0.6200  0.1576
  173MPD1    C3 2636   2.259   4.219  14.674  0.6064  0.8821 -0.2235
  173MPD1    C4 2637   2.275   4.120  14.574 -0.2703  0.1363 -0.4467
  173MPD1    C5 2638   2.310   4.153  14.446  0.4917 -0.3212  0.4570
  173MPD1     H 2639   2.290   4.424  14.716 -0.8508 -1.0687  1.7927
  173MPD1    H1 2640   2.254   4.016  14.595 -0.3999  0.3127  0.3079
  173MPD1    H2 2641   2.388   4.298  14.312  0.9861 -0.5121 -0.3298
  173MPD1    H3 2642   2.309   4.073  14.372 -1.2755  2.5422 -2.6473
  173MPD1     N 2643   2.235   4.187  14.813 -0.4220  0.0228 -0.1641
  173MPD1    H5 2644   2.232   4.268  14.875 -1.3485 -0.9464  1.0688
  173MPD1    N1 2645   2.361   4.504  14.462  0.0720 -0.1279  0.2877
  173MPD1    H6 2646   2.384   4.575  14.531  0.6501  0.3810 -0.4165
  173MPD1    H7 2647   2.443   4.512  14.402  1.7469  0.6747  2.6787
  174MPD1     C 2648   1.938   4.488  15.662  0.4990 -0.5270 -0.2250
  174MPD1    C1 2649   1.972   4.544  15.542 -0.5783 -0.2899 -0.6287
  174MPD1    C2 2650   2.058   4.475  15.462  0.8211  0.3996 -0.2925
  174MPD1    C3 2651   2.097   4.346  15.500 -0.1186  0.6665  0.3819
  174MPD1    C4 2652   2.069   4.299  15.624 -0.8048 -0.2903 -0.0140
  174MPD1    C5 2653   1.993   4.376  15.710  0.6305  0.2848  0.7333
  174MPD1     H 2654   2.082   4.516  15.364  2.1682  0.9882  0.2844
  174MPD1    H1 2655   2.115   4.208  15.661 -0.6373  0.0874  0.7004
  174MPD1    H2 2656   1.869   4.535  15.731 -0.7753 -2.0659 -0.4532
  174MPD1    H3 2657   1.977   4.337  15.810  0.5864  0.0218  0.6226
  174MPD1     N 2658   2.171   4.261  15.415 -0.2552 -0.3351 -0.7138
  174MPD1    H5 2659   2.192   4.174  15.463 -1.7869 -0.7467 -0.7934
  174MPD1    N1 2660   1.904   4.664  15.503 -0.0732 -0.1503  0.5650
  174MPD1    H6 2661   1.967   4.724  15.450  1.2241 -1.1983  0.9111
  174MPD1    H7 2662   1.850   4.713  15.573 -2.5395 -1.7763 -0.1829
  175MPD1     C 2663   1.027   0.799  15.517  0.9071  0.4078  0.3704
  175MPD1    C1 2664   0.905   0.756  15.504 -0.4906 -0.0674  0.7321
  175MPD1    C2 2665   0.872   0.643  15.577  0.2002 -0.6402  0.1097
  175MPD1    C3 2666   0.955   0.582  15.674  0.7233  0.5840  0.6750
  175MPD1    C4 2667   1.083   0.637  15.693 -0.3364 -0.2638  0.0119
  175MPD1    C5 2668   1.118   0.745  15.608 -0.2373  0.7008 -1.0173
  175MPD1     H 2669   0.770   0.609  15.561 -0.2977  1.5156 -1.2864
  175MPD1    H1 2670   1.158   0.600  15.762  0.6861  2.3603  0.2858
  175MPD1    H2 2671   1.056   0.885  15.457 -2.0575  1.1882  0.0699
  175MPD1    H3 2672   1.216   0.789  15.605 -1.0660  2.7158  1.3505
  175MPD1     N 2673   0.917   0.477  15.759  0.1858  0.1837  0.1942
  175MPD1    H5 2674   0.994   0.439  15.814 -1.5359 -1.5672  1.3668
  175MPD1    N1 2675   0.814   0.802  15.411  0.3762 -0.5720  0.7745
  175MPD1    H6 2676   0.848   0.891  15.376  0.6367 -1.4466 -1.2253
  175MPD1    H7 2677   0.723   0.816  15.454  0.6209  0.1276  1.0720
  176MPD1     C 2678   1.696   2.663  17.285 -0.0599  0.7240  0.1490
  176MPD1    C1 2679   1.796   2.568  17.300  0.2250 -0.1182 -0.0127
  176MPD1    C2 2680   1.900   2.595  17.392  0.4086 -0.0498 -0.2231
  176MPD1    C3 2681   1.892   2.704  17.477  0.4975 -0.2894  0.2836
  176MPD1    C4 2682   1.785   2.787  17.470  0.7826  0.4101 -0.9601
  176MPD1    C5 2683   1.693   2.765  17.371 -0.1672  0.0560 -0.0160
  176MPD1     H 2684   1.993   2.542  17.380 -1.0961 -2.7956  0.1602
  176MPD1    H1 2685   1.757   2.866  17.539  2.4196  0.3970 -0.2873
  176MPD1    H2 2686   1.632   2.665  17.198  0.7548  1.6502 -0.4303
  176MPD1    H3 2687   1.616   2.841  17.362 -0.1369  0.0021 -0.7452
  176MPD1     N 2688   2.007   2.725  17.557  0.3112  0.0929 -0.2572
  176MPD1    H5 2689   2.080   2.654  17.556  0.0227 -0.2173  0.3276
  176MPD1    N1 2690   1.813   2.463  17.210 -0.4806  0.7590  0.3663
  176MPD1    H6 2691   1.868   2.384  17.243 -1.0463  1.4696  2.9526
  176MPD1    H7 2692   1.731   2.433  17.156  0.0745 -0.9281  0.4659
  177MPD1     C 2693   0.621   1.751  10.613  0.7372 -0.4829  0.0933
  177MPD1    C1 2694   0.562   1.696  10.500  0.6067 -0.3346  0.3622
  177MPD1    C2 2695   0.532   1.779  10.394  0.3382  0.4431  0.5480
  177MPD1    C3 2696   0.572   1.915  10.383 -0.4561  0.0656  0.6352
  177MPD1    C4 2697   0.648   1.960  10.492  0.3572 -0.3702 -0.0684
  177MPD1    C5 2698   0.664   1.883  10.604  0.2550  0.5326  0.0886
  177MPD1     H 2699   0.482   1.743  10.305 -0.2002 -1.5753  1.6682
  177MPD1    H1 2700   0.680   2.063  10.498  1.0585 -0.5447 -0.8158
  177MPD1    H2 2701   0.631   1.696  10.706 -2.0249 -0.7291  0.2258
  177MPD1    H3 2702   0.710   1.929  10.691  2.5824 -1.0911 -0.2769
  177MPD1     N 2703   0.552   1.986  10.267 -1.4267 -0.6515  0.0605
  177MPD1    H5 2704   0.538   1.941  10.178 -2.6870 -2.1358  1.0121
  177MPD1    N1 2705   0.503   1.568  10.495 -0.7363 -0.3207 -0.0995
  177MPD1    H6 2706   0.536   1.528  10.407 -0.8090  0.3739 -0.4432
  177MPD1    H7 2707   0.543   1.512  10.570  2.2611  0.2396 -1.2652
  178MPD1     C 2708   3.427   2.357   0.630 -0.5763 -0.1331 -0.8569
  178MPD1    C1 2709   3.501   2.474   0.619 -0.1018  0.5816 -0.0738
  178MPD1    C2 2710   3.579   2.500   0.510  0.2575  0.6178  0.4968
  178MPD1    C3 2711   3.591   2.417   0.401  0.8054 -0.1963 -0.3711
  178MPD1    C4 2712   3.514   2.299   0.415  0.1395  0.1655  0.8690
  178MPD1    C5 2713   3.437   2.267   0.525  0.4746  0.4040  0.0262
  178MPD1     H 2714   3.640   2.590   0.513 -0.4299  1.1212 -0.9652
  178MPD1    H1 2715   3.517   2.219   0.342 -0.2512  2.6779 -1.9022
  178MPD1    H2 2716   3.379   2.323   0.720 -0.7955  1.7646 -0.2490
  178MPD1    H3 2717   3.388   2.171   0.534  1.2462 -0.2744 -3.0355
  178MPD1     N 2718   3.653   2.456   0.282  0.0620 -0.1869 -0.1752
  178MPD1    H5 2719   3.642   2.404   0.195  0.1423  1.4095 -1.1355
  178MPD1    N1 2720   3.466   2.577   0.711 -0.0329  0.3564  0.0774
  178MPD1    H6 2721   3.523   2.660   0.718  0.2959  0.0895  0.5480
  178MPD1    H7 2722   3.412   2.559   0.795  1.4386 -0.8944  0.7416
  179MPD1     C 2723   2.855   0.856  17.032 -0.7605 -0.3933 -0.0523
  179MPD1    C1 2724   2.813   0.983  16.990  0.6397  0.1063  0.5402
  179MPD1    C2 2725   2.838   1.019  16.860 -0.4029  0.4522  0.9160
  179MPD1    C3 2726   2.882   0.924  16.766  0.1272  0.4923 -0.5464
  179MPD1    C4 2727   2.923   0.802  16.810 -0.0706 -0.1875  0.5410
  179MPD1    C5 2728   2.906   0.769  16.942  0.1081 -0.1578  0.2458
  179MPD1     H 2729   2.819   1.122  16.834 -1.1534 -0.2417 -1.2895
  179MPD1    H1 2730   2.962   0.733  16.736 -0.1407 -0.3616  0.6688
  179MPD1    H2 2731   2.850   0.834  17.138 -4.5792  0.6268 -0.0155
  179MPD1    H3 2732   2.943   0.670  16.969  2.6863  0.5400 -0.7992
  179MPD1     N 2733   2.891   0.961  16.626  0.1313  0.1344 -0.0246
  179MPD1    H5 2734   2.920   0.884  16.566  2.2932  1.9321 -1.2463
  179MPD1    N1 2735   2.770   1.078  17.085 -0.6500 -0.9027  0.0385
  179MPD1    H6 2736   2.701   1.145  17.050 -0.2556 -1.3378 -1.5528
  179MPD1    H7 2737   2.721   1.054  17.172  1.3206  0.5068  1.5488
  180MPD1     C 2738   2.084   2.708  15.185 -0.3271 -0.2081  0.3187
  180MPD1    C1 2739   2.014   2.680  15.072 -0.2848 -0.4077  0.6332
  180MPD1    C2 2740   2.081   2.635  14.958 -0.4686 -0.8346 -0.3481
  180MPD1    C3 2741   2.219   2.657  14.955  0.1022 -0.3765  0.7781
  180MPD1    C4 2742   2.283   2.711  15.059  0.2496 -1.1118  0.4992
  180MPD1    C5 2743   2.216   2.737  15.167 -0.1486 -0.2683  0.5868
  180MPD1     H 2744   2.030   2.603  14.868 -1.9169  0.1582  0.1134
  180MPD1    H1 2745   2.391   2.718  15.062  0.2262 -0.5229 -0.1623
  180MPD1    H2 2746   2.046   2.727  15.284 -0.0003  1.5473  0.1119
  180MPD1    H3 2747   2.274   2.775  15.251  0.8109 -2.2832  0.8444
  180MPD1     N 2748   2.271   2.632  14.829  0.3422 -0.4165  0.6239
  180MPD1    H5 2749   2.203   2.611  14.757 -0.6200 -0.4181  1.5353
  180MPD1    N1 2750   1.879   2.658  15.093  0.3160  0.5277  0.6720
  180MPD1    H6 2751   1.819   2.669  15.012 -0.3265 -0.0203  1.0737
  180MPD1    H7 2752   1.839   2.717  15.166  1.0103  0.6842  0.9268
  181MPD1     C 2753   4.530   4.046   9.834 -0.2202 -0.6393 -0.0851
  181MPD1    C1 2754   4.583   4.138   9.751 -0.1985  0.0060 -0.3887
  181MPD1    C2 2755   4.719   4.152   9.739 -0.6521 -0.0694  0.2003
  181MPD1    C3 2756   0.086   4.072   9.802  0.1025  0.6385 -0.3184
  181MPD1    C4 2757   0.027   3.974   9.878 -0.1061  0.5553  0.4724
  181MPD1    C5 2758   4.614   3.969   9.902 -0.2725 -0.4431 -0.7395
  181MPD1     H 2759   0.027   4.229   9.671 -0.7661  1.2072  1.5771
  181MPD1    H1 2760   0.090   3.899   9.927  1.9179  1.3385 -0.9066
  181MPD1    H2 2761   4.425   4.029   9.852  0.0517  0.2629  2.3146
  181MPD1    H3 2762   4.577   3.888   9.964 -0.9075  0.7997  0.4814
  181MPD1     N 2763   0.227   4.080   9.792  0.3711 -0.4052  0.3808
  181MPD1    H5 2764   0.278   3.996   9.815  0.7362 -0.2997 -0.0380
  181MPD1    N1 2765   4.504   4.221   9.669 -0.6697  0.0374 -0.1005
  181MPD1    H6 2766   4.566   4.264   9.601  1.3651 -0.9887  1.0864
  181MPD1    H7 2767   4.421   4.178   9.629  0.0676  0.8057 -2.4640
  182MPD1     C 2768   0.159   1.825   1.529 -0.3910  0.1019  0.2293
  182MPD1    C1 2769   0.249   1.915   1.482 -0.8031 -0.0659  0.6854
  182MPD1    C2 2770   0.206   2.005   1.383  0.5015  0.2994 -0.4402
  182MPD1    C3 2771   0.091   1.986   1.311  0.5541 -0.2063 -0.2125
  182MPD1    C4 2772   4.723   1.890   1.359  0.3353  0.0385 -0.5017
  182MPD1    C5 2773   0.030   1.813   1.473 -0.5258  0.1337  0.2764
  182MPD1     H 2774   0.274   2.083   1.349  0.4865  0.8972  0.8760
  182MPD1    H1 2775   4.627   1.881   1.309  0.6038 -1.9514 -0.6730
  182MPD1    H2 2776   0.199   1.759   1.605 -2.8803  0.2560  1.6751
  182MPD1    H3 2777   4.680   1.755   1.527 -0.9066 -0.7478 -1.1947
  182MPD1     N 2778   0.055   2.073   1.206  0.1667 -0.9324  0.1112
  182MPD1    H5 2779   4.683   2.056   1.181 -0.5919  2.7090  0.5802
  182MPD1    N1 2780   0.367   1.940   1.559  0.0058 -0.3322  0.3109
  182MPD1    H6 2781   0.418   1.857   1.586  0.0223 -0.2037  0.6737
  182MPD1    H7 2782   0.434   1.991   1.501 -0.0930 -1.0133 -0.3885
  183MPD1     C 2783   2.417   4.002  10.011 -0.2962 -0.2631  0.4422
  183MPD1    C1 2784   2.344   3.916  10.095  0.0712 -0.1350 -0.3618
  183MPD1    C2 2785   2.212   3.890  10.060  0.2540  0.1175  0.1227
  183MPD1    C3 2786   2.153   3.959   9.953  0.5286  0.0415  0.4101
  183MPD1    C4 2787   2.228   4.052   9.880 -0.5849  0.4743  0.0767
  183MPD1    C5 2788   2.358   4.079   9.914  0.0599  0.0119 -0.0919
  183MPD1     H 2789   2.149   3.832  10.127 -2.5940  2.2819 -0.6665
  183MPD1    H1 2790   2.180   4.108   9.800 -0.9051 -2.2722 -1.6492
  183MPD1    H2 2791   2.525   4.008  10.019 -0.1478 -1.0120 -0.9782
  183MPD1    H3 2792   2.408   4.158   9.858 -1.5120  0.3538 -1.0102
  183MPD1     N 2793   2.015   3.937   9.925 -0.5688 -0.0988 -0.6135
  183MPD1    H5 2794   1.973   3.993   9.851  0.3925  1.2591 -0.1417
  183MPD1    N1 2795   2.405   3.845  10.201  0.0141  0.1935  0.4966
  183MPD1    H6 2796   2.496   3.885  10.224  0.2855 -0.2569  0.1997
  183MPD1    H7 2797   2.339   3.827  10.277  0.2912 -2.6251  0.0854
  184MPD1     C 2798   4.485   1.226  10.475 -0.4451 -0.0613 -0.6057
  184MPD1    C1 2799   4.524   1.162  10.360 -0.6525 -0.3162  0.2954
  184MPD1    C2 2800   4.622   1.216  10.280  0.1456 -0.1931  0.1228
  184MPD1    C3 2801   4.690   1.332  10.316  0.4283 -0.0744 -0.3559
  184MPD1    C4 2802   4.656   1.390  10.434 -0.0066  0.0667 -0.2444
  184MPD1    C5 2803   4.558   1.338  10.516  0.5748  0.6100 -1.0331
  184MPD1     H 2804   4.633   1.173  10.181 -1.2725 -0.1734 -0.0389
  184MPD1    H1 2805   4.709   1.480  10.464  1.2364 -0.7556  0.0433
  184MPD1    H2 2806   4.397   1.190  10.528 -0.6485 -0.0040 -0.9046
  184MPD1    H3 2807   4.543   1.383  10.614 -0.4741 -1.1450 -0.3870
  184MPD1     N 2808   0.052   1.402  10.223 -0.8500  0.2870  0.4398
  184MPD1    H5 2809   0.082   1.489  10.268 -0.7711  0.5465 -0.1132
  184MPD1    N1 2810   4.448   1.058  10.306 -0.1899  0.5917 -0.0669
  184MPD1    H6 2811   4.511   0.992  10.262 -1.1518 -1.4530  1.6265
  184MPD1    H7 2812   4.400   1.007  10.380 -0.8509 -0.2967 -1.1044
  185MPD1     C 2813   0.046   1.629   9.176  0.4170  0.6412  0.3707
  185MPD1    C1 2814   0.032   1.504   9.228 -0.4512  0.2934  0.1306
  185MPD1    C2 2815   0.031   1.488   9.363  0.1208  0.3223 -0.5564
  185MPD1    C3 2816   0.019   1.599   9.451 -1.2967  0.1843  0.4778
  185MPD1    C4 2817   0.022   1.723   9.390 -0.4799 -0.7256  0.7654
  185MPD1    C5 2818   0.040   1.739   9.258 -0.6754  1.0190  0.3393
  185MPD1     H 2819   0.045   1.388   9.402 -0.7708 -0.6177 -2.6295
  185MPD1    H1 2820   0.011   1.819   9.438 -2.0125  0.7558 -2.5104
  185MPD1    H2 2821   0.059   1.642   9.069 -0.1244  2.0691  0.4788
  185MPD1    H3 2822   0.034   1.842   9.225  0.1734  0.6800 -0.8920
  185MPD1     N 2823   0.008   1.588   9.588 -0.3637  0.1618 -0.2769
  185MPD1    H5 2824   0.008   1.680   9.630 -0.8388 -0.5626  1.2979
  185MPD1    N1 2825   0.067   1.392   9.159  0.3995 -0.0338 -0.0052
  185MPD1    H6 2826   4.723   1.318   9.178 -0.1547  0.6293  0.5738
  185MPD1    H7 2827   0.078   1.406   9.059  0.7299  1.8145  0.2984
  186MPD1     C 2828   2.567   1.453  15.739  0.2739 -0.0758  0.3760
  186MPD1    C1 2829   2.693   1.396  15.732 -0.2537  0.3694 -0.2669
  186MPD1    C2 2830   2.776   1.401  15.841  0.2645  0.4487 -0.8496
  186MPD1    C3 2831   2.745   1.480  15.950  0.7197 -0.0869  0.0957
  186MPD1    C4 2832   2.621   1.541  15.949 -0.8397 -0.2986 -0.0299
  186MPD1    C5 2833   2.531   1.520  15.852  0.0523 -0.2785  0.1030
  186MPD1     H 2834   2.879   1.369  15.835 -0.5771 -2.2941 -0.7678
  186MPD1    H1 2835   2.589   1.606  16.030  0.2035 -1.4531  1.3159
  186MPD1    H2 2836   2.490   1.432  15.666 -0.2320 -1.5125  1.3181
  186MPD1    H3 2837   2.432   1.560  15.870 -0.1181 -0.6199 -0.0771
  186MPD1     N 2838   2.832   1.496  16.064 -0.5509  0.2961 -0.3873
  186MPD1    H5 2839   2.796   1.555  16.138 -1.1307 -0.4754 -0.0549
  186MPD1    N1 2840   2.732   1.327  15.619  0.2911  0.2488  0.1117
  186MPD1    H6 2841   2.826   1.348  15.587  0.4086  0.3851  0.5511
  186MPD1    H7 2842   2.679   1.353  15.536 -1.1955 -2.2459  0.2947
  187MPD1     C 2843   3.029   3.853  17.423  0.4735  0.0981  0.1934
  187MPD1    C1 2844   2.913   3.841  17.338  0.4293  0.6228  0.2137
  187MPD1    C2 2845   2.805   3.765  17.380 -0.0514 -0.4622  0.6702
  187MPD1    C3 2846   2.807   3.707  17.507  0.6068 -0.1242 -0.2529
  187MPD1    C4 2847   2.922   3.714  17.576  0.1846  0.2627 -0.5069
  187MPD1    C5 2848   3.034   3.783  17.539  0.6152  0.4429 -0.2328
  187MPD1     H 2849   2.720   3.760  17.313  2.8305 -0.3632 -3.0214
  187MPD1    H1 2850   2.930   3.656  17.667 -1.1031 -0.5977 -0.9473
  187MPD1    H2 2851   3.120   3.902  17.393 -0.0519  1.0623  0.1583
  187MPD1    H3 2852   3.123   3.772  17.600  0.6273 -1.5696 -0.6103
  187MPD1     N 2853   2.699   3.624  17.564  0.0288 -0.5114 -0.2402
  187MPD1    H5 2854   2.713   3.617  17.664  0.0201  3.0291  0.0185
  187MPD1    N1 2855   2.915   3.898  17.208 -0.2462 -0.7802 -0.4305
  187MPD1    H6 2856   2.970   3.984  17.202 -0.3767 -0.6279  0.5660
  187MPD1    H7 2857   2.824   3.914  17.167  0.0010  2.2995  0.2158
  188MPD1     C 2858   3.063   3.044   9.692  0.0054 -0.3068  0.1482
  188MPD1    C1 2859   3.110   2.914   9.664 -0.9633  0.5830 -0.6313
  188MPD1    C2 2860   3.056   2.815   9.745 -0.4816 -0.0705 -0.0427
  188MPD1    C3 2861   2.982   2.844   9.857  0.1453  0.1807 -0.0257
  188MPD1    C4 2862   2.933   2.971   9.874  1.0347  0.3494 -0.2144
  188MPD1    C5 2863   2.979   3.068   9.793  0.4125  1.0281 -0.5739
  188MPD1     H 2864   3.074   2.711   9.718  1.2250  0.0726  0.5081
  188MPD1    H1 2865   2.892   3.010   9.966 -2.4533  0.0830 -1.6542
  188MPD1    H2 2866   3.075   3.121   9.616 -2.6716  0.6074  0.6482
  188MPD1    H3 2867   2.937   3.167   9.804 -0.7658  0.5553 -0.8227
  188MPD1     N 2868   2.932   2.748   9.950 -0.3917  0.1603 -0.6066
  188MPD1    H5 2869   2.862   2.781  10.015  0.0711  0.3425 -0.1953
  188MPD1    N1 2870   3.171   2.883   9.538  0.6419  0.4457 -0.4900
  188MPD1    H6 2871   3.222   2.796   9.551  0.8365  1.3558  4.7774
  188MPD1    H7 2872   3.226   2.964   9.510 -2.4269  1.9971 -2.0571
  189MPD1     C 2873   4.300   3.302   0.470  0.9474 -0.5238 -0.1173
  189MPD1    C1 2874   4.177   3.254   0.516  0.2216  0.0776  0.2574
  189MPD1    C2 2875   4.064   3.310   0.453  0.1577  0.5790 -0.0859
  189MPD1    C3 2876   4.072   3.399   0.343 -0.0226 -0.0616  0.6944
  189MPD1    C4 2877   4.201   3.432   0.297 -0.2019  0.2501 -0.4994
  189MPD1    C5 2878   4.311   3.395   0.372  0.2577  0.2842 -0.0916
  189MPD1     H 2879   3.966   3.288   0.493  0.6559  0.5690  1.1129
  189MPD1    H1 2880   4.215   3.493   0.209  1.0157  0.7188  0.0226
  189MPD1    H2 2881   4.386   3.251   0.512  2.5170  0.8522 -1.6696
  189MPD1    H3 2882   4.410   3.423   0.339  0.6643 -0.3471  0.5773
  189MPD1     N 2883   3.950   3.450   0.284  0.1060 -0.7086  0.0841
  189MPD1    H5 2884   3.861   3.437   0.330  0.6602 -1.9039  0.7926
  189MPD1    N1 2885   4.158   3.173   0.635  0.5815  0.2874 -0.1517
  189MPD1    H6 2886   4.071   3.124   0.655  0.5699  0.2911 -0.1916
  189MPD1    H7 2887   4.235   3.110   0.654  1.0913  1.5185  1.8387
  190MPD1     C 2888   2.269   2.392  15.793  0.7000  0.6862 -0.1430
  190MPD1    C1 2889   2.310   2.500  15.866  0.4570  0.5375 -0.2078
  190MPD1    C2 2890   2.446   2.528  15.875  0.0315 -0.2591 -0.2356
  190MPD1    C3 2891   2.536   2.450  15.799  0.7777  0.6961 -0.2394
  190MPD1    C4 2892   2.492   2.335  15.731  0.2778 -0.3034 -0.1819
  190MPD1    C5 2893   2.353   2.308  15.727  1.0021 -0.0536 -0.3564
  190MPD1     H 2894   2.478   2.613  15.934  1.1028  0.5980 -2.0720
  190MPD1    H1 2895   2.553   2.277  15.663 -0.0324  0.0382 -0.7555
  190MPD1    H2 2896   2.162   2.375  15.784  0.6187  1.3477 -0.3814
  190MPD1    H3 2897   2.303   2.236  15.662 -1.7708  1.7752 -0.2814
  190MPD1     N 2898   2.674   2.498  15.812  0.5913 -0.4583 -0.2948
  190MPD1    H5 2899   2.694   2.585  15.862  0.1622 -0.5818  0.0941
  190MPD1    N1 2900   2.214   2.564  15.940 -0.3542  0.4748  0.0979
  190MPD1    H6 2901   2.238   2.662  15.956  0.9720 -0.2796  2.6659
  190MPD1    H7 2902   2.126   2.580  15.891 -0.6326 -0.2809  0.3687
  191MPD1     C 2903   1.784   4.067  11.605  0.7844  0.0719 -0.3221
  191MPD1    C1 2904   1.833   4.189  11.598  0.9122  0.7252  0.1414
  191MPD1    C2 2905   1.894   4.241  11.715 -0.2656  0.3719  0.2916
  191MPD1    C3 2906   1.899   4.171  11.833 -0.0526  0.0889  0.8192
  191MPD1    C4 2907   1.841   4.052  11.832 -0.6029 -0.5011  0.5579
  191MPD1    C5 2908   1.789   3.998  11.720 -0.2623 -0.0844  0.6581
  191MPD1     H 2909   1.930   4.343  11.711 -1.3969  0.8233  1.8212
  191MPD1    H1 2910   1.843   3.996  11.925 -0.0300 -0.0506  0.8208
  191MPD1    H2 2911   1.744   4.012  11.521 -1.2824  1.9624 -0.5743
  191MPD1    H3 2912   1.748   3.898  11.723  0.0938 -0.2857 -1.2327
  191MPD1     N 2913   1.970   4.228  11.943  0.1376 -0.0962 -0.0123
  191MPD1    H5 2914   2.025   4.310  11.922 -0.7468  0.3931 -0.4130
  191MPD1    N1 2915   1.828   4.262  11.475  0.1530 -0.1243 -0.3294
  191MPD1    H6 2916   1.849   4.361  11.484 -0.1167 -0.2635  1.9135
  191MPD1    H7 2917   1.743   4.249  11.419  0.0410 -1.8399  0.2614
  192MPD1     C 2918   1.775   4.418  12.935  0.8116 -0.7473 -0.1175
  192MPD1    C1 2919   1.818   4.291  12.906 -0.0843  0.5801  0.2676
  192MPD1    C2 2920   1.907   4.270  12.805 -0.4176 -0.8765 -0.7404
  192MPD1    C3 2921   1.950   4.374  12.726  0.3510  0.1793  0.3180
  192MPD1    C4 2922   1.916   4.500  12.765 -0.8936 -0.0846 -0.3313
  192MPD1    C5 2923   1.831   4.523  12.867  0.6551  0.1173 -0.7872
  192MPD1     H 2924   1.920   4.169  12.769  1.2042 -0.0143 -2.5876
  192MPD1    H1 2925   1.959   4.587  12.716  1.0279 -1.0713 -0.3959
  192MPD1    H2 2926   1.708   4.437  13.018 -0.0022  2.9642 -1.6110
  192MPD1    H3 2927   1.812   4.625  12.899  1.5017 -0.4813  1.6869
  192MPD1     N 2928   2.014   4.364  12.596 -0.2168  0.8010  0.8017
  192MPD1    H5 2929   2.034   4.455  12.554 -1.6387  1.2444  1.1007
  192MPD1    N1 2930   1.757   4.185  12.969 -0.1939 -0.4067 -0.1218
  192MPD1    H6 2931   1.814   4.101  12.960  0.7184  0.3555 -1.4526
  192MPD1    H7 2932   1.729   4.209  13.064 -4.1360  2.5779 -2.0648
  193MPD1     C 2933   1.889   4.230  16.726  0.7913 -0.5836 -0.3069
  193MPD1    C1 2934   1.881   4.307  16.847  0.4469 -0.0195  0.7309
  193MPD1    C2 2935   1.935   4.439  16.841 -0.2390 -0.0776 -0.5824
  193MPD1    C3 2936   1.977   4.496  16.725  0.6528 -0.2744 -0.5282
  193MPD1    C4 2937   1.977   4.419  16.611 -0.0474  0.7431 -0.3749
  193MPD1    C5 2938   1.935   4.290  16.608  0.2493 -0.0686 -0.0374
  193MPD1     H 2939   1.941   4.488  16.937  1.2371 -0.4168 -0.5022
  193MPD1    H1 2940   2.021   4.465  16.523 -0.7645  1.0527 -0.5675
  193MPD1    H2 2941   1.849   4.129  16.717 -1.4286  0.2899 -0.2817
  193MPD1    H3 2942   1.933   4.240  16.512 -0.7228 -0.1898  0.0446
  193MPD1     N 2943   2.026   4.627  16.709  0.1894  0.2217 -0.3541
  193MPD1    H5 2944   2.045   4.658  16.614  2.1811 -1.4375 -0.4909
  193MPD1    N1 2945   1.861   4.246  16.968 -0.1206 -0.2227  0.6576
  193MPD1    H6 2946   1.808   4.159  16.965  2.3153 -1.7522  2.3674
  193MPD1    H7 2947   1.810   4.315  17.023 -0.5649  2.0946 -2.6091
  194MPD1     C 2948   4.720   1.929  16.298 -0.2169  0.0393  0.2659
  194MPD1    C1 2949   4.630   1.856  16.223  0.2273 -0.1723 -0.3527
  194MPD1    C2 2950   4.543   1.771  16.296  0.4991 -0.2414  0.1700
  194MPD1    C3 2951   4.569   1.738  16.423  0.0545  0.0936 -0.5563
  194MPD1    C4 2952   4.659   1.817  16.494  0.4660  0.4874  0.4408
  194MPD1    C5 2953   0.013   1.910  16.434 -0.4768  0.4633 -0.2667
  194MPD1     H 2954   4.461   1.719  16.247 -0.4893  1.1255  0.3499
  194MPD1    H1 2955   4.674   1.803  16.600  0.1943 -0.4102  0.3638
  194MPD1    H2 2956   0.057   2.008  16.254  0.0837 -0.6817 -0.6086
  194MPD1    H3 2957   0.085   1.967  16.491 -0.6364 -1.1325  1.5393
  194MPD1     N 2958   4.490   1.646  16.493  0.6503  0.3850  0.2413
  194MPD1    H5 2959   4.487   1.651  16.594  1.1266 -0.2317  0.2838
  194MPD1    N1 2960   4.594   1.902  16.097 -0.1740  0.5534 -0.5106
  194MPD1    H6 2961   4.672   1.940  16.045 -1.1718  1.9168 -1.0304
  194MPD1    H7 2962   4.538   1.838  16.041  1.7138  0.4948 -2.3206
  195MPD1     C 2963   1.368   4.425   0.201  0.3442 -0.4454 -0.6005
  195MPD1    C1 2964   1.294   4.310   0.215  0.5384  0.9210 -0.4933
  195MPD1    C2 2965   1.362   4.185   0.222  0.6152  0.0046  0.3568
  195MPD1    C3 2966   1.499   4.187   0.243 -0.3829  0.6482  0.4996
  195MPD1    C4 2967   1.573   4.304   0.233  0.1209  0.4198 -0.5977
  195MPD1    C5 2968   1.504   4.420   0.207 -0.4590 -0.3401 -0.3084
  195MPD1     H 2969   1.314   4.088   0.229 -2.2768  1.4664  0.9140
  195MPD1    H1 2970   1.681   4.307   0.240  0.1192  0.4855 -0.6052
  195MPD1    H2 2971   1.313   4.519   0.201  3.0395  1.1204 -2.0045
  195MPD1    H3 2972   1.557   4.514   0.194 -0.1110 -0.1106  2.8786
  195MPD1     N 2973   1.575   4.073   0.274 -0.0579 -0.3340 -0.6876
  195MPD1    H5 2974   1.675   4.082   0.257 -0.0860  2.7595  0.9130
  195MPD1    N1 2975   1.153   4.323   0.203  0.5288  0.4786 -0.0953
  195MPD1    H6 2976   1.115   4.244   0.255  1.9083  1.0606  1.7609
  195MPD1    H7 2977   1.129   4.300   0.106 -1.5389  0.1451  0.5071
  196MPD1     C 2978   0.950   2.437   0.598  0.2146 -0.3529 -0.1095
  196MPD1    C1 2979   0.951   2.573   0.563 -0.9989 -0.1883 -0.5921
  196MPD1    C2 2980   1.012   2.664   0.641  0.3066  0.3015  0.2070
  196MPD1    C3 2981   1.069   2.625   0.759  0.1006  0.9781 -0.6554
  196MPD1    C4 2982   1.054   2.492   0.798 -0.5835 -0.1508  0.2463
  196MPD1    C5 2983   1.005   2.399   0.716 -0.2476 -0.3190  0.3385
  196MPD1     H 2984   1.009   2.766   0.605 -2.2749  0.1590  0.0035
  196MPD1    H1 2985   1.077   2.462   0.899 -1.9314 -0.2292  0.5360
  196MPD1    H2 2986   0.903   2.355   0.545  2.2360 -1.1724 -0.6391
  196MPD1    H3 2987   0.979   2.299   0.748  1.4368 -1.3820 -1.6851
  196MPD1     N 2988   1.143   2.709   0.845  0.2143 -0.2392 -0.3698
  196MPD1    H5 2989   1.186   2.662   0.924 -0.4294 -1.5502 -0.8068
  196MPD1    N1 2990   0.897   2.615   0.436  0.2730 -0.1939 -0.1475
  196MPD1    H6 2991   0.876   2.714   0.433 -0.7701 -0.3866  0.6434
  196MPD1    H7 2992   0.809   2.575   0.404  1.2175 -1.5428 -1.0658
  197MPD1     C 2993   0.379   4.696  17.580 -0.3615 -0.1196  0.4687
  197MPD1    C1 2994   0.506   4.700  17.642 -0.3467 -0.6334 -0.0575
  197MPD1    C2 2995   0.612   0.038  17.573  0.0362 -0.2313 -0.5769
  197MPD1    C3 2996   0.591   0.090  17.447  0.7734  1.0232 -0.5680
  197MPD1    C4 2997   0.466   0.093  17.392 -0.5699  0.2869 -0.8278
  197MPD1    C5 2998   0.361   0.035  17.457  0.7702  0.3737  0.0981
  197MPD1     H 2999   0.710   0.040  17.619 -0.3483  1.0992  0.1777
  197MPD1    H1 3000   0.451   0.154  17.304  0.8753 -1.2367 -2.1433
  197MPD1    H2 3001   0.298   4.651  17.636  0.2365 -1.5805  0.1720
  197MPD1    H3 3002   0.265   0.043  17.407  0.4293  1.7409  0.9514
  197MPD1     N 3003   0.690   0.158  17.373  0.8750  0.2884 -0.0370
  197MPD1    H5 3004   0.664   0.195  17.282  1.4075  0.5485 -0.0802
  197MPD1    N1 3005   0.537   4.616   0.047 -0.2777  0.1393 -0.2434
  197MPD1    H6 3006   0.619   4.648   0.098  0.1663  0.5576 -1.2209
  197MPD1    H7 3007   0.557   4.526   0.004  0.1768  0.2215 -0.1949
  198MPD1     C 3008   2.086   2.830  15.735 -0.5122  0.8029 -0.0652
  198MPD1    C1 3009   2.205   2.776  15.679 -0.0131  0.4634 -0.2352
  198MPD1    C2 3010   2.327   2.818  15.728  0.6865  0.4408  0.3237
  198MPD1    C3 3011   2.333   2.907  15.846 -0.4381 -0.3201  0.2505
  198MPD1    C4 3012   2.211   2.957  15.897 -0.3357 -0.2129  0.1869
  198MPD1    C5 3013   2.095   2.916  15.839  0.0184  0.1012 -0.6792
  198MPD1     H 3014   2.416   2.789  15.674  0.6224  0.5868  0.1381
  198MPD1    H1 3015   2.207   3.033  15.974  0.6353  0.5301 -0.4935
  198MPD1    H2 3016   1.989   2.811  15.690 -0.5305  1.3660 -0.2659
  198MPD1    H3 3017   2.010   2.963  15.887 -0.4659 -1.1319 -0.3077
  198MPD1     N 3018   2.457   2.960  15.885 -0.1541  0.3781 -0.4136
  198MPD1    H5 3019   2.538   2.925  15.835  1.1623  1.9194  0.6705
  198MPD1    N1 3020   2.196   2.720  15.553  0.5085  0.3457  0.0554
  198MPD1    H6 3021   2.274   2.656  15.538 -1.9138 -2.0507 -2.1874
  198MPD1    H7 3022   2.119   2.655  15.546 -0.4845  1.3972  1.2049
  199MPD1     C 3023   0.779   3.348   9.676 -0.3564 -0.5005  0.2139
  199MPD1    C1 3024   0.799   3.411   9.555  0.6808  0.0557 -0.1747
  199MPD1    C2 3025   0.728   3.527   9.530 -0.0122 -0.4200 -0.3159
  199MPD1    C3 3026   0.640   3.576   9.626  0.0880 -0.2900 -0.2193
  199MPD1    C4 3027   0.620   3.508   9.746 -0.0191 -0.2338 -0.3842
  199MPD1    C5 3028   0.694   3.399   9.766  0.6625 -0.0527  0.6203
  199MPD1     H 3029   0.737   3.576   9.434 -1.1655  1.1256  0.3445
  199MPD1    H1 3030   0.545   3.538   9.818  0.9769  1.1860  0.0494
  199MPD1    H2 3031   0.834   3.256   9.693  0.8495  0.5021  1.7799
  199MPD1    H3 3032   0.677   3.343   9.858  1.9537 -0.5097  0.5878
  199MPD1     N 3033   0.558   3.690   9.598 -0.4874  0.4279  0.8587
  199MPD1    H5 3034   0.480   3.705   9.662 -0.9576  2.0159 -0.1005
  199MPD1    N1 3035   0.890   3.357   9.469  0.1593  0.3840  0.3438
  199MPD1    H6 3036   0.862   3.374   9.372  1.0543  0.9166  0.1801
  199MPD1    H7 3037   0.890   3.256   9.481 -4.3523  0.2509 -0.6142
  200MPD1     C 3038   4.211   4.507  16.091 -0.2351 -0.0915  0.5643
  200MPD1    C1 3039   4.112   4.424  16.033 -0.0484  0.2349 -0.2730
  200MPD1    C2 3040   4.056   4.459  15.911  0.2518  0.3038 -0.6085
  200MPD1    C3 3041   4.085   4.576  15.851 -0.4155 -0.7830  0.6006
  200MPD1    C4 3042   4.170   4.664  15.913  0.0069  0.1695 -0.1372
  200MPD1    C5 3043   4.234   4.625  16.029  1.0114  0.1867 -0.0020
  200MPD1     H 3044   3.993   4.390  15.855 -0.6465  0.3538  0.3471
  200MPD1    H1 3045   4.188   0.038  15.871 -2.8334 -0.4333 -2.7883
  200MPD1    H2 3046   4.269   4.477  16.178  1.1057 -0.0297 -0.3045
  200MPD1    H3 3047   4.293   4.705  16.073 -0.6530  2.7868 -2.5404
  200MPD1     N 3048   4.040   4.599  15.721 -0.5062  0.6535  0.4197
  200MPD1    H5 3049   3.973   4.539  15.674  1.0275  1.0366 -2.2418
  200MPD1    N1 3050   4.105   4.293  16.084  0.1001  0.2869  0.1200
  200MPD1    H6 3051   4.009   4.262  16.073  0.1187  1.9234 -4.7845
  200MPD1    H7 3052   4.132   4.306  16.181 -2.3302  3.6806  0.3491
  201MPD1     C 3053   0.955   4.039  12.999  0.5022 -0.4774 -0.0152
  201MPD1    C1 3054   1.027   3.976  13.101  0.2461 -0.6754  0.4829
  201MPD1    C2 3055   1.127   3.888  13.056  0.1195  0.9684  0.5062
  201MPD1    C3 3056   1.155   3.863  12.924  0.3323 -0.0430  0.7318
  201MPD1    C4 3057   1.079   3.930  12.827  0.7292  0.5584 -0.2276
  201MPD1    C5 3058   0.983   4.016  12.864 -0.0950 -0.1169  0.7564
  201MPD1     H 3059   1.172   3.831  13.136  1.3680 -1.6665 -2.0918
  201MPD1    H1 3060   1.099   3.927  12.720 -1.2492 -1.2261 -0.5361
  201MPD1    H2 3061   0.877   4.112  13.021  1.0522  0.3089 -0.6537
  201MPD1    H3 3062   0.919   4.062  12.790  2.4176 -0.2318 -1.4891
  201MPD1     N 3063   1.265   3.779  12.895 -0.5664  0.1053 -0.4645
  201MPD1    H5 3064   1.316   3.741  12.975 -3.7347  0.4578  1.7489
  201MPD1    N1 3065   1.010   4.018  13.232 -0.8264 -0.6103  0.2322
  201MPD1    H6 3066   0.917   4.051  13.259  0.6208  2.2286  1.7427
  201MPD1    H7 3067   1.032   3.939  13.292 -1.5098  0.1680  1.5142
  202MPD1     C 3068   2.052   2.561   9.879 -0.2011  0.1303 -0.1403
  202MPD1    C1 3069   2.071   2.668   9.968  0.2445  0.1115 -0.1025
  202MPD1    C2 3070   1.966   2.701  10.048 -0.9447 -0.4341  0.3043
  202MPD1    C3 3071   1.856   2.618  10.060 -0.5977  0.0126 -0.2081
  202MPD1    C4 3072   1.861   2.498   9.993 -0.3219  0.2247  0.2948
  202MPD1    C5 3073   1.958   2.468   9.902  0.0714 -0.4303  0.2602
  202MPD1     H 3074   1.953   2.803  10.081 -2.7383 -0.4635 -0.3045
  202MPD1    H1 3075   1.771   2.439   9.997 -0.1430  0.1429  3.4219
  202MPD1    H2 3076   2.127   2.544   9.802  1.0652 -3.2934  1.8472
  202MPD1    H3 3077   1.948   2.376   9.846  1.8018 -0.1307 -0.5513
  202MPD1     N 3078   1.741   2.660  10.123  0.4096  0.4874 -0.3141
  202MPD1    H5 3079   1.674   2.585  10.140 -0.1347  0.8267 -0.9612
  202MPD1    N1 3080   2.151   2.768   9.917  0.0911 -0.3231  0.0767
  202MPD1    H6 3081   2.236   2.734   9.874  0.8584  2.0453 -0.2951
  202MPD1    H7 3082   2.177   2.816  10.003  2.0492  2.7513 -2.2225
  203MPD1     C 3083   0.116   0.215  12.523  0.1667  0.0194  0.4225
  203MPD1    C1 3084   0.073   0.186  12.395 -0.5463  0.2106 -0.4147
  203MPD1    C2 3085   0.021   0.059  12.378 -0.3539 -0.2957  0.1933
  203MPD1    C3 3086   0.018   4.683  12.474  0.2276  0.4005 -0.3513
  203MPD1    C4 3087   0.042   0.005  12.602 -0.1583  0.4453 -0.3102
  203MPD1    C5 3088   0.102   0.125  12.628 -0.2346 -0.0725 -0.2539
  203MPD1     H 3089   4.710   0.024  12.281 -1.0937  0.8720  0.0427
  203MPD1    H1 3090   0.025   4.664  12.686  0.3345  0.9049  0.1473
  203MPD1    H2 3091   0.159   0.314  12.535 -0.3755  0.6682 -3.0070
  203MPD1    H3 3092   0.138   0.142  12.728 -0.9387 -0.2872  0.0389
  203MPD1     N 3093   4.698   4.551  12.444 -0.5117  0.0719 -0.4494
  203MPD1    H5 3094   4.669   4.532  12.348 -0.5764 -3.6319  0.3000
  203MPD1    N1 3095   0.063   0.279  12.290  0.1232 -0.3373  0.4217
  203MPD1    H6 3096   0.130   0.354  12.304  0.5432 -0.1377 -2.6761
  203MPD1    H7 3097   0.078   0.232  12.201  1.5341 -1.4799  1.2518
  204MPD1     C 3098   0.027   0.923  17.114  0.6007 -0.3320  0.3474
  204MPD1    C1 3099   4.695   0.918  16.989  0.6079  0.0731  0.3607
  204MPD1    C2 3100   4.645   0.795  16.947  0.0874 -0.0229 -0.0381
  204MPD1    C3 3101   4.648   0.687  17.029  0.5926 -0.4454 -0.0265
  204MPD1    C4 3102   0.001   0.690  17.144  0.1551  0.4678  0.5484
  204MPD1    C5 3103   0.046   0.809  17.195  0.2180 -0.2042 -0.1813
  204MPD1     H 3104   4.584   0.779  16.859  0.1004 -0.4979  0.0351
  204MPD1    H1 3105   0.010   0.605  17.210  2.5651  0.0767 -0.2870
  204MPD1    H2 3106   0.071   1.020  17.137 -0.3118  0.0373  0.5342
  204MPD1    H3 3107   0.102   0.808  17.288 -0.7341 -0.5461  0.3985
  204MPD1     N 3108   4.586   0.577  16.985 -0.5437  0.5926  0.6248
  204MPD1    H5 3109   4.541   0.582  16.894  0.1381 -0.4706  0.2307
  204MPD1    N1 3110   4.662   1.035  16.926 -0.2800  0.4411 -0.3067
  204MPD1    H6 3111   4.662   1.037  16.824  0.9368  0.7529 -0.3067
  204MPD1    H7 3112   0.000   1.109  16.959 -0.7396  0.6115  0.1862
  205MPD1     C 3113   0.409   3.635  17.069  0.0750  0.1170 -0.6191
  205MPD1    C1 3114   0.417   3.767  17.053 -0.1429  0.5829 -0.2249
  205MPD1    C2 3115   0.327   3.841  17.128 -0.2639 -0.0241 -0.1673
  205MPD1    C3 3116   0.232   3.781  17.200 -0.0593 -0.4967  0.3809
  205MPD1    C4 3117   0.225   3.646  17.216  0.3011 -0.3230  0.1723
  205MPD1    C5 3118   0.313   3.571  17.138  0.2708  0.1990  0.4220
  205MPD1     H 3119   0.326   3.949  17.125  2.0608 -0.0005  0.1970
  205MPD1    H1 3120   0.156   3.591  17.279 -2.3964  0.2947 -2.2509
  205MPD1    H2 3121   0.491   3.578  17.026 -0.4353  0.2579 -1.7572
  205MPD1    H3 3122   0.324   3.464  17.147  1.9141  0.2611 -0.7537
  205MPD1     N 3123   0.131   3.851  17.262 -0.0487 -0.7993  1.0247
  205MPD1    H5 3124   0.070   3.799  17.325 -1.8578  0.1273  0.0670
  205MPD1    N1 3125   0.530   3.814  16.985  0.3776 -0.1509  0.4445
  205MPD1    H6 3126   0.519   3.908  16.947 -2.8506 -0.2591  1.0780
  205MPD1    H7 3127   0.574   3.766  16.906  0.9424  1.6846 -0.3707
  206MPD1     C 3128   1.170   2.002  16.040 -0.0809  0.7168 -0.1915
  206MPD1    C1 3129   1.135   1.868  16.022  0.2461  0.6117 -0.2532
  206MPD1    C2 3130   1.046   1.835  15.926 -0.3037  0.4853 -0.8210
  206MPD1    C3 3131   1.020   1.923  15.821 -0.2184 -0.3137  0.0772
  206MPD1    C4 3132   1.061   2.054  15.833 -0.4462  0.1201  0.2225
  206MPD1    C5 3133   1.133   2.095  15.943 -0.2313 -0.5856 -0.0025
  206MPD1     H 3134   0.997   1.738  15.929 -0.3107  0.5012 -0.4265
  206MPD1    H1 3135   1.041   2.125  15.753 -0.7599 -0.0767  0.1240
  206MPD1    H2 3136   1.225   2.037  16.127  0.2382 -1.5806  0.5325
  206MPD1    H3 3137   1.166   2.198  15.950 -2.0871  0.0202 -0.2503
  206MPD1     N 3138   0.935   1.895  15.715  0.8574 -0.1452  0.3170
  206MPD1    H5 3139   0.917   1.967  15.646  1.9827  1.7731  2.0102
  206MPD1    N1 3140   1.159   1.774  16.130 -0.0942  0.1008  0.4100
  206MPD1    H6 3141   1.251   1.793  16.169 -1.6674  1.3829  3.4419
  206MPD1    H7 3142   1.152   1.677  16.100  2.7981 -0.2972  0.9916
  207MPD1     C 3143   3.099   3.425   9.266  0.0735  0.6319 -0.3531
  207MPD1    C1 3144   3.136   3.552   9.266  0.3294  0.3017 -0.1347
  207MPD1    C2 3145   3.147   3.614   9.387  0.4392 -0.3463  0.1168
  207MPD1    C3 3146   3.124   3.544   9.508  0.6146  0.7126  0.1925
  207MPD1    C4 3147   3.078   3.416   9.505  0.1788 -0.0309 -0.3868
  207MPD1    C5 3148   3.070   3.358   9.384 -0.2422 -0.2061  0.3144
  207MPD1     H 3149   3.199   3.709   9.387  0.1307 -0.1770 -0.8108
  207MPD1    H1 3150   3.041   3.363   9.593 -1.0132 -0.7785 -1.3350
  207MPD1    H2 3151   3.071   3.374   9.175  1.4509  2.9994 -2.0930
  207MPD1    H3 3152   3.024   3.260   9.379  2.3339 -1.3807 -0.3689
  207MPD1     N 3153   3.119   3.609   9.634  0.1426  0.5148  0.1168
  207MPD1    H5 3154   3.095   3.542   9.706 -0.4985 -0.5956 -1.1283
  207MPD1    N1 3155   3.189   3.614   9.148 -0.1186  0.3533  0.1528
  207MPD1    H6 3156   3.144   3.584   9.061  3.2525  1.3547 -1.9312
  207MPD1    H7 3157   3.169   3.713   9.153 -2.7235 -0.2928  2.7813
  208MPD1     C 3158   0.656   3.532  17.614  0.3875  0.0667  0.3123
  208MPD1    C1 3159   0.569   3.443  17.559  0.0939  0.0060  0.0171
  208MPD1    C2 3160   0.486   3.371  17.645  0.2630 -0.2721 -0.4659
  208MPD1    C3 3161   0.506   3.377   0.084  0.3115  0.4756  0.3933
  208MPD1    C4 3162   0.602   3.460   0.139  0.1415 -0.1656 -0.4642
  208MPD1    C5 3163   0.674   3.548   0.055 -0.2406  0.3740  1.3329
  208MPD1     H 3164   0.427   3.291  17.602 -1.5092  1.1776 -0.7533
  208MPD1    H1 3165   0.612   3.481   0.245  2.9981  0.8332 -0.9220
  208MPD1    H2 3166   0.722   3.591  17.551 -1.7646  1.6471 -0.4628
  208MPD1    H3 3167   0.737   3.624   0.099  0.9069  0.6882 -0.8228
  208MPD1     N 3168   0.423   3.292   0.169 -0.0847 -0.2777  0.4336
  208MPD1    H5 3169   0.351   3.233   0.129  0.4522 -0.0376 -0.9067
  208MPD1    N1 3170   0.539   3.445  17.421  0.1072 -0.1336 -0.4502
  208MPD1    H6 3171   0.610   3.471  17.354  0.1871 -0.6879 -0.5812
  208MPD1    H7 3172   0.507   3.353  17.389 -1.1386  0.2882 -0.4287
  209MPD1     C 3173   2.609   2.799  11.268 -0.1223  0.4084  0.7886
  209MPD1    C1 3174   2.590   2.910  11.342 -0.0778  0.2019 -0.1271
  209MPD1    C2 3175   2.602   3.033  11.270  0.5555 -0.5265  0.8621
  209MPD1    C3 3176   2.635   3.044  11.140  0.4524  0.4415 -0.6138
  209MPD1    C4 3177   2.669   2.920  11.083  0.0430  0.2678  0.1299
  209MPD1    C5 3178   2.649   2.803  11.143 -0.6595  0.1467 -0.4914
  209MPD1     H 3179   2.586   3.123  11.328 -0.7161 -0.5189  0.4800
  209MPD1    H1 3180   2.703   2.916  10.981 -1.5289 -0.8028 -0.3599
  209MPD1    H2 3181   2.619   2.702  11.315  2.3648 -0.0618 -0.6889
  209MPD1    H3 3182   2.685   2.709  11.101 -0.4489 -0.2780  0.6204
  209MPD1     N 3183   2.630   3.170  11.074  0.0730  0.6577  0.1132
  209MPD1    H5 3184   2.610   3.247  11.136  1.6041  0.6625  0.6022
  209MPD1    N1 3185   2.587   2.904  11.480  0.5136  0.5822  0.1197
  209MPD1    H6 3186   2.528   2.980  11.513  0.9809  0.5241  1.0955
  209MPD1    H7 3187   2.561   2.815  11.521 -0.2284  0.9865  0.5309
  210MPD1     C 3188   2.892   4.122  11.130  1.4994  0.3641 -0.4089
  210MPD1    C1 3189   2.785   4.053  11.183  0.1578  0.1281 -0.2640
  210MPD1    C2 3190   2.759   3.925  11.134 -0.3994 -0.1526  0.6736
  210MPD1    C3 3191   2.843   3.866  11.040  0.1103  0.4257 -0.1102
  210MPD1    C4 3192   2.947   3.930  10.992 -0.2473 -0.6706 -0.9702
  210MPD1    C5 3193   2.970   4.061  11.031 -0.2485  0.2010 -0.0361
  210MPD1     H 3194   2.680   3.869  11.184 -2.0472  1.8546  0.3041
  210MPD1    H1 3195   3.004   3.895  10.906 -0.3978 -0.8709 -0.9871
  210MPD1    H2 3196   2.923   4.213  11.178  1.5107 -2.2538  4.5188
  210MPD1    H3 3197   3.044   4.125  10.984  0.5873 -0.0278  0.9618
  210MPD1     N 3198   2.814   3.749  10.969 -1.0320 -0.7957  0.4456
  210MPD1    H5 3199   2.863   3.734  10.882 -0.3592  1.2207  0.4787
  210MPD1    N1 3200   2.718   4.091  11.306  0.4461 -0.1745 -0.2786
  210MPD1    H6 3201   2.723   4.193  11.311  0.8737 -0.2357  0.5610
  210MPD1    H7 3202   2.622   4.057  11.317 -0.3660  1.3896 -2.5143
  211MPD1     C 3203   0.702   3.649  15.964  0.8637  1.0352 -0.6731
  211MPD1    C1 3204   0.658   3.656  16.091  0.0425  0.0872 -0.2189
  211MPD1    C2 3205   0.538   3.605  16.134  0.3963 -0.4756  0.5960
  211MPD1    C3 3206   0.443   3.558  16.051  0.9401 -0.4279  0.1988
  211MPD1    C4 3207   0.475   3.568  15.917  0.1224  0.8197  0.6634
  211MPD1    C5 3208   0.601   3.598  15.875 -0.7816  0.9350  0.2438
  211MPD1     H 3209   0.519   3.580  16.237 -2.1512 -0.3934  0.1369
  211MPD1    H1 3210   0.397   3.562  15.843  1.7340 -0.9985 -0.8791
  211MPD1    H2 3211   0.798   3.687  15.933  1.8883 -2.3025 -1.5719
  211MPD1    H3 3212   0.616   3.609  15.769  0.0632 -0.1070  0.2666
  211MPD1     N 3213   0.317   3.519  16.089  0.1585  0.5014 -0.3291
  211MPD1    H5 3214   0.303   3.524  16.189 -0.8782 -0.6174 -0.4200
  211MPD1    N1 3215   0.759   3.691  16.185  0.4298 -0.6153  0.4033
  211MPD1    H6 3216   0.823   3.751  16.134  0.4376 -1.7439 -0.9048
  211MPD1    H7 3217   0.713   3.734  16.265  0.0078  0.5119 -0.4441
  212MPD1     C 3218   4.093   1.813  16.395  0.2644 -0.6662  0.0743
  212MPD1    C1 3219   4.081   1.851  16.527  0.5897 -1.0858  0.4296
  212MPD1    C2 3220   3.996   1.783  16.613 -0.9102 -0.0048 -0.4095
  212MPD1    C3 3221   3.913   1.678  16.565 -0.2915  0.9667 -0.4090
  212MPD1    C4 3222   3.932   1.637  16.431 -0.2257 -0.0029 -0.0036
  212MPD1    C5 3223   4.018   1.706  16.349  0.5377  0.0974  0.4860
  212MPD1     H 3224   3.970   1.840  16.702 -0.3785  2.2641 -1.7068
  212MPD1    H1 3225   3.862   1.567  16.387  0.4397  0.1672 -1.3399
  212MPD1    H2 3226   4.146   1.872  16.321 -0.9158 -0.3219 -0.4946
  212MPD1    H3 3227   4.018   1.686  16.243  1.2794  0.2325  0.4623
  212MPD1     N 3228   3.815   1.622  16.651  0.1557  0.3909 -0.3663
  212MPD1    H5 3229   3.763   1.545  16.608  0.0362  0.0509  0.3954
  212MPD1    N1 3230   4.139   1.970  16.573  0.0223 -0.4610  0.5292
  212MPD1    H6 3231   4.224   1.988  16.520  0.3432 -1.4948  0.6984
  212MPD1    H7 3232   4.156   1.968  16.674  1.9134 -0.9142  0.1988
  213MPD1     C 3233   2.544   3.463  15.890  0.8057 -0.8251  0.3149
  213MPD1    C1 3234   2.421   3.401  15.893 -0.2797  0.3623  0.3017
  213MPD1    C2 3235   2.369   3.373  15.770  0.4634  0.1709 -0.1827
  213MPD1    C3 3236   2.431   3.383  15.647 -0.3262  0.2400 -0.0296
  213MPD1    C4 3237   2.567   3.419  15.651 -0.3041  0.5104 -0.1439
  213MPD1    C5 3238   2.619   3.461  15.774  0.2430 -0.3116 -0.3658
  213MPD1     H 3239   2.264   3.349  15.762  1.1733 -2.0484 -2.6008
  213MPD1    H1 3240   2.634   3.425  15.566 -0.5562 -0.4675 -0.4171
  213MPD1    H2 3241   2.595   3.502  15.977 -0.3185 -0.9048  1.0178
  213MPD1    H3 3242   2.720   3.499  15.778  0.2463 -0.2916 -0.6745
  213MPD1     N 3243   2.358   3.350  15.530  0.2029  0.2266 -0.0636
  213MPD1    H5 3244   2.264   3.312  15.540  1.0382 -1.5756  0.8563
  213MPD1    N1 3245   2.324   3.444  15.994 -0.1165 -0.0384  0.2664
  213MPD1    H6 3246   2.374   3.448  16.082  1.3218  1.1214 -0.6182
  213MPD1    H7 3247   2.244   3.380  16.000  1.7982 -2.5815 -1.2084
  214MPD1     C 3248   1.664   2.835  15.366 -0.3044  0.2057  0.4054
  214MPD1    C1 3249   1.654   2.922  15.263  0.1150 -0.3193 -0.3197
  214MPD1    C2 3250   1.756   3.013  15.233 -0.8097  0.6899 -0.5569
  214MPD1    C3 3251   1.864   3.029  15.317 -0.0221  0.3124  0.2298
  214MPD1    C4 3252   1.874   2.937  15.422 -0.0320 -0.6560  0.0664
  214MPD1    C5 3253   1.784   2.837  15.436 -0.2864 -0.2466 -0.1276
  214MPD1     H 3254   1.746   3.083  15.150  0.9428  3.9968  2.0264
  214MPD1    H1 3255   1.960   2.941  15.487 -1.1547 -0.8230  1.5559
  214MPD1    H2 3256   1.595   2.753  15.383  1.1099 -0.8558  1.0396
  214MPD1    H3 3257   1.808   2.751  15.498  1.5911  0.7744  0.5703
  214MPD1     N 3258   1.975   3.118  15.303  0.4749  0.2820  0.0969
  214MPD1    H5 3259   2.058   3.107  15.361  0.4533 -0.6545 -0.0530
  214MPD1    N1 3260   1.549   2.913  15.170 -0.1574  0.1595  0.0276
  214MPD1    H6 3261   1.524   2.994  15.114 -0.8850  1.4819  2.2676
  214MPD1    H7 3262   1.470   2.856  15.199 -1.3199  1.6352 -0.2351
  215MPD1     C 3263   2.231   3.224  10.899 -0.1878 -0.4887  0.0056
  215MPD1    C1 3264   2.252   3.279  11.027  0.1556 -0.3147 -0.4221
  215MPD1    C2 3265   2.293   3.416  11.034 -0.4028  0.1955 -0.0801
  215MPD1    C3 3266   2.327   3.493  10.922 -0.1404  0.0173 -0.4042
  215MPD1    C4 3267   2.315   3.430  10.800 -0.0264  0.5277 -0.3250
  215MPD1    C5 3268   2.268   3.301  10.789  0.0481  0.2845 -0.1186
  215MPD1     H 3269   2.282   3.467  11.129  1.8734  3.6524 -1.6489
  215MPD1    H1 3270   2.336   3.492  10.714  3.4386 -1.1339 -0.6697
  215MPD1    H2 3271   2.208   3.120  10.878 -0.4543 -0.2094 -1.1044
  215MPD1    H3 3272   2.260   3.255  10.691 -1.1494 -1.0851  0.6219
  215MPD1     N 3273   2.355   3.624  10.945  0.3634  0.3720  0.0632
  215MPD1    H5 3274   2.343   3.658  11.040 -1.5157  0.5842 -0.2427
  215MPD1    N1 3275   2.216   3.209  11.141  0.3722 -0.3034  0.3059
  215MPD1    H6 3276   2.221   3.108  11.132  1.4374 -0.0925 -1.4824
  215MPD1    H7 3277   2.277   3.237  11.217  0.1845  0.1731  0.2795
  216MPD1     C 3278   4.104   1.210  16.374  0.5153  0.6631  0.1065
  216MPD1    C1 3279   4.116   1.075  16.362 -0.6118 -1.2441  0.3823
  216MPD1    C2 3280   4.075   0.999  16.474  0.5086  0.2440  0.2653
  216MPD1    C3 3281   4.047   1.061  16.596 -0.6767 -0.5169  0.4129
  216MPD1    C4 3282   4.044   1.198  16.603  0.0445 -0.9987 -0.7405
  216MPD1    C5 3283   4.066   1.269  16.489 -0.1187  0.1401  0.9415
  216MPD1     H 3284   4.084   0.891  16.466  2.4013  0.5045 -1.2504
  216MPD1    H1 3285   4.011   1.255  16.689 -1.0507 -0.2032 -1.6926
  216MPD1    H2 3286   4.121   1.274  16.289 -0.3582  0.5699 -0.1404
  216MPD1    H3 3287   4.046   1.376  16.487 -1.0849 -0.1052 -2.5610
  216MPD1     N 3288   4.004   0.975  16.703  0.5254 -0.3872  0.0288
  216MPD1    H5 3289   4.007   0.876  16.681 -1.0626 -1.0191  2.6565
  216MPD1    N1 3290   4.132   1.004  16.238  0.1580 -1.1267  0.8460
  216MPD1    H6 3291   4.188   1.055  16.170 -1.4450  0.1899  0.5176
  216MPD1    H7 3292   4.167   0.909  16.248 -0.4168 -1.3859  0.3892
  217MPD1     C 3293   4.374   2.592   8.941 -0.1015  0.3222 -1.3087
  217MPD1    C1 3294   4.415   2.502   9.039 -1.2632 -0.8133  0.7672
  217MPD1    C2 3295   4.515   2.535   9.132  0.3200 -0.1737  0.4612
  217MPD1    C3 3296   4.586   2.651   9.113 -0.8202 -0.0304  0.1951
  217MPD1    C4 3297   4.554   2.738   9.018  0.1707  0.2126  0.1058
  217MPD1    C5 3298   4.452   2.706   8.930 -0.8234 -0.0129  0.3352
  217MPD1     H 3299   4.535   2.471   9.218  1.4599  0.9459  1.0320
  217MPD1    H1 3300   4.581   2.843   9.008 -1.0103  0.7531  2.6762
  217MPD1    H2 3301   4.289   2.587   8.874 -0.5722 -0.5483 -0.6495
  217MPD1    H3 3302   4.433   2.775   8.849  2.7032  2.0488  1.2615
  217MPD1     N 3303   4.684   2.697   9.205 -0.0395  0.1693 -0.0426
  217MPD1    H5 3304   4.721   2.787   9.177  0.4889 -0.1381 -0.3290
  217MPD1    N1 3305   4.338   2.389   9.048  0.0472  0.3707  0.1868
  217MPD1    H6 3306   4.285   2.363   8.965  1.9087 -0.5606 -0.6889
  217MPD1    H7 3307   4.357   2.307   9.105  1.8797 -0.8288 -2.1842
  218MPD1     C 3308   1.479   0.131  12.824 -1.1399 -0.5280 -0.7219
  218MPD1    C1 3309   1.488   0.010  12.888 -0.1386 -0.3845 -0.1153
  218MPD1    C2 3310   1.520   4.621  12.813  0.1870 -0.2581 -0.3682
  218MPD1    C3 3311   1.559   4.629  12.684 -0.1165  0.3897  0.8158
  218MPD1    C4 3312   1.558   0.031  12.621 -0.5218  0.9549  0.6955
  218MPD1    C5 3313   1.504   0.140  12.692  0.1830  0.2459 -0.1457
  218MPD1     H 3314   1.497   4.523  12.853 -0.6143  0.5057  1.0555
  218MPD1    H1 3315   1.597   0.050  12.522 -0.8633 -1.1185  0.1672
  218MPD1    H2 3316   1.466   0.226  12.875  1.6574 -1.5573  1.9334
  218MPD1    H3 3317   1.499   0.233  12.637  0.6825 -1.1972 -2.6205
  218MPD1     N 3318   1.621   4.514  12.628 -0.3762 -0.2643  0.3110
  218MPD1    H5 3319   1.618   4.428  12.682 -2.7939 -0.5555 -0.2934
  218MPD1    N1 3320   1.428   0.009  13.015 -0.2992 -0.3043 -0.2932
  218MPD1    H6 3321   1.461   4.663  13.081 -0.1998  0.0885  0.0811
  218MPD1    H7 3322   1.450   0.095  13.066 -2.9854  0.5317 -0.4952
  219MPD1     C 3323   1.404   4.047  11.700 -0.1630  1.1884 -0.0393
  219MPD1    C1 3324   1.468   4.161  11.729  0.2137  0.0942 -0.0623
  219MPD1    C2 3325   1.501   4.191  11.857  0.3600 -0.0070  0.3669
  219MPD1    C3 3326   1.488   4.094  11.953 -0.2909  0.2392  0.1479
  219MPD1    C4 3327   1.429   3.970  11.931  0.3546 -0.1326 -0.5383
  219MPD1    C5 3328   1.378   3.958  11.805  0.1316 -0.2659 -0.0729
  219MPD1     H 3329   1.556   4.283  11.874  4.2262 -2.0224 -1.1496
  219MPD1    H1 3330   1.400   3.894  12.003 -0.2663 -0.0777 -0.7244
  219MPD1    H2 3331   1.365   4.037  11.599  1.9626 -0.0378 -0.7404
  219MPD1    H3 3332   1.327   3.867  11.774 -0.7088  0.2954 -0.3466
  219MPD1     N 3333   1.550   4.115  12.086 -0.0258 -0.1516 -0.2490
  219MPD1    H5 3334   1.548   4.027  12.137 -0.1142 -0.1144 -0.1868
  219MPD1    N1 3335   1.486   4.262  11.633 -0.4188 -0.3476 -0.0336
  219MPD1    H6 3336   1.517   4.231  11.541 -1.4537  1.5375 -1.0180
  219MPD1    H7 3337   1.553   4.337  11.649 -1.7090  0.7149  0.3812
  220MPD1     C 3338   2.253   4.657   9.332  0.3387 -0.5532  0.0961
  220MPD1    C1 3339   2.372   4.654   9.399  0.0838 -0.0279 -0.6311
  220MPD1    C2 3340   2.367   4.615   9.532 -0.9823  0.1835  0.3522
  220MPD1    C3 3341   2.257   4.563   9.593  0.0391  0.9856 -0.7475
  220MPD1    C4 3342   2.134   4.575   9.526 -0.1856  0.3605 -0.0192
  220MPD1    C5 3343   2.134   4.616   9.395 -0.2004  0.2929  0.6379
  220MPD1     H 3344   2.457   4.628   9.591 -2.0769 -2.3858  2.6241
  220MPD1    H1 3345   2.040   4.545   9.571 -0.7002  0.3377 -1.0976
  220MPD1    H2 3346   2.242   4.693   9.230 -1.0747  2.2354  1.2194
  220MPD1    H3 3347   2.033   4.610   9.358  0.8882 -3.8041 -1.5979
  220MPD1     N 3348   2.262   4.510   9.726  0.5716 -0.2523 -0.3120
  220MPD1    H5 3349   2.358   4.499   9.759 -0.1361 -1.9232  1.2042
  220MPD1    N1 3350   2.479   4.718   9.340  0.0866  0.0415 -0.2589
  220MPD1    H6 3351   2.573   4.689   9.368 -0.7647 -0.8411  1.6813
  220MPD1    H7 3352   2.472   4.712   9.239 -1.2550  1.8356 -0.2666
  221MPD1     C 3353   4.386   3.946  16.741 -0.3173 -0.3191  0.4085
  221MPD1    C1 3354   4.328   3.842  16.806  0.0184  0.6449 -0.4988
  221MPD1    C2 3355   4.382   3.719  16.769  0.2882 -0.1272  0.5307
  221MPD1    C3 3356   4.485   3.703  16.681  0.5451  0.9741 -0.8048
  221MPD1    C4 3357   4.552   3.816  16.630  0.8803  0.0136  0.3967
  221MPD1    C5 3358   4.499   3.937  16.659 -0.2114  0.2745 -0.1845
  221MPD1     H 3359   4.325   3.638  16.813  0.8027 -0.6311  0.2572
  221MPD1    H1 3360   4.641   3.806  16.569  0.4523 -1.9584  0.1040
  221MPD1    H2 3361   4.348   4.046  16.760 -0.6609 -0.3981  0.1284
  221MPD1    H3 3362   4.552   4.026  16.624 -2.1317  0.7865 -1.7712
  221MPD1     N 3363   4.524   3.576  16.631  0.5065 -0.2652  0.7562
  221MPD1    H5 3364   4.461   3.499  16.655  2.0968 -2.5571 -2.4003
  221MPD1    N1 3365   4.205   3.852  16.874 -0.8694  0.2061  0.6409
  221MPD1    H6 3366   4.197   3.947  16.912  2.2862 -0.4707  3.1102
  221MPD1    H7 3367   4.206   3.786  16.951 -0.4021 -0.2317  0.2539
  222MPD1     C 3368   4.179   1.738  16.863 -0.7112 -0.0273  0.4814
  222MPD1    C1 3369   4.135   1.840  16.937 -0.3850 -1.1639 -0.4064
  222MPD1    C2 3370   4.049   1.818  17.041 -0.1833  0.1558 -0.1840
  222MPD1    C3 3371   4.027   1.686  17.078  0.7920 -0.2399 -0.2093
  222MPD1    C4 3372   4.062   1.584  16.994  0.5332  0.0836  0.0041
  222MPD1    C5 3373   4.146   1.610  16.897  0.4617 -0.5543  0.1558
  222MPD1     H 3374   4.008   1.901  17.096 -2.5146 -0.2299 -1.3065
  222MPD1    H1 3375   4.051   1.480  17.023  0.9715 -0.1127 -0.5364
  222MPD1    H2 3376   4.240   1.749  16.774 -2.1344  0.2286 -0.4662
  222MPD1    H3 3377   4.196   1.534  16.838 -0.5832 -1.3238  0.2724
  222MPD1     N 3378   3.971   1.641  17.199 -0.0166 -0.3594 -0.1153
  222MPD1    H5 3379   3.960   1.541  17.214 -3.2434  0.1559  1.0185
  222MPD1    N1 3380   4.152   1.974  16.892  0.2218  0.1291 -0.5387
  222MPD1    H6 3381   4.153   2.030  16.977  1.9690 -1.0676  0.2350
  222MPD1    H7 3382   4.246   1.980  16.853  0.1424  1.0783 -0.5880
  223MPD1     C 3383   3.593   0.892  17.374  0.0922 -0.8741  0.2480
  223MPD1    C1 3384   3.596   0.988  17.272 -0.7107 -0.0574  0.7734
  223MPD1    C2 3385   3.653   1.112  17.294  0.1200  0.8974  0.2309
  223MPD1    C3 3386   3.679   1.158  17.424  0.4155 -0.1624  0.5018
  223MPD1    C4 3387   3.669   1.072  17.528 -0.1543  0.0073  0.1099
  223MPD1    C5 3388   3.630   0.942  17.500 -0.0930 -0.3324 -0.1409
  223MPD1     H 3389   3.674   1.177  17.210  1.6827 -1.3157 -1.1057
  223MPD1    H1 3390   3.700   1.107  17.626  1.7071 -1.7700  0.1610
  223MPD1    H2 3391   3.568   0.789  17.353  2.0515 -0.9662 -1.7146
  223MPD1    H3 3392   3.633   0.870  17.581 -1.0088 -1.3136 -0.9712
  223MPD1     N 3393   3.725   1.287  17.437 -0.2418  0.0803  0.4025
  223MPD1    H5 3394   3.712   1.346  17.356  1.3883 -0.8349 -0.5120
  223MPD1    N1 3395   3.576   0.948  17.142  0.6277  0.1409 -0.3846
  223MPD1    H6 3396   3.559   1.020  17.072  1.0844 -0.3619 -1.0082
  223MPD1    H7 3397   3.530   0.858  17.126 -0.4339  0.4064  1.1991
  224MPD1     C 3398   1.849   3.840   9.539  0.6489  0.6992  0.6124
  224MPD1    C1 3399   1.874   3.713   9.576  0.1889  0.1145  0.4983
  224MPD1    C2 3400   1.774   3.631   9.618  0.1619  0.4538 -0.1510
  224MPD1    C3 3401   1.654   3.688   9.657  0.4373  0.2606  0.1987
  224MPD1    C4 3402   1.628   3.823   9.626  0.9978  0.0975 -0.7217
  224MPD1    C5 3403   1.723   3.899   9.564  0.7136  0.2674 -0.3135
  224MPD1     H 3404   1.795   3.529   9.646  1.0255  0.2363 -1.6159
  224MPD1    H1 3405   1.535   3.867   9.661  0.1197 -3.5639  1.6329
  224MPD1    H2 3406   1.918   3.902   9.483  0.4413 -0.7945 -1.3048
  224MPD1    H3 3407   1.698   3.999   9.529 -0.2159  0.1454  0.0137
  224MPD1     N 3408   1.548   3.619   9.715 -0.4547  0.1020 -0.1325
  224MPD1    H5 3409   1.467   3.669   9.749 -1.9422 -1.2115 -1.7221
  224MPD1    N1 3410   2.002   3.660   9.543  0.1766  0.4121  0.8936
  224MPD1    H6 3411   2.017   3.578   9.602 -2.0213 -1.6904 -1.4853
  224MPD1    H7 3412   2.077   3.728   9.550  0.5684  0.1158 -0.4666
  225MPD1     C 3413   0.665   4.461  13.176 -0.4291 -0.0311  0.7204
  225MPD1    C1 3414   0.686   4.336  13.129 -0.1427  0.0097 -0.0238
  225MPD1    C2 3415   0.702   4.328  12.998 -0.1327 -0.1235 -0.2573
  225MPD1    C3 3416   0.684   4.437  12.918  0.5646  0.2791 -1.0164
  225MPD1    C4 3417   0.666   4.564  12.961  0.2946 -0.5701  0.3692
  225MPD1    C5 3418   0.655   4.574  13.098  0.0674 -0.3567  0.2340
  225MPD1     H 3419   0.723   4.230  12.956  1.4466 -0.4157  1.2145
  225MPD1    H1 3420   0.653   4.654  12.901  3.8397 -0.3841 -0.1254
  225MPD1    H2 3421   0.669   4.480  13.282  2.3552 -2.4171  1.0305
  225MPD1    H3 3422   0.636   4.670  13.143 -0.7223  0.2075 -1.2826
  225MPD1     N 3423   0.683   4.420  12.781  0.3794 -0.2413 -0.5752
  225MPD1    H5 3424   0.666   4.499  12.719 -0.3565  1.9628  2.4436
  225MPD1    N1 3425   0.697   4.223  13.215  0.5567  0.8225 -0.0369
  225MPD1    H6 3426   0.642   4.241  13.299  1.3486 -1.5878  1.0050
  225MPD1    H7 3427   0.662   4.142  13.166  2.2103  0.1106 -0.0529
  226MPD1     C 3428   1.145   4.435   9.080  0.0249 -0.0311  0.6491
  226MPD1    C1 3429   1.175   4.567   9.063  0.4155  0.0133  0.8602
  226MPD1    C2 3430   1.167   4.647   9.170  0.0135  0.8884 -0.2638
  226MPD1    C3 3431   1.147   4.603   9.294  0.3618  0.3170  0.3721
  226MPD1    C4 3432   1.101   4.473   9.314  0.8993 -0.1258 -0.5068
  226MPD1    C5 3433   1.106   4.389   9.205 -0.2016 -0.5570  0.8049
  226MPD1     H 3434   1.191   0.028   9.158 -0.1957  0.7810 -1.5796
  226MPD1    H1 3435   1.066   4.425   9.404  0.8836  0.8548  0.0063
  226MPD1    H2 3436   1.149   4.360   9.003  0.9830  0.6687  0.0206
  226MPD1    H3 3437   1.071   4.287   9.208 -0.5557 -0.4525  0.2439
  226MPD1     N 3438   1.180   4.693   9.405 -0.4006  0.0081 -0.3954
  226MPD1    H5 3439   1.228   0.052   9.373 -2.5616  1.0143 -1.0601
  226MPD1    N1 3440   1.186   4.620   8.936 -0.0400 -0.5608  0.7617
  226MPD1    H6 3441   1.226   4.554   8.869 -0.5256 -1.2226  1.1358
  226MPD1    H7 3442   1.246   4.703   8.934 -0.3344 -0.3821 -0.5133
  227MPD1     C 3443   1.183   0.769   9.252 -0.0604 -0.1652 -0.1926
  227MPD1    C1 3444   1.065   0.716   9.298  0.5693 -0.5240  0.2968
  227MPD1    C2 3445   1.063   0.608   9.381  0.1389 -0.6405  0.1367
  227MPD1    C3 3446   1.183   0.552   9.412  1.0465  0.2873  0.4928
  227MPD1    C4 3447   1.303   0.598   9.363 -0.1365 -0.2711  0.0046
  227MPD1    C5 3448   1.303   0.710   9.283 -0.4959  0.4332 -0.4006
  227MPD1     H 3449   0.972   0.566   9.422 -0.6450  0.7259 -0.1843
  227MPD1    H1 3450   1.401   0.562   9.394 -0.6496 -1.4306  0.2730
  227MPD1    H2 3451   1.189   0.856   9.188  1.0771  0.6590  1.0433
  227MPD1    H3 3452   1.392   0.765   9.256  2.1409 -3.0001  1.3153
  227MPD1     N 3453   1.174   0.452   9.510  0.3846 -0.0453  0.5928
  227MPD1    H5 3454   1.081   0.419   9.534  0.7358 -1.9577 -0.6225
  227MPD1    N1 3455   0.945   0.771   9.243  0.2519  0.3517 -0.3968
  227MPD1    H6 3456   0.950   0.808   9.149 -0.6477 -1.8781 -1.3085
  227MPD1    H7 3457   0.856   0.734   9.275  1.3124 -0.2462  1.9286
  228MPD1     C 3458   3.679   3.275  13.038 -0.2579 -0.2571  0.0469
  228MPD1    C1 3459   3.603   3.318  12.930 -0.3416  0.2872 -0.1956
  228MPD1    C2 3460   3.483   3.262  12.916  1.1077  0.2713  0.6798
  228MPD1    C3 3461   3.433   3.174  13.009  0.9651  0.9521  0.0546
  228MPD1    C4 3462   3.504   3.145  13.121  0.4397  0.3236  0.1067
  228MPD1    C5 3463   3.629   3.197  13.133  0.5048 -0.1967  0.2143
  228MPD1     H 3464   3.423   3.283  12.829  0.5590  1.8115  1.4232
  228MPD1    H1 3465   3.466   3.067  13.186 -3.2112  2.6739  0.7400
  228MPD1    H2 3466   3.782   3.307  13.049  0.0001 -1.4597  1.2073
  228MPD1    H3 3467   3.691   3.175  13.219  0.2134 -3.1381 -0.3122
  228MPD1     N 3468   3.301   3.120  12.985 -0.3310  0.6380 -0.1033
  228MPD1    H5 3469   3.259   3.138  12.894 -0.5479 -4.0286 -0.8912
  228MPD1    N1 3470   3.657   3.402  12.834 -0.4079 -0.5611  0.1055
  228MPD1    H6 3471   3.588   3.464  12.792  0.7040  0.7238  0.1960
  228MPD1    H7 3472   3.728   3.467  12.866 -0.7156 -0.3830  0.4262
  229MPD1     C 3473   3.597   0.600  14.143 -0.1384 -0.4071 -0.3291
  229MPD1    C1 3474   3.459   0.607  14.147 -0.5762 -0.3618  0.2793
  229MPD1    C2 3475   3.406   0.709  14.229 -0.4028  1.7426 -0.3825
  229MPD1    C3 3476   3.482   0.790  14.313  0.3102 -0.0750 -0.0962
  229MPD1    C4 3477   3.621   0.775  14.316  0.5888 -0.2854 -1.1332
  229MPD1    C5 3478   3.669   0.682  14.226 -0.0624 -0.4509 -0.0272
  229MPD1     H 3479   3.298   0.721  14.237 -0.4356  1.2743 -0.1650
  229MPD1    H1 3480   3.681   0.849  14.368  0.6080 -2.4755  1.9909
  229MPD1    H2 3481   3.661   0.540  14.080  0.0428 -1.1962  0.6157
  229MPD1    H3 3482   3.775   0.662  14.221  0.3538  2.3884 -2.5679
  229MPD1     N 3483   3.435   0.894  14.401 -0.1642  0.0000  0.2244
  229MPD1    H5 3484   3.507   0.954  14.441 -1.3989 -0.1076  2.6060
  229MPD1    N1 3485   3.383   0.506  14.089  0.3265 -0.4051 -0.0382
  229MPD1    H6 3486   3.296   0.541  14.048  1.2490  0.7169 -1.0270
  229MPD1    H7 3487   3.425   0.462  14.007 -2.1417  1.6634 -2.4437
  230MPD1     C 3488   2.509   1.164  14.374 -0.7658 -0.2949 -0.4688
  230MPD1    C1 3489   2.567   1.040  14.349 -0.4639  0.2646 -0.1544
  230MPD1    C2 3490   2.696   1.032  14.406  0.8398  0.0534 -0.9335
  230MPD1    C3 3491   2.761   1.134  14.471 -0.1343  0.0885  0.4116
  230MPD1    C4 3492   2.696   1.253  14.492 -0.0593  0.1363  0.3461
  230MPD1    C5 3493   2.571   1.266  14.436 -0.8947 -0.8971 -0.6128
  230MPD1     H 3494   2.746   0.936  14.399  0.0240 -0.3476 -1.2527
  230MPD1    H1 3495   2.742   1.343  14.532  2.2158 -1.0448  0.4041
  230MPD1    H2 3496   2.410   1.194  14.342 -0.3366  3.0344  1.2988
  230MPD1    H3 3497   2.512   1.357  14.441 -0.2911 -0.5573  0.4464
  230MPD1     N 3498   2.892   1.114  14.512 -0.7553  0.4747  0.1077
  230MPD1    H5 3499   2.941   1.026  14.498 -1.3981 -0.2089  2.3127
  230MPD1    N1 3500   2.494   0.932  14.296  0.3091 -0.2106  0.8247
  230MPD1    H6 3501   2.556   0.871  14.243  2.0235  3.2201 -1.1204
  230MPD1    H7 3502   2.421   0.959  14.231 -1.3706 -2.9549  1.5577
  231MPD1     C 3503   0.797   2.971  15.612 -0.0457  0.2155 -0.3769
  231MPD1    C1 3504   0.888   2.888  15.558  0.5092  0.2477 -0.2468
  231MPD1    C2 3505   0.993   2.935  15.476 -0.4600 -0.4320  0.6139
  231MPD1    C3 3506   1.016   3.078  15.477  0.1063  0.5490  0.0129
  231MPD1    C4 3507   0.923   3.160  15.541  0.4565  0.0073 -0.6924
  231MPD1    C5 3508   0.812   3.108  15.606 -0.1559  0.3303 -0.5544
  231MPD1     H 3509   1.065   2.860  15.446 -0.2497  0.2061 -0.4501
  231MPD1    H1 3510   0.937   3.267  15.538  0.2066  0.0019 -1.8466
  231MPD1    H2 3511   0.720   2.927  15.674  4.2894 -3.7847  2.1749
  231MPD1    H3 3512   0.748   3.169  15.668 -0.7995 -1.5652  0.6282
  231MPD1     N 3513   1.133   3.135  15.421 -1.1116 -1.3230  0.6407
  231MPD1    H5 3514   1.198   3.074  15.373 -1.2734 -2.4025  1.8146
  231MPD1    N1 3515   0.859   2.758  15.560  0.1679  0.1787 -0.1250
  231MPD1    H6 3516   0.790   2.728  15.628  0.0878 -0.4452 -0.4748
  231MPD1    H7 3517   0.930   2.692  15.529  0.1048  0.4753 -0.9136
  232MPD1     C 3518   4.058   4.701   0.655 -0.9163  0.1727 -0.4346
  232MPD1    C1 3519   4.109   0.058   0.556  0.7568 -0.2571  0.4018
  232MPD1    C2 3520   4.023   0.085   0.442 -0.0902 -0.0338 -0.5297
  232MPD1    C3 3521   3.903   0.021   0.428 -0.0688 -0.0513 -0.1282
  232MPD1    C4 3522   3.866   4.652   0.522 -0.5015  1.1144  0.7244
  232MPD1    C5 3523   3.938   4.639   0.634  0.5598 -0.6546  0.2969
  232MPD1     H 3524   4.061   0.146   0.362  0.5347 -0.9178 -0.9076
  232MPD1    H1 3525   3.773   4.599   0.507  1.0700 -1.2214 -0.6346
  232MPD1    H2 3526   4.106   4.686   0.751  1.1616 -2.7789 -1.9537
  232MPD1    H3 3527   3.917   4.576   0.720 -0.8385  0.8843  1.0776
  232MPD1     N 3528   3.818   0.056   0.320  0.5958 -0.2677  0.0931
  232MPD1    H5 3529   3.849   0.136   0.265  0.1003 -0.6595 -0.7689
  232MPD1    N1 3530   4.231   0.126   0.585  0.5218 -0.3408  0.0189
  232MPD1    H6 3531   4.287   0.139   0.501 -0.7076 -1.8003 -1.0403
  232MPD1    H7 3532   4.289   0.079   0.654  2.7675 -1.7171 -2.7853
  233MPD1     C 3533   3.708   2.039   2.116 -0.7995  0.5746  0.1923
  233MPD1    C1 3534   3.621   2.050   2.006 -0.0764  0.2887 -0.0422
  233MPD1    C2 3535   3.668   2.045   1.878 -0.1641  0.5790  0.7498
  233MPD1    C3 3536   3.810   2.035   1.861  0.1398  0.4931  0.2589
  233MPD1    C4 3537   3.896   2.018   1.975 -0.1263  0.6701  0.0918
  233MPD1    C5 3538   3.845   2.024   2.101 -0.3301 -0.1278 -0.6676
  233MPD1     H 3539   3.595   2.035   1.799 -0.2715 -0.7994  1.0085
  233MPD1    H1 3540   4.003   2.003   1.962  0.0281  1.8706 -0.0045
  233MPD1    H2 3541   3.661   2.032   2.213  0.6555 -0.3655  0.8085
  233MPD1    H3 3542   3.901   2.017   2.193 -1.3536  0.0852 -0.0230
  233MPD1     N 3543   3.866   2.013   1.732 -0.0543  0.1567  0.6517
  233MPD1    H5 3544   3.960   1.976   1.726  0.6899  1.9381  1.4135
  233MPD1    N1 3545   3.477   2.041   2.014  0.5142  0.0681  0.1362
  233MPD1    H6 3546   3.439   2.092   2.093 -0.1514 -0.5979  0.2485
  233MPD1    H7 3547   3.430   2.063   1.926 -1.6967 -0.6585  1.1287
  234MPD1     C 3548   1.015   1.913  10.742  0.3268 -0.2594  0.3687
  234MPD1    C1 3549   1.033   2.053  10.752 -0.4097 -0.3310 -0.3481
  234MPD1    C2 3550   1.034   2.130  10.636  0.0125 -0.0418 -0.4406
  234MPD1    C3 3551   1.025   2.078  10.512  0.7562 -0.7395 -0.7445
  234MPD1    C4 3552   0.996   1.944  10.507  0.0906 -0.5929 -0.4492
  234MPD1    C5 3553   0.992   1.863  10.620 -0.1936  0.3522  0.1221
  234MPD1     H 3554   1.046   2.238  10.636  1.1538 -0.1631  1.1077
  234MPD1    H1 3555   0.968   1.893  10.416  0.7522  0.7283 -1.3931
  234MPD1    H2 3556   0.992   1.848  10.825 -2.2195 -1.3626 -1.2188
  234MPD1    H3 3557   0.962   1.759  10.608  1.0101  0.0016  0.1145
  234MPD1     N 3558   1.026   2.173  10.404 -0.1998 -0.4719  0.2034
  234MPD1    H5 3559   1.056   2.267  10.429 -1.7231  0.2853 -0.8294
  234MPD1    N1 3560   1.025   2.118  10.878 -0.3103  0.1084 -0.9717
  234MPD1    H6 3561   1.067   2.052  10.944 -0.9125 -1.1515 -1.8435
  234MPD1    H7 3562   1.077   2.205  10.874  1.3676 -0.7412  2.8557
  235MPD1     C 3563   2.504   1.634   9.321  0.2097  0.0306 -0.0372
  235MPD1    C1 3564   2.552   1.530   9.245 -0.1789  0.9764  0.4122
  235MPD1    C2 3565   2.584   1.408   9.295 -0.0319  0.1967  0.2706
  235MPD1    C3 3566   2.569   1.389   9.429  0.2906 -0.2602 -0.1549
  235MPD1    C4 3567   2.509   1.488   9.511 -0.4636 -0.0325 -0.4113
  235MPD1    C5 3568   2.466   1.607   9.453  0.2655  0.6129  0.2308
  235MPD1     H 3569   2.620   1.322   9.238 -0.7699 -0.0490  0.1796
  235MPD1    H1 3570   2.479   1.464   9.612  0.8530  1.1863  0.2738
  235MPD1    H2 3571   2.477   1.733   9.284  1.6439  0.7881  0.9386
  235MPD1    H3 3572   2.426   1.679   9.524  0.8777  0.8802  0.3032
  235MPD1     N 3573   2.591   1.258   9.469 -0.2621  0.4088 -0.1161
  235MPD1    H5 3574   2.608   1.193   9.394  3.7486  0.2886  0.9018
  235MPD1    N1 3575   2.585   1.558   9.112 -0.0850  0.1646 -0.3229
  235MPD1    H6 3576   2.605   1.470   9.064  0.3529 -0.0136  0.1724
  235MPD1    H7 3577   2.516   1.619   9.069  1.0152  0.4648 -1.6589
  236MPD1     C 3578   1.515   1.514   9.228  0.3103  0.2058 -0.8956
  236MPD1    C1 3579   1.480   1.498   9.361 -0.8040 -0.8230  1.0962
  236MPD1    C2 3580   1.559   1.414   9.437  0.1749  0.1265 -0.5777
  236MPD1    C3 3581   1.649   1.334   9.378  0.2432  1.1689 -0.1549
  236MPD1    C4 3582   1.662   1.336   9.247  0.1003 -0.0185 -0.2403
  236MPD1    C5 3583   1.590   1.421   9.165  0.0407 -0.1068  0.4390
  236MPD1     H 3584   1.552   1.427   9.544  2.3404 -0.5032 -0.3608
  236MPD1    H1 3585   1.724   1.262   9.198  1.1274 -0.2116  1.3606
  236MPD1    H2 3586   1.474   1.596   9.169  1.3912  0.5304 -1.2089
  236MPD1    H3 3587   1.598   1.427   9.057 -0.9146  0.7097  0.4128
  236MPD1     N 3588   1.737   1.254   9.457 -0.5429 -0.1797 -0.7467
  236MPD1    H5 3589   1.801   1.184   9.420 -0.0198 -0.8786  1.4769
  236MPD1    N1 3590   1.381   1.575   9.427  0.3958 -0.0216 -0.6758
  236MPD1    H6 3591   1.332   1.525   9.501  0.0445 -1.0635 -1.6240
  236MPD1    H7 3592   1.322   1.635   9.369  1.7648  1.6009 -0.3715
  237MPD1     C 3593   1.716   0.157  15.859 -0.5207  0.1220  0.7936
  237MPD1    C1 3594   1.687   0.245  15.756  0.5211  0.2346 -0.0557
  237MPD1    C2 3595   1.634   0.189  15.643  0.1060 -0.6584 -0.6233
  237MPD1    C3 3596   1.607   0.055  15.634  0.6745  0.2232 -0.3191
  237MPD1    C4 3597   1.627   4.700  15.745 -0.5553  0.5142  0.3669
  237MPD1    C5 3598   1.683   0.028  15.856  0.2260 -0.7268 -0.3729
  237MPD1     H 3599   1.608   0.246  15.555 -1.5766 -0.5045 -0.0100
  237MPD1    H1 3600   1.586   4.600  15.738 -1.6602  1.0312 -0.7699
  237MPD1    H2 3601   1.754   0.204  15.949 -2.8035  0.9126  1.3540
  237MPD1    H3 3602   1.707   4.691  15.942 -0.2953  1.1867  1.1314
  237MPD1     N 3603   1.543   4.713  15.525 -0.2698 -0.2367  0.3128
  237MPD1    H5 3604   1.535   4.612  15.529 -0.9209 -0.1586  0.8662
  237MPD1    N1 3605   1.699   0.379  15.773 -0.0029 -0.4330  0.1742
  237MPD1    H6 3606   1.783   0.391  15.830  0.4756  1.3851 -0.9351
  237MPD1    H7 3607   1.728   0.417  15.683  0.1778  1.1327  0.8920
  238MPD1     C 3608   3.830   3.086  14.976  0.1406  0.1712  0.6578
  238MPD1    C1 3609   3.739   3.043  15.070  0.0177 -0.0789  0.3382
  238MPD1    C2 3610   3.601   3.055  15.053 -0.2184 -0.1386  0.3715
  238MPD1    C3 3611   3.560   3.131  14.946 -0.3296 -0.2398  0.8034
  238MPD1    C4 3612   3.652   3.189  14.857  0.1677 -0.3387 -0.8779
  238MPD1    C5 3613   3.785   3.162  14.871 -0.7700  0.1467  0.0440
  238MPD1     H 3614   3.540   2.995  15.121  0.8070  0.4646  1.8300
  238MPD1    H1 3615   3.619   3.250  14.774 -1.3460  0.4260  0.2905
  238MPD1    H2 3616   3.937   3.068  14.976 -0.0518 -1.0025  0.4402
  238MPD1    H3 3617   3.862   3.200  14.804 -0.3726  1.5319  1.2639
  238MPD1     N 3618   3.423   3.150  14.917 -0.0843 -0.5008 -0.4344
  238MPD1    H5 3619   3.401   3.197  14.829 -0.0497 -0.3414 -0.3573
  238MPD1    N1 3620   3.794   2.954  15.167  0.7766 -0.4270  0.8062
  238MPD1    H6 3621   3.894   2.971  15.175  0.6251  0.3433  1.0290
  238MPD1    H7 3622   3.757   2.961  15.261 -2.1017  1.6061 -0.4688
  239MPD1     C 3623   4.042   4.006  14.860 -0.7651 -0.1109  0.0610
  239MPD1    C1 3624   4.073   3.985  14.723 -0.7887 -0.4249 -0.4653
  239MPD1    C2 3625   3.980   4.012  14.628  0.6238 -0.9627 -0.0530
  239MPD1    C3 3626   3.855   4.048  14.677  0.0776  0.5878 -0.0512
  239MPD1    C4 3627   3.817   4.048  14.811 -0.4724  0.0780  0.5468
  239MPD1    C5 3628   3.916   4.032  14.906  0.1410  0.1743  0.1904
  239MPD1     H 3629   4.002   4.000  14.523  1.9152 -2.5923  0.3958
  239MPD1    H1 3630   3.713   4.070  14.834 -0.7858 -0.0181 -0.7837
  239MPD1    H2 3631   4.125   3.999  14.929 -3.2279 -0.5009  2.9751
  239MPD1    H3 3632   3.893   4.039  15.012  0.9198  0.7266  0.3261
  239MPD1     N 3633   3.751   4.076  14.586  0.4785 -0.1494  0.2919
  239MPD1    H5 3634   3.663   4.097  14.633  0.4059 -0.6001  0.3659
  239MPD1    N1 3635   4.202   3.974  14.675 -0.1782 -0.0066  0.1979
  239MPD1    H6 3636   4.273   3.932  14.735  0.9689 -1.1805 -2.0158
  239MPD1    H7 3637   4.202   3.935  14.581  0.6751 -1.4703  0.8101
  240MPD1     C 3638   2.250   3.457  14.138  0.0044  0.2053  0.0466
  240MPD1    C1 3639   2.308   3.361  14.212  0.8346  0.5378 -0.6006
  240MPD1    C2 3640   2.416   3.385  14.290 -0.0235  0.4006 -0.4372
  240MPD1    C3 3641   2.467   3.512  14.291  0.7369 -0.4241 -0.6793
  240MPD1    C4 3642   2.393   3.616  14.235 -0.1404 -0.1951  0.6117
  240MPD1    C5 3643   2.288   3.585  14.157 -0.5873 -0.9061 -0.2340
  240MPD1     H 3644   2.480   3.312  14.340  0.2471  0.7777 -0.2338
  240MPD1    H1 3645   2.414   3.722  14.245  0.1782 -0.3900  1.9435
  240MPD1    H2 3646   2.161   3.436  14.079  1.3819 -0.6503 -1.7202
  240MPD1    H3 3647   2.212   3.660  14.139 -0.3966 -0.7907 -0.5599
  240MPD1     N 3648   2.592   3.531  14.354  0.4628 -0.0631  0.0710
  240MPD1    H5 3649   2.619   3.452  14.411  2.7541  0.7856  0.1755
  240MPD1    N1 3650   2.271   3.230  14.194 -0.9180 -0.2371  0.2236
  240MPD1    H6 3651   2.297   3.174  14.275  1.1031  0.5194  0.0804
  240MPD1    H7 3652   2.173   3.223  14.167 -0.9938 -0.6242  0.5919
  241MPD1     C 3653   2.939   4.254  14.939 -0.2773 -0.0738 -0.1063
  241MPD1    C1 3654   2.916   4.136  15.006 -0.1447  0.1317 -0.0163
  241MPD1    C2 3655   2.904   4.023  14.923  0.1635  0.0170 -0.8225
  241MPD1    C3 3656   2.942   4.017  14.786  0.0122  0.4943  0.5284
  241MPD1    C4 3657   2.979   4.132  14.734  0.6526  0.7830 -0.0641
  241MPD1    C5 3658   2.964   4.247  14.807  0.5469  0.4926 -0.1030
  241MPD1     H 3659   2.871   3.928  14.962 -2.2769  1.9137  1.7586
  241MPD1    H1 3660   2.998   4.131  14.627 -0.6093 -0.6764 -0.2720
  241MPD1    H2 3661   2.929   4.350  14.989  0.7733  0.7068 -1.3895
  241MPD1    H3 3662   2.973   4.342  14.756 -1.9253  0.3033 -0.9091
  241MPD1     N 3663   2.919   3.911  14.696 -0.1059  0.2940  0.0014
  241MPD1    H5 3664   2.931   3.931  14.598 -1.7508  1.4294  0.0447
  241MPD1    N1 3665   2.867   4.139  15.135 -0.0874  0.6200 -0.4580
  241MPD1    H6 3666   2.915   4.211  15.189  0.1541 -0.5784  0.9170
  241MPD1    H7 3667   2.889   4.054  15.186 -0.1477  0.7197 -0.2643
  242MPD1     C 3668   2.363   1.866  15.898  0.0237  0.4078 -0.8531
  242MPD1    C1 3669   2.259   1.896  15.816 -0.5284  0.2432  0.3682
  242MPD1    C2 3670   2.291   1.951  15.691 -0.3499  0.2415 -0.6047
  242MPD1    C3 3671   2.423   1.958  15.643 -0.3514  0.6978 -0.0226
  242MPD1    C4 3672   2.522   1.907  15.722  0.4850  0.0121  0.2579
  242MPD1    C5 3673   2.493   1.871  15.852 -0.3767 -0.2158  0.1526
  242MPD1     H 3674   2.214   1.989  15.624 -0.9609 -1.6764 -1.0053
  242MPD1    H1 3675   2.622   1.900  15.680  0.8906  0.1084  1.2107
  242MPD1    H2 3676   2.347   1.845  16.003  0.2834  1.3772 -0.6176
  242MPD1    H3 3677   2.570   1.841  15.923 -0.1738 -1.6226 -0.6579
  242MPD1     N 3678   2.458   1.985  15.507 -0.1643  0.2184 -0.1206
  242MPD1    H5 3679   2.556   2.000  15.482  0.5654 -0.4175  2.3351
  242MPD1    N1 3680   2.131   1.892  15.872 -0.4142 -0.2412 -0.0766
  242MPD1    H6 3681   2.134   1.818  15.942  0.3888  0.5584  0.7391
  242MPD1    H7 3682   2.048   1.879  15.815 -0.8035  1.8403  0.0023
  243MPD1     C 3683   4.659   0.766  17.666 -0.4071 -0.5641  0.4124
  243MPD1    C1 3684   4.622   0.635  17.641  0.6686 -0.6213  0.7931
  243MPD1    C2 3685   4.536   0.598  17.535 -0.1810 -0.5120  0.1795
  243MPD1    C3 3686   4.499   0.692  17.440 -0.0166 -0.1005  0.3936
  243MPD1    C4 3687   4.553   0.819  17.452 -0.5930  0.2862 -0.5568
  243MPD1    C5 3688   4.618   0.857  17.566 -0.6676  0.1952 -0.4799
  243MPD1     H 3689   4.505   0.494  17.530 -2.2771  0.0806  1.0528
  243MPD1    H1 3690   4.535   0.896  17.377  0.3593 -0.8190 -1.9191
  243MPD1    H2 3691   4.713   0.794   0.057  1.0718 -1.1064 -0.3116
  243MPD1    H3 3692   4.650   0.961  17.558 -1.2332  0.2930 -1.5425
  243MPD1     N 3693   4.411   0.662  17.329  0.2195 -0.1345 -0.2519
  243MPD1    H5 3694   4.400   0.562  17.319  0.2967 -0.3270  1.5116
  243MPD1    N1 3695   4.653   0.549   0.045  0.3387 -0.7930 -0.4575
  243MPD1    H6 3696   0.024   0.576   0.066 -0.5322  1.1984  0.9236
  243MPD1    H7 3697   4.662   0.452   0.016 -0.7948 -1.5293  1.6850
  244MPD1     C 3698   3.754   0.105  17.465  0.5996  0.7936 -0.1044
  244MPD1    C1 3699   3.852   0.177  17.534  0.1782  0.1976 -0.0858
  244MPD1    C2 3700   3.935   0.265  17.464 -0.4563  0.6817  0.0852
  244MPD1    C3 3701   3.935   0.262  17.326  0.1729 -0.1106 -0.3970
  244MPD1    C4 3702   3.838   0.195  17.260 -0.4176 -0.8839  0.1376
  244MPD1    C5 3703   3.752   0.115  17.325 -0.7918 -0.0123 -0.0389
  244MPD1     H 3704   4.015   0.323  17.508 -0.3177  0.3916  0.2186
  244MPD1    H1 3705   3.825   0.207  17.153 -0.9259 -0.0035  0.2987
  244MPD1    H2 3706   3.665   0.064  17.510 -0.5065  2.7612 -0.5303
  244MPD1    H3 3707   3.663   0.077  17.277  0.0008 -0.0698 -1.4633
  244MPD1     N 3708   4.027   0.352  17.265 -0.0374 -0.4360 -0.7038
  244MPD1    H5 3709   4.080   0.412  17.326 -0.8536 -0.8932  0.4563
  244MPD1    N1 3710   3.845   0.180  17.674  0.1016  0.0619 -0.0970
  244MPD1    H6 3711   3.924   0.222   0.025  1.6041 -1.1402 -1.4438
  244MPD1    H7 3712   3.809   0.092   0.011 -0.5966 -0.0180 -1.0005
  245MPD1     C 3713   0.934   1.377  13.215  0.1742  0.1779  0.2031
  245MPD1    C1 3714   0.895   1.508  13.222  0.7287  0.5672  0.4908
  245MPD1    C2 3715   0.991   1.605  13.236  0.2782 -0.6001  0.0175
  245MPD1    C3 3716   1.124   1.580  13.233 -0.3380 -0.5473 -0.2666
  245MPD1    C4 3717   1.162   1.449  13.209 -0.8366 -0.2198  0.6045
  245MPD1    C5 3718   1.068   1.348  13.205  0.1158  0.3025 -0.2300
  245MPD1     H 3719   0.958   1.705  13.261  0.0110 -1.2374  2.2441
  245MPD1    H1 3720   1.265   1.416  13.198 -1.2108 -0.7255 -1.3547
  245MPD1    H2 3721   0.859   1.299  13.210  0.7905 -0.1682 -3.4584
  245MPD1    H3 3722   1.100   1.245  13.206 -0.5514  0.0985  0.3909
  245MPD1     N 3723   1.214   1.683  13.247 -0.0091 -0.1700 -0.1281
  245MPD1    H5 3724   1.177   1.774  13.273 -0.3597 -0.0925 -0.8950
  245MPD1    N1 3725   0.753   1.522  13.243  0.1516 -0.3422  0.5635
  245MPD1    H6 3726   0.716   1.603  13.194 -2.4085 -1.1776  1.1196
  245MPD1    H7 3727   0.697   1.441  13.216  0.0691 -0.4738  1.1413
  246MPD1     C 3728   2.778   3.873   9.545  0.6842 -0.7275  0.2025
  246MPD1    C1 3729   2.727   3.890   9.673  1.1380 -0.1726 -0.3742
  246MPD1    C2 3730   2.674   3.782   9.740 -0.5410 -0.2215  0.5022
  246MPD1    C3 3731   2.706   3.652   9.707  0.7217  0.0778 -0.5366
  246MPD1    C4 3732   2.773   3.631   9.585  0.0470 -0.2002  0.2970
  246MPD1    C5 3733   2.796   3.741   9.505  0.1031  1.1266  0.3133
  246MPD1     H 3734   2.633   3.800   9.839 -2.0228  1.5980 -0.4621
  246MPD1    H1 3735   2.791   3.536   9.536  2.1134  0.7951 -0.8819
  246MPD1    H2 3736   2.811   3.952   9.479 -0.2700 -1.0371 -0.6364
  246MPD1    H3 3737   2.842   3.713   9.412 -0.6446  0.8144  0.0338
  246MPD1     N 3738   2.671   3.539   9.789 -0.2827 -0.5660  0.1934
  246MPD1    H5 3739   2.624   3.569   9.874  1.4326 -0.8423  1.2383
  246MPD1    N1 3740   2.688   4.022   9.702 -0.4029 -0.0501 -0.2990
  246MPD1    H6 3741   2.687   4.032   9.803 -1.1960 -0.6722 -0.2371
  246MPD1    H7 3742   2.760   4.085   9.666  0.6784  0.1304  2.2052
  247MPD1     C 3743   0.521   0.240  16.672  0.4153 -0.5071 -0.3561
  247MPD1    C1 3744   0.563   0.299  16.790 -0.2017  0.4605 -0.2504
  247MPD1    C2 3745   0.636   0.414  16.781 -0.4762  0.1706 -0.0466
  247MPD1    C3 3746   0.652   0.475  16.661 -0.5390 -0.6346  0.3219
  247MPD1    C4 3747   0.606   0.415  16.545 -0.4805 -1.0989 -0.0010
  247MPD1    C5 3748   0.537   0.294  16.549  0.2068 -0.2836  0.0758
  247MPD1     H 3749   0.685   0.465  16.863  3.4713  1.1645 -2.9962
  247MPD1    H1 3750   0.631   0.457  16.448  0.2869 -0.3094  0.5460
  247MPD1    H2 3751   0.458   0.152  16.682 -0.0555 -0.2582 -1.1382
  247MPD1    H3 3752   0.506   0.235  16.463 -0.5044 -0.9953  0.8221
  247MPD1     N 3753   0.727   0.595  16.638 -0.1293  0.0691 -0.8901
  247MPD1    H5 3754   0.723   0.637  16.546 -0.8555  2.0948  0.0763
  247MPD1    N1 3755   0.567   0.221  16.907 -0.4205 -0.5846 -0.1095
  247MPD1    H6 3756   0.578   0.267  16.997 -0.4584  0.4801 -0.6519
  247MPD1    H7 3757   0.499   0.146  16.917  1.2833 -2.2598 -0.9988
  248MPD1     C 3758   1.819   0.382   0.023  0.2412 -0.3401  0.0062
  248MPD1    C1 3759   1.847   0.374   0.159 -0.5808 -0.4465 -0.1666
  248MPD1    C2 3760   1.740   0.399   0.247 -0.7220  0.5112 -0.0822
  248MPD1    C3 3761   1.618   0.440   0.197 -0.2562 -0.0410  0.0301
  248MPD1    C4 3762   1.606   0.454   0.059  0.4413  0.2793 -0.2672
  248MPD1    C5 3763   1.702   0.417  17.677  0.3897 -0.5730 -0.7584
  248MPD1     H 3764   1.755   0.387   0.354  1.3139  1.7225 -0.2182
  248MPD1    H1 3765   1.512   0.491   0.018  0.3436  0.4413  0.1033
  248MPD1    H2 3766   1.893   0.361  17.646  0.2499  0.2124 -0.1377
  248MPD1    H3 3767   1.689   0.439  17.572 -2.6219  1.8413  0.1364
  248MPD1     N 3768   1.517   0.462   0.288  0.1904  0.2053 -0.6540
  248MPD1    H5 3769   1.550   0.442   0.382 -2.0009 -0.7682 -0.0819
  248MPD1    N1 3770   1.958   0.304   0.209  0.4204  0.5734 -0.0742
  248MPD1    H6 3771   1.962   0.324   0.309  2.6001 -0.5836  0.0857
  248MPD1    H7 3772   2.040   0.342   0.161  1.5642  0.1389  1.5351
  249MPD1     C 3773   3.617   3.995  10.318 -0.2100 -0.5755  0.3763
  249MPD1    C1 3774   3.586   4.118  10.374 -0.2028 -0.1193  0.7072
  249MPD1    C2 3775   3.542   4.223  10.289  0.4051 -0.4080  0.2682
  249MPD1    C3 3776   3.512   4.196  10.158 -0.1743  0.2178  0.3648
  249MPD1    C4 3777   3.518   4.065  10.109 -0.4502  0.2308 -0.2699
  249MPD1    C5 3778   3.577   3.968  10.185  0.2796 -0.3188  0.8054
  249MPD1     H 3779   3.513   4.319  10.329 -0.4059  0.1426 -1.6497
  249MPD1    H1 3780   3.497   4.038  10.006  4.5910 -0.9843 -0.9670
  249MPD1    H2 3781   3.661   3.917  10.380 -1.1818 -1.1481  0.3485
  249MPD1    H3 3782   3.600   3.872  10.140 -0.0316 -0.0229  0.0123
  249MPD1     N 3783   3.454   4.306  10.085  0.2123  0.3871 -0.0655
  249MPD1    H5 3784   3.461   4.393  10.137  1.3864 -0.9186  1.9579
  249MPD1    N1 3785   3.626   4.154  10.508 -0.2252 -0.1169  0.0346
  249MPD1    H6 3786   3.649   4.082  10.576  0.0009 -0.2485 -0.1815
  249MPD1    H7 3787   3.557   4.217  10.548  0.1671 -1.2262  2.4182
  250MPD2     C 3788   4.105   0.129  13.565  0.1383  0.1568 -0.7122
  250MPD2    C1 3789   3.992   0.150  13.483  0.0148 -0.1358 -0.6745
  250MPD2    C2 3790   3.930   0.045  13.438 -0.8476  0.0795 -0.2513
  250MPD2    C3 3791   3.946   4.644  13.488 -0.9370  0.3544  0.1644
  250MPD2    C4 3792   4.042   4.628  13.583  1.1518 -0.8981 -0.7858
  250MPD2    C5 3793   4.125   0.007  13.613 -0.2056  0.0888 -0.3233
  250MPD2     H 3794   3.858   0.060  13.358 -1.5799  1.3367  0.6383
  250MPD2    H1 3795   4.063   4.531  13.626  1.6233 -0.2493  0.4743
  250MPD2    H2 3796   4.179   0.207  13.581 -2.3689  1.8560  2.6262
  250MPD2    H3 3797   4.211   4.719  13.679  0.3635 -1.5504 -1.3459
  250MPD2     N 3798   3.886   4.526  13.440  0.4352 -0.1228  0.5109
  250MPD2    H5 3799   3.920   4.436  13.474 -0.6541 -0.8282 -0.2753
  250MPD2    N1 3800   3.973   0.278  13.435  0.2491  0.1855 -0.5291
  250MPD2    H7 3801   4.044   0.340  13.474 -0.2391 -0.3616  1.2472
  251TMC3    C1 3802   3.883   0.460  13.309 -0.3500  0.7111  0.1248
  251TMC3    C2 3803   3.930   0.546  13.409  0.4776 -0.1331 -0.5074
  251TMC3    C3 3804   3.911   0.681  13.388  0.0990 -0.1695  0.8154
  251TMC3    C4 3805   3.817   0.511  13.199  0.2636  0.0849 -0.1608
  251TMC3    C5 3806   3.808   0.644  13.183  0.7067  0.4768  0.1698
  251TMC3    C6 3807   3.851   0.732  13.271  0.5172 -0.8256 -0.6282
  251TMC3     C 3808   3.886   0.317  13.332 -0.4831 -0.2296 -0.0655
  251TMC3     O 3809   3.819   0.252  13.254  0.8115  0.0155  0.3464
  251TMC3     H 3810   3.990   0.510  13.492  0.3385  2.0040  0.5213
  251TMC3    H1 3811   3.766   0.446  13.130 -1.9312 -0.3670  1.8988
  251TMC3    H2 3812   3.857   0.838  13.249 -3.1683 -0.6361 -0.6838
  251TMC3    C7 3813   3.862   0.679  13.056 -0.8185  0.1247 -0.5975
  251TMC3    C8 3814   3.980   0.775  13.472 -0.1793  0.0946  0.1400
  251TMC3    O1 3815   3.844   0.795  13.018  0.0436  0.1172  0.0775
  251TMC3    O2 3816   3.961   0.896  13.457  0.6035  0.0513 -0.1565
  252TMC3    C1 3817   0.491   0.312   9.491  0.1964 -0.5809 -0.1166
  252TMC3    C2 3818   0.497   0.440   9.435 -0.1594 -0.5389  0.2603
  252TMC3    C3 3819   0.531   0.450   9.301  0.5551  0.0834 -0.7197
  252TMC3    C4 3820   0.518   0.203   9.425 -0.0506 -0.2656 -0.0949
  252TMC3    C5 3821   0.556   0.228   9.295  0.4448  0.4830  0.1073
  252TMC3    C6 3822   0.554   0.341   9.222 -0.0565 -1.0457 -0.0334
  252TMC3     C 3823   0.475   0.299   9.634  0.2779  0.3631  0.9630
  252TMC3     O 3824   0.504   0.401   9.694  0.3902 -0.0932 -0.1346
  252TMC3     H 3825   0.478   0.533   9.487 -1.8402  0.2938 -1.8462
  252TMC3    H1 3826   0.528   0.110   9.479  1.4028  0.5278  0.9900
  252TMC3    H2 3827   0.586   0.354   9.119  0.2508  2.0724  0.4806
  252TMC3    C7 3828   0.602   0.122   9.212  0.9521  0.8223 -0.3923
  252TMC3    C8 3829   0.539   0.582   9.241 -0.3671 -0.1439  0.2313
  252TMC3    O1 3830   0.677   0.149   9.121 -0.0188  0.0957  0.0054
  252TMC3    O2 3831   0.535   0.588   9.121 -0.0508  0.9248 -0.2088
  253MPD2     C 3832   1.238   4.714  15.790  0.4622 -0.0068 -0.1240
  253MPD2    C1 3833   1.111   4.660  15.770 -0.3186 -0.1339  0.3774
  253MPD2    C2 3834   1.062   4.560  15.848  0.6258 -0.2680  0.3755
  253MPD2    C3 3835   1.140   4.525  15.957 -0.1016  0.1515 -0.0756
  253MPD2    C4 3836   1.268   4.576  15.977 -0.5909  0.0395 -0.5466
  253MPD2    C5 3837   1.318   4.661  15.886  0.0844  0.0933 -1.1230
  253MPD2     H 3838   0.961   4.521  15.838  0.0445  1.4409 -0.4458
  253MPD2    H1 3839   1.321   4.565  16.071  0.9462 -0.0201 -1.4304
  253MPD2    H2 3840   1.276   0.070  15.728  3.0735 -0.8227  0.3963
  253MPD2    H3 3841   1.413   4.713  15.891 -0.3231  0.6907  0.3721
  253MPD2     N 3842   1.089   4.449  16.063 -0.9898 -0.2007  0.0177
  253MPD2    H5 3843   1.165   4.423  16.126 -0.4685 -1.4847 -1.1230
  253MPD2    N1 3844   1.028   4.704  15.659 -0.0172 -0.2379  0.0527
  253MPD2    H7 3845   0.945   4.649  15.642 -0.9111  0.3621  2.4146
  254TMC3    C1 3846   0.936   4.337  16.203 -0.5786 -0.3109  0.0684
  254TMC3    C2 3847   0.860   4.226  16.198  0.0929  0.1123  0.0773
  254TMC3    C3 3848   0.865   4.143  16.310 -0.1030  0.4869  0.2844
  254TMC3    C4 3849   1.017   4.367  16.311  0.0765 -0.8588 -0.2899
  254TMC3    C5 3850   1.010   4.283  16.421 -0.5019 -0.1924 -0.0972
  254TMC3    C6 3851   0.941   4.171  16.415 -0.3991  0.4075  0.1870
  254TMC3     C 3852   0.960   4.407  16.075  0.4411 -0.3907  0.4352
  254TMC3     O 3853   0.858   4.432  16.010 -0.2928  0.3552 -0.1477
  254TMC3     H 3854   0.808   4.207  16.104  1.3606 -0.3080 -0.5295
  254TMC3    H1 3855   1.090   4.447  16.306 -1.9112  0.9185 -0.9599
  254TMC3    H2 3856   0.932   4.107  16.502  3.8042 -1.7390 -0.9776
  254TMC3    C7 3857   1.061   4.322  16.543  0.7173 -0.8048  0.1668
  254TMC3    C8 3858   0.772   4.039  16.328  0.4155  0.2144 -0.7036
  254TMC3    O1 3859   1.081   4.233  16.627  0.3209  0.5372  0.1059
  254TMC3    O2 3860   0.732   4.002  16.435 -0.1240 -0.9428  0.3667
  255MPD2     C 3861   3.908   1.787  10.240 -0.4777 -0.2322  0.0896
  255MPD2    C1 3862   4.022   1.815  10.314 -0.7913  0.9009  0.1749
  255MPD2    C2 3863   4.126   1.723  10.333 -0.2304 -0.6124  0.0915
  255MPD2    C3 3864   4.129   1.602  10.274 -0.3245 -0.3154 -0.1211
  255MPD2    C4 3865   4.012   1.560  10.207  0.7637 -0.0171  0.3797
  255MPD2    C5 3866   3.908   1.660  10.183 -0.8617 -0.1199  0.2404
  255MPD2     H 3867   4.211   1.746  10.396 -0.2969  3.2078 -1.1825
  255MPD2    H1 3868   3.997   1.462  10.163 -0.9087 -1.0298  3.2119
  255MPD2    H2 3869   3.834   1.865  10.226 -0.4456 -0.0958  0.6717
  255MPD2    H3 3870   3.822   1.633  10.123 -0.4830 -0.2952 -0.2277
  255MPD2     N 3871   4.244   1.519  10.273  0.0066 -0.1119 -0.1371
  255MPD2    H5 3872   4.242   1.441  10.208  2.7116  0.4921 -0.9616
  255MPD2    N1 3873   4.037   1.949  10.358  0.0626  0.0515 -0.1767
  255MPD2    H7 3874   3.962   2.011  10.329 -0.2624  0.2974  1.1659
  256TMC3    C1 3875   4.129   2.155  10.413 -0.0377  0.3073 -0.7863
  256TMC3    C2 3876   4.099   2.213  10.289  0.0336  0.4553  0.4064
  256TMC3    C3 3877   4.168   2.327  10.255  0.0233  0.0752 -0.1834
  256TMC3    C4 3878   4.211   2.222  10.496  0.7371  0.5396 -0.8147
  256TMC3    C5 3879   4.272   2.343  10.459  0.5510 -0.1332 -0.3854
  256TMC3    C6 3880   4.268   2.385  10.330 -0.3519  0.4336  0.3745
  256TMC3     C 3881   4.131   2.010  10.432 -0.3647  0.3583  0.2855
  256TMC3     O 3882   4.219   1.964  10.504 -0.1319 -0.2185  0.3715
  256TMC3     H 3883   4.027   2.165  10.223  3.0994  0.0019 -2.6310
  256TMC3    H1 3884   4.214   2.185  10.598  0.3182  1.5705 -0.4351
  256TMC3    H2 3885   4.335   2.463  10.295 -0.8540  1.3413  1.4175
  256TMC3    C7 3886   4.368   2.395  10.558  0.0916  0.1256 -0.0491
  256TMC3    C8 3887   4.127   2.389  10.135 -0.2310  0.1455 -0.5154
  256TMC3    O1 3888   4.415   2.304  10.619  0.0892 -0.5440 -0.1411
  256TMC3    O2 3889   4.091   2.319  10.042 -0.6262 -0.1442 -0.4459
  257MPD2     C 3890   3.003   0.252  13.383  0.0513  0.1799 -0.1516
  257MPD2    C1 3891   2.984   0.165  13.286 -0.1638 -0.3888  0.1732
  257MPD2    C2 3892   2.981   0.034  13.326  0.3220  0.0945  0.0251
  257MPD2    C3 3893   2.997   4.722  13.456  0.3122  0.4291 -0.0562
  257MPD2    C4 3894   3.018   0.094  13.551  0.0465 -0.3321 -0.1405
  257MPD2    C5 3895   3.028   0.225  13.509 -0.0676 -0.4795  0.2074
  257MPD2     H 3896   2.972   4.677  13.255  1.0861 -1.3193  1.5446
  257MPD2    H1 3897   3.034   0.076  13.657  1.8624 -2.2056 -0.7440
  257MPD2    H2 3898   3.010   0.357  13.355 -2.9364  0.5295  0.4108
  257MPD2    H3 3899   3.043   0.313  13.570  0.2719 -0.4875  0.1335
  257MPD2     N 3900   3.007   4.591  13.486  0.4787  0.5451 -0.2892
  257MPD2    H5 3901   2.998   4.526  13.408 -0.0735  1.4418 -0.9635
  257MPD2    N1 3902   2.946   0.199  13.158 -0.3979 -0.0704 -0.1446
  257MPD2    H7 3903   2.946   0.299  13.141  2.9446 -0.2301 -1.0887
  258TMC3    C1 3904   3.041   4.388  13.613 -0.7051  0.4283 -0.2769
  258TMC3    C2 3905   3.036   4.311  13.495  0.4689  0.5275  0.0668
  258TMC3    C3 3906   3.055   4.181  13.507  0.8049  0.3308 -0.3275
  258TMC3    C4 3907   3.091   4.336  13.731 -0.6470  0.3955 -0.1734
  258TMC3    C5 3908   3.103   4.200  13.736 -0.0975  0.3490 -0.0524
  258TMC3    C6 3909   3.086   4.120  13.626  0.2884 -0.0361  0.1851
  258TMC3     C 3910   3.041   4.534  13.610 -0.0162  0.4354 -0.4124
  258TMC3     O 3911   3.056   4.592  13.719  0.5786 -0.3393  0.5256
  258TMC3     H 3912   2.999   4.355  13.404  0.8886  0.4097 -0.1595
  258TMC3    H1 3913   3.093   4.397  13.821 -1.8963 -1.5486  1.1997
  258TMC3    H2 3914   3.084   4.013  13.643 -0.7349 -0.1155 -0.4352
  258TMC3    C7 3915   3.123   4.134  13.866 -0.3414  0.8402 -0.1454
  258TMC3    C8 3916   3.033   4.100  13.389 -0.2038  0.1127  0.4747
  258TMC3    O1 3917   3.178   4.206  13.948  0.4799  0.1674 -0.4033
  258TMC3    O2 3918   3.013   3.982  13.410  0.4808 -0.4394 -0.5889
  259MPD2     C 3919   2.273   0.759   1.250 -0.3717 -1.0800 -0.1630
  259MPD2    C1 3920   2.372   0.812   1.326 -0.0822  0.4054  0.6988
  259MPD2    C2 3921   2.503   0.819   1.268  0.4731 -0.3822 -0.3317
  259MPD2    C3 3922   2.526   0.772   1.139 -0.1503 -0.2558 -0.5426
  259MPD2    C4 3923   2.428   0.707   1.071  0.1076 -0.2755  0.2344
  259MPD2    C5 3924   2.304   0.700   1.126 -0.0120 -0.4487 -0.1800
  259MPD2     H 3925   2.591   0.865   1.309  0.2287 -0.6280  0.4613
  259MPD2    H1 3926   2.457   0.666   0.974  2.2630  0.2046  0.6808
  259MPD2    H2 3927   2.170   0.765   1.282  0.1774  2.0774  1.0578
  259MPD2    H3 3928   2.222   0.653   1.073  0.6561 -1.5414 -0.2546
  259MPD2     N 3929   2.662   0.785   1.086  0.2626 -0.2283 -0.8445
  259MPD2    H5 3930   2.735   0.812   1.150  0.2748 -3.8160  0.6591
  259MPD2    N1 3931   2.341   0.869   1.456  0.3258 -0.6046 -0.3318
  259MPD2    H7 3932   2.245   0.867   1.488  1.0659 -0.4010  1.9568
  260TMC3    C1 3933   2.838   0.741   0.942  0.2752  0.0989 -0.2740
  260TMC3    C2 3934   2.900   0.763   0.821 -0.2273 -1.1646 -0.0438
  260TMC3    C3 3935   3.021   0.707   0.810  0.5260  0.6045 -0.8466
  260TMC3    C4 3936   2.891   0.658   1.038  1.0397  0.1551 -0.2908
  260TMC3    C5 3937   2.996   0.586   0.999  0.1393 -0.8368 -0.8065
  260TMC3    C6 3938   3.075   0.610   0.893  0.1628 -0.0260 -0.1284
  260TMC3     C 3939   2.699   0.771   0.957  0.3559  0.0715  0.2827
  260TMC3     O 3940   2.628   0.775   0.857  0.1757 -0.0285  0.2752
  260TMC3     H 3941   2.867   0.827   0.740  0.3306 -0.9993 -0.1437
  260TMC3    H1 3942   2.832   0.624   1.122  0.1116 -1.3032 -1.5219
  260TMC3    H2 3943   3.167   0.557   0.867  0.9140  0.3578  1.8015
  260TMC3    C7 3944   3.024   0.456   1.055  0.2716  0.0085  0.1871
  260TMC3    C8 3945   3.092   0.754   0.690  0.5879 -0.2952 -0.3493
  260TMC3    O1 3946   3.135   0.444   1.106 -0.5570  0.0885 -0.6083
  260TMC3    O2 3947   3.076   0.866   0.640  0.6515 -0.3484  0.3537
  261MPD2     C 3948   3.367   4.318  12.824 -0.6549  0.4543  0.1767
  261MPD2    C1 3949   3.440   4.419  12.890 -0.0789  0.5489  0.4063
  261MPD2    C2 3950   3.465   4.542  12.831 -0.3632  0.5553 -0.4111
  261MPD2    C3 3951   3.430   4.560  12.702 -0.8884 -0.5649 -0.5974
  261MPD2    C4 3952   3.354   4.468  12.635  0.1561 -0.4642 -0.0276
  261MPD2    C5 3953   3.330   4.349  12.696 -0.9259 -0.3691  0.1043
  261MPD2     H 3954   3.532   4.614  12.876  1.4014 -1.2555 -0.1479
  261MPD2    H1 3955   3.323   4.488  12.533 -1.0287 -4.9534 -0.5314
  261MPD2    H2 3956   3.349   4.219  12.865 -0.9136  0.2321 -0.4811
  261MPD2    H3 3957   3.269   4.274  12.647  1.9651 -1.6795 -1.4715
  261MPD2     N 3958   3.475   4.677  12.641  0.0652 -0.5994 -0.0344
  261MPD2    H5 3959   3.533   0.011  12.701 -0.0537 -1.5018  0.9573
  261MPD2    N1 3960   3.500   4.391  13.015  1.0698  0.3306 -0.2807
  261MPD2    H7 3961   3.572   4.458  13.043 -0.1044  1.6167 -0.3230
  262TMC3    C1 3962   3.546   0.108  12.477 -0.3061  0.3426 -0.6249
  262TMC3    C2 3963   3.509   0.218  12.401 -0.2908 -0.2108  0.0425
  262TMC3    C3 3964   3.609   0.291  12.339 -0.3436  0.1531 -0.5789
  262TMC3    C4 3965   3.677   0.066  12.483  0.0717 -0.1500 -0.8745
  262TMC3    C5 3966   3.775   0.148  12.426 -0.2608  0.7631 -0.1991
  262TMC3    C6 3967   3.737   0.260  12.351 -0.1447 -0.2770  0.2659
  262TMC3     C 3968   3.450   0.006  12.517  0.1759 -0.7542  0.0479
  262TMC3     O 3969   3.357   4.712  12.444  0.1103 -0.4568  0.5532
  262TMC3     H 3970   3.405   0.250  12.403 -0.7257 -1.7373  1.9640
  262TMC3    H1 3971   3.708   4.697  12.529 -1.0889  1.6205  3.3938
  262TMC3    H2 3972   3.809   0.334  12.317 -3.4449  2.8772  0.1548
  262TMC3    C7 3973   3.886   0.077  12.374  0.1693 -0.4835 -0.1888
  262TMC3    C8 3974   3.580   0.418  12.272  0.1554 -0.5176 -0.0466
  262TMC3    O1 3975   3.930   4.708  12.442  0.2094  0.0363  0.1136
  262TMC3    O2 3976   3.669   0.499  12.243  0.4660  0.1029 -0.1219
  263MPD2     C 3977   0.052   3.498  10.972  0.4033 -1.2252  0.1796
  263MPD2    C1 3978   0.068   3.622  11.033 -0.4117  0.5836 -0.0522
  263MPD2    C2 3979   0.100   3.729  10.952  0.2679  0.1549  0.7049
  263MPD2    C3 3980   0.116   3.715  10.818  0.6015 -0.3475 -1.0166
  263MPD2    C4 3981   0.090   3.590  10.755  0.0824  0.5226  0.2823
  263MPD2    C5 3982   0.058   3.482  10.836  0.1994 -0.6360  0.0233
  263MPD2     H 3983   0.123   3.827  10.992  2.4051  0.1256 -0.4620
  263MPD2    H1 3984   0.098   3.558  10.652 -3.0046 -2.8082  1.1137
  263MPD2    H2 3985   0.021   3.415  11.034  1.0894  0.6003  2.9785
  263MPD2    H3 3986   0.035   3.390  10.784  1.8642 -0.7409 -0.5372
  263MPD2     N 3987   0.153   3.823  10.743  0.0429 -0.6363 -0.2756
  263MPD2    H5 3988   0.158   3.916  10.783 -0.7275 -0.9018  0.4218
  263MPD2    N1 3989   0.052   3.630  11.172  0.3251 -0.2946  0.3327
  263MPD2    H7 3990   0.057   3.540  11.220 -0.1369 -0.0166  0.8944
  264TMC3    C1 3991   0.256   3.939  10.565  0.3195 -0.7496  0.1499
  264TMC3    C2 3992   0.213   4.057  10.609 -0.2715 -0.6806  0.2506
  264TMC3    C3 3993   0.251   4.169  10.540 -0.3860 -0.3436  0.3090
  264TMC3    C4 3994   0.332   3.926  10.460 -0.4265  0.3356  0.2360
  264TMC3    C5 3995   0.373   4.035  10.390 -0.7001  0.8595  0.2998
  264TMC3    C6 3996   0.331   4.164  10.429  0.5247 -0.5345  0.7088
  264TMC3     C 3997   0.195   3.817  10.610 -0.3184  0.7991  0.2148
  264TMC3     O 3998   0.186   3.721  10.533 -0.2971  0.0243  0.6007
  264TMC3     H 3999   0.130   4.056  10.679 -0.7800 -3.8410 -0.4182
  264TMC3    H1 4000   0.348   3.835  10.404 -0.9355  0.9678 -0.9484
  264TMC3    H2 4001   0.351   4.252  10.369 -0.2903 -0.1321  1.0182
  264TMC3    C7 4002   0.482   4.011  10.299  0.0928  0.5564  0.7054
  264TMC3    C8 4003   0.213   4.300  10.578 -0.1108  0.7795  0.4565
  264TMC3    O1 4004   0.548   3.912  10.311  0.1569  0.3994 -0.0121
  264TMC3    O2 4005   0.223   4.384  10.491  0.5295  0.1118  0.0629
  265MPD2     C 4006   2.544   4.342  15.546 -0.2830  0.6664 -0.5801
  265MPD2    C1 4007   2.464   4.434  15.472 -0.5935 -0.0230 -0.4823
  265MPD2    C2 4008   2.463   4.434  15.334  0.0810  0.4153  0.9839
  265MPD2    C3 4009   2.541   4.339  15.263  0.2544  0.2804 -0.4377
  265MPD2    C4 4010   2.600   4.240  15.337 -0.3826 -0.1003 -0.0691
  265MPD2    C5 4011   2.608   4.249  15.472  0.8147  0.1553 -0.2787
  265MPD2     H 4012   2.413   4.511  15.276  0.6687  1.6775  2.1314
  265MPD2    H1 4013   2.654   4.164  15.281 -1.0370 -0.7880  0.2335
  265MPD2    H2 4014   2.551   4.336  15.654 -0.5694  0.8331 -0.5528
  265MPD2    H3 4015   2.663   4.166  15.516 -0.8337 -1.2757 -0.9240
  265MPD2     N 4016   2.559   4.329  15.124 -0.2896  0.4755 -0.2196
  265MPD2    H5 4017   2.607   4.248  15.085  0.5968  1.1350 -0.4976
  265MPD2    N1 4018   2.392   4.532  15.540 -0.5647  0.1830  0.0847
  265MPD2    H7 4019   2.315   4.577  15.491 -1.0121 -0.1889  0.4535
  266TMC3    C1 4020   2.274   4.659  15.704  0.7805 -0.1693  0.5349
  266TMC3    C2 4021   2.228   4.664  15.836 -0.0966  0.0091 -0.5898
  266TMC3    C3 4022   2.148   0.044  15.868  0.8282 -0.4564  0.2207
  266TMC3    C4 4023   2.227   0.019  15.613  0.5732  0.0781  0.8005
  266TMC3    C5 4024   2.146   0.123  15.651 -0.3824 -0.0496 -0.8351
  266TMC3    C6 4025   2.114   0.141  15.788 -0.1308 -0.1936  0.2801
  266TMC3     C 4026   2.374   4.554  15.672  0.0207 -0.0077 -0.1028
  266TMC3     O 4027   2.422   4.501  15.770 -0.0207 -0.1759  0.2422
  266TMC3     H 4028   2.242   4.584  15.907 -0.4059 -0.4042 -0.9977
  266TMC3    H1 4029   2.247   0.004  15.507 -1.2716  2.2411  0.1539
  266TMC3    H2 4030   2.055   0.227  15.821 -2.2314 -0.8192 -1.8946
  266TMC3    C7 4031   2.089   0.211  15.551 -0.0445 -0.6135 -0.2403
  266TMC3    C8 4032   2.064   0.026  15.982 -1.0819 -0.0611 -0.2663
  266TMC3    O1 4033   2.077   0.164  15.438 -0.0874 -0.1196  0.1925
  266TMC3    O2 4034   2.027   4.634  16.007 -0.1180 -0.1465  0.0534
  267MPD2     C 4035   4.087   0.687   0.050 -0.1498 -0.0337 -0.1693
  267MPD2    C1 4036   4.130   0.789  17.667  0.3955  0.1657 -0.1671
  267MPD2    C2 4037   4.074   0.806  17.541  0.2547  0.4347 -0.5673
  267MPD2    C3 4038   3.979   0.722  17.491 -0.4747 -0.4070 -0.2595
  267MPD2    C4 4039   3.944   0.616  17.573 -0.2731 -0.4294  0.4041
  267MPD2    C5 4040   3.991   0.604   0.004  0.6847  1.1967 -0.3200
  267MPD2     H 4041   4.119   0.877  17.473  3.0079 -0.0517  0.7438
  267MPD2    H1 4042   3.875   0.534  17.556  0.6998 -1.1843  0.0900
  267MPD2    H2 4043   4.151   0.671   0.137 -0.9303  1.3677  0.6458
  267MPD2    H3 4044   3.973   0.514   0.061  2.6857  0.5941 -0.6102
  267MPD2     N 4045   3.925   0.726  17.355 -0.2015  0.0902 -0.0340
  267MPD2    H5 4046   3.861   0.652  17.326 -0.7914  1.0112 -1.1027
  267MPD2    N1 4047   4.231   0.885   0.012  0.0765 -0.5228  0.0621
  267MPD2    H7 4048   4.300   0.850   0.079  0.4572 -0.1671 -0.1458
  268TMC3    C1 4049   4.351   1.096   0.031 -0.3293 -0.9372  0.8897
  268TMC3    C2 4050   4.412   1.187  17.644  0.5429 -0.2797 -0.2356
  268TMC3    C3 4051   4.541   1.222  17.664 -0.4035  0.5506  0.0943
  268TMC3    C4 4052   4.419   1.046   0.144  0.3627 -0.2636  0.7069
  268TMC3    C5 4053   4.543   1.097   0.166 -0.1083 -0.5476 -0.4573
  268TMC3    C6 4054   4.606   1.182   0.079  0.2131  0.4103  0.5115
  268TMC3     C 4055   4.243   1.014  17.665 -0.0158  0.2273  0.5847
  268TMC3     O 4056   4.179   1.075  17.580 -0.2026  0.3591  0.3730
  268TMC3     H 4057   4.351   1.226  17.563  1.2169 -2.7008 -1.9234
  268TMC3    H1 4058   4.367   0.982   0.215 -2.0919  0.1276 -0.7525
  268TMC3    H2 4059   4.697   1.234   0.106 -0.3359  1.1820  0.8766
  268TMC3    C7 4060   4.594   1.078   0.306 -0.1317  0.4662  1.0268
  268TMC3    C8 4061   4.613   1.300  17.569  0.0473  0.4513 -0.3701
  268TMC3    O1 4062   4.588   0.968   0.355  0.2443 -0.0397 -0.6480
  268TMC3    O2 4063   4.721   1.340  17.609  0.3837 -0.3782 -0.0638
  269MPD2     C 4064   0.157   4.697  15.783  0.2934  0.5223  0.1165
  269MPD2    C1 4065   0.029   0.022  15.782  0.2272  0.1158 -0.1927
  269MPD2    C2 4066   0.005   0.162  15.784 -0.0220  0.9884  0.4984
  269MPD2    C3 4067   0.107   0.248  15.803  0.6841 -0.2137  0.6075
  269MPD2    C4 4068   0.238   0.202  15.803 -0.3564 -0.2662  0.0634
  269MPD2    C5 4069   0.264   0.064  15.789  0.1175 -0.0507  0.4443
  269MPD2     H 4070   4.630   0.190  15.750  0.0608  0.0609 -0.5232
  269MPD2    H1 4071   0.325   0.266  15.810 -1.8564  1.7953  0.1680
  269MPD2    H2 4072   0.180   4.591  15.788  0.5614  0.4903 -1.7331
  269MPD2    H3 4073   0.364   0.023  15.798  0.6893  0.8873 -1.7227
  269MPD2     N 4074   0.074   0.380  15.801 -0.2521 -0.2704 -0.2340
  269MPD2    H5 4075   4.700   0.403  15.814  0.0414  2.3911 -2.5933
  269MPD2    N1 4076   4.655   4.644  15.782 -0.0357  0.3492 -0.0450
  269MPD2    H7 4077   4.679   4.545  15.789 -1.8728 -0.0042  1.1636
  270TMC3    C1 4078   4.450   4.533  15.761 -0.2052 -0.4377  0.6638
  270TMC3    C2 4079   4.364   4.507  15.663 -0.4792 -0.0771  0.2973
  270TMC3    C3 4080   4.322   4.375  15.644 -0.0926 -0.0612 -0.3119
  270TMC3    C4 4081   4.495   4.434  15.839 -0.9269  0.1049  0.6852
  270TMC3    C5 4082   4.458   4.307  15.819 -0.0169  0.5698 -0.1619
  270TMC3    C6 4083   4.382   4.270  15.710 -0.5506  0.4729  0.9412
  270TMC3     C 4084   4.523   4.663  15.757 -0.0047  0.3174  1.1878
  270TMC3     O 4085   4.463   0.043  15.734  0.0186  0.3617  0.1855
  270TMC3     H 4086   4.317   4.583  15.601 -0.7163 -2.2476 -2.1782
  270TMC3    H1 4087   4.554   4.455  15.927 -0.5524 -0.1278  0.4904
  270TMC3    H2 4088   4.364   4.166  15.684  1.0258  0.1568  1.1112
  270TMC3    C7 4089   4.557   4.204  15.851 -0.4556  1.2459  0.5834
  270TMC3    C8 4090   4.292   4.358  15.505 -0.3563 -0.0469  0.1845
  270TMC3    O1 4091   4.672   4.235  15.869  0.1564 -0.1861 -0.2466
  270TMC3    O2 4092   4.297   4.455  15.430 -0.1388  1.8480  0.2078
  271MPD2     C 4093   3.798   4.640  13.979  0.2885  0.9117 -0.0546
  271MPD2    C1 4094   3.740   4.590  14.095 -1.2100 -0.5516  0.0523
  271MPD2    C2 4095   3.610   4.611  14.109 -0.0382  0.3991  0.8380
  271MPD2    C3 4096   3.533   4.664  14.013 -0.3859  0.4649  0.0046
  271MPD2    C4 4097   3.587   4.695  13.889  0.0554  1.0420 -0.2591
  271MPD2    C5 4098   3.719   4.687  13.880  0.6387  0.3369 -0.7165
  271MPD2     H 4099   3.568   4.585  14.206  0.2652  0.7973  1.0780
  271MPD2    H1 4100   3.527   4.723  13.803  1.3899 -1.3236 -1.9421
  271MPD2    H2 4101   3.906   4.629  13.971 -0.0300 -1.8819 -0.3889
  271MPD2    H3 4102   3.767   4.714  13.787  1.4505 -1.7410 -0.8923
  271MPD2     N 4103   3.394   4.669  14.023 -0.3839  0.2478  0.2120
  271MPD2    H5 4104   3.350   0.003  13.953  0.2723 -0.5206 -0.8448
  271MPD2    N1 4105   3.808   4.537  14.206 -0.1066  0.0761 -0.3523
  271MPD2    H7 4106   3.753   4.526  14.291 -0.2651  1.1892 -0.3132
  272TMC3    C1 4107   3.996   4.435  14.320 -0.1844 -0.0848  0.5192
  272TMC3    C2 4108   4.105   4.359  14.302  0.1517  0.1372  0.3074
  272TMC3    C3 4109   4.160   4.288  14.409  0.1796 -0.0092  0.2037
  272TMC3    C4 4110   3.941   4.455  14.443 -0.1251  0.7003 -0.1763
  272TMC3    C5 4111   4.013   4.399  14.547 -0.0937  0.5474  0.2292
  272TMC3    C6 4112   4.118   4.314  14.533 -0.1426 -0.0630 -0.1067
  272TMC3     C 4113   3.948   4.506  14.200 -0.3370  0.3778 -0.5426
  272TMC3     O 4114   4.024   4.523  14.105  0.1701  0.3249 -0.0395
  272TMC3     H 4115   4.145   4.349  14.202  2.5784  0.1292  1.2820
  272TMC3    H1 4116   3.862   4.522  14.473 -1.0619 -1.2152  1.6482
  272TMC3    H2 4117   4.150   4.256  14.618 -0.8175 -0.8235 -0.3690
  272TMC3    C7 4118   3.958   4.419  14.678 -0.1748 -0.5120  0.0889
  272TMC3    C8 4119   4.300   4.256  14.402 -0.3317 -0.5310 -0.4735
  272TMC3    O1 4120   3.839   4.423  14.701 -0.2625 -0.4720 -0.0244
  272TMC3    O2 4121   4.360   4.314  14.311 -0.8207  0.1540  0.7590
  273MPD2     C 4122   0.491   2.377  12.010 -0.0879  0.6199  0.7357
  273MPD2    C1 4123   0.608   2.436  12.042 -0.3824  0.1933  0.0237
  273MPD2    C2 4124   0.642   2.536  11.947 -0.0980  0.0057  0.1311
  273MPD2    C3 4125   0.562   2.578  11.842 -0.4435  0.2632  0.1481
  273MPD2    C4 4126   0.449   2.507  11.818  0.0338 -0.3371  0.1371
  273MPD2    C5 4127   0.405   2.416  11.904 -0.7294  0.2825  0.1788
  273MPD2     H 4128   0.724   2.602  11.970 -0.2187  0.5012 -0.8410
  273MPD2    H1 4129   0.390   2.519  11.727 -1.2670  0.7678  1.1276
  273MPD2    H2 4130   0.451   2.298  12.074  0.0005  0.4543  0.5863
  273MPD2    H3 4131   0.312   2.362  11.896 -0.6975  0.4014 -0.8950
  273MPD2     N 4132   0.592   2.678  11.752  0.0210  0.3441 -0.5649
  273MPD2    H5 4133   0.517   2.699  11.687 -0.2479 -0.8692 -0.6433
  273MPD2    N1 4134   0.686   2.401  12.157 -0.2202 -1.5649  0.0005
  273MPD2    H7 4135   0.641   2.340  12.226  0.4738 -3.0532 -0.8655
  274TMC3    C1 4136   0.722   2.828  11.615  0.2522  0.3119 -0.2972
  274TMC3    C2 4137   0.663   2.785  11.493 -0.0050 -0.9067 -0.0636
  274TMC3    C3 4138   0.687   2.867  11.390 -0.1314  0.4112  0.1173
  274TMC3    C4 4139   0.772   2.951  11.633  0.1857 -0.0328  0.3130
  274TMC3    C5 4140   0.774   3.040  11.526 -1.0642  0.0154  0.0691
  274TMC3    C6 4141   0.742   2.992  11.404 -0.3328  0.0120 -0.3187
  274TMC3     C 4142   0.712   2.747  11.740  0.7804  0.2014 -0.0582
  274TMC3     O 4143   0.804   2.761  11.820  0.7233 -0.0799 -0.5827
  274TMC3     H 4144   0.637   2.683  11.468 -1.8832 -0.0617 -1.5373
  274TMC3    H1 4145   0.809   2.977  11.732  0.4374  1.3625 -0.1435
  274TMC3    H2 4146   0.709   3.063  11.329 -0.8983  0.2764  0.1774
  274TMC3    C7 4147   0.695   3.157  11.565  0.0186  0.4632  0.4514
  274TMC3    C8 4148   0.607   2.848  11.268  0.3139  0.2297  0.4161
  274TMC3    O1 4149   0.651   3.230  11.477 -0.5373  0.1077 -0.0508
  274TMC3    O2 4150   0.522   2.759  11.265 -0.0576  0.4935  0.6585
  275MPD2     C 4151   0.311   1.137  14.557 -0.3792 -0.2477  0.3474
  275MPD2    C1 4152   0.260   1.070  14.665 -0.2071  0.5427 -0.2986
  275MPD2    C2 4153   0.146   0.995  14.644  0.4084  0.2459 -0.0189
  275MPD2    C3 4154   0.080   0.983  14.525 -0.0512 -0.0389 -0.3709
  275MPD2    C4 4155   0.132   1.051  14.418 -0.0649 -0.3026  0.2446
  275MPD2    C5 4156   0.244   1.133  14.441 -0.7147  0.2641 -0.1529
  275MPD2     H 4157   0.106   0.942  14.730  0.4836  1.0291  0.4974
  275MPD2    H1 4158   0.088   1.050  14.319  1.4436  1.0125 -0.4614
  275MPD2    H2 4159   0.405   1.190  14.563 -0.7985  0.4845  0.3563
  275MPD2    H3 4160   0.296   1.176  14.357  0.3939 -2.0673 -0.6696
  275MPD2     N 4161   4.687   0.904  14.507  0.3577 -0.9819  0.0210
  275MPD2    H5 4162   4.656   0.907  14.411 -0.6725 -0.3981  0.3691
  275MPD2    N1 4163   0.304   1.066  14.797 -0.1920 -0.1846  0.5071
  275MPD2    H7 4164   0.254   1.001  14.857  2.7588 -1.6303  1.4275
  276TMC3    C1 4165   0.449   1.099  14.976  0.0821  0.4195 -0.4012
  276TMC3    C2 4166   0.361   1.020  15.056  0.5814  0.7395 -0.0960
  276TMC3    C3 4167   0.392   0.983  15.182  0.1898  0.0165 -0.4676
  276TMC3    C4 4168   0.571   1.132  15.027 -0.3778  0.6601  0.1045
  276TMC3    C5 4169   0.594   1.098  15.156 -0.1881 -0.8624 -0.7137
  276TMC3    C6 4170   0.507   1.026  15.232  0.3825 -0.1779  0.1383
  276TMC3     C 4171   0.410   1.140  14.848 -0.3149 -0.1953  0.3623
  276TMC3     O 4172   0.470   1.233  14.795 -0.0454 -0.0508 -0.2020
  276TMC3     H 4173   0.263   0.990  15.018  0.4818  0.5288  0.3312
  276TMC3    H1 4174   0.654   1.172  14.969 -0.3411  0.3413 -0.0615
  276TMC3    H2 4175   0.534   0.999  15.333  0.6948  1.7540  0.5616
  276TMC3    C7 4176   0.727   1.089  15.210 -0.0571 -0.3193 -0.8031
  276TMC3    C8 4177   0.317   0.871  15.235  0.2104 -0.0074  0.6383
  276TMC3    O1 4178   0.735   1.118  15.329 -0.2784  0.7804  0.0888
  276TMC3    O2 4179   0.201   0.861  15.202  0.1917 -0.6291  0.5840
  277MPD2     C 4180   2.106   4.562  13.105 -0.8356 -0.2751  0.1415
  277MPD2    C1 4181   1.981   4.578  13.162 -0.3683 -0.1398  0.2925
  277MPD2    C2 4182   1.931   4.472  13.233 -0.5789 -0.2513 -0.1547
  277MPD2    C3 4183   2.007   4.357  13.267  0.0694 -0.1022  0.4192
  277MPD2    C4 4184   2.132   4.354  13.220 -0.7087  0.6533 -0.1237
  277MPD2    C5 4185   2.183   4.459  13.150 -0.3343 -0.3033  0.1078
  277MPD2     H 4186   1.835   4.470  13.283  0.5546 -0.0422  2.0703
  277MPD2    H1 4187   2.200   4.277  13.254  0.6086  2.0585  0.4092
  277MPD2    H2 4188   2.155   4.640  13.049 -0.5276 -0.9700 -0.5466
  277MPD2    H3 4189   2.288   4.462  13.127  0.0661 -0.7308  1.8467
  277MPD2     N 4190   1.964   4.256  13.352  0.3179 -0.0632 -0.0523
  277MPD2    H5 4191   2.031   4.180  13.363  0.6121 -0.1101 -2.1386
  277MPD2    N1 4192   1.912   4.701  13.144  0.1977 -0.4795 -0.0647
  277MPD2    H7 4193   1.962   0.046  13.090 -1.4014  0.3783 -0.4493
  278TMC3    C1 4194   1.879   4.156  13.550 -0.2648  0.0453 -0.2844
  278TMC3    C2 4195   1.910   4.032  13.505 -0.5048  0.1815 -0.0388
  278TMC3    C3 4196   1.921   3.931  13.595 -0.4557  0.0221 -0.0946
  278TMC3    C4 4197   1.849   4.178  13.683 -0.3976 -0.4778  0.3819
  278TMC3    C5 4198   1.851   4.071  13.768 -0.2514 -0.3083  0.3018
  278TMC3    C6 4199   1.896   3.952  13.730  0.2865 -0.1688 -0.8896
  278TMC3     C 4200   1.882   4.271  13.460  0.5804 -0.8214  0.2046
  278TMC3     O 4201   1.819   4.364  13.500 -0.1592 -0.1687  0.0261
  278TMC3     H 4202   1.946   4.013  13.405 -1.9527 -0.8279 -0.3814
  278TMC3    H1 4203   1.822   4.278  13.713  1.2733  0.7066 -2.0208
  278TMC3    H2 4204   1.890   3.869  13.800  0.5905  1.6713  1.3507
  278TMC3    C7 4205   1.790   4.083  13.896  0.0624 -0.0399  0.0196
  278TMC3    C8 4206   1.936   3.800  13.535  0.3396  0.2103  0.1080
  278TMC3    O1 4207   1.831   4.006  13.982  0.0045 -0.1650  0.1752
  278TMC3    O2 4208   2.001   3.713  13.590  0.2220 -0.1669 -0.0606
  279MPD2     C 4209   1.890   4.241   0.459 -0.0653  0.4874  0.0668
  279MPD2    C1 4210   1.858   4.368   0.462  0.0601  0.7793 -0.1106
  279MPD2    C2 4211   1.933   4.459   0.389  0.4032  0.2048  0.9153
  279MPD2    C3 4212   2.038   4.423   0.313  0.4432  0.1377 -0.4728
  279MPD2    C4 4213   2.071   4.288   0.305  0.1509 -0.1748  0.0831
  279MPD2    C5 4214   2.000   4.199   0.383  1.0042  0.1864  0.6124
  279MPD2     H 4215   1.906   4.563   0.402  2.0583  0.8074 -0.5254
  279MPD2    H1 4216   2.153   4.259   0.241  0.7676  0.0316  0.7771
  279MPD2    H2 4217   1.835   4.175   0.526  1.8097 -1.1207  0.0353
  279MPD2    H3 4218   2.022   4.093   0.380 -2.0031 -0.3964 -0.2919
  279MPD2     N 4219   2.109   4.512   0.232  0.3285 -0.0221  0.5105
  279MPD2    H5 4220   2.184   4.467   0.180 -1.1482  0.1769 -1.8087
  279MPD2    N1 4221   1.744   4.401   0.543  0.4187  0.4611  0.3437
  279MPD2    H7 4222   1.713   4.324   0.600  0.1301 -0.7985 -1.5392
  280TMC3    C1 4223   1.557   4.518   0.609  0.1592 -0.4207  0.1399
  280TMC3    C2 4224   1.485   4.405   0.635 -0.5277  0.5806 -0.2613
  280TMC3    C3 4225   1.349   4.409   0.638  0.1229  0.0016  1.2160
  280TMC3    C4 4226   1.490   4.638   0.611 -0.3119 -0.5769 -0.2090
  280TMC3    C5 4227   1.352   4.640   0.618 -0.1732  0.1620  0.4287
  280TMC3    C6 4228   1.277   4.522   0.638 -0.0004 -0.0966 -0.0112
  280TMC3     C 4229   1.682   4.519   0.541 -0.5350 -1.0638  0.1960
  280TMC3     O 4230   1.698   4.611   0.464  0.1750 -0.6245 -0.0181
  280TMC3     H 4231   1.532   4.308   0.624  1.1062  1.3026  0.3076
  280TMC3    H1 4232   1.546   0.006   0.599 -0.2630 -0.2742  2.3340
  280TMC3    H2 4233   1.169   4.524   0.637  0.0197  0.8996 -0.7158
  280TMC3    C7 4234   1.286   0.044   0.621  0.7571  0.1857 -0.8793
  280TMC3    C8 4235   1.279   4.286   0.603 -0.5340  0.7182  0.3593
  280TMC3    O1 4236   1.360   0.130   0.664  0.0668  0.5944  0.1521
  280TMC3    O2 4237   1.332   4.180   0.632 -0.6888  0.8808 -0.0700
  281TMC3    C1 4238   4.632   0.172  12.993  0.1214  0.3289  0.6256
  281TMC3    C2 4239   4.565   0.257  12.907  0.0374  0.0077 -0.9325
  281TMC3    C3 4240   4.449   0.207  12.846  0.2585  0.2448  0.2075
  281TMC3    C4 4241   4.600   0.037  13.004  0.4366 -0.3876  0.1206
  281TMC3    C5 4242   4.486   4.722  12.933  0.6762 -0.2476 -0.5299
  281TMC3    C6 4243   4.409   0.077  12.858 -0.6867  0.6685 -0.1931
  281TMC3     C 4244   4.691   0.228  13.113  0.5442  0.8192  0.0418
  281TMC3     O 4245   4.708   0.154  13.205  0.2465  0.0864 -0.1822
  281TMC3     H 4246   4.605   0.355  12.887  2.1870 -0.3006  1.9174
  281TMC3    H1 4247   4.647   4.689  13.070  0.2701 -0.6681 -0.0707
  281TMC3    H2 4248   4.309   0.045  12.832 -0.5098  0.4213 -0.5721
  281TMC3    C7 4249   4.421   4.604  12.980  0.9612  0.8037  0.2673
  281TMC3    C8 4250   4.335   0.293  12.869  0.0719 -0.3198  0.0261
  281TMC3    O1 4251   4.399   4.511  12.902 -0.1557 -0.0214 -1.0071
  281TMC3    O2 4252   4.263   0.243  12.955 -0.0188  0.1176 -0.8673
  282MPD2     C 4253   2.105   1.439  15.114 -0.4900 -0.7287 -0.1681
  282MPD2    C1 4254   1.976   1.478  15.149  0.3392  0.3626 -0.3278
  282MPD2    C2 4255   1.897   1.534  15.050 -0.5219  1.1679 -1.0369
  282MPD2    C3 4256   1.939   1.546  14.920  0.3754  0.6552  0.3570
  282MPD2    C4 4257   2.066   1.515  14.896 -0.3632 -0.4784  0.2902
  282MPD2    C5 4258   2.148   1.453  14.988  0.2708 -0.4006 -0.3877
  282MPD2     H 4259   1.797   1.568  15.076 -0.3311 -0.9512  2.3799
  282MPD2    H1 4260   2.108   1.524  14.796  2.2022 -1.2916  1.2757
  282MPD2    H2 4261   2.183   1.409  15.183  0.3125  0.7651 -0.4445
  282MPD2    H3 4262   2.248   1.427  14.956  0.6918 -0.9130  1.3672
  282MPD2     N 4263   1.845   1.598  14.831 -1.0751 -0.1766 -0.1934
  282MPD2    H5 4264   1.751   1.617  14.864 -0.6496  1.0043  0.3476
  282MPD2    N1 4265   1.935   1.469  15.282 -0.6742 -0.0942 -0.7766
  282MPD2    H7 4266   1.861   1.529  15.316 -0.4413  0.4200 -1.1856
  283TMC3    C1 4267   1.935   1.414  15.514 -0.6817  0.1013 -0.1987
  283TMC3    C2 4268   1.897   1.536  15.548 -0.0897 -0.2177  0.6809
  283TMC3    C3 4269   1.857   1.563  15.676  0.1350 -0.1729  0.2683
  283TMC3    C4 4270   1.911   1.306  15.598 -0.4062 -0.8814 -0.1727
  283TMC3    C5 4271   1.877   1.334  15.727 -0.6587 -0.4574  0.0585
  283TMC3    C6 4272   1.848   1.463  15.769  0.9133 -0.2189  0.0867
  283TMC3     C 4273   1.985   1.379  15.378  0.6870 -0.2510  0.0512
  283TMC3     O 4274   2.053   1.277  15.365  0.6604 -1.0731  0.0582
  283TMC3     H 4275   1.927   1.616  15.482  2.1921 -1.1388  0.6359
  283TMC3    H1 4276   1.929   1.205  15.563 -0.0702 -0.8634 -0.0556
  283TMC3    H2 4277   1.807   1.489  15.866  1.9982 -0.2822  0.5575
  283TMC3    C7 4278   1.818   1.234  15.814  0.5078 -0.0849 -0.0088
  283TMC3    C8 4279   1.865   1.701  15.729 -0.1220 -0.1460 -0.5155
  283TMC3    O1 4280   1.761   1.278  15.913  0.4169  0.2160  0.2375
  283TMC3    O2 4281   1.878   1.720  15.850  0.2060  0.1333 -0.2992
  284MPD2     C 4282   0.072   0.483  11.359 -0.2842  0.3491  0.0540
  284MPD2    C1 4283   0.126   0.589  11.423 -0.0285  0.1569  0.4881
  284MPD2    C2 4284   0.167   0.572  11.555 -0.6548  0.3076  0.1690
  284MPD2    C3 4285   0.169   0.453  11.615 -0.8767  0.3087  0.2258
  284MPD2    C4 4286   0.113   0.342  11.557 -0.2986 -0.8197  0.2810
  284MPD2    C5 4287   0.078   0.358  11.424  0.7724 -1.3125  0.2704
  284MPD2     H 4288   0.223   0.653  11.602 -1.0850 -0.3012  1.7331
  284MPD2    H1 4289   0.123   0.245  11.604 -0.0366  1.0065  3.9353
  284MPD2    H2 4290   0.043   0.482  11.254 -1.7613 -0.6954  0.4685
  284MPD2    H3 4291   0.045   0.271  11.368  0.2391 -0.8540 -0.1357
  284MPD2     N 4292   0.210   0.428  11.753 -0.5797  0.8840 -0.2826
  284MPD2    H5 4293   0.205   0.330  11.778 -0.4001  1.3135  1.4600
  284MPD2    N1 4294   0.150   0.706  11.353 -0.5180  0.0487  0.0031
  284MPD2    H7 4295   0.126   0.713  11.255  2.3102  2.7291 -0.4691
  285TMC3    C1 4296   0.243   0.916  11.310 -0.5827  0.0319  0.1368
  285TMC3    C2 4297   0.301   0.863  11.204 -0.4119 -0.1034  0.5014
  285TMC3    C3 4298   0.388   0.950  11.132 -0.3320  0.0414  0.0766
  285TMC3    C4 4299   0.285   1.038  11.361  0.2831 -0.1180 -0.1063
  285TMC3    C5 4300   0.378   1.113  11.288  0.2982 -0.0044  0.3983
  285TMC3    C6 4301   0.429   1.071  11.170 -0.7136  0.3420  0.3868
  285TMC3     C 4302   0.197   0.818  11.410 -0.0020  0.6831 -0.0388
  285TMC3     O 4303   0.195   0.854  11.529  0.0812  0.3486 -0.2557
  285TMC3     H 4304   0.280   0.765  11.162 -0.6769  0.7269 -1.2994
  285TMC3    H1 4305   0.254   1.078  11.457 -2.3634 -0.0916 -0.9650
  285TMC3    H2 4306   0.495   1.133  11.109 -2.0074  3.4386  2.1479
  285TMC3    C7 4307   0.441   1.236  11.340 -0.2045 -0.3805 -0.0986
  285TMC3    C8 4308   0.478   0.873  11.050 -0.4370 -0.2692  0.2367
  285TMC3    O1 4309   0.470   1.333  11.271  0.3138 -0.3287  0.3683
  285TMC3    O2 4310   0.420   0.782  10.996  0.1595  1.1645 -0.1203
  286MPD2     C 4311   4.686   3.833   1.111  0.2797 -0.6555 -0.5485
  286MPD2    C1 4312   0.054   3.928   1.153  0.2977 -0.5082 -0.9324
  286MPD2    C2 4313   0.187   3.885   1.164  0.0474  0.5477 -0.6502
  286MPD2    C3 4314   0.222   3.754   1.125 -0.1088 -0.1641  0.4481
  286MPD2    C4 4315   0.129   3.672   1.074  0.1804  0.5189 -0.5811
  286MPD2    C5 4316   4.722   3.711   1.067  0.6113  0.0912 -0.4472
  286MPD2     H 4317   0.260   3.959   1.196  1.7422 -1.0804 -0.7763
  286MPD2    H1 4318   0.152   3.572   1.039 -1.3996  0.2984 -0.9989
  286MPD2    H2 4319   4.580   3.840   1.131  0.6684  1.8858  0.6747
  286MPD2    H3 4320   4.647   3.638   1.040  1.5693 -0.8766 -0.4862
  286MPD2     N 4321   0.356   3.711   1.131 -0.3480  0.5324  0.0451
  286MPD2    H5 4322   0.373   3.612   1.114 -1.1027  0.1453  1.4893
  286MPD2    N1 4323   0.023   4.060   1.190 -0.0545  0.0106  0.1327
  286MPD2    H7 4324   0.098   4.122   1.220 -0.0227 -0.0747  0.2276
  287TMC3    C1 4325   0.582   3.722   1.139  0.3733 -0.3186  0.1183
  287TMC3    C2 4326   0.587   3.605   1.064 -1.2212  0.8247  0.7487
  287TMC3    C3 4327   0.703   3.537   1.060 -0.2662 -0.9613 -0.6429
  287TMC3    C4 4328   0.695   3.772   1.208  0.9387  0.7204  0.3661
  287TMC3    C5 4329   0.814   3.697   1.196 -0.4159  0.2241  0.0466
  287TMC3    C6 4330   0.815   3.580   1.130  0.1409 -0.1123  0.1428
  287TMC3     C 4331   0.457   3.783   1.177  0.0855 -0.6327 -1.0054
  287TMC3     O 4332   0.461   3.900   1.211  0.2268  0.4287 -0.2911
  287TMC3     H 4333   0.503   3.565   1.008 -0.6687 -0.2077  0.6576
  287TMC3    H1 4334   0.696   3.868   1.259  0.2403  1.2804 -0.6938
  287TMC3    H2 4335   0.904   3.519   1.123 -0.2046 -0.7191  1.0454
  287TMC3    C7 4336   0.927   3.730   1.283  0.5476 -0.3351  0.3459
  287TMC3    C8 4337   0.699   3.409   0.993  0.3791 -0.2242  0.8928
  287TMC3    O1 4338   0.914   3.829   1.346  0.3190 -0.4040  0.1959
  287TMC3    O2 4339   0.605   3.389   0.913  0.2890  0.1712  0.1819
  288TMC3    C1 4340   2.243   4.162  15.219 -0.1451  0.3854  0.2660
  288TMC3    C2 4341   2.227   4.045  15.285  0.1074 -0.0537  0.4344
  288TMC3    C3 4342   2.197   3.932  15.210  0.4307 -0.3313  0.5150
  288TMC3    C4 4343   2.254   4.166  15.083  0.1376 -0.6748  0.7220
  288TMC3    C5 4344   2.217   4.052  15.010 -0.5395 -0.4615  0.1003
  288TMC3    C6 4345   2.187   3.930  15.075 -0.3935 -0.6875  1.0100
  288TMC3     C 4346   2.189   4.279  15.282 -0.7290  0.0044  0.3993
  288TMC3     O 4347   2.146   4.361  15.202 -0.3390 -0.3000  0.2710
  288TMC3     H 4348   2.237   4.037  15.393  0.4183  0.6780  0.4580
  288TMC3    H1 4349   2.298   4.257  15.045  1.8318 -1.1359  1.5585
  288TMC3    H2 4350   2.154   3.845  15.016 -0.9970 -0.4131  0.9479
  288TMC3    C7 4351   2.207   4.057  14.863  0.2636  0.1028  0.3615
  288TMC3    C8 4352   2.183   3.805  15.293 -0.0382 -0.2552  0.5837
  288TMC3    O1 4353   2.170   3.953  14.811  0.2158 -0.2533  0.4516
  288TMC3    O2 4354   2.212   3.813  15.413 -0.5551  0.6803  0.0125
  289MPD2     C 4355   2.618   3.164  14.931  0.7358 -0.3197  0.1135
  289MPD2    C1 4356   2.600   3.222  14.812  0.2873  0.6412  0.6067
  289MPD2    C2 4357   2.476   3.198  14.751 -0.7396  0.0139  0.5255
  289MPD2    C3 4358   2.387   3.103  14.795  0.3259 -0.2557  0.1323
  289MPD2    C4 4359   2.416   3.044  14.921 -0.2415 -0.5809 -0.0147
  289MPD2    C5 4360   2.523   3.086  14.990 -0.3683  0.8646 -0.3797
  289MPD2     H 4361   2.443   3.256  14.666 -1.0103 -0.4645  0.3055
  289MPD2    H1 4362   2.342   2.976  14.962 -0.4845  0.2468  0.9125
  289MPD2    H2 4363   2.700   3.198  14.993  0.6467 -1.8366  1.0540
  289MPD2    H3 4364   2.554   3.038  15.082 -3.6855 -1.5959 -0.5367
  289MPD2     N 4365   2.267   3.072  14.732 -0.5815  0.2289  0.5155
  289MPD2    H5 4366   2.200   3.029  14.795 -0.7207  1.0045  0.8937
  289MPD2    N1 4367   2.700   3.314  14.767 -0.0183 -0.5716 -0.9845
  289MPD2    H7 4368   2.778   3.323  14.830  0.0678 -0.5728 -1.0907
  290TMC3    C1 4369   2.096   3.104  14.572  0.3915  0.4552  0.2490
  290TMC3    C2 4370   2.049   3.183  14.471 -0.0873  0.1870 -0.1174
  290TMC3    C3 4371   1.915   3.169  14.437  0.0419  0.7043 -0.7502
  290TMC3    C4 4372   2.014   3.010  14.622  0.1159  0.3358  0.5702
  290TMC3    C5 4373   1.877   3.014  14.588  0.4677 -0.2499 -0.2430
  290TMC3    C6 4374   1.826   3.076  14.482 -0.0107  0.9878 -0.2684
  290TMC3     C 4375   2.238   3.105  14.601  0.4362 -0.2111  0.4267
  290TMC3     O 4376   2.310   3.146  14.510  0.6623  0.4572  0.9251
  290TMC3     H 4377   2.116   3.260  14.433  0.5844 -1.3636 -2.1198
  290TMC3    H1 4378   2.041   2.947  14.706 -0.1964  2.0984  2.0036
  290TMC3    H2 4379   1.723   3.066  14.448 -0.1434 -3.4976  1.4700
  290TMC3    C7 4380   1.794   2.907  14.637  0.3172 -0.1455 -0.4209
  290TMC3    C8 4381   1.869   3.247  14.322 -0.2735 -0.2499 -0.3938
  290TMC3    O1 4382   1.673   2.929  14.666 -0.0768 -0.4422  0.2613
  290TMC3    O2 4383   1.789   3.193  14.248 -0.2217 -0.6086 -0.2618
  291MPD2     C 4384   1.109   3.209   0.508  0.5384  0.6363  0.6607
  291MPD2    C1 4385   1.238   3.174   0.483 -0.2206 -0.0102 -0.2612
  291MPD2    C2 4386   1.341   3.274   0.482 -0.3619 -0.4003 -0.1341
  291MPD2    C3 4387   1.307   3.409   0.494 -0.0939 -0.5260 -0.0000
  291MPD2    C4 4388   1.175   3.442   0.516  0.0705  0.2788  0.1279
  291MPD2    C5 4389   1.078   3.343   0.530  0.0823  0.3117  0.5402
  291MPD2     H 4390   1.441   3.238   0.464  0.1609 -0.3526  2.7010
  291MPD2    H1 4391   1.142   3.541   0.543  0.3360  0.8281 -1.5779
  291MPD2    H2 4392   1.027   3.138   0.516  0.6310  0.4802  0.1804
  291MPD2    H3 4393   0.980   3.377   0.559 -0.5523 -1.8100  0.8981
  291MPD2     N 4394   1.404   3.512   0.474  0.9238 -0.1865  0.4105
  291MPD2    H5 4395   1.365   3.605   0.481  0.1522 -0.5654  1.1097
  291MPD2    N1 4396   1.277   3.042   0.467  0.8350  0.2448 -0.1867
  291MPD2    H7 4397   1.377   3.027   0.475  1.0392  1.1834 -1.1164
  292TMC3    C1 4398   1.277   2.811   0.454 -0.4619  0.6224 -0.0806
  292TMC3    C2 4399   1.372   2.806   0.555 -0.1235 -0.3005 -0.5080
  292TMC3    C3 4400   1.417   2.679   0.585 -0.1160  0.5215 -0.4887
  292TMC3    C4 4401   1.233   2.697   0.389  0.9565  0.0879  0.3670
  292TMC3    C5 4402   1.280   2.582   0.423 -0.9541 -0.5693 -0.3135
  292TMC3    C6 4403   1.373   2.572   0.525  0.0974  0.2070  0.9238
  292TMC3     C 4404   1.193   2.933   0.454 -0.0478 -0.9484 -0.1488
  292TMC3     O 4405   1.080   2.930   0.411 -0.6383 -0.6843 -0.2408
  292TMC3     H 4406   1.400   2.885   0.624 -1.3369 -0.8038  0.5646
  292TMC3    H1 4407   1.158   2.698   0.311  0.0976 -0.7918  1.1810
  292TMC3    H2 4408   1.400   2.470   0.548  0.1545  0.0175  0.0086
  292TMC3    C7 4409   1.260   2.467   0.344  0.0114 -0.2406 -0.4926
  292TMC3    C8 4410   1.481   2.660   0.715 -0.6675  0.6067 -1.2013
  292TMC3    O1 4411   1.348   2.379   0.336  0.3383  0.2879  0.0911
  292TMC3    O2 4412   1.562   2.746   0.748 -0.1166 -0.3619 -0.1846
  293MPD2     C 4413   3.194   0.224  12.641  0.3318  0.0335  0.4324
  293MPD2    C1 4414   3.165   0.103  12.704 -0.9886  0.6296 -0.3687
  293MPD2    C2 4415   3.205   0.076  12.834  0.0894 -0.2508  0.2794
  293MPD2    C3 4416   3.273   0.169  12.907 -0.2199 -0.7143 -0.3723
  293MPD2    C4 4417   3.304   0.289  12.846  0.8259  0.5788  0.1395
  293MPD2    C5 4418   3.270   0.307  12.714  0.5530 -0.5726 -0.3174
  293MPD2     H 4419   3.189   4.704  12.882 -2.1275  1.1581  2.3325
  293MPD2    H1 4420   3.371   0.362  12.891 -0.3297 -0.1171  3.0327
  293MPD2    H2 4421   3.169   0.245  12.537  0.9311 -0.1771  0.2499
  293MPD2    H3 4422   3.304   0.394  12.660 -1.3501  0.1014 -0.4059
  293MPD2     N 4423   3.301   0.134  13.046 -0.2383 -0.3171  0.2985
  293MPD2    H5 4424   3.278   0.041  13.079  0.4718 -0.3670  0.6632
  293MPD2    N1 4425   3.097   4.724  12.635 -0.5762 -0.4231  0.1824
  293MPD2    H7 4426   3.089   0.015  12.535  0.8965  2.4858  0.5122
  294TMC3    C1 4427   2.980   4.524  12.587 -0.3400  0.3328  0.8833
  294TMC3    C2 4428   2.858   4.472  12.606 -0.2189 -0.3224 -0.4608
  294TMC3    C3 4429   2.787   4.411  12.502  0.3142 -0.2460  0.9154
  294TMC3    C4 4430   3.040   4.525  12.462  0.3097 -0.3408 -0.0671
  294TMC3    C5 4431   2.977   4.453  12.364  1.0183 -0.1338  0.9339
  294TMC3    C6 4432   2.856   4.395  12.385 -0.8741  0.8504  1.1214
  294TMC3     C 4433   3.038   4.609  12.691  0.3611  0.3508  0.0762
  294TMC3     O 4434   3.006   4.585  12.811  0.4937  0.1852  0.1435
  294TMC3     H 4435   2.809   4.480  12.702 -0.1877 -2.2758 -0.2879
  294TMC3    H1 4436   3.133   4.574  12.436  0.3509  0.5046  1.6533
  294TMC3    H2 4437   2.809   4.348  12.299 -1.5752  1.5882  1.1042
  294TMC3    C7 4438   3.051   4.423  12.239 -0.0910  0.4327  1.2224
  294TMC3    C8 4439   2.666   4.331  12.534 -0.0139 -0.5183  0.0946
  294TMC3    O1 4440   3.144   4.500  12.219  0.1319 -0.6505  0.2044
  294TMC3    O2 4441   2.627   4.316  12.647  0.2697 -0.0445  0.1209
  295MPD2     C 4442   3.702   2.593   0.970 -0.1600 -0.1877 -0.0432
  295MPD2    C1 4443   3.729   2.461   0.934 -0.1063  0.5516 -0.5877
  295MPD2    C2 4444   3.675   2.361   1.015 -0.5604  0.8225  0.4477
  295MPD2    C3 4445   3.600   2.396   1.128 -0.6631  0.4710 -0.1681
  295MPD2    C4 4446   3.563   2.524   1.155  0.1433  0.8415  0.1816
  295MPD2    C5 4447   3.617   2.625   1.075  0.1304 -0.0879 -0.7276
  295MPD2     H 4448   3.695   2.255   1.000 -1.7529  0.4049  1.7799
  295MPD2    H1 4449   3.500   2.548   1.240 -0.4819  1.6497 -0.5070
  295MPD2    H2 4450   3.739   2.683   0.924 -1.1537  0.5875  0.6686
  295MPD2    H3 4451   3.587   2.725   1.104 -2.3610 -0.8900 -0.5609
  295MPD2     N 4452   3.544   2.305   1.214 -0.1990  0.4515  0.1975
  295MPD2    H5 4453   3.487   2.344   1.289  1.1048  0.4910  1.1725
  295MPD2    N1 4454   3.816   2.431   0.826 -0.3236  0.0660 -0.2865
  295MPD2    H7 4455   3.829   2.331   0.814 -2.6772 -0.1283 -1.0908
  296TMC3    C1 4456   3.488   2.098   1.329 -0.4822  0.2604 -0.7626
  296TMC3    C2 4457   3.426   2.167   1.430  0.5023  0.0600  0.0318
  296TMC3    C3 4458   3.396   2.097   1.538 -0.4727  0.4859 -0.2299
  296TMC3    C4 4459   3.512   1.959   1.333  0.8030 -0.6660 -0.5690
  296TMC3    C5 4460   3.480   1.898   1.445  0.4358  0.7726 -0.0495
  296TMC3    C6 4461   3.420   1.961   1.550 -0.1366 -0.0783 -0.5163
  296TMC3     C 4462   3.549   2.165   1.213 -0.1105  1.0729  0.2551
  296TMC3     O 4463   3.617   2.096   1.139 -0.1520 -0.0238 -0.1682
  296TMC3     H 4464   3.430   2.275   1.436  2.0218  0.0146 -0.1749
  296TMC3    H1 4465   3.565   1.905   1.256 -2.6624 -1.5302 -2.3691
  296TMC3    H2 4466   3.380   1.906   1.635 -0.3262  2.1661  0.8471
  296TMC3    C7 4467   3.571   1.783   1.470  0.8316 -0.7021  0.3800
  296TMC3    C8 4468   3.381   2.162   1.663  0.1261  0.7706 -0.1396
  296TMC3    O1 4469   3.624   1.719   1.379  0.3330  0.1775 -0.1944
  296TMC3    O2 4470   3.360   2.084   1.759  0.0467 -0.0137 -0.1615
  297MPD2     C 4471   1.176   0.093  16.317 -0.0219 -0.0163 -0.6137
  297MPD2    C1 4472   1.170   0.199  16.223 -0.3678  0.3152  0.4771
  297MPD2    C2 4473   1.274   0.285  16.220 -0.1755  0.6366 -0.9476
  297MPD2    C3 4474   1.377   0.293  16.317  0.3732 -0.3790  0.4377
  297MPD2    C4 4475   1.375   0.195  16.418  0.8437 -0.7569  0.6044
  297MPD2    C5 4476   1.279   0.100  16.406  0.1725  0.4035  0.0408
  297MPD2     H 4477   1.263   0.368  16.151 -0.3041  0.8267 -0.7005
  297MPD2    H1 4478   1.446   0.184  16.500  2.2510  2.2260 -0.2068
  297MPD2    H2 4479   1.096   0.021  16.322  1.5591 -1.7720 -0.4200
  297MPD2    H3 4480   1.297   0.014  16.469 -0.8207  1.0797  1.2356
  297MPD2     N 4481   1.473   0.399  16.320 -0.1332  0.3248 -0.2051
  297MPD2    H5 4482   1.472   0.459  16.239  1.3068 -1.4335 -1.5341
  297MPD2    N1 4483   1.061   0.217  16.131 -0.1628  0.1492  0.7854
  297MPD2    H7 4484   1.073   0.303  16.078 -1.7896  0.4042  0.8541
  298TMC3    C1 4485   0.857   0.165  16.018 -0.1091  0.0027 -0.3999
  298TMC3    C2 4486   0.888   0.268  15.929  0.4630 -0.2309  0.1559
  298TMC3    C3 4487   0.782   0.316  15.862  0.1422  0.1665  0.2928
  298TMC3    C4 4488   0.737   0.116  16.033  0.9232  0.4316  0.0381
  298TMC3    C5 4489   0.633   0.173  15.969 -0.3770  0.7021  0.3442
  298TMC3    C6 4490   0.654   0.275  15.880 -0.1952  0.2821  0.0580
  298TMC3     C 4491   0.955   0.122  16.120 -0.2860 -0.0609  0.5399
  298TMC3     O 4492   0.936   0.014  16.171  0.0687  0.4498 -0.3990
  298TMC3     H 4493   0.989   0.296  15.901  0.9530 -0.0633  2.1233
  298TMC3    H1 4494   0.725   0.041  16.110 -1.0081 -0.2488 -0.9257
  298TMC3    H2 4495   0.567   0.311  15.828 -1.0382  0.1753  1.3986
  298TMC3    C7 4496   0.515   0.179  16.060 -0.0385  0.2291  0.7951
  298TMC3    C8 4497   0.791   0.422  15.764  0.8273 -0.3465  0.6904
  298TMC3    O1 4498   0.470   0.292  16.077  0.2184  0.4363 -0.5033
  298TMC3    O2 4499   0.682   0.457  15.722  0.2792  0.2873  0.3149
  299MPD2     C 4500   2.133   4.131  10.860 -0.7476  0.5601  0.0251
  299MPD2    C1 4501   2.102   4.254  10.808  0.2187  0.3120 -1.1865
  299MPD2    C2 4502   1.977   4.266  10.741 -0.4428  0.1224 -0.0742
  299MPD2    C3 4503   1.886   4.164  10.734  0.2247  0.4351 -0.4639
  299MPD2    C4 4504   1.926   4.047  10.793 -0.8203 -0.2281 -0.3597
  299MPD2    C5 4505   2.051   4.025  10.839  0.4490  0.0776  0.3866
  299MPD2     H 4506   1.945   4.360  10.697 -1.6823  0.8085  2.2471
  299MPD2    H1 4507   1.857   3.963  10.801  1.0905 -1.7410  0.2869
  299MPD2    H2 4508   2.235   4.120  10.896 -0.3482 -0.7537 -1.4853
  299MPD2    H3 4509   2.083   3.931  10.883  0.0724  0.8519  2.3204
  299MPD2     N 4510   1.759   4.179  10.673 -0.1008 -0.3691 -0.4163
  299MPD2    H5 4511   1.690   4.108  10.694  4.2337 -4.6945 -0.7408
  299MPD2    N1 4512   2.205   4.357  10.818 -0.2165  0.0631  0.0593
  299MPD2    H7 4513   2.299   4.319  10.831  0.3111  0.9746 -1.0970
  300TMC3    C1 4514   1.582   4.280  10.556  0.6347 -0.2217 -0.2549
  300TMC3    C2 4515   1.539   4.363  10.462 -0.4649  0.0011 -0.9180
  300TMC3    C3 4516   1.405   4.377  10.433  0.7921  0.8234 -0.3838
  300TMC3    C4 4517   1.488   4.206  10.624  0.1179 -0.3113  0.5802
  300TMC3    C5 4518   1.355   4.234  10.611 -0.3585 -0.0389 -0.5858
  300TMC3    C6 4519   1.312   4.320  10.517 -0.4728 -0.1349  0.8416
  300TMC3     C 4520   1.721   4.287  10.599 -0.4932 -0.0561 -0.7502
  300TMC3     O 4521   1.784   4.381  10.554  0.4431 -0.8006  0.2601
  300TMC3     H 4522   1.615   4.415  10.405  0.4207 -1.1055 -0.7324
  300TMC3    H1 4523   1.523   4.135  10.698  1.4837 -0.7259 -0.4543
  300TMC3    H2 4524   1.207   4.341  10.496  0.2715  1.9079 -0.9515
  300TMC3    C7 4525   1.269   4.204  10.720 -0.8489 -0.2758 -0.7886
  300TMC3    C8 4526   1.359   4.491  10.349 -0.3932 -0.1998  0.2017
  300TMC3    O1 4527   1.261   4.091  10.766  0.4847 -0.0970 -0.0034
  300TMC3    O2 4528   1.433   4.587  10.381  0.1202 -0.3846 -0.0237
  301MPD2     C 4529   0.056   0.847   1.205  0.1595 -0.5643  0.1923
  301MPD2    C1 4530   4.669   0.824   1.128 -0.7738  2.1561  0.4290
  301MPD2    C2 4531   4.613   0.699   1.131 -0.2775 -0.2820  0.3007
  301MPD2    C3 4532   4.665   0.601   1.215  0.4503 -0.1970  0.0063
  301MPD2    C4 4533   0.066   0.624   1.276 -0.2000 -0.1136  0.2080
  301MPD2    C5 4534   0.126   0.747   1.273 -0.3425  0.0994 -0.3699
  301MPD2     H 4535   4.530   0.686   1.063 -0.2407 -0.4565  0.2886
  301MPD2    H1 4536   0.124   0.549   1.328 -1.3999 -1.0391  0.1993
  301MPD2    H2 4537   0.093   0.949   1.201 -0.2106 -0.5022 -1.7105
  301MPD2    H3 4538   0.221   0.772   1.320 -0.1462 -0.4304 -0.4860
  301MPD2     N 4539   4.602   0.475   1.234  0.3919 -0.2790  0.1469
  301MPD2    H5 4540   4.656   0.409   1.290  0.3235  0.0541  0.6052
  301MPD2    N1 4541   4.596   0.920   1.048  0.1328 -0.1274 -0.0117
  301MPD2    H7 4542   4.522   0.885   0.988 -0.4748  0.2740  0.4988
  302TMC3    C1 4543   4.444   0.304   1.215  0.4175  0.2774 -0.6016
  302TMC3    C2 4544   4.537   0.224   1.280  0.1003 -0.2058  0.6237
  302TMC3    C3 4545   4.508   0.089   1.295  0.0567  0.4773 -0.7313
  302TMC3    C4 4546   4.329   0.242   1.163  0.1340 -0.2217  0.7319
  302TMC3    C5 4547   4.305   0.110   1.183 -0.4190 -0.2979 -0.2664
  302TMC3    C6 4548   4.397   0.028   1.250 -1.0524  0.1359 -0.2367
  302TMC3     C 4549   4.481   0.437   1.178  0.1117  0.6754 -0.0006
  302TMC3     O 4550   4.404   0.494   1.101 -0.3889 -0.0294  0.4227
  302TMC3     H 4551   4.634   0.253   1.320  0.1330 -0.8372  1.0200
  302TMC3    H1 4552   4.259   0.298   1.102 -0.2920 -0.9946  0.5163
  302TMC3    H2 4553   4.382   4.645   1.254  1.4779 -0.0434  4.7977
  302TMC3    C7 4554   4.172   0.057   1.167 -0.4226  0.2680  0.5051
  302TMC3    C8 4555   4.609   0.003   1.361 -0.0928  0.0998  0.3004
  302TMC3    O1 4556   4.150   4.687   1.243  0.0365  0.1594 -0.3093
  302TMC3    O2 4557   4.711   0.056   1.393 -0.1565  0.3114  0.1520
  303MPD2     C 4558   4.312   4.204  10.375 -0.8186  0.3039 -0.1797
  303MPD2    C1 4559   4.279   4.084  10.440 -0.0138 -0.4125 -0.1878
  303MPD2    C2 4560   4.269   3.962  10.367 -1.2648 -0.3732  0.1426
  303MPD2    C3 4561   4.315   3.965  10.230  0.4412 -0.3244  0.6886
  303MPD2    C4 4562   4.376   4.082  10.181  0.8719  0.0279 -0.6457
  303MPD2    C5 4563   4.371   4.201  10.250  0.5233  0.5281  0.0170
  303MPD2     H 4564   4.223   3.878  10.416 -0.5957 -0.1583  1.1356
  303MPD2    H1 4565   4.424   4.083  10.084  2.4568 -0.8298  0.1209
  303MPD2    H2 4566   4.303   4.302  10.420 -0.8680  0.1547  0.1296
  303MPD2    H3 4567   4.390   4.299  10.208 -0.5263  0.7476  0.0398
  303MPD2     N 4568   4.315   3.861  10.138 -0.2864  0.1077 -0.2862
  303MPD2    H5 4569   4.329   3.899  10.045 -2.6664 -2.3699 -1.6279
  303MPD2    N1 4570   4.228   4.086  10.572  0.0166  0.5964 -0.0821
  303MPD2    H7 4571   4.213   4.178  10.613 -2.0772  1.1286 -2.0947
  304TMC3    C1 4572   4.161   4.010  10.777 -0.5316  0.5540  0.5035
  304TMC3    C2 4573   4.040   4.062  10.769 -0.1625 -0.1913  0.3874
  304TMC3    C3 4574   3.949   4.049  10.868  0.2271 -0.4889  0.2734
  304TMC3    C4 4575   4.184   3.917  10.874 -0.3018  1.3226 -0.2279
  304TMC3    C5 4576   4.093   3.895  10.974 -0.4393  0.0765  0.7080
  304TMC3    C6 4577   3.975   3.964  10.978 -0.3207 -0.1224  0.2941
  304TMC3     C 4578   4.218   3.972  10.650  0.1496 -0.1210  1.6277
  304TMC3     O 4579   4.263   3.860  10.640  0.7260  0.2458  0.5649
  304TMC3     H 4580   4.005   4.109  10.678 -0.4100 -1.4361 -0.1585
  304TMC3    H1 4581   4.277   3.860  10.874  0.3015  2.3265 -0.7796
  304TMC3    H2 4582   3.890   3.939  11.041 -0.3052  0.3319  0.4991
  304TMC3    C7 4583   4.060   3.758  10.989 -0.2796  0.2514 -0.0604
  304TMC3    C8 4584   3.818   4.042  10.816 -0.2189 -0.1978  0.2722
  304TMC3    O1 4585   4.058   3.699  10.882 -0.6001 -0.7861 -0.3412
  304TMC3    O2 4586   3.810   3.988  10.707 -0.1108 -0.0793 -0.0625
  305MPD2     C 4587   1.557   1.698  13.869  0.9068 -0.1581  0.3129
  305MPD2    C1 4588   1.677   1.630  13.863 -0.0316  0.1508  0.0778
  305MPD2    C2 4589   1.716   1.584  13.742 -0.1245  0.9779 -0.0188
  305MPD2    C3 4590   1.627   1.577  13.631  0.2026 -0.1403 -0.1950
  305MPD2    C4 4591   1.506   1.648  13.637  0.5105 -0.5663  0.7963
  305MPD2    C5 4592   1.477   1.707  13.761  0.0321  0.7600  0.3385
  305MPD2     H 4593   1.812   1.534  13.733 -1.1491 -1.0952  0.7061
  305MPD2    H1 4594   1.441   1.668  13.553 -0.5213  0.4531  1.8342
  305MPD2    H2 4595   1.533   1.734  13.968 -0.0797  2.1065 -0.7509
  305MPD2    H3 4596   1.383   1.758  13.775 -0.2794  1.0650 -2.8571
  305MPD2     N 4597   1.650   1.495  13.522  0.0342 -0.3028 -0.3218
  305MPD2    H5 4598   1.564   1.484  13.469  0.4081  0.0825 -1.0131
  305MPD2    N1 4599   1.763   1.624  13.978  0.7095 -0.6104  0.0804
  305MPD2    H7 4600   1.749   1.690  14.053  1.1083 -1.8469  1.2457
  306TMC3    C1 4601   1.958   1.534  14.096  0.2994 -1.2343  0.0124
  306TMC3    C2 4602   2.011   1.417  14.146 -0.2661 -0.0287 -0.0009
  306TMC3    C3 4603   2.059   1.413  14.274  0.0892  0.7634 -0.1242
  306TMC3    C4 4604   1.948   1.648  14.169 -0.4605  0.3743 -0.2276
  306TMC3    C5 4605   2.012   1.648  14.287  0.4700  0.1662  0.1904
  306TMC3    C6 4606   2.065   1.534  14.348  0.4325 -0.1711  0.1443
  306TMC3     C 4607   1.862   1.525  13.979 -0.3678  0.0823 -0.3262
  306TMC3     O 4608   1.871   1.419  13.913 -0.1577  0.5328 -0.5467
  306TMC3     H 4609   2.012   1.329  14.083 -1.8588 -0.2312  0.2752
  306TMC3    H1 4610   1.903   1.741  14.136  0.7419  0.3530 -1.9297
  306TMC3    H2 4611   2.123   1.539  14.439 -0.0468 -1.1599  0.5130
  306TMC3    C7 4612   1.982   1.765  14.376  0.1961 -0.8158  0.1627
  306TMC3    C8 4613   2.098   1.292  14.340 -0.7683 -0.8785 -0.1278
  306TMC3    O1 4614   1.887   1.834  14.345 -0.6214  0.0553 -0.4501
  306TMC3    O2 4615   2.145   1.199  14.274 -0.1807 -0.4504  0.0823
  307MPD2     C 4616   0.320   3.718   0.200  0.1887  0.3349 -1.0505
  307MPD2    C1 4617   0.249   3.834   0.200 -0.3511 -0.1418 -0.3736
  307MPD2    C2 4618   0.192   3.875   0.321  0.8278  0.0606 -0.0196
  307MPD2    C3 4619   0.202   3.800   0.441 -0.6895 -0.0634 -0.1940
  307MPD2    C4 4620   0.276   3.685   0.433  0.0600 -0.0593  0.1274
  307MPD2    C5 4621   0.336   3.646   0.318  0.6213 -0.3885 -0.1075
  307MPD2     H 4622   0.141   3.971   0.321  0.1726 -0.2901 -3.1433
  307MPD2    H1 4623   0.291   3.623   0.521 -1.1483 -0.2839  0.1673
  307MPD2    H2 4624   0.367   3.684   0.108  1.0235  0.5567 -0.7142
  307MPD2    H3 4625   0.399   3.558   0.322  1.7591  0.3942 -0.8338
  307MPD2     N 4626   0.132   3.847   0.556 -0.6070 -0.6961 -0.1595
  307MPD2    H5 4627   0.066   3.918   0.524  0.1552  0.0721 -0.0221
  307MPD2    N1 4628   0.254   3.930   0.090 -0.0537 -0.1218  0.0985
  307MPD2    H7 4629   0.229   4.026   0.108 -2.6073 -0.4965 -1.3585
  308TMC3    C1 4630   4.524   3.880   0.722  0.7076  0.4265 -0.9480
  308TMC3    C2 4631   4.527   4.005   0.771 -0.1279  0.1765  0.3678
  308TMC3    C3 4632   4.649   4.056   0.819 -0.5858  0.0704  0.1249
  308TMC3    C4 4633   4.637   3.802   0.707 -0.2994  0.2430 -0.2545
  308TMC3    C5 4634   0.034   3.848   0.764  0.0514  0.6810 -0.0030
  308TMC3    C6 4635   0.040   3.978   0.808 -0.0199  0.1576  0.0993
  308TMC3     C 4636   4.401   3.809   0.687 -0.6946  0.0723  0.5496
  308TMC3     O 4637   4.406   3.688   0.682 -0.0081  0.4570  1.4943
  308TMC3     H 4638   4.432   4.056   0.776 -0.2942 -0.0707 -0.2829
  308TMC3    H1 4639   4.626   3.709   0.654 -2.6874  1.3026 -1.6244
  308TMC3    H2 4640   0.135   4.020   0.836 -1.4622  2.9315  0.8299
  308TMC3    C7 4641   0.141   3.798   0.684  0.0444  0.3962 -0.0567
  308TMC3    C8 4642   4.669   4.197   0.806  0.0108 -0.7673 -0.5885
  308TMC3    O1 4643   0.227   3.726   0.730  0.0269 -0.7654 -0.3964
  308TMC3    O2 4644   0.052   4.240   0.845 -0.6138  0.1187  0.1287
  309MPD2     C 4645   3.869   4.459  17.089  0.2607 -0.4936 -0.2851
  309MPD2    C1 4646   3.777   4.426  16.995  0.5958 -0.4370  0.7966
  309MPD2    C2 4647   3.643   4.421  17.024 -0.4017  0.1598  0.6611
  309MPD2    C3 4648   3.599   4.469  17.153 -0.2812 -0.6223 -1.0544
  309MPD2    C4 4649   3.690   4.494  17.246 -0.4713  0.3241 -0.1244
  309MPD2    C5 4650   3.831   4.486  17.221 -0.2910  0.4150  0.3040
  309MPD2     H 4651   3.574   4.381  16.949  0.7603  0.1122 -0.3816
  309MPD2    H1 4652   3.662   4.518  17.348  3.1034 -0.6158  1.0787
  309MPD2    H2 4653   3.976   4.463  17.068  0.1835 -0.1250 -0.5954
  309MPD2    H3 4654   3.903   4.509  17.298 -0.8496 -0.7496  1.1867
  309MPD2     N 4655   3.464   4.469  17.187  0.6929 -0.4263  1.0057
  309MPD2    H5 4656   3.437   4.484  17.283  0.9411 -1.4990  1.2473
  309MPD2    N1 4657   3.810   4.391  16.871 -0.2001 -0.3808 -0.0693
  309MPD2    H7 4658   3.740   4.371  16.800  0.3597 -1.1940 -0.3928
  310TMC3    C1 4659   3.951   4.328  16.697  0.3071  0.7464 -0.2749
  310TMC3    C2 4660   3.911   4.436  16.613  0.1783 -0.4034  0.2890
  310TMC3    C3 4661   3.928   4.423  16.479  0.1392 -0.4269  0.6729
  310TMC3    C4 4662   4.008   4.215  16.643 -0.3081  0.1633 -0.3104
  310TMC3    C5 4663   4.007   4.195  16.508  0.3336  0.0681 -0.2680
  310TMC3    C6 4664   3.971   4.304  16.430  0.5251  0.1272  0.9425
  310TMC3     C 4665   3.939   4.348  16.837 -0.8599 -0.1400  0.2892
  310TMC3     O 4666   4.024   4.299  16.911 -0.2373  0.0843 -0.1465
  310TMC3     H 4667   3.894   4.536  16.652  1.7336 -0.6540  1.5871
  310TMC3    H1 4668   4.038   4.133  16.708 -1.7192  0.4472  0.6810
  310TMC3    H2 4669   3.966   4.291  16.322  0.4191  0.2805  0.9292
  310TMC3    C7 4670   4.115   4.114  16.451 -0.0158 -0.2919 -0.2296
  310TMC3    C8 4671   3.922   4.545  16.392 -0.0671 -0.3141 -0.1868
  310TMC3    O1 4672   4.092   3.992  16.447 -0.3565 -0.1937  0.3682
  310TMC3    O2 4673   3.871   4.540  16.281  0.0947  0.1240 -0.4033
  311MPD2     C 4674   0.848   1.018  13.038  0.1605  0.3659  0.6030
  311MPD2    C1 4675   0.826   1.140  12.987 -0.1090 -0.4826  0.7540
  311MPD2    C2 4676   0.700   1.201  13.012 -0.0532 -0.3239 -0.0618
  311MPD2    C3 4677   0.598   1.130  13.077 -0.1295 -0.4503 -0.1470
  311MPD2    C4 4678   0.625   1.005  13.132  0.3638 -0.7617 -0.0430
  311MPD2    C5 4679   0.747   0.954  13.105 -0.1181  0.4475 -0.7628
  311MPD2     H 4680   0.670   1.296  12.969  1.0919 -0.1201 -0.4248
  311MPD2    H1 4681   0.550   0.944  13.181 -0.6729 -0.1981 -0.9147
  311MPD2    H2 4682   0.937   0.960  13.018  0.2622  0.4994  0.6666
  311MPD2    H3 4683   0.759   0.848  13.127 -1.8136  0.5007  0.4085
  311MPD2     N 4684   0.469   1.183  13.107 -0.0831 -0.3563 -0.3525
  311MPD2    H5 4685   0.405   1.128  13.164 -0.0460  0.3739  0.3911
  311MPD2    N1 4686   0.913   1.209  12.900  0.2385  0.1909 -0.1894
  311MPD2    H7 4687   0.905   1.310  12.892 -0.2624  0.2474  1.1011
  312TMC3    C1 4688   0.300   1.330  13.160  0.0088 -0.5947 -0.5832
  312TMC3    C2 4689   0.188   1.302  13.090 -0.6264 -0.2630  0.0908
  312TMC3    C3 4690   0.075   1.256  13.152 -0.2793  0.1301 -0.0404
  312TMC3    C4 4691   0.307   1.309  13.299  0.5660  0.1444 -0.2801
  312TMC3    C5 4692   0.197   1.251  13.357  0.4023  0.5701  0.6952
  312TMC3    C6 4693   0.078   1.228  13.282 -0.3845 -0.1659 -0.5015
  312TMC3     C 4694   0.417   1.300  13.076 -0.9265 -0.3276 -0.4336
  312TMC3     O 4695   0.456   1.385  12.994 -0.0807 -0.2360  0.0190
  312TMC3     H 4696   0.192   1.311  12.982  1.6853 -0.7004  0.1423
  312TMC3    H1 4697   0.401   1.325  13.351 -0.6833  2.3767  1.2903
  312TMC3    H2 4698   4.712   1.189  13.328  0.0745 -1.2846 -0.5377
  312TMC3    C7 4699   0.205   1.187  13.486 -0.0016 -0.0300  0.0309
  312TMC3    C8 4700   4.668   1.234  13.086  0.1568 -0.8043 -0.3674
  312TMC3    O1 4701   0.159   1.072  13.492  0.0063  0.4993 -0.1021
  312TMC3    O2 4702   4.573   1.201  13.154  0.3010  0.1689  0.3730
  313MPD2     C 4703   1.429   0.933  10.249 -0.9005  0.0209  0.0766
  313MPD2    C1 4704   1.294   0.952  10.290  0.4632  0.9394 -0.4967
  313MPD2    C2 4705   1.191   0.892  10.220 -0.1052 -0.3393  0.8903
  313MPD2    C3 4706   1.217   0.805  10.118 -0.0186 -0.0284  0.7801
  313MPD2    C4 4707   1.349   0.785  10.078 -0.1482  0.2543 -0.4993
  313MPD2    C5 4708   1.451   0.844  10.146 -0.7098  0.1094  0.6391
  313MPD2     H 4709   1.087   0.902  10.248  0.1443  2.6599  0.7485
  313MPD2    H1 4710   1.371   0.718   9.997  0.7565  0.1383 -0.1545
  313MPD2    H2 4711   1.510   0.989  10.295 -1.0095  0.9312 -0.8387
  313MPD2    H3 4712   1.555   0.822  10.126 -1.1144 -1.8247  0.6852
  313MPD2     N 4713   1.107   0.730  10.070  0.2512  0.4563  1.1421
  313MPD2    H5 4714   1.021   0.764  10.110  0.8370 -0.4803  3.2097
  313MPD2    N1 4715   1.248   1.031  10.394 -0.0869 -0.0498 -0.1640
  313MPD2    H7 4716   1.150   1.050  10.409  0.7788  2.3437  2.5539
  314TMC3    C1 4717   1.252   1.165  10.581 -0.8710 -0.3742  0.8607
  314TMC3    C2 4718   1.238   1.142  10.718  0.1879  0.0674 -0.2742
  314TMC3    C3 4719   1.146   1.213  10.785  0.4137 -0.1320  0.2654
  314TMC3    C4 4720   1.183   1.272  10.522  0.1704  0.1596 -0.0110
  314TMC3    C5 4721   1.105   1.352  10.602 -0.0318 -0.4233 -0.5323
  314TMC3    C6 4722   1.080   1.322  10.734 -0.1862 -0.0267  0.9651
  314TMC3     C 4723   1.324   1.072  10.494  0.0278 -0.1315  0.5805
  314TMC3     O 4724   1.424   1.019  10.541 -0.0449  0.0545  0.6913
  314TMC3     H 4725   1.288   1.052  10.752 -0.4837 -0.1239  0.2127
  314TMC3    H1 4726   1.199   1.308  10.421 -0.7334  0.0631 -0.1965
  314TMC3    H2 4727   1.014   1.388  10.789  1.1934  0.9142  1.4883
  314TMC3    C7 4728   1.021   1.450  10.540 -0.6933  0.2341 -0.3034
  314TMC3    C8 4729   1.094   1.165  10.911  0.2676  0.9411 -0.0056
  314TMC3    O1 4730   0.981   1.538  10.612  1.0568  0.3305 -0.3512
  314TMC3    O2 4731   0.976   1.180  10.924  0.2448 -0.1998  0.0131
  315MPD2     C 4732   0.092   4.552   0.278  0.3791  0.5320  0.0917
  315MPD2    C1 4733   0.205   4.575   0.359  0.3344  0.2067  0.1095
  315MPD2    C2 4734   0.281   4.689   0.339  0.2160 -0.0908  0.5129
  315MPD2    C3 4735   0.258   0.044   0.226  0.0150  0.0063  1.0609
  315MPD2    C4 4736   0.159   0.006   0.139 -0.1121 -0.1600  0.1937
  315MPD2    C5 4737   0.066   4.635   0.176  1.0095 -0.5014  0.0871
  315MPD2     H 4738   0.358   4.715   0.410 -0.3303 -0.6998  1.3309
  315MPD2    H1 4739   0.156   0.058   0.044  1.3252 -0.7975 -0.1920
  315MPD2    H2 4740   0.016   4.478   0.298  0.4444  0.7546  1.2063
  315MPD2    H3 4741   4.698   4.621   0.120 -0.0878  1.8243  1.3272
  315MPD2     N 4742   0.354   0.148   0.211  0.0184 -0.2098 -0.9250
  315MPD2    H5 4743   0.420   0.161   0.287  0.4946 -2.9046 -0.8756
  315MPD2    N1 4744   0.242   4.495   0.470 -0.0798  0.7629  0.0614
  315MPD2    H7 4745   0.324   4.521   0.525  0.2226 -1.0416  0.4489
  316TMC3    C1 4746   0.473   0.319   0.100  0.2634  0.9707  0.0977
  316TMC3    C2 4747   0.559   0.328   0.212 -0.4899  0.0774  0.4078
  316TMC3    C3 4748   0.656   0.417   0.209 -0.7282 -0.1709 -0.0344
  316TMC3    C4 4749   0.488   0.395  17.692 -0.4150  0.3805  0.2230
  316TMC3    C5 4750   0.589   0.488  17.698 -0.9370 -0.0226 -0.2906
  316TMC3    C6 4751   0.667   0.499   0.108 -0.0362 -0.0058  0.1252
  316TMC3     C 4752   0.354   0.239   0.106 -0.0207 -0.7733 -0.3598
  316TMC3     O 4753   0.264   0.265   0.023 -0.4013 -0.1095 -0.2993
  316TMC3     H 4754   0.543   0.283   0.309  2.0366  0.2014  0.8925
  316TMC3    H1 4755   0.432   0.387  17.600  0.1270 -2.3664  0.1386
  316TMC3    H2 4756   0.757   0.559   0.104 -0.5320  0.6244 -1.8195
  316TMC3    C7 4757   0.637   0.549  17.570  0.2557 -0.0685  0.4326
  316TMC3    C8 4758   0.740   0.421   0.320 -0.1656 -0.6815 -1.3425
  316TMC3    O1 4759   0.747   0.602  17.567  0.2692 -0.2939  0.0472
  316TMC3    O2 4760   0.792   0.534   0.336  0.4055  0.0722 -0.0834
  317MPD2     C 4761   2.151   3.362  12.455 -0.5683 -0.4797  0.2092
  317MPD2    C1 4762   2.228   3.250  12.464 -0.1211 -0.6914 -0.4711
  317MPD2    C2 4763   2.264   3.198  12.586  0.0795  1.0793 -0.3326
  317MPD2    C3 4764   2.207   3.245  12.701  0.2989 -0.5460 -0.3686
  317MPD2    C4 4765   2.118   3.351  12.689 -0.1126  0.2110 -0.6749
  317MPD2    C5 4766   2.095   3.413  12.567  0.3418  0.7880  0.2636
  317MPD2     H 4767   2.339   3.120  12.584 -2.4824 -1.4254  1.4751
  317MPD2    H1 4768   2.085   3.409  12.775 -0.8011 -0.2658 -0.6200
  317MPD2    H2 4769   2.123   3.409  12.361 -1.0292  0.6026  0.8871
  317MPD2    H3 4770   2.040   3.506  12.561  2.8160  2.0796 -2.7221
  317MPD2     N 4771   2.249   3.193  12.825  0.3606 -0.4932 -0.5417
  317MPD2    H5 4772   2.327   3.128  12.836  0.8415 -0.0620 -1.3943
  317MPD2    N1 4773   2.283   3.193  12.344 -1.3760  0.3303 -0.2832
  317MPD2    H7 4774   2.343   3.113  12.362 -0.7725  0.4269 -1.8558
  318TMC3    C1 4775   2.252   3.166  13.061 -0.4458  0.4473 -0.0314
  318TMC3    C2 4776   2.279   3.036  13.038  0.2165 -0.6122  0.7440
  318TMC3    C3 4777   2.330   2.964  13.138  0.4355 -0.2335  0.2519
  318TMC3    C4 4778   2.313   3.224  13.160  0.1109  0.5501  0.0382
  318TMC3    C5 4779   2.380   3.149  13.258 -0.7258  0.6464 -0.0056
  318TMC3    C6 4780   2.393   3.016  13.244 -0.2226  0.5003  0.0546
  318TMC3     C 4781   2.199   3.241  12.947  0.1606  0.1290 -0.8465
  318TMC3     O 4782   2.121   3.332  12.972  0.2773  0.1209  0.1195
  318TMC3     H 4783   2.239   2.986  12.950  0.8296  0.4071 -0.1211
  318TMC3    H1 4784   2.315   3.332  13.170 -1.3356  0.3273  2.8012
  318TMC3    H2 4785   2.442   2.951  13.315  1.7517 -1.3282 -2.9972
  318TMC3    C7 4786   2.457   3.216  13.365 -0.6752 -0.5902 -0.0525
  318TMC3    C8 4787   2.323   2.818  13.132  0.0031  0.9074 -0.2395
  318TMC3    O1 4788   2.433   3.331  13.393 -0.0828  0.1085 -0.0900
  318TMC3    O2 4789   2.412   2.756  13.182  0.1113  0.3109 -0.8530
  319MPD2     C 4790   3.662   3.769  16.792  0.4372  0.0613  0.1951
  319MPD2    C1 4791   3.599   3.890  16.817  0.6229 -0.0084 -0.3871
  319MPD2    C2 4792   3.474   3.917  16.770 -0.0319 -0.0543 -0.0495
  319MPD2    C3 4793   3.407   3.812  16.703 -0.5006  0.5630 -0.6116
  319MPD2    C4 4794   3.472   3.692  16.678 -0.0151  0.0882  0.0142
  319MPD2    C5 4795   3.600   3.674  16.721  0.5121  0.4171  0.0948
  319MPD2     H 4796   3.422   4.008  16.800 -0.9606 -0.3875 -0.6647
  319MPD2    H1 4797   3.422   3.617  16.617  0.6708 -0.4674  0.1315
  319MPD2    H2 4798   3.760   3.744  16.832 -0.2474  0.7056  2.2987
  319MPD2    H3 4799   3.654   3.582  16.705 -1.8941 -1.4694  2.9468
  319MPD2     N 4800   3.274   3.831  16.657  0.2670  0.2466 -1.1923
  319MPD2    H5 4801   3.226   3.748  16.625 -0.3034  0.3361 -0.5846
  319MPD2    N1 4802   3.650   3.990  16.897  0.6694 -0.1846 -0.2905
  319MPD2    H7 4803   3.584   4.062  16.924 -0.4630 -0.9632 -0.9660
  320TMC3    C1 4804   3.063   3.932  16.598 -0.5818  0.6299  0.3384
  320TMC3    C2 4805   2.989   4.050  16.569 -0.1361 -0.2655 -0.2540
  320TMC3    C3 4806   2.856   4.041  16.539 -0.3299  0.6178 -0.5221
  320TMC3    C4 4807   3.007   3.811  16.602 -0.0795 -0.4280 -0.5007
  320TMC3    C5 4808   2.876   3.819  16.578  0.2705 -0.7528  0.1441
  320TMC3    C6 4809   2.792   3.923  16.551  0.0665  0.4222 -0.1914
  320TMC3     C 4810   3.204   3.948  16.639 -0.1340  0.5639  0.1336
  320TMC3     O 4811   3.235   4.057  16.682  0.3275  0.4149 -0.8823
  320TMC3     H 4812   3.029   4.147  16.595 -0.4902 -0.0929 -0.3528
  320TMC3    H1 4813   3.057   3.718  16.628  2.2395  0.3450 -2.2185
  320TMC3    H2 4814   2.687   3.914  16.522  0.3850 -0.5091 -1.0392
  320TMC3    C7 4815   2.820   3.690  16.591  0.4630  0.6640 -0.6969
  320TMC3    C8 4816   2.788   4.165  16.510  0.3078  0.0206 -0.1058
  320TMC3    O1 4817   2.884   3.590  16.558  0.5328 -0.4368 -0.8479
  320TMC3    O2 4818   2.857   4.260  16.473  0.1767 -0.4682 -0.3607
  321TMC3    C1 4819   3.818   4.067  17.060  0.6726  0.1854 -0.4074
  321TMC3    C2 4820   3.712   4.078  17.148 -0.3849 -0.5140  0.0993
  321TMC3    C3 4821   3.741   4.076  17.276  0.0667 -0.2442 -0.4683
  321TMC3    C4 4822   3.948   4.064  17.098 -0.4246  0.6213 -0.1429
  321TMC3    C5 4823   3.971   4.081  17.234  0.5556 -0.0678 -0.0919
  321TMC3    C6 4824   3.870   4.077  17.320  0.0009  0.6139 -0.0298
  321TMC3     C 4825   3.783   3.988  16.938 -0.2456  0.2125 -0.0872
  321TMC3     O 4826   3.876   3.941  16.871 -0.1033 -0.0893 -0.4845
  321TMC3     H 4827   3.612   4.064  17.111 -0.2816  1.2975 -0.8711
  321TMC3    H1 4828   4.021   4.048  17.020 -0.6582  1.7948 -0.5940
  321TMC3    H2 4829   3.881   4.093  17.427  0.9499 -1.3651  0.1668
  321TMC3    C7 4830   4.088   4.016  17.293 -0.6572  0.3411  0.5057
  321TMC3    C8 4831   3.671   3.959  17.330 -0.0412  0.4647 -0.1119
  321TMC3    O1 4832   4.059   3.959  17.398  0.1563 -0.3423  0.0827
  321TMC3    O2 4833   3.560   3.925  17.283 -0.4151  0.5561 -0.5622
  322MPD2     C 4834   2.033   0.591  13.478  0.2710  1.2222 -0.6212
  322MPD2    C1 4835   1.963   0.545  13.594  0.7501 -0.4763 -0.4171
  322MPD2    C2 4836   1.933   0.407  13.606 -0.0996  0.4435  0.0829
  322MPD2    C3 4837   1.962   0.318  13.506  0.1287  0.3253 -0.2080
  322MPD2    C4 4838   2.024   0.368  13.394 -0.0726 -0.1189  0.2790
  322MPD2    C5 4839   2.055   0.500  13.380  0.0836 -0.5020 -0.0101
  322MPD2     H 4840   1.881   0.369  13.693  1.1304 -0.5203  0.3987
  322MPD2    H1 4841   2.051   0.295  13.317  0.5187 -0.9064  1.2371
  322MPD2    H2 4842   2.056   0.696  13.464  2.1963  0.6615 -1.7521
  322MPD2    H3 4843   2.098   0.535  13.287  1.3180 -0.9986  0.3846
  322MPD2     N 4844   1.957   0.181  13.536 -0.1364 -0.3193 -0.2117
  322MPD2    H5 4845   1.900   0.147  13.613 -1.1971 -0.1043 -0.8985
  322MPD2    N1 4846   1.931   0.641  13.694 -0.0714  0.0307 -0.3118
  322MPD2    H7 4847   1.985   0.726  13.683  2.6896 -1.5204  1.3022
  323TMC3    C1 4848   1.834   0.750  13.889 -0.6451  0.1243  0.5496
  323TMC3    C2 4849   1.879   0.864  13.841 -0.5457  0.5118 -0.1317
  323TMC3    C3 4850   1.924   0.953  13.929  0.5516  0.7661  0.4796
  323TMC3    C4 4851   1.808   0.729  14.019  0.0167  0.3788 -0.6482
  323TMC3    C5 4852   1.844   0.827  14.110  0.3172  0.4157 -0.4995
  323TMC3    C6 4853   1.914   0.936  14.064  0.1797  0.6150 -0.0150
  323TMC3     C 4854   1.848   0.630  13.805  0.8159  0.5354  0.0260
  323TMC3     O 4855   1.780   0.533  13.837 -0.0002  0.0282  0.0846
  323TMC3     H 4856   1.887   0.881  13.734 -1.3751  0.2065 -0.2446
  323TMC3    H1 4857   1.763   0.641  14.063  4.6767 -1.2473  0.8722
  323TMC3    H2 4858   1.945   1.008  14.140  2.6901 -2.0770  1.5375
  323TMC3    C7 4859   1.878   0.768  14.232  0.3985 -0.2239  0.3414
  323TMC3    C8 4860   2.002   1.055  13.870 -0.4332  0.7798 -0.0271
  323TMC3    O1 4861   1.898   0.646  14.234 -0.0863  0.1267  0.1876
  323TMC3    O2 4862   1.959   1.094  13.762  0.1953  0.5854 -0.0144
  324MPD2     C 4863   3.879   1.763  14.874 -0.2876 -0.5509 -0.1913
  324MPD2    C1 4864   3.892   1.898  14.824  0.4629 -0.2346  0.3469
  324MPD2    C2 4865   3.785   1.962  14.761  0.1088  0.2357 -0.4137
  324MPD2    C3 4866   3.662   1.891  14.759  0.4068  0.9987  0.1836
  324MPD2    C4 4867   3.653   1.764  14.802 -0.0315  0.5313 -0.1068
  324MPD2    C5 4868   3.756   1.699  14.859  0.3539 -0.1690  0.1794
  324MPD2     H 4869   3.796   2.067  14.736 -0.7447  1.0458  2.6221
  324MPD2    H1 4870   3.557   1.716  14.790  0.7318 -0.3976 -2.3559
  324MPD2    H2 4871   3.968   1.704  14.892  0.5434  0.5436 -0.7128
  324MPD2    H3 4872   3.756   1.599  14.900 -0.2303 -1.0662 -1.9717
  324MPD2     N 4873   3.535   1.944  14.721 -0.1656  0.2487  0.3714
  324MPD2    H5 4874   3.461   1.876  14.718 -0.2414  0.3415  0.1553
  324MPD2    N1 4875   4.020   1.953  14.805 -0.0902 -0.1069  0.1426
  324MPD2    H7 4876   4.036   2.034  14.745 -0.3773 -0.6369 -0.6484
  325TMC3    C1 4877   3.377   2.115  14.676 -0.4622 -0.1467 -0.5819
  325TMC3    C2 4878   3.281   2.032  14.630 -0.0903  0.0107  0.5868
  325TMC3    C3 4879   3.169   2.083  14.574  0.6878 -1.2247  1.1098
  325TMC3    C4 4880   3.359   2.255  14.682 -0.4133 -0.2576  0.5025
  325TMC3    C5 4881   3.247   2.301  14.612  0.3101 -1.1685  0.1972
  325TMC3    C6 4882   3.145   2.214  14.563  0.2256 -0.3133  0.1971
  325TMC3     C 4883   3.515   2.075  14.696  0.3630 -0.2952 -0.1980
  325TMC3     O 4884   3.592   2.170  14.691 -0.8347 -0.0588 -0.5857
  325TMC3     H 4885   3.296   1.925  14.623  2.4943  0.4056  0.0429
  325TMC3    H1 4886   3.432   2.327  14.715 -0.5401  0.1316 -0.0554
  325TMC3    H2 4887   3.079   2.248  14.484 -3.5173 -1.7423  2.6918
  325TMC3    C7 4888   3.240   2.436  14.586  0.0405 -0.0459 -0.8597
  325TMC3    C8 4889   3.102   1.991  14.481  0.8595 -0.4625  0.4042
  325TMC3    O1 4890   3.332   2.512  14.613 -0.7935  0.1677 -0.5014
  325TMC3    O2 4891   3.169   1.893  14.433 -0.3080 -0.3646  0.0261
  326MPD2     C 4892   0.194   2.934  11.333  0.3189 -0.5105 -0.3717
  326MPD2    C1 4893   0.192   2.993  11.206  0.5643  0.0260 -0.0510
  326MPD2    C2 4894   0.276   3.099  11.181  0.1166  0.7870 -0.9308
  326MPD2    C3 4895   0.366   3.136  11.277 -0.4157 -0.2295  0.6154
  326MPD2    C4 4896   0.382   3.061  11.390  0.0032  0.2993  0.5244
  326MPD2    C5 4897   0.299   2.962  11.420 -0.0558  0.1352 -0.5045
  326MPD2     H 4898   0.278   3.157  11.090  2.5430 -2.3847 -2.9024
  326MPD2    H1 4899   0.459   3.089  11.462  1.4484 -1.3957 -0.3664
  326MPD2    H2 4900   0.123   2.855  11.358  0.7156 -1.6276 -2.7645
  326MPD2    H3 4901   0.303   2.903  11.511 -0.0260 -0.4299 -0.8680
  326MPD2     N 4902   0.455   3.246  11.266 -0.8769  0.0898 -0.6958
  326MPD2    H5 4903   0.520   3.264  11.342 -0.6564  0.8367 -1.0648
  326MPD2    N1 4904   0.101   2.961  11.101 -0.0546 -0.2447  0.0935
  326MPD2    H7 4905   0.110   3.018  11.018 -0.0409 -0.2681  0.0793
  327TMC3    C1 4906   4.695   2.836  10.956 -0.2765  0.1534 -0.0930
  327TMC3    C2 4907   4.606   2.932  10.911  0.2118 -0.4120  0.4789
  327TMC3    C3 4908   4.613   2.973  10.778  0.0933 -0.2793  0.5393
  327TMC3    C4 4909   0.069   2.792  10.873  0.0645  0.1536  0.1816
  327TMC3    C5 4910   0.084   2.847  10.751 -0.0763  0.3434  0.1365
  327TMC3    C6 4911   4.712   2.927  10.699  0.5626 -0.5092 -0.8307
  327TMC3     C 4912   0.009   2.856  11.096 -0.3662  0.0769 -0.1395
  327TMC3     O 4913   4.711   2.767  11.182  0.6497 -0.4727 -0.6065
  327TMC3     H 4914   4.527   2.967  10.976  0.1878  0.9152 -0.2645
  327TMC3    H1 4915   0.118   2.701  10.903  0.9669  0.5408 -0.1374
  327TMC3    H2 4916   0.008   2.984  10.609 -2.3558  0.9696 -0.5471
  327TMC3    C7 4917   0.217   2.904  10.740 -0.8796  0.0861  0.8306
  327TMC3    C8 4918   4.545   3.091  10.738 -0.0696 -0.4791  0.3592
  327TMC3    O1 4919   0.236   2.971  10.637  0.0661  0.4635 -0.5500
  327TMC3    O2 4920   4.519   3.106  10.616  0.5421 -0.1630  0.5531
  328MPD2     C 4921   2.744   3.065  17.479 -0.3606 -0.2274  1.0435
  328MPD2    C1 4922   2.623   3.014  17.458  0.0282 -0.2035 -0.5095
  328MPD2    C2 4923   2.544   3.064  17.360  0.7050 -0.5963 -0.0804
  328MPD2    C3 4924   2.575   3.180  17.295  0.4031  0.8694 -0.6089
  328MPD2    C4 4925   2.694   3.244  17.327  0.2131  0.1113  0.1050
  328MPD2    C5 4926   2.774   3.173  17.412 -0.1971 -0.4510  0.2037
  328MPD2     H 4927   2.442   3.028  17.351 -0.3270  1.9243  1.4412
  328MPD2    H1 4928   2.735   3.320  17.262  0.6970 -0.7712 -0.6233
  328MPD2    H2 4929   2.815   3.029  17.553  0.1392  0.3970  0.8697
  328MPD2    H3 4930   2.874   3.213  17.421 -0.5663  0.2552  1.2559
  328MPD2     N 4931   2.485   3.230  17.194  0.3692  0.5489 -0.3440
  328MPD2    H5 4932   2.512   3.316  17.149  1.0600  0.6993  0.3603
  328MPD2    N1 4933   2.582   2.914  17.545  0.0494 -0.2817  0.0946
  328MPD2    H7 4934   2.634   2.906  17.632  2.8019 -2.5368 -1.7551
  329TMC3    C1 4935   2.392   2.820  17.650  0.1328  0.0293 -0.0305
  329TMC3    C2 4936   2.414   2.921   0.042 -0.6918  0.2862 -0.0193
  329TMC3    C3 4937   2.310   2.975   0.114 -0.1205  0.3217 -0.0276
  329TMC3    C4 4938   2.261   2.776  17.636 -0.9471  0.1101 -0.2423
  329TMC3    C5 4939   2.161   2.838  17.693  0.0505  0.0050 -0.1310
  329TMC3    C6 4940   2.184   2.932   0.095  0.1930 -0.4209  0.0815
  329TMC3     C 4941   2.475   2.829  17.530  0.3085 -0.0801  0.2965
  329TMC3     O 4942   2.412   2.810  17.427  0.5943  0.6206  0.1002
  329TMC3     H 4943   2.511   2.960   0.069 -1.4427  0.7693  2.0006
  329TMC3    H1 4944   2.254   2.688  17.573 -2.6379  0.5371 -0.6421
  329TMC3    H2 4945   2.105   2.991   0.140 -1.4564 -0.8142 -2.2825
  329TMC3    C7 4946   2.021   2.833  17.641 -0.5077  0.2307  0.0678
  329TMC3    C8 4947   2.332   3.112   0.156  0.2337 -0.1743  0.4256
  329TMC3    O1 4948   1.943   2.916  17.689 -0.3488  0.3292 -0.0679
  329TMC3    O2 4949   2.450   3.153   0.163 -0.2954 -0.0460 -0.7983
  330TMC3    C1 4950   0.433   2.355  10.032  0.3170  0.6100 -0.2282
  330TMC3    C2 4951   0.391   2.280   9.927 -0.1028  0.6301  0.4384
  330TMC3    C3 4952   0.417   2.148   9.923  1.0066  0.2036 -0.5327
  330TMC3    C4 4953   0.510   2.302  10.135 -0.2331  0.0207  0.0432
  330TMC3    C5 4954   0.528   2.166  10.130 -0.4421 -0.1923  0.2826
  330TMC3    C6 4955   0.483   2.086  10.029 -0.3388  0.6300  0.5567
  330TMC3     C 4956   0.396   2.495  10.039  0.1859  0.0101 -0.6322
  330TMC3     O 4957   0.476   2.569  10.091  0.3918 -0.4485 -0.0717
  330TMC3     H 4958   0.349   2.329   9.840 -0.1112  2.8676  1.7057
  330TMC3    H1 4959   0.536   2.368  10.217  0.7588 -2.6149  1.8623
  330TMC3    H2 4960   0.506   1.980  10.028 -0.0427  0.6840  2.6226
  330TMC3    C7 4961   0.557   2.121  10.259 -0.3457 -0.2177  0.3373
  330TMC3    C8 4962   0.383   2.075   9.801 -0.3233 -0.5434 -0.7312
  330TMC3    O1 4963   0.564   2.208  10.346 -0.1623  0.0380 -0.0684
  330TMC3    O2 4964   0.320   2.147   9.724  0.3212 -0.4020  0.3912
  331MPD2     C 4965   2.521   1.712  12.046  0.1717 -0.6102  0.8991
  331MPD2    C1 4966   2.652   1.696  12.008  0.3370  0.0542 -0.0004
  331MPD2    C2 4967   2.715   1.571  12.014 -0.0685 -0.1605  0.3400
  331MPD2    C3 4968   2.651   1.463  12.069 -0.4969 -0.6930 -0.0969
  331MPD2    C4 4969   2.519   1.480  12.105  0.0863  0.0900 -0.2736
  331MPD2    C5 4970   2.455   1.603  12.102  0.1834 -0.2393 -0.0163
  331MPD2     H 4971   2.815   1.556  11.976 -0.4055 -1.7750  0.0696
  331MPD2    H1 4972   2.460   1.403  12.155  0.4309 -0.3505 -0.5514
  331MPD2    H2 4973   2.482   1.813  12.042 -2.6988 -1.6682  2.1690
  331MPD2    H3 4974   2.359   1.610  12.153  0.7586  0.3572  0.9843
  331MPD2     N 4975   2.725   1.345  12.085 -0.6124 -0.6232  0.4184
  331MPD2    H5 4976   2.824   1.358  12.068 -0.8103  0.6342  0.2037
  331MPD2    N1 4977   2.715   1.809  11.956  0.4509  0.1876 -0.6910
  331MPD2    H7 4978   2.660   1.894  11.945  2.6490  1.7864  0.8205
  332TMC3    C1 4979   2.809   1.152  12.168 -0.8667 -0.0719  0.6896
  332TMC3    C2 4980   2.904   1.162  12.072  0.4505 -0.1682 -0.5705
  332TMC3    C3 4981   3.031   1.118  12.105  0.5626  0.5075  0.5067
  332TMC3    C4 4982   2.826   1.093  12.285 -0.4182  0.5667 -0.3600
  332TMC3    C5 4983   2.954   1.064  12.322  0.1382 -0.6582 -0.2377
  332TMC3    C6 4984   3.059   1.071  12.229 -0.5151  0.3110 -0.3202
  332TMC3     C 4985   2.689   1.238  12.159 -0.3580 -0.0982 -0.5936
  332TMC3     O 4986   2.588   1.208  12.216  0.4486 -0.0556 -0.2298
  332TMC3     H 4987   2.885   1.187  11.968  2.8740  2.0767 -0.4978
  332TMC3    H1 4988   2.749   1.107  12.360 -0.6086 -1.1146 -0.2350
  332TMC3    H2 4989   3.159   1.033  12.247 -0.6271  1.0453  1.8858
  332TMC3    C7 4990   2.986   1.048  12.463 -0.3809 -0.0038  0.5235
  332TMC3    C8 4991   3.149   1.152  12.018 -0.4549  0.8226 -1.1666
  332TMC3    O1 4992   2.887   1.058  12.537  0.0388  0.0764  0.2107
  332TMC3    O2 4993   3.250   1.153  12.081  0.2355 -0.2287 -0.5639
  333MPD2     C 4994   3.153   1.117  11.097 -0.4872  0.5470 -0.4320
  333MPD2    C1 4995   3.241   1.017  11.051  0.0643  0.3149 -0.8121
  333MPD2    C2 4996   3.250   0.903  11.122  0.1464 -0.1163  0.6866
  333MPD2    C3 4997   3.185   0.882  11.244 -0.1263 -0.7620 -0.1628
  333MPD2    C4 4998   3.099   0.979  11.287  0.0640  0.2036  0.5098
  333MPD2    C5 4999   3.088   1.095  11.214  0.1187  0.5320 -0.6172
  333MPD2     H 5000   3.320   0.827  11.090 -0.7045 -0.5476 -0.1450
  333MPD2    H1 5001   3.046   0.988  11.381 -3.2086 -1.8144 -1.1414
  333MPD2    H2 5002   3.148   1.215  11.053 -0.8440  0.3381 -0.8612
  333MPD2    H3 5003   3.018   1.163  11.262 -0.0931  0.1389 -0.3688
  333MPD2     N 5004   3.208   0.760  11.314  0.0149  0.0519  0.8056
  333MPD2    H5 5005   3.282   0.699  11.283 -1.4197 -1.1690 -0.2610
  333MPD2    N1 5006   3.320   1.044  10.936  0.0169  0.4378 -0.3682
  333MPD2    H7 5007   3.309   1.136  10.894 -1.9603  0.9603  1.3046
  334TMC3    C1 5008   3.495   1.046  10.794  0.1405 -0.2588  0.2154
  334TMC3    C2 5009   3.576   0.977  10.708 -0.0155 -0.3540  0.0768
  334TMC3    C3 5010   3.657   1.051  10.630  0.2286 -0.2776 -0.3785
  334TMC3    C4 5011   3.481   1.185  10.789 -0.5356  0.1366  0.3017
  334TMC3    C5 5012   3.561   1.253  10.704 -0.4074  0.3426 -0.2531
  334TMC3    C6 5013   3.655   1.189  10.623 -0.5374 -0.7326 -0.0301
  334TMC3     C 5014   3.416   0.962  10.888 -0.2583  0.2425 -0.5408
  334TMC3     O 5015   3.447   0.842  10.908  0.0910  0.1502  0.0080
  334TMC3     H 5016   3.564   0.870  10.694 -1.5295  0.1765 -2.5122
  334TMC3    H1 5017   3.433   1.239  10.870  2.6972  2.0305  0.9290
  334TMC3    H2 5018   3.717   1.244  10.554  0.3496 -0.8139  0.7021
  334TMC3    C7 5019   3.547   1.397  10.704 -0.3046  0.3130 -0.2192
  334TMC3    C8 5020   3.780   0.993  10.624 -0.4694 -0.1390 -0.2824
  334TMC3    O1 5021   3.508   1.458  10.803 -0.3046  0.0228  0.6329
  334TMC3    O2 5022   3.773   0.873  10.607 -0.3994 -0.0954 -0.4139
  335TMC3    C1 5023   3.744   2.600   0.122 -0.5531  0.4303 -0.5758
  335TMC3    C2 5024   3.636   2.575   0.041 -0.2204 -0.0784 -0.6374
  335TMC3    C3 5025   3.643   2.626  17.618  0.0720 -0.7853  0.7316
  335TMC3    C4 5026   3.844   2.692   0.086  0.0402  0.7243  0.4223
  335TMC3    C5 5027   3.831   2.754  17.666 -0.6855 -0.1257  0.3840
  335TMC3    C6 5028   3.738   2.714  17.573  0.6580  0.2356  0.2519
  335TMC3     C 5029   3.731   2.567   0.264  0.9757  0.0493  0.1049
  335TMC3     O 5030   3.782   2.650   0.343  0.4862 -0.0603 -0.1660
  335TMC3     H 5031   3.551   2.519   0.080 -0.8278  1.7433  0.6292
  335TMC3    H1 5032   3.930   2.718   0.147 -0.6471 -0.9812  2.1144
  335TMC3    H2 5033   3.751   2.736  17.468  1.3214  0.5166  0.3971
  335TMC3    C7 5034   3.934   2.848  17.612 -0.6426  0.6707  0.2524
  335TMC3    C8 5035   3.537   2.606  17.523  0.3321  0.1770  0.1596
  335TMC3    O1 5036   3.892   2.904  17.508  0.3976  0.3864  0.7008
  335TMC3    O2 5037   3.520   2.691  17.440 -0.1086 -0.1947  0.0264
  336MPD2     C 5038   3.177   0.686  16.019 -0.7776  0.6998 -0.0198
  336MPD2    C1 5039   3.110   0.669  16.141 -0.8525  0.0465  0.3233
  336MPD2    C2 5040   3.109   0.542  16.201 -0.1263  0.0302  0.2629
  336MPD2    C3 5041   3.173   0.436  16.138 -0.5353  0.2539 -0.2208
  336MPD2    C4 5042   3.236   0.459  16.019  0.2274  0.5854 -0.6681
  336MPD2    C5 5043   3.228   0.577  15.956 -0.5372  0.2130 -0.2592
  336MPD2     H 5044   3.048   0.520  16.288 -0.3495  1.7587  0.5545
  336MPD2    H1 5045   3.289   0.380  15.966 -0.5568 -2.0403  2.4446
  336MPD2    H2 5046   3.171   0.777  15.961  2.3930  0.5182 -0.6209
  336MPD2    H3 5047   3.262   0.585  15.853  1.9057  2.0737  0.6927
  336MPD2     N 5048   3.170   0.302  16.177 -0.2934  0.1888  0.0707
  336MPD2    H5 5049   3.216   0.234  16.117  2.3327  0.9506  1.2204
  336MPD2    N1 5050   3.038   0.781  16.199 -0.3719  0.1752 -0.7121
  336MPD2    H7 5051   2.990   0.770  16.288 -1.1198 -1.0383 -1.2704
  337TMC3    C1 5052   2.935   0.998  16.225  0.4269 -0.3325  0.5491
  337TMC3    C2 5053   2.840   1.070  16.157 -0.5706 -0.5345  0.4318
  337TMC3    C3 5054   2.752   1.145  16.227  0.6801  0.3642  0.4487
  337TMC3    C4 5055   2.935   0.987  16.361  0.0951  0.5547 -0.6166
  337TMC3    C5 5056   2.839   1.059  16.425 -0.1462  0.2141  0.4685
  337TMC3    C6 5057   2.747   1.139  16.366  0.0899 -0.1645 -0.0802
  337TMC3     C 5058   3.015   0.904  16.142 -0.2914 -0.3835 -0.8302
  337TMC3     O 5059   3.037   0.946  16.031 -0.2225  0.8900 -0.1473
  337TMC3     H 5060   2.837   1.073  16.049  0.4853 -0.1773  0.4163
  337TMC3    H1 5061   3.017   0.931  16.404 -1.9258 -0.0125  2.4587
  337TMC3    H2 5062   2.665   1.194  16.410 -0.5134  0.6218 -2.2328
  337TMC3    C7 5063   2.841   1.074  16.570 -0.0371  0.2648  0.1059
  337TMC3    C8 5064   2.635   1.206  16.175 -0.1875  0.6453 -0.2750
  337TMC3    O1 5065   2.785   1.176  16.615  0.3649 -0.1746 -0.1936
  337TMC3    O2 5066   2.592   1.315  16.211 -0.1015  0.2373 -0.1680
  338MPD2     C 5067   3.459   4.402   0.959  0.0013 -0.2715  0.2600
  338MPD2    C1 5068   3.421   4.456   0.835  0.4748 -0.8235  0.3510
  338MPD2    C2 5069   3.316   4.540   0.833 -0.2571  0.2747  0.4666
  338MPD2    C3 5070   3.254   4.580   0.940 -0.1326 -0.8690 -1.1391
  338MPD2    C4 5071   3.294   4.537   1.066  0.0268  0.6570  0.8179
  338MPD2    C5 5072   3.393   4.448   1.076 -0.1984 -0.1782 -0.0007
  338MPD2     H 5073   3.275   4.571   0.738 -0.1364  1.0712  0.6697
  338MPD2    H1 5074   3.241   4.561   1.158  2.5237  2.4118  1.8002
  338MPD2    H2 5075   3.539   4.329   0.970  0.0935 -0.6414 -2.9140
  338MPD2    H3 5076   3.423   4.400   1.168 -1.0612 -0.1491  0.2934
  338MPD2     N 5077   3.142   4.658   0.918 -0.5314 -0.4141 -0.2939
  338MPD2    H5 5078   3.127   4.675   0.819  1.6944 -0.1327 -0.5814
  338MPD2    N1 5079   3.474   4.423   0.707 -0.1586 -0.0533 -0.0658
  338MPD2    H7 5080   3.419   4.444   0.625 -2.5692 -0.4356  1.4357
  339TMC3    C1 5081   2.921   0.017   0.922  0.5360  0.2013  0.2691
  339TMC3    C2 5082   2.801   4.685   0.950 -0.2399  0.2682 -0.7850
  339TMC3    C3 5083   2.707   4.686   0.844  0.1098 -0.5206  0.9678
  339TMC3    C4 5084   2.948   0.080   0.808 -0.1339 -0.9548 -0.2379
  339TMC3    C5 5085   2.850   0.095   0.716 -0.4392 -0.1964 -0.2383
  339TMC3    C6 5086   2.729   0.024   0.730  0.6523  0.4286 -1.0699
  339TMC3     C 5087   3.030   4.689   1.001  0.2286 -0.4957  0.8985
  339TMC3     O 5088   3.009   4.655   1.120  0.3679 -0.2377 -1.1014
  339TMC3     H 5089   2.788   4.628   1.041 -1.0154 -1.8047 -2.1813
  339TMC3    H1 5090   3.044   0.121   0.780 -1.3258  0.7760 -1.8337
  339TMC3    H2 5091   2.652   0.026   0.655  1.4255  0.8733 -1.8545
  339TMC3    C7 5092   2.900   0.100   0.585  0.1679 -0.1213 -0.0130
  339TMC3    C8 5093   2.585   4.615   0.861  0.3539 -0.3782 -0.4258
  339TMC3    O1 5094   2.980   0.186   0.554 -0.0440 -0.2302 -0.5988
  339TMC3    O2 5095   2.495   4.655   0.789  0.2626 -0.0556 -0.4038
  340MPD2     C 5096   4.230   2.847  10.380  0.2949 -0.0699 -0.0451
  340MPD2    C1 5097   4.151   2.740  10.400 -0.0757  0.9764  0.2630
  340MPD2    C2 5098   4.208   2.637  10.468 -0.0462 -0.0275 -0.2226
  340MPD2    C3 5099   4.345   2.634  10.496  0.0435  0.5131 -0.1581
  340MPD2    C4 5100   4.421   2.743  10.481 -0.1320  0.4183  0.3138
  340MPD2    C5 5101   4.361   2.848  10.423  1.2780  0.5533  0.5556
  340MPD2     H 5102   4.148   2.553  10.500 -1.0982  0.2113 -1.5825
  340MPD2    H1 5103   4.527   2.742  10.505  0.0139 -0.4131 -0.3603
  340MPD2    H2 5104   4.194   2.936  10.329 -0.5393 -0.3365  0.0674
  340MPD2    H3 5105   4.425   2.934  10.403  0.5663  0.3897 -2.3270
  340MPD2     N 5106   4.405   2.527  10.560 -0.1285 -0.1003 -0.1384
  340MPD2    H5 5107   4.488   2.548  10.616 -1.6331  2.1375  1.2392
  340MPD2    N1 5108   4.017   2.736  10.353  0.7985  0.5031 -0.2706
  340MPD2    H7 5109   3.976   2.815  10.305 -1.7907 -0.3351  0.5068
  341TMC3    C1 5110   3.817   2.640  10.276 -0.1861  0.1999 -0.2955
  341TMC3    C2 5111   3.742   2.520  10.276 -0.0195 -0.2287 -0.2088
  341TMC3    C3 5112   3.676   2.485  10.151  0.1788  0.6381 -0.4114
  341TMC3    C4 5113   3.829   2.710  10.162  0.4216 -0.2627  1.0335
  341TMC3    C5 5114   3.749   2.684  10.052 -0.0081  0.3204  0.4319
  341TMC3    C6 5115   3.676   2.568  10.038  0.1612 -0.8330  0.5866
  341TMC3     C 5116   3.924   2.637  10.375  0.0095  0.3762  0.1468
  341TMC3     O 5117   3.938   2.530  10.433 -0.0275 -0.1588  0.3700
  341TMC3     H 5118   3.733   2.458  10.364 -0.1066 -0.5775 -0.4616
  341TMC3    H1 5119   3.905   2.787  10.152 -3.0204  2.6448 -2.2031
  341TMC3    H2 5120   3.616   2.541   9.952 -0.1788  3.0671 -0.3586
  341TMC3    C7 5121   3.808   2.741   9.929  0.2475  0.0271 -0.0003
  341TMC3    C8 5122   3.618   2.358  10.140 -0.3991 -0.6794 -0.0282
  341TMC3    O1 5123   3.820   2.866   9.926 -0.2031 -0.1848  0.0349
  341TMC3    O2 5124   3.580   2.307  10.248  0.2117  0.2786 -0.8486
  342MPD2     C 5125   1.092   1.072   0.113  0.3027 -0.0793  0.1403
  342MPD2    C1 5126   1.204   1.083   0.027 -0.2400  0.1033  0.4772
  342MPD2    C2 5127   1.237   1.207  17.682 -0.4197 -0.9358  0.3293
  342MPD2    C3 5128   1.167   1.325   0.022  0.1503  0.0725  0.8453
  342MPD2    C4 5129   1.057   1.305   0.103  0.4410 -0.9482  0.4406
  342MPD2    C5 5130   1.019   1.183   0.149 -0.4755  0.2029 -0.2907
  342MPD2     H 5131   1.326   1.211  17.620 -0.7205  0.9130  0.0189
  342MPD2    H1 5132   0.999   1.389   0.136 -1.0177 -2.2658  1.2294
  342MPD2    H2 5133   1.058   0.978   0.153  0.4283  0.2484  1.0238
  342MPD2    H3 5134   0.937   1.176   0.219 -1.6520 -1.5014 -1.8329
  342MPD2     N 5135   1.198   1.455  17.660 -0.2330 -0.3214  0.5857
  342MPD2    H5 5136   1.133   1.530  17.682  1.2106  0.3049  2.6428
  342MPD2    N1 5137   1.289   0.973  17.684 -0.3205  0.5143  0.1774
  342MPD2    H7 5138   1.367   0.998  17.624 -0.2672 -1.4094 -0.5520
  343TMC3    C1 5139   1.319   0.747  17.611 -0.4470 -0.4556 -0.1975
  343TMC3    C2 5140   1.444   0.783  17.558  0.4443 -0.1256 -0.3664
  343TMC3    C3 5141   1.508   0.694  17.472  0.2225 -0.1897  0.7057
  343TMC3    C4 5142   1.258   0.627  17.589  0.2846 -0.1102 -0.5723
  343TMC3    C5 5143   1.316   0.550  17.492  0.2229 -0.0820  0.3260
  343TMC3    C6 5144   1.441   0.573  17.431 -0.3833 -1.2877 -0.1751
  343TMC3     C 5145   1.245   0.840  17.691  0.3101 -0.4762 -0.1314
  343TMC3     O 5146   1.141   0.796   0.043  0.5086 -0.2362  0.4363
  343TMC3     H 5147   1.493   0.865  17.609  1.7124 -0.5233 -0.9333
  343TMC3    H1 5148   1.153   0.616  17.614  2.0082 -6.1594  3.9084
  343TMC3    H2 5149   1.482   0.504  17.359  1.0257 -0.1740 -0.4453
  343TMC3    C7 5150   1.275   0.405  17.494 -0.3297 -0.1502 -0.2355
  343TMC3    C8 5151   1.645   0.718  17.436  0.2714  0.2633  0.3446
  343TMC3    O1 5152   1.269   0.332  17.389 -0.0899  0.1848  0.1008
  343TMC3    O2 5153   1.703   0.780  17.523 -0.3507  0.1462 -0.2946
  344MPD2     C 5154   1.841   0.155  10.299  0.4756  0.0841 -0.7039
  344MPD2    C1 5155   1.959   0.145  10.362  0.2904 -0.2479  0.3073
  344MPD2    C2 5156   2.066   0.216  10.305 -0.3150 -0.5457 -0.1952
  344MPD2    C3 5157   2.045   0.295  10.194  0.5538  0.4960 -0.0913
  344MPD2    C4 5158   1.921   0.298  10.136 -0.2713 -0.1374  0.2729
  344MPD2    C5 5159   1.816   0.228  10.183  0.3878 -0.2235 -0.8125
  344MPD2     H 5160   2.158   0.207  10.361  0.6355  2.8996 -1.2299
  344MPD2    H1 5161   1.908   0.353  10.043 -0.9748 -1.2011 -0.2703
  344MPD2    H2 5162   1.760   0.097  10.343  0.1628 -0.2403 -1.6901
  344MPD2    H3 5163   1.722   0.229  10.128 -0.6607 -1.0355  0.9537
  344MPD2     N 5164   2.153   0.373  10.138 -0.5292 -0.5892 -0.0496
  344MPD2    H5 5165   2.141   0.414  10.045  0.7170  0.4872  0.2496
  344MPD2    N1 5166   1.974   0.062  10.479  0.0978  0.7939  0.3003
  344MPD2    H7 5167   2.068   0.057  10.518  1.1889  0.1540 -2.4538
  345TMC3    C1 5168   2.380   0.441  10.105  0.0896  0.2316 -0.3556
  345TMC3    C2 5169   2.505   0.395  10.136 -0.8235  0.1663  0.1525
  345TMC3    C3 5170   2.610   0.455  10.064 -0.2485 -0.4369  0.0182
  345TMC3    C4 5171   2.362   0.522   9.999 -0.2406  0.3518  0.4481
  345TMC3    C5 5172   2.467   0.569   9.929 -0.8052 -0.3812  0.3970
  345TMC3    C6 5173   2.591   0.530   9.959 -0.2516 -0.2191 -0.2067
  345TMC3     C 5174   2.277   0.396  10.197  0.0289  0.0298  0.5079
  345TMC3     O 5175   2.309   0.363  10.312  0.2239  0.5972  0.0286
  345TMC3     H 5176   2.529   0.334  10.222 -1.2957 -1.6637 -1.0287
  345TMC3    H1 5177   2.263   0.568   9.991 -0.3425  0.0406 -0.0941
  345TMC3    H2 5178   2.668   0.588   9.909  0.2247 -0.9630 -0.3511
  345TMC3    C7 5179   2.450   0.709   9.889  0.5669  0.0335  0.2404
  345TMC3    C8 5180   2.710   0.497  10.159 -0.3632 -0.0778 -0.5249
  345TMC3    O1 5181   2.516   0.784   9.962 -0.1391 -0.6283  0.6863
  345TMC3    O2 5182   2.660   0.517  10.270 -0.2783 -0.2517  0.6263
  346MPD2     C 5183   1.895   2.378  13.971  0.2557 -0.1853  0.4624
  346MPD2    C1 5184   2.023   2.415  13.923  0.0063  0.7037 -0.5211
  346MPD2    C2 5185   2.127   2.458  14.006  1.0097  0.6483 -0.0260
  346MPD2    C3 5186   2.104   2.465  14.138  0.4714  0.5960  0.1790
  346MPD2    C4 5187   1.979   2.419  14.181 -0.6231  0.2062  0.0675
  346MPD2    C5 5188   1.884   2.375  14.102 -0.1232  0.2821 -0.6388
  346MPD2     H 5189   2.227   2.482  13.970  1.2120  0.5083  0.4534
  346MPD2    H1 5190   1.940   2.424  14.282 -0.7282 -1.8305  0.1225
  346MPD2    H2 5191   1.814   2.353  13.904  0.6795  0.7979 -0.4171
  346MPD2    H3 5192   1.785   2.358  14.143 -0.4678 -0.4043 -1.7435
  346MPD2     N 5193   2.208   2.503  14.222 -0.1618 -0.2281  0.0009
  346MPD2    H5 5194   2.294   2.537  14.181  0.9699 -1.4616  1.3297
  346MPD2    N1 5195   2.051   2.416  13.786 -0.3830  0.0919 -0.2460
  346MPD2    H7 5196   2.147   2.441  13.765  0.2574 -1.3202  1.0509
  347TMC3    C1 5197   2.319   2.534  14.437 -0.0685  0.1562 -0.3486
  347TMC3    C2 5198   2.425   2.586  14.371  0.2954 -0.5406 -0.5189
  347TMC3    C3 5199   2.517   2.657  14.447  0.0305 -0.1921 -0.1252
  347TMC3    C4 5200   2.300   2.551  14.572  0.8271 -0.1656  0.4679
  347TMC3    C5 5201   2.392   2.630  14.639  0.4660 -0.3606  0.0065
  347TMC3    C6 5202   2.501   2.682  14.577 -0.7800 -0.0672 -0.0049
  347TMC3     C 5203   2.200   2.496  14.359 -0.4328  0.4933 -0.2789
  347TMC3     O 5204   2.111   2.441  14.424 -0.5607 -0.0271 -1.0758
  347TMC3     H 5205   2.463   2.546  14.278  0.2238 -0.5058 -0.5629
  347TMC3    H1 5206   2.214   2.507  14.620  1.1539 -1.4177 -0.0713
  347TMC3    H2 5207   2.572   2.744  14.630 -0.7853 -0.2275  0.1883
  347TMC3    C7 5208   2.396   2.642  14.778  0.0279 -0.7101 -0.2242
  347TMC3    C8 5209   2.656   2.642  14.406 -0.4662  0.0723 -0.2129
  347TMC3    O1 5210   2.494   2.693  14.827 -0.2613  0.0891  0.0310
  347TMC3    O2 5211   2.682   2.541  14.344 -0.0196  0.4741  0.3455
  348MPD2     C 5212   0.668   1.855  12.366  0.0531 -0.7259 -0.2989
  348MPD2    C1 5213   0.805   1.876  12.325 -0.3797  0.2950  0.1576
  348MPD2    C2 5214   0.833   1.955  12.213 -0.1011  0.2408 -0.0480
  348MPD2    C3 5215   0.730   2.007  12.136  0.0038  0.2995  0.2616
  348MPD2    C4 5216   0.603   1.971  12.169  0.8405  0.3375  0.0690
  348MPD2    C5 5217   0.576   1.894  12.279  0.7504 -0.0815 -0.7226
  348MPD2     H 5218   0.938   1.973  12.193  0.7156 -1.4863  2.6740
  348MPD2    H1 5219   0.516   1.994  12.109  1.3872  0.3665 -0.7129
  348MPD2    H2 5220   0.642   1.793  12.451  0.6821  0.3543  0.6830
  348MPD2    H3 5221   0.471   1.875  12.299  0.9650 -0.0410  0.4658
  348MPD2     N 5222   0.748   2.088  12.024  0.1336 -0.5100 -0.1665
  348MPD2    H5 5223   0.666   2.124  11.975 -0.2239 -0.2453  0.6221
  348MPD2    N1 5224   0.912   1.812  12.398 -0.2692  0.2812 -0.2659
  348MPD2    H7 5225   1.005   1.837  12.365 -0.3101  1.8439  0.8257
  349TMC3    C1 5226   1.016   1.626  12.467  0.5117 -0.3446  0.6501
  349TMC3    C2 5227   0.987   1.491  12.475 -0.0906 -0.0762 -0.1507
  349TMC3    C3 5228   1.031   1.415  12.369  0.8211  0.9807  0.5122
  349TMC3    C4 5229   1.115   1.681  12.383  0.4127 -0.6294 -0.2251
  349TMC3    C5 5230   1.163   1.593  12.288  0.3032  0.1565 -0.0109
  349TMC3    C6 5231   1.126   1.462  12.286  0.2297 -0.1275  0.2895
  349TMC3     C 5232   0.903   1.703  12.479  0.2715 -0.0167 -0.1902
  349TMC3     O 5233   0.801   1.647  12.518 -0.2485  0.3583 -0.3454
  349TMC3     H 5234   0.931   1.452  12.559 -0.0633  1.7776  0.7170
  349TMC3    H1 5235   1.151   1.783  12.392  0.3875 -0.4288 -2.4423
  349TMC3    H2 5236   1.162   1.406  12.200 -0.8991 -0.3684 -0.0235
  349TMC3    C7 5237   1.163   1.650  12.156  0.4770  0.6609 -0.4149
  349TMC3    C8 5238   1.023   1.274  12.400 -0.3503 -0.1667  0.5950
  349TMC3    O1 5239   1.091   1.595  12.072 -0.0981 -0.3442 -0.5234
  349TMC3    O2 5240   0.937   1.245  12.478 -0.0404  0.3913  0.7846
  350MPD2     C 5241   0.810   4.606   9.513  0.6754 -0.1311  1.8504
  350MPD2    C1 5242   0.759   4.599   9.641  0.7796  0.2104  0.0516
  350MPD2    C2 5243   0.746   4.710   9.717 -0.2830  0.0976 -0.0489
  350MPD2    C3 5244   0.797   0.107   9.665  0.4207 -0.5863 -0.7983
  350MPD2    C4 5245   0.846   0.118   9.537  0.3046  0.0069 -0.2285
  350MPD2    C5 5246   0.849   0.005   9.460 -0.7299  0.3591 -0.0736
  350MPD2     H 5247   0.707   4.701   9.818  2.9887 -2.6535  0.9287
  350MPD2    H1 5248   0.863   0.215   9.490  0.4966  0.6275  1.1373
  350MPD2    H2 5249   0.834   4.517   9.457  1.0033 -0.2171  2.1236
  350MPD2    H3 5250   0.878   0.017   9.356  0.6897 -1.8836  0.0854
  350MPD2     N 5251   0.792   0.218   9.753  0.0294 -0.3777  0.1882
  350MPD2    H5 5252   0.763   0.191   9.846  0.0205 -0.9711  0.0161
  350MPD2    N1 5253   0.706   4.479   9.699 -0.5798  0.0866  0.0279
  350MPD2    H7 5254   0.655   4.484   9.786  0.2411 -0.8742  0.5665
  351TMC3    C1 5255   0.646   4.258   9.724 -0.2651 -0.3644  0.3874
  351TMC3    C2 5256   0.712   4.142   9.740  0.5642 -0.7104 -0.2255
  351TMC3    C3 5257   0.629   4.045   9.789 -0.5633 -0.3128  0.0550
  351TMC3    C4 5258   0.512   4.284   9.738 -0.6042  0.1852  0.6637
  351TMC3    C5 5259   0.434   4.170   9.756  0.1837  0.2108 -0.2855
  351TMC3    C6 5260   0.492   4.043   9.790  0.3543  0.1634  0.5529
  351TMC3     C 5261   0.721   4.354   9.650  0.3060  0.9764 -0.2469
  351TMC3     O 5262   0.807   4.315   9.573  0.0911  0.1281 -0.1266
  351TMC3     H 5263   0.820   4.147   9.754  0.7488  0.1997 -1.9296
  351TMC3    H1 5264   0.472   4.382   9.719 -2.6823 -0.5866  1.0169
  351TMC3    H2 5265   0.438   3.949   9.792  0.0575  0.3083 -0.7157
  351TMC3    C7 5266   0.289   4.194   9.753 -0.8570 -0.0657 -0.6746
  351TMC3    C8 5267   0.702   3.927   9.826  0.5018 -0.0646  0.1091
  351TMC3    O1 5268   0.245   4.302   9.721 -0.1697  0.2595  0.1152
  351TMC3    O2 5269   0.814   3.918   9.773  0.7418 -0.1704  0.5000
  352MPD2     C 5270   3.946   1.191   1.564  0.0826 -0.0335 -0.2616
  352MPD2    C1 5271   3.902   1.248   1.446  0.6673 -0.5636 -0.4757
  352MPD2    C2 5272   3.985   1.254   1.342 -0.0263  0.1773 -0.4281
  352MPD2    C3 5273   4.121   1.213   1.350 -0.1397 -0.2699  0.9544
  352MPD2    C4 5274   4.163   1.168   1.473 -0.3189 -0.2625  0.2120
  352MPD2    C5 5275   4.076   1.159   1.572 -0.3172 -0.4105  0.2785
  352MPD2     H 5276   3.961   1.311   1.252 -1.4631 -0.9595 -0.7664
  352MPD2    H1 5277   4.264   1.140   1.498  0.3502  0.2754 -1.8445
  352MPD2    H2 5278   3.883   1.172   1.650  0.3755  0.3715  0.0397
  352MPD2    H3 5279   4.121   1.140   1.668 -2.3243  0.1340  1.3367
  352MPD2     N 5280   4.215   1.225   1.248 -0.6285  1.0122 -0.1255
  352MPD2    H5 5281   4.309   1.198   1.274 -0.7829 -0.5447 -1.2151
  352MPD2    N1 5282   3.770   1.294   1.444 -0.0185 -0.6339  0.3961
  352MPD2    H7 5283   3.722   1.266   1.528  1.1047 -3.9202 -0.0689
  353TMC3    C1 5284   4.298   1.230   1.027  0.0119 -0.8100 -0.2458
  353TMC3    C2 5285   4.428   1.205   1.072 -0.3057  0.3838 -0.5073
  353TMC3    C3 5286   4.513   1.128   0.997 -0.3185  0.3079  0.2729
  353TMC3    C4 5287   4.256   1.172   0.909  0.4138 -0.7091 -0.6931
  353TMC3    C5 5288   4.344   1.105   0.837 -0.4616 -0.0087 -0.1992
  353TMC3    C6 5289   4.473   1.073   0.879  0.1027  0.4430 -0.0288
  353TMC3     C 5290   4.186   1.264   1.118 -0.4966 -0.1591  0.5487
  353TMC3     O 5291   4.076   1.295   1.073  0.6905  0.2774 -0.0336
  353TMC3     H 5292   4.459   1.233   1.172 -0.9333  0.9935 -0.4861
  353TMC3    H1 5293   4.161   1.193   0.860 -0.1355 -0.8125  0.3221
  353TMC3    H2 5294   4.535   1.006   0.820 -0.3537  1.3544 -1.5324
  353TMC3    C7 5295   4.306   1.032   0.713 -0.4795  0.3522 -0.3541
  353TMC3    C8 5296   4.618   1.056   1.059  0.2231 -0.4822  0.5168
  353TMC3    O1 5297   4.391   1.025   0.624  0.1695 -0.2340  0.2120
  353TMC3    O2 5298   4.677   1.105   1.151 -0.4233 -0.0487 -0.2629
  354TMC3    C1 5299   4.523   3.249  13.150  0.5200 -0.2556  0.7894
  354TMC3    C2 5300   4.537   3.380  13.109  0.2654 -0.0699  0.6228
  354TMC3    C3 5301   4.585   3.412  12.988  0.0153 -0.1753  0.0363
  354TMC3    C4 5302   4.561   3.147  13.068 -0.3557  0.4932  0.6800
  354TMC3    C5 5303   4.618   3.181  12.950  0.0546 -0.1346  0.4008
  354TMC3    C6 5304   4.627   3.307  12.900 -0.3921  0.3484 -0.1496
  354TMC3     C 5305   4.476   3.213  13.287 -0.3549 -0.2125  0.0585
  354TMC3     O 5306   4.433   3.097  13.300  0.8147 -0.0193 -0.3095
  354TMC3     H 5307   4.497   3.452  13.180  0.9287  1.3853 -0.4812
  354TMC3    H1 5308   4.571   3.050  13.115 -2.3794  0.4110  0.9405
  354TMC3    H2 5309   4.646   3.320  12.794  3.1891 -1.6426  0.2585
  354TMC3    C7 5310   0.003   3.099  12.906 -0.5357  0.3412  0.2609
  354TMC3    C8 5311   4.570   3.548  12.940 -0.2433  0.0864 -0.6161
  354TMC3    O1 5312   4.717   2.979  12.929 -0.2203  0.0610  0.2556
  354TMC3    O2 5313   4.599   3.556  12.821  0.1681 -0.3980 -0.1497
  355MPD2     C 5314   0.304   4.437  11.689 -0.0563 -0.2259 -0.6190
  355MPD2    C1 5315   0.264   4.375  11.569 -0.3257 -0.0461 -0.8247
  355MPD2    C2 5316   0.288   4.235  11.553  0.5948 -1.0624  0.3482
  355MPD2    C3 5317   0.362   4.164  11.647  0.1399 -0.1123  0.6950
  355MPD2    C4 5318   0.399   4.230  11.760  0.8099  0.2676 -0.3344
  355MPD2    C5 5319   0.377   4.359  11.778  0.1959  0.5562 -0.0107
  355MPD2     H 5320   0.265   4.187  11.458  1.1049  0.0298 -0.3246
  355MPD2    H1 5321   0.462   4.188  11.838 -0.7201 -0.1748  0.6508
  355MPD2    H2 5322   0.302   4.545  11.697 -2.1521 -0.3383  0.4053
  355MPD2    H3 5323   0.412   4.411  11.866 -0.6915 -2.1686  1.9394
  355MPD2     N 5324   0.406   4.033  11.628 -0.0620  0.0887  0.3331
  355MPD2    H5 5325   0.469   3.991  11.696  2.4451  0.4297 -1.8084
  355MPD2    N1 5326   0.221   4.466  11.463 -0.7764 -0.6977  0.2629
  355MPD2    H7 5327   0.213   4.566  11.475 -0.2695 -0.4569 -1.3872
  356TMC3    C1 5328   0.471   3.828  11.526  0.2970  0.1609 -0.5718
  356TMC3    C2 5329   0.565   3.821  11.426 -0.1211 -0.7320  0.1364
  356TMC3    C3 5330   0.679   3.751  11.445 -0.8584  0.5400  0.2275
  356TMC3    C4 5331   0.494   3.778  11.647 -0.2037 -0.7453  0.2411
  356TMC3    C5 5332   0.610   3.709  11.662  0.0490  0.2392 -0.4519
  356TMC3    C6 5333   0.703   3.696  11.566 -0.7876  0.3570 -0.0261
  356TMC3     C 5334   0.389   3.950  11.519 -0.9494 -0.0255  0.8783
  356TMC3     O 5335   0.346   3.983  11.408  0.5501 -0.8575  0.6097
  356TMC3     H 5336   0.542   3.842  11.323 -3.5071 -3.1790  0.3653
  356TMC3    H1 5337   0.425   3.799  11.727 -1.0848  1.8575 -1.1848
  356TMC3    H2 5338   0.799   3.647  11.581 -0.4642  0.4840 -1.7207
  356TMC3    C7 5339   0.654   3.675  11.796  0.7368 -0.3353 -0.6577
  356TMC3    C8 5340   0.788   3.777  11.355  0.4852 -0.1868 -0.0171
  356TMC3    O1 5341   0.729   3.575  11.812  0.3693  0.1495 -0.6489
  356TMC3    O2 5342   0.871   3.685  11.343 -0.0505  0.0238 -0.7214
  357MPD2     C 5343   4.160   2.559   1.041 -0.2683 -0.6083 -0.5754
  357MPD2    C1 5344   4.212   2.430   1.027  0.2810  0.2264  1.1031
  357MPD2    C2 5345   4.136   2.329   1.077 -0.2934  0.4758  0.2523
  357MPD2    C3 5346   4.015   2.340   1.146  0.6345  0.2652  0.0494
  357MPD2    C4 5347   3.976   2.466   1.171  0.8070 -0.2440  0.1350
  357MPD2    C5 5348   4.045   2.573   1.114  0.0157 -0.2028  0.8579
  357MPD2     H 5349   4.174   2.231   1.049 -0.6885  0.3019  0.3277
  357MPD2    H1 5350   3.892   2.479   1.239 -0.1739 -1.3867 -0.8509
  357MPD2    H2 5351   4.205   2.645   0.992  2.3482 -1.1421  0.8865
  357MPD2    H3 5352   4.013   2.674   1.135  0.3932  0.1327 -0.1690
  357MPD2     N 5353   3.944   2.230   1.207  0.1485  0.5730  0.0321
  357MPD2    H5 5354   3.889   2.259   1.287  0.7861  2.5245 -0.2200
  357MPD2    N1 5355   4.343   2.415   0.967 -0.0387  0.1170  0.1842
  357MPD2    H7 5356   4.390   2.504   0.953 -0.9807  0.1424 -2.6364
  358TMC3    C1 5357   4.559   2.313   0.954  0.0913  0.6344 -0.1572
  358TMC3    C2 5358   4.618   2.430   0.903  0.0935  0.3616 -0.3620
  358TMC3    C3 5359   0.026   2.450   0.922  0.3013  0.6475 -0.9535
  358TMC3    C4 5360   4.639   2.225   1.025  0.6052  0.1984 -0.4531
  358TMC3    C5 5361   0.045   2.255   1.057  0.1573 -0.2794  0.6309
  358TMC3    C6 5362   0.098   2.369   1.003  0.0813  0.1639  0.4813
  358TMC3     C 5363   4.415   2.295   0.970 -0.4577  0.6407  0.1571
  358TMC3     O 5364   4.383   2.188   1.019  0.2007  0.6601 -0.1864
  358TMC3     H 5365   4.563   2.486   0.829 -0.7054  0.0881  0.0195
  358TMC3    H1 5366   4.597   2.132   1.062 -2.1624  1.4382 -0.5109
  358TMC3    H2 5367   0.204   2.375   1.025  0.1178  0.3186  0.2532
  358TMC3    C7 5368   0.129   2.172   1.142  0.7071 -1.0600  0.2934
  358TMC3    C8 5369   0.077   2.585   0.879  0.5612  0.3868  0.3795
  358TMC3    O1 5370   0.244   2.209   1.168  0.3437 -0.2843 -0.1054
  358TMC3    O2 5371   0.009   2.644   0.793  0.3274 -0.3550  0.3237
  359MPD2     C 5372   0.548   2.155  12.792 -0.2694 -0.5306 -0.4290
  359MPD2    C1 5373   0.549   2.121  12.661  0.5075  0.2789 -0.3064
  359MPD2    C2 5374   0.436   2.075  12.603  0.3940  0.0066 -0.6890
  359MPD2    C3 5375   0.324   2.063  12.679  0.0989 -0.4512 -0.4922
  359MPD2    C4 5376   0.326   2.085  12.812  0.1059 -0.4625 -0.4623
  359MPD2    C5 5377   0.436   2.143  12.868 -0.1152  0.1463  0.1485
  359MPD2     H 5378   0.435   2.061  12.495  2.0388  0.1983 -0.7359
  359MPD2    H1 5379   0.236   2.083  12.873 -0.5586 -0.8045 -1.4429
  359MPD2    H2 5380   0.620   2.221  12.838 -2.9053  2.0956 -0.0219
  359MPD2    H3 5381   0.440   2.177  12.971 -0.8544 -0.4485  0.3720
  359MPD2     N 5382   0.202   2.013  12.627  0.6860  0.8253  0.6163
  359MPD2    H5 5383   0.115   2.022  12.679  0.9429  2.3354  0.7777
  359MPD2    N1 5384   0.654   2.155  12.574 -0.4440 -0.1286  0.0629
  359MPD2    H7 5385   0.636   2.135  12.476  0.0651  0.4492 -0.1450
  360TMC3    C1 5386   0.843   2.274  12.505  0.4267 -0.4491 -0.0512
  360TMC3    C2 5387   0.962   2.321  12.541  0.5679  0.8068 -0.3631
  360TMC3    C3 5388   1.030   2.401  12.459 -0.1947  0.1590  1.1014
  360TMC3    C4 5389   0.802   2.286  12.374 -0.0130 -0.2318  0.0859
  360TMC3    C5 5390   0.872   2.365  12.293  0.4690  0.3831 -0.5203
  360TMC3    C6 5391   0.994   2.420  12.329 -0.2554 -0.1655 -0.0567
  360TMC3     C 5392   0.774   2.198  12.610 -0.4648  0.0268  1.0134
  360TMC3     O 5393   0.824   2.204  12.718 -0.2387  0.7784  0.1816
  360TMC3     H 5394   0.989   2.323  12.646 -0.0958 -0.8029 -0.1554
  360TMC3    H1 5395   0.713   2.230  12.345 -2.2644  2.3329  2.0853
  360TMC3    H2 5396   1.057   2.488  12.272  1.9478 -2.9090 -0.9167
  360TMC3    C7 5397   0.816   2.424  12.177 -0.0060  0.3487 -0.1220
  360TMC3    C8 5398   1.174   2.405  12.488  0.7678  0.0502 -0.4159
  360TMC3    O1 5399   0.890   2.490  12.109 -0.6523 -0.4873  0.1294
  360TMC3    O2 5400   1.209   2.418  12.604 -0.1054 -0.2307  0.2833
  361MPD2     C 5401   2.372   1.400  17.614 -0.0286  0.2448 -0.4085
  361MPD2    C1 5402   2.345   1.331  17.498  0.5741 -0.5135  0.2442
  361MPD2    C2 5403   2.440   1.238  17.459  0.0437  0.7426 -0.1804
  361MPD2    C3 5404   2.550   1.208  17.540 -0.5779  0.1137 -0.6215
  361MPD2    C4 5405   2.564   1.276  17.660 -0.3838 -0.7328 -0.2247
  361MPD2    C5 5406   2.481   1.373  17.688  0.8465  0.5619 -0.3254
  361MPD2     H 5407   2.415   1.179  17.372  2.7113  1.6205 -1.5446
  361MPD2    H1 5408   2.642   1.262   0.035  0.6687  2.8470 -0.6549
  361MPD2    H2 5409   2.305   1.477  17.651 -0.5842  0.4355 -1.8190
  361MPD2    H3 5410   2.500   1.428   0.081 -0.0508  2.8498 -1.5176
  361MPD2     N 5411   2.627   1.095  17.528 -0.1907  0.0824 -0.4300
  361MPD2    H5 5412   2.676   1.059  17.609 -0.2570  1.8153  0.3797
  361MPD2    N1 5413   2.233   1.363  17.412  0.2595  0.3575 -0.0071
  361MPD2    H7 5414   2.225   1.323  17.319  1.2888 -2.0671  0.9506
  362TMC3    C1 5415   2.021   1.447  17.334 -0.2364 -0.4528  0.3662
  362TMC3    C2 5416   1.890   1.420  17.364 -0.2254 -0.9403 -0.4399
  362TMC3    C3 5417   1.798   1.463  17.273  0.1851  0.4238 -0.2397
  362TMC3    C4 5418   2.054   1.527  17.226  0.9050  0.1883 -0.1148
  362TMC3    C5 5419   1.959   1.559  17.138 -0.0808  0.3586  0.1833
  362TMC3    C6 5420   1.828   1.530  17.155 -0.2631  0.4353  0.5092
  362TMC3     C 5421   2.125   1.442  17.440 -0.0537 -0.0107 -0.1043
  362TMC3     O 5422   2.081   1.487  17.549  0.9188  0.1667  0.2175
  362TMC3     H 5423   1.861   1.383  17.462  1.9625 -0.8424  0.2474
  362TMC3    H1 5424   2.159   1.547  17.210  1.5873 -3.4412 -0.0297
  362TMC3    H2 5425   1.744   1.557  17.092 -1.2436  1.4328  2.2593
  362TMC3    C7 5426   1.992   1.653  17.033  0.6393 -0.2218  0.0984
  362TMC3    C8 5427   1.654   1.469  17.305 -0.2045  0.6231  0.3656
  362TMC3    O1 5428   1.910   1.676  16.947 -0.5101 -0.0549 -0.0348
  362TMC3    O2 5429   1.609   1.366  17.358 -0.0428 -0.2760 -0.2127
  363TMC3    C1 5430   1.785   3.894   9.959  0.2230 -0.4080 -0.1856
  363TMC3    C2 5431   1.694   3.793   9.989 -0.5997 -0.4382  0.8530
  363TMC3    C3 5432   1.562   3.830   9.972 -0.6434  0.6527 -0.2084
  363TMC3    C4 5433   1.752   4.024   9.928 -0.4516  0.1134  0.2529
  363TMC3    C5 5434   1.618   4.058   9.929  0.2580  0.2991  0.1776
  363TMC3    C6 5435   1.521   3.960   9.951  0.5967  0.0640  0.0655
  363TMC3     C 5436   1.924   3.862   9.997  0.2252  0.1175  0.0019
  363TMC3     O 5437   1.955   3.759  10.052  0.0218  0.2473 -0.0003
  363TMC3     H 5438   1.727   3.697  10.028 -2.7010 -1.4199  0.1729
  363TMC3    H1 5439   1.822   4.105   9.945 -0.0199 -0.2229  0.0493
  363TMC3    H2 5440   1.414   3.977   9.947  0.8099  1.0867 -1.5737
  363TMC3    C7 5441   1.576   4.194   9.922 -0.2664  0.5290 -0.3363
  363TMC3    C8 5442   1.447   3.739  10.017  0.1717 -0.9522 -1.0227
  363TMC3    O1 5443   1.478   4.212   9.851 -0.2963 -0.2335  0.1230
  363TMC3    O2 5444   1.333   3.778  10.002  0.3608 -0.3199 -0.5016
  364MPD2     C 5445   4.336   3.542  10.789  0.8469  0.9943  0.7855
  364MPD2    C1 5446   4.423   3.503  10.690 -0.1377  0.1679  0.1014
  364MPD2    C2 5447   4.486   3.382  10.716  0.2686  0.0943  0.8592
  364MPD2    C3 5448   4.460   3.301  10.830 -1.0530 -0.1873  1.3852
  364MPD2    C4 5449   4.377   3.351  10.934 -1.2984 -0.3758  0.6544
  364MPD2    C5 5450   4.317   3.473  10.909 -0.4312  0.2456 -0.4085
  364MPD2     H 5451   4.568   3.347  10.654 -0.7943 -0.9478  0.0280
  364MPD2    H1 5452   4.352   3.301  11.026 -0.1894 -2.0235  0.0744
  364MPD2    H2 5453   4.288   3.638  10.781 -0.5875  0.2399  0.4425
  364MPD2    H3 5454   4.261   3.524  10.986  1.6963  0.2839  1.1043
  364MPD2     N 5455   4.525   3.177  10.846 -0.0498  0.2223  0.1240
  364MPD2    H5 5456   4.551   3.139  10.936  3.0829 -1.3422 -1.4143
  364MPD2    N1 5457   4.440   3.583  10.575 -0.2682  0.1022  0.0256
  364MPD2    H7 5458   4.403   3.677  10.583 -2.9258 -0.8644 -1.1499
  365TMC3    C1 5459   4.541   3.649  10.385  0.7297 -0.0067  0.1186
  365TMC3    C2 5460   4.621   3.603  10.288  0.2695  0.8750 -0.2211
  365TMC3    C3 5461   4.720   3.688  10.244  0.4564 -0.9984  0.0871
  365TMC3    C4 5462   4.556   3.774  10.443  0.1064  0.1550 -0.7938
  365TMC3    C5 5463   4.651   3.855  10.393  0.0524 -0.0043 -0.4492
  365TMC3    C6 5464   0.008   3.813  10.290 -1.0302 -0.6126 -0.0846
  365TMC3     C 5465   4.517   3.540  10.474 -0.3443 -0.4071 -0.2137
  365TMC3     O 5466   4.556   3.425  10.452  0.3122  0.1179  0.4362
  365TMC3     H 5467   4.602   3.504  10.248 -0.6361  0.6703  0.7295
  365TMC3    H1 5468   4.483   3.817  10.510 -2.2682 -0.1092 -3.1978
  365TMC3    H2 5469   0.087   3.880  10.257 -1.1951 -0.3947 -0.0344
  365TMC3    C7 5470   4.644   3.996  10.423 -0.2208 -0.1477 -0.2884
  365TMC3    C8 5471   0.124   3.621  10.227 -0.1716 -0.0957 -0.3114
  365TMC3    O1 5472   4.699   4.080  10.355 -0.6346 -0.2591 -0.1683
  365TMC3    O2 5473   0.219   3.693  10.198 -0.5669  0.6890  0.2477
  366MPD2     C 5474   3.067   4.270  15.627 -0.5657 -0.5211 -0.1067
  366MPD2    C1 5475   2.989   4.380  15.604  0.5030  0.1057 -0.8464
  366MPD2    C2 5476   2.964   4.417  15.475  0.1500 -0.2042  0.0611
  366MPD2    C3 5477   3.052   4.368  15.376  0.6368 -0.6567 -0.0119
  366MPD2    C4 5478   3.149   4.277  15.407  0.3291  0.7699 -0.9893
  366MPD2    C5 5479   3.150   4.227  15.532 -0.8339 -0.8202  0.1975
  366MPD2     H 5480   2.888   4.489  15.445  0.6665  0.6287  0.7671
  366MPD2    H1 5481   3.232   4.242  15.347 -1.6221 -1.1484 -2.5807
  366MPD2    H2 5482   3.070   4.222  15.724 -0.8636 -1.0909 -0.3842
  366MPD2    H3 5483   3.223   4.150  15.555 -0.7194 -1.2460 -1.6062
  366MPD2     N 5484   3.056   4.440  15.251 -0.5248 -0.6701  0.2484
  366MPD2    H5 5485   2.999   4.524  15.249 -0.1439 -0.4098  0.3438
  366MPD2    N1 5486   2.931   4.450  15.714 -0.8856 -0.5607  0.2124
  366MPD2    H7 5487   2.954   4.420  15.808 -0.5121  2.1467  0.9700
  367TMC3    C1 5488   2.828   4.611  15.835 -0.4905 -0.0983  0.3174
  367TMC3    C2 5489   2.943   4.679  15.872 -0.4585 -0.3917 -1.2180
  367TMC3    C3 5490   2.935   0.088  15.892 -0.4570 -0.8364  0.0480
  367TMC3    C4 5491   2.713   4.678  15.814  0.1602  0.5349 -0.3135
  367TMC3    C5 5492   2.709   0.085  15.831  0.3856  0.0803  0.0414
  367TMC3    C6 5493   2.819   0.158  15.869 -0.4786  0.8681 -0.0124
  367TMC3     C 5494   2.851   4.560  15.702  0.5798  0.0554 -0.0576
  367TMC3     O 5495   2.788   4.602  15.607 -0.1444  0.4074  0.3118
  367TMC3     H 5496   3.040   4.633  15.883 -0.6292 -0.3121  0.7512
  367TMC3    H1 5497   2.633   4.609  15.791  1.1659 -0.4335 -0.8812
  367TMC3    H2 5498   2.809   0.264  15.892 -0.2574  0.7318  0.6844
  367TMC3    C7 5499   2.608   0.154  15.755 -0.7900  0.6732 -0.0258
  367TMC3    C8 5500   3.055   0.167  15.879 -0.1373 -0.2606 -0.0885
  367TMC3    O1 5501   2.562   0.254  15.803  0.3029 -0.2137 -0.0219
  367TMC3    O2 5502   3.154   0.125  15.944 -0.4029 -0.2511  0.2073
  368MPD2     C 5503   3.125   2.234  12.286 -0.1449 -0.0016 -1.0751
  368MPD2    C1 5504   3.116   2.207  12.416 -0.0125 -0.6161 -0.1390
  368MPD2    C2 5505   3.220   2.142  12.486  0.3249 -0.1153 -0.1483
  368MPD2    C3 5506   3.327   2.091  12.414 -1.0070 -0.0875 -0.2925
  368MPD2    C4 5507   3.338   2.120  12.279  0.5137  0.6099  0.1031
  368MPD2    C5 5508   3.238   2.201  12.218 -0.2056  0.3469 -0.4136
  368MPD2     H 5509   3.205   2.120  12.591 -1.0464  2.6712  0.2699
  368MPD2    H1 5510   3.425   2.099  12.219  1.4399  2.2450  0.8621
  368MPD2    H2 5511   3.048   2.298  12.244 -0.2750  0.0788 -0.7087
  368MPD2    H3 5512   3.240   2.238  12.116  0.0037 -0.9143 -0.8804
  368MPD2     N 5513   3.433   2.020  12.478  0.0573  0.5385 -0.1141
  368MPD2    H5 5514   3.492   1.966  12.417  0.5878 -0.1359  0.9923
  368MPD2    N1 5515   2.999   2.249  12.486 -0.2072 -0.4476  0.1169
  368MPD2    H7 5516   2.946   2.326  12.446  0.8681  0.8173  1.0940
  369TMC3    C1 5517   2.868   2.299  12.676 -0.4354 -0.0573 -0.3109
  369TMC3    C2 5518   2.928   2.413  12.707  0.4360 -0.8754 -0.3120
  369TMC3    C3 5519   2.917   2.461  12.831 -0.5717 -0.2310  0.6971
  369TMC3    C4 5520   2.794   2.231  12.777  0.4343 -0.2358 -0.4087
  369TMC3    C5 5521   2.786   2.284  12.901 -1.1138  0.6813  0.1907
  369TMC3    C6 5522   2.850   2.404  12.934  0.1004  0.3395  0.2566
  369TMC3     C 5523   2.958   2.204  12.612 -0.3150 -0.1554 -0.3777
  369TMC3     O 5524   2.992   2.104  12.677  0.1186 -0.1511 -0.0871
  369TMC3     H 5525   3.012   2.453  12.651  0.4675 -0.4114  0.0614
  369TMC3    H1 5526   2.777   2.124  12.763  0.2622 -0.3003  0.2917
  369TMC3    H2 5527   2.847   2.458  13.028  1.3484 -1.1286  1.1348
  369TMC3    C7 5528   2.776   2.184  13.008  0.1753 -0.3758 -0.1391
  369TMC3    C8 5529   3.006   2.575  12.854 -0.5891 -0.0692  0.0316
  369TMC3    O1 5530   2.859   2.198  13.098 -0.0814 -0.0124  0.2471
  369TMC3    O2 5531   3.007   2.661  12.768  0.2679 -0.0702 -0.4857
  370TMC3    C1 5532   3.348   2.290  16.381 -0.7307  0.2266 -0.0722
  370TMC3    C2 5533   3.316   2.209  16.484  0.0915 -0.4932 -0.1290
  370TMC3    C3 5534   3.251   2.091  16.456 -0.6593  0.1351 -0.2304
  370TMC3    C4 5535   3.315   2.256  16.256 -0.9729  0.0584 -0.6739
  370TMC3    C5 5536   3.260   2.136  16.229  0.1526  0.7790 -0.2655
  370TMC3    C6 5537   3.223   2.053  16.325  0.8914  0.1242 -0.6768
  370TMC3     C 5538   3.444   2.393  16.407 -0.6254 -0.4588 -0.6573
  370TMC3     O 5539   3.526   2.363  16.491  0.5784 -0.3637  0.3457
  370TMC3     H 5540   3.334   2.231  16.589 -1.1149 -0.6021  0.0994
  370TMC3    H1 5541   3.354   2.318  16.176  1.3307  1.9231  1.8708
  370TMC3    H2 5542   3.164   1.966  16.299 -1.3607  1.0146  1.5934
  370TMC3    C7 5543   3.276   2.091  16.093 -0.0758 -0.0069  0.4287
  370TMC3    C8 5544   3.257   1.975  16.546 -0.9787  0.9414  0.0086
  370TMC3    O1 5545   3.276   2.173  16.001  0.4955  0.2910  0.3610
  370TMC3    O2 5546   3.237   1.861  16.499  0.0220 -0.2251  0.0951
  371TMC3    C1 5547   0.076   0.620  15.785  0.8912  0.3322  0.6626
  371TMC3    C2 5548   4.666   0.615  15.828  0.4270 -0.4443  0.0522
  371TMC3    C3 5549   4.589   0.729  15.810  0.6353 -0.3219  0.3833
  371TMC3    C4 5550   0.124   0.731  15.721 -0.4596 -0.1073  0.2449
  371TMC3    C5 5551   0.036   0.831  15.684 -0.5826  0.7661  0.6877
  371TMC3    C6 5552   4.632   0.832  15.735 -0.0151 -0.2469  0.6497
  371TMC3     C 5553   0.157   0.494  15.786  0.2681  0.6170 -0.3095
  371TMC3     O 5554   0.275   0.503  15.763  0.0774  0.6733  0.4811
  371TMC3     H 5555   4.634   0.541  15.901 -2.4740 -1.0004 -1.7768
  371TMC3    H1 5556   0.224   0.747  15.683 -0.0432  2.0410  2.2383
  371TMC3    H2 5557   4.572   0.922  15.728  2.3963  1.2089 -1.2831
  371TMC3    C7 5558   0.082   0.932  15.592  0.2041  0.2701  0.3632
  371TMC3    C8 5559   4.453   0.698  15.799 -0.0971 -0.5161  0.5472
  371TMC3    O1 5560   0.204   0.940  15.570  0.0320  0.3394  0.3494
  371TMC3    O2 5561   4.434   0.577  15.813  0.4050 -0.0055  0.3577
  372MPD2     C 5562   3.441   1.987  13.218 -0.1162  0.0001 -0.2471
  372MPD2    C1 5563   3.551   2.048  13.270  0.1744  0.5737 -0.6799
  372MPD2    C2 5564   3.603   2.001  13.389  0.2120  0.5392 -0.2963
  372MPD2    C3 5565   3.533   1.897  13.458 -0.4338  0.1296 -0.2156
  372MPD2    C4 5566   3.428   1.826  13.395  0.9059 -0.3020  0.1331
  372MPD2    C5 5567   3.382   1.882  13.277 -0.2218 -0.3512  0.3281
  372MPD2     H 5568   3.682   2.053  13.442  0.4343  2.3465 -2.4148
  372MPD2    H1 5569   3.361   1.757  13.443 -0.0178  2.3320  2.6211
  372MPD2    H2 5570   3.404   2.022  13.122  2.5672 -1.6703 -1.8848
  372MPD2    H3 5571   3.294   1.843  13.226  1.7160  0.4141 -3.5848
  372MPD2     N 5572   3.582   1.855  13.581 -0.2139  0.2734  0.0762
  372MPD2    H5 5573   3.646   1.913  13.634 -1.2034  1.1652  0.3014
  372MPD2    N1 5574   3.627   2.152  13.205  0.0027  0.1580 -0.4965
  372MPD2    H7 5575   3.702   2.190  13.262 -1.7675  0.6389  1.5084
  373TMC3    C1 5576   3.595   1.722  13.775  0.1600  0.8261 -0.0063
  373TMC3    C2 5577   3.610   1.827  13.854  0.8323 -0.0624 -0.1520
  373TMC3    C3 5578   3.698   1.807  13.959  0.8259  0.0299  0.9814
  373TMC3    C4 5579   3.671   1.603  13.790  0.8278 -0.0687 -0.2231
  373TMC3    C5 5580   3.757   1.591  13.896  0.2228 -0.4454  0.7779
  373TMC3    C6 5581   3.765   1.690  13.987  0.0383  0.4446  0.0684
  373TMC3     C 5582   3.541   1.741  13.644  0.6563 -0.3863  0.6977
  373TMC3     O 5583   3.475   1.648  13.603 -0.3835  0.1847  0.1566
  373TMC3     H 5584   3.553   1.918  13.842 -1.3966 -1.4460  0.0030
  373TMC3    H1 5585   3.655   1.514  13.729  2.0622  0.9986 -2.0718
  373TMC3    H2 5586   3.829   1.674  14.073  0.4526  2.2049  0.0823
  373TMC3    C7 5587   3.857   1.485  13.880  0.3787  0.1726  0.3791
  373TMC3    C8 5588   3.726   1.924  14.051 -0.6685 -0.0693  0.0248
  373TMC3    O1 5589   3.837   1.394  13.798 -0.2483 -0.1674  0.4567
  373TMC3    O2 5590   3.833   1.940  14.104 -0.1603  0.0322 -0.3059
  374TMC3    C1 5591   0.136   1.451  10.008 -0.7340  1.0623 -0.4983
  374TMC3    C2 5592   0.127   1.578  10.054  0.4421 -0.2497  0.7299
  374TMC3    C3 5593   0.067   1.670   9.968  0.4707 -0.7178 -0.2623
  374TMC3    C4 5594   0.091   1.420   9.878 -0.3656  0.0181 -0.2381
  374TMC3    C5 5595   0.025   1.517   9.809  0.3801  0.0338  0.1124
  374TMC3    C6 5596   0.011   1.640   9.851 -0.2445 -0.0527 -0.4382
  374TMC3     C 5597   0.095   1.353  10.102  0.2372 -0.5104 -0.1057
  374TMC3     O 5598   0.055   1.252  10.043 -0.2155 -0.2256 -0.0289
  374TMC3     H 5599   0.187   1.609  10.139 -0.5735  0.4706  1.1799
  374TMC3    H1 5600   0.104   1.325   9.828  1.9517 -0.8442  2.0337
  374TMC3    H2 5601   4.673   1.711   9.796 -0.6962 -0.1739 -0.0887
  374TMC3    C7 5602   0.002   1.481   9.670 -0.3940  0.7004  0.5913
  374TMC3    C8 5603   0.085   1.808   9.989  0.0999  0.3972 -0.4098
  374TMC3    O1 5604   4.719   1.363   9.635  0.2304 -0.2978  0.1230
  374TMC3    O2 5605   0.062   1.882   9.892  0.0390 -0.2403 -0.2026
  375MPD2     C 5606   0.181   3.492  16.852  0.2759  0.3213  0.2595
  375MPD2    C1 5607   0.114   3.372  16.862 -0.2631 -0.0826  0.3241
  375MPD2    C2 5608   0.156   3.264  16.787  0.0219 -0.0586  0.4207
  375MPD2    C3 5609   0.278   3.271  16.715 -0.0438 -0.1020  0.1900
  375MPD2    C4 5610   0.344   3.389  16.704 -0.1277 -0.4814 -1.0069
  375MPD2    C5 5611   0.304   3.499  16.776 -0.2726 -0.3256 -0.2725
  375MPD2     H 5612   0.097   3.174  16.797  1.2487 -0.9878 -0.7243
  375MPD2    H1 5613   0.444   3.399  16.663 -0.2938 -0.8843 -1.4947
  375MPD2    H2 5614   0.154   3.580  16.908 -0.9800 -0.9625  1.6822
  375MPD2    H3 5615   0.361   3.591  16.768 -0.5360 -0.4720 -3.7010
  375MPD2     N 5616   0.338   3.170  16.649 -0.6987  0.6062  0.2152
  375MPD2    H5 5617   0.435   3.186  16.623 -0.5931  1.5989  1.2071
  375MPD2    N1 5618   4.715   3.356  16.930 -0.4491  0.0058  0.4172
  375MPD2    H7 5619   4.672   3.264  16.922 -1.0571  0.1279  2.2049
  376TMC3    C1 5620   0.357   2.967  16.526 -0.0513 -0.2940 -0.0882
  376TMC3    C2 5621   0.492   2.980  16.526 -0.1776 -0.1015  0.1679
  376TMC3    C3 5622   0.553   2.920  16.425  0.1279  0.6347  0.3587
  376TMC3    C4 5623   0.285   2.882  16.452  1.0465  0.1878 -0.1763
  376TMC3    C5 5624   0.353   2.817  16.352 -0.7479  0.4090 -0.1129
  376TMC3    C6 5625   0.486   2.840  16.337 -0.2406  0.2339  0.4506
  376TMC3     C 5626   0.285   3.042  16.623 -0.5157  0.9316  0.6166
  376TMC3     O 5627   0.173   2.994  16.642  0.1403  0.3383  0.1251
  376TMC3     H 5628   0.550   3.058  16.575 -0.2556 -2.1448  3.5449
  376TMC3    H1 5629   0.177   2.890  16.452  0.9579 -0.9449 -0.0660
  376TMC3    H2 5630   0.539   2.779  16.264 -1.4958 -0.7789  0.3726
  376TMC3    C7 5631   0.289   2.778  16.228 -0.2882 -0.0352 -0.1364
  376TMC3    C8 5632   0.682   2.967  16.379  0.2189 -0.1128  0.6338
  376TMC3    O1 5633   0.344   2.809  16.121 -0.0943 -0.4353 -0.4014
  376TMC3    O2 5634   0.710   2.961  16.260  0.1837  1.0833 -0.5217
  377MPD2     C 5635   2.668   2.687  12.826 -0.2307  0.2704 -0.1488
  377MPD2    C1 5636   2.646   2.624  12.709  0.0916  0.3298 -0.4581
  377MPD2    C2 5637   2.556   2.513  12.719 -0.3756 -0.8881  0.6212
  377MPD2    C3 5638   2.498   2.471  12.834 -0.2783 -0.1365  0.6305
  377MPD2    C4 5639   2.531   2.538  12.948 -0.5152  0.1282 -0.2684
  377MPD2    C5 5640   2.610   2.644  12.946 -0.2985  0.3633 -0.4802
  377MPD2     H 5641   2.536   2.457  12.628  0.5574 -1.4822  0.7909
  377MPD2    H1 5642   2.483   2.513  13.041 -1.7957  1.5003 -0.5688
  377MPD2    H2 5643   2.731   2.775  12.833  0.7927 -0.4496 -0.2630
  377MPD2    H3 5644   2.635   2.695  13.039 -1.8509 -0.7616  0.5416
  377MPD2     N 5645   2.404   2.373  12.820 -0.5796 -0.2544  0.3907
  377MPD2    H5 5646   2.378   2.350  12.725 -0.3424 -0.9530  0.4881
  377MPD2    N1 5647   2.714   2.669  12.592 -0.1540 -0.0621  0.1125
  377MPD2    H7 5648   2.779   2.746  12.589  0.0879 -0.2339  0.9803
  378TMC3    C1 5649   2.839   2.604  12.153 -0.1546  0.0522 -0.6031
  378TMC3    C2 5650   2.748   2.656  12.242 -0.0653 -0.1185 -0.4241
  378TMC3    C3 5651   2.792   2.664  12.371  0.2767 -0.6545  0.1890
  378TMC3    C4 5652   2.978   2.588  12.181  0.0054  0.0985  0.1555
  378TMC3    C5 5653   3.013   2.608  12.310 -0.9431  0.0735  0.3294
  378TMC3    C6 5654   2.922   2.649  12.403 -0.2973 -0.4684 -0.0155
  378TMC3     C 5655   2.788   2.557  12.029 -0.1006 -0.1752  0.5736
  378TMC3     O 5656   2.676   2.514  12.041  0.0016 -0.1726  0.0846
  378TMC3     H 5657   2.644   2.660  12.212 -0.7152  1.0294  2.0104
  378TMC3    H1 5658   3.046   2.534  12.116  0.1375 -0.6039  0.8767
  378TMC3    H2 5659   2.949   2.661  12.507 -0.1976  1.2797 -0.2536
  378TMC3    C7 5660   3.143   2.562  12.351 -0.2060 -0.3579  0.3981
  378TMC3    C8 5661   2.701   2.609  12.465  0.1921  0.2841 -0.4024
  378TMC3    O1 5662   3.160   2.518  12.463 -0.3376 -0.6508  0.0127
  378TMC3    O2 5663   2.631   2.517  12.432 -0.1568 -0.1506 -0.2818
  379MPD2     C 5664   4.166   0.258  16.235  0.8690  0.6647  0.7446
  379MPD2    C1 5665   4.064   0.187  16.179 -0.5346 -0.3480 -0.0299
  379MPD2    C2 5666   4.001   0.082  16.247 -0.4480  0.2001 -0.0176
  379MPD2    C3 5667   4.044   0.038  16.371 -0.5990  0.1932 -0.3424
  379MPD2    C4 5668   4.147   0.109  16.427 -0.8862 -1.2283  0.1227
  379MPD2    C5 5669   4.216   0.205  16.356 -0.4413 -0.6098 -0.2118
  379MPD2     H 5670   3.924   0.029  16.192 -2.3359  1.8874  1.0506
  379MPD2    H1 5671   4.190   0.078  16.522  1.0962  4.0240  0.9678
  379MPD2    H2 5672   4.228   0.329  16.182 -0.3160  1.2807  0.1928
  379MPD2    H3 5673   4.303   0.260  16.391 -1.4616  0.6353  0.4097
  379MPD2     N 5674   3.998   4.646  16.442 -0.0563  0.6673 -0.2225
  379MPD2    H5 5675   4.038   4.617  16.531  0.5688 -0.0710 -0.7433
  379MPD2    N1 5676   4.025   0.233  16.050  0.1671  0.0733 -0.9920
  379MPD2    H7 5677   4.084   0.296  15.997 -0.6534  0.5406 -1.3377
  380TMC3    C1 5678   3.888   0.257  15.853  0.7046  0.3204 -0.5074
  380TMC3    C2 5679   3.998   0.269  15.765  0.2448  0.4121  0.3064
  380TMC3    C3 5680   3.973   0.292  15.629 -0.7289  0.2571 -0.0265
  380TMC3    C4 5681   3.764   0.283  15.820 -0.3871  0.6070  0.6385
  380TMC3    C5 5682   3.742   0.322  15.694 -0.0707  0.0463  0.6494
  380TMC3    C6 5683   3.844   0.326  15.597 -0.1952  0.0639  0.1649
  380TMC3     C 5684   3.901   0.197  15.983 -0.2623  0.2757 -0.7535
  380TMC3     O 5685   3.805   0.137  16.023  0.0152 -0.4871 -0.5609
  380TMC3     H 5686   4.093   0.237  15.804  1.0687 -1.3795 -3.1404
  380TMC3    H1 5687   3.687   0.272  15.895  0.0665 -4.0958  0.3716
  380TMC3    H2 5688   3.813   0.367  15.501  1.2506  1.0672  0.1292
  380TMC3    C7 5689   3.622   0.389  15.660 -0.1457  0.0597 -0.2459
  380TMC3    C8 5690   4.074   0.354  15.546 -0.5862  0.0925  0.0826
  380TMC3    O1 5691   3.633   0.493  15.598  0.6830 -0.2363  0.7555
  380TMC3    O2 5692   4.030   0.436  15.469 -0.2282 -0.2642 -0.4175
  381TMC3    C1 5693   3.026   1.502  16.187 -0.0424 -0.1264  0.6626
  381TMC3    C2 5694   3.164   1.521  16.180 -0.0358 -0.6281 -0.2425
  381TMC3    C3 5695   3.224   1.548  16.295 -0.0245 -0.1082  0.0268
  381TMC3    C4 5696   2.952   1.510  16.306  0.0598  0.1994 -0.3274
  381TMC3    C5 5697   3.024   1.539  16.419 -0.6260  0.6276  0.0505
  381TMC3    C6 5698   3.158   1.561  16.417  0.2571  0.1648 -0.0533
  381TMC3     C 5699   2.966   1.464  16.065  0.0409  0.0949  0.2013
  381TMC3     O 5700   3.040   1.444  15.969 -0.3659  0.1317 -0.0319
  381TMC3     H 5701   3.227   1.504  16.094  1.9354  0.7874  0.9129
  381TMC3    H1 5702   2.862   1.451  16.319  0.9916 -1.1431 -0.0091
  381TMC3    H2 5703   3.205   1.601  16.506  1.1846  0.0122 -0.4770
  381TMC3    C7 5704   2.991   1.460  16.527  0.7850 -0.0197  0.0208
  381TMC3    C8 5705   3.371   1.570  16.288 -0.1700  0.4734 -0.2236
  381TMC3    O1 5706   3.033   1.344  16.512  0.3732  0.1839  0.4722
  381TMC3    O2 5707   3.435   1.513  16.201 -0.2031  0.5139 -0.2365
  382MPD2     C 5708   2.097   4.313  17.645  0.0362 -0.0707 -0.3148
  382MPD2    C1 5709   2.228   4.281  17.599 -0.3864  0.4798  1.3243
  382MPD2    C2 5710   2.269   4.149  17.618  0.7328 -0.0922  0.0164
  382MPD2    C3 5711   2.186   4.053  17.681 -0.0486  0.2052 -0.2118
  382MPD2    C4 5712   2.054   4.084   0.015  0.3988  0.2446 -0.1960
  382MPD2    C5 5713   2.018   4.212  17.692  0.1662  0.2975 -0.2121
  382MPD2     H 5714   2.362   4.110  17.579 -0.0200 -2.9847  1.0857
  382MPD2    H1 5715   1.976   4.016   0.048  0.6506  1.2040  2.3560
  382MPD2    H2 5716   2.053   4.411  17.633 -0.5797 -0.2969  0.0893
  382MPD2    H3 5717   1.923   4.247   0.032  0.8231  2.8500 -0.9016
  382MPD2     N 5718   2.217   3.918  17.697  0.5694 -0.4694 -0.2643
  382MPD2    H5 5719   2.138   3.863   0.029 -2.2358  3.2562 -0.8507
  382MPD2    N1 5720   2.316   4.374  17.553  0.0594 -0.2156  0.0162
  382MPD2    H7 5721   2.412   4.343  17.539 -0.0642 -0.3712 -0.4914
  383TMC3    C1 5722   2.336   3.718  17.678  0.5690  0.2058  0.2701
  383TMC3    C2 5723   2.228   3.658  17.617 -0.1741 -0.8834  0.4186
  383TMC3    C3 5724   2.246   3.533  17.555 -0.1678  0.6591  0.6493
  383TMC3    C4 5725   2.464   3.664  17.661  0.0681 -0.3816  0.0344
  383TMC3    C5 5726   2.475   3.555  17.582  0.1559  0.0970  0.5146
  383TMC3    C6 5727   2.374   3.485  17.530 -0.2211 -1.1881  0.0459
  383TMC3     C 5728   2.342   3.860  17.686  1.0037 -0.7908 -0.0483
  383TMC3     O 5729   2.456   3.908  17.686 -0.2786  0.0421 -0.1514
  383TMC3     H 5730   2.130   3.704  17.620  1.0819  1.9076 -2.1858
  383TMC3    H1 5731   2.541   3.700   0.029  0.8036 -0.2280 -0.9035
  383TMC3    H2 5732   2.394   3.395  17.473  2.3294 -0.0826 -0.7961
  383TMC3    C7 5733   2.586   3.578  17.496  1.3521  0.3141 -0.7638
  383TMC3    C8 5734   2.130   3.451  17.519  0.8663  0.7438  0.2968
  383TMC3    O1 5735   2.581   3.548  17.378  0.3139 -0.3351  0.4323
  383TMC3    O2 5736   2.026   3.512  17.494 -0.3505 -0.1326  0.2872
  384MPD2     C 5737   3.863   0.738  11.967  0.2412  0.2789 -1.1586
  384MPD2    C1 5738   3.911   0.705  12.090  0.4738  0.0348 -0.0745
  384MPD2    C2 5739   4.006   0.606  12.103  0.2788  0.0122  0.2830
  384MPD2    C3 5740   4.042   0.536  11.994 -0.5196 -0.8058  0.2967
  384MPD2    C4 5741   3.993   0.563  11.871 -0.1213 -0.0238  0.0431
  384MPD2    C5 5742   3.915   0.672  11.858 -0.9868  0.6624  0.1397
  384MPD2     H 5743   4.049   0.592  12.202 -1.6266  0.0772  1.1204
  384MPD2    H1 5744   4.016   0.513  11.778  2.8271  0.5442  0.4676
  384MPD2    H2 5745   3.798   0.824  11.953 -1.3681 -0.8142 -0.4330
  384MPD2    H3 5746   3.865   0.703  11.767 -0.2153  0.3362 -0.4012
  384MPD2     N 5747   4.141   0.436  12.014 -0.1245 -0.0789  0.1008
  384MPD2    H5 5748   4.178   0.430  12.108 -0.4315 -2.4224  0.0572
  384MPD2    N1 5749   3.867   0.766  12.212  0.1845 -0.3317 -0.1586
  384MPD2    H7 5750   3.914   0.738  12.298 -0.1274 -0.9002 -0.1741
  385TMC3    C1 5751   4.300   0.290  11.983  0.3117 -0.0771  0.5171
  385TMC3    C2 5752   4.270   0.154  11.974 -0.0385 -0.3614 -0.1309
  385TMC3    C3 5753   4.297   0.079  12.082  0.5354 -1.2554  0.3983
  385TMC3    C4 5754   4.351   0.346  12.098 -0.0619  0.1077  0.1945
  385TMC3    C5 5755   4.365   0.265  12.205 -0.3742 -0.6671  0.5819
  385TMC3    C6 5756   4.341   0.130  12.203 -0.2138 -0.0242 -0.2917
  385TMC3     C 5757   4.209   0.376  11.915  0.2589 -0.0346  0.4990
  385TMC3     O 5758   4.172   0.354  11.800 -0.5759  0.0925  0.2025
  385TMC3     H 5759   4.212   0.120  11.889 -1.7464  1.5822  0.2558
  385TMC3    H1 5760   4.387   0.447  12.106 -1.3297  0.4516  1.6573
  385TMC3    H2 5761   4.361   0.062  12.285 -0.3041  0.7992  0.4102
  385TMC3    C7 5762   4.287   0.335  12.310  0.4666  0.6274  0.9405
  385TMC3    C8 5763   4.312   4.653  12.076 -0.8779 -0.5100 -0.4959
  385TMC3    O1 5764   4.241   0.439  12.269 -0.0452  0.0523  0.4935
  385TMC3    O2 5765   4.342   4.595  12.182 -0.6874 -0.4610 -0.4645
  386TMC3    C1 5766   4.277   2.160  12.004  0.2104  0.0792 -0.0257
  386TMC3    C2 5767   4.197   2.092  11.907 -0.0682 -0.4889 -0.2778
  386TMC3    C3 5768   4.076   2.154  11.892 -0.1533 -0.0614  0.2695
  386TMC3    C4 5769   4.241   2.273  12.071  0.6150 -0.2808 -0.0089
  386TMC3    C5 5770   4.123   2.325  12.035 -0.1690 -0.3612  0.3743
  386TMC3    C6 5771   4.043   2.281  11.937  0.1655  0.0720 -0.3610
  386TMC3     C 5772   4.419   2.143  11.999  0.5016 -0.2077  0.1980
  386TMC3     O 5773   4.488   2.231  12.054 -0.4316  0.6659 -0.2186
  386TMC3     H 5774   4.231   2.016  11.839 -1.1827 -0.6332 -0.6756
  386TMC3    H1 5775   4.293   2.296  12.164  1.2064 -0.7457 -0.2241
  386TMC3    H2 5776   3.951   2.333  11.913 -0.8812 -0.3124  2.8650
  386TMC3    C7 5777   4.060   2.417  12.130 -0.1849  0.0069  0.0862
  386TMC3    C8 5778   4.001   2.124  11.779 -0.6687 -0.1123 -0.4549
  386TMC3    O1 5779   3.959   2.476  12.087 -0.1400 -0.1553 -0.5766
  386TMC3    O2 5780   3.933   2.213  11.730 -0.6638 -0.5278  0.1136
  387MPD2     C 5781   2.284   2.286  10.030  0.2630  0.4976 -0.0146
  387MPD2    C1 5782   2.410   2.231  10.023  0.4492 -0.2278 -0.3703
  387MPD2    C2 5783   2.419   2.094  10.014  0.7075  0.0343 -0.7904
  387MPD2    C3 5784   2.307   2.013  10.008  0.4901  0.2028  0.0496
  387MPD2    C4 5785   2.186   2.076  10.013  0.1288 -0.1026  0.1414
  387MPD2    C5 5786   2.174   2.207  10.032  0.4844  0.2340  0.6198
  387MPD2     H 5787   2.516   2.047  10.020 -0.3264 -1.9036  0.6469
  387MPD2    H1 5788   2.103   2.008  10.003  0.6232 -0.6883  0.0018
  387MPD2    H2 5789   2.264   2.392  10.041 -0.3881  0.3012  0.7473
  387MPD2    H3 5790   2.074   2.249  10.034  0.9683  1.4622 -0.2318
  387MPD2     N 5791   2.329   1.875  10.011  0.7608  0.1693  0.0269
  387MPD2    H5 5792   2.429   1.854  10.016  1.1695  2.1735  0.3364
  387MPD2    N1 5793   2.536   2.294  10.028 -1.1313 -0.9051  0.1775
  387MPD2    H7 5794   2.618   2.238  10.005 -1.5929 -1.9705  1.0915
  388TMC3    C1 5795   2.698   2.441  10.106 -0.2297 -0.3077  0.9028
  388TMC3    C2 5796   2.762   2.548  10.052  0.4662  0.0791  0.6902
  388TMC3    C3 5797   2.901   2.532  10.044  0.0034 -0.7894 -0.3539
  388TMC3    C4 5798   2.762   2.331  10.153 -0.0570  0.1023 -0.6696
  388TMC3    C5 5799   2.896   2.318  10.141  0.2238  0.5889 -0.2804
  388TMC3    C6 5800   2.964   2.418  10.079  0.4581 -0.2825 -0.3104
  388TMC3     C 5801   2.562   2.424  10.059 -0.9144 -0.5524 -0.6695
  388TMC3     O 5802   2.495   2.523  10.034 -0.3724 -0.5675 -0.2064
  388TMC3     H 5803   2.703   2.626  10.006  0.5183 -0.5049 -0.3518
  388TMC3    H1 5804   2.693   2.258  10.194 -0.3853  1.0932  0.5456
  388TMC3    H2 5805   3.065   2.392  10.049  0.5855  0.3309 -0.4162
  388TMC3    C7 5806   2.954   2.182  10.125  0.3178  0.0278 -0.3689
  388TMC3    C8 5807   2.970   2.617   9.952  0.2821  0.4013  0.4185
  388TMC3    O1 5808   3.072   2.178  10.090  0.3593 -0.2232  0.0736
  388TMC3    O2 5809   3.054   2.552   9.893 -0.4361 -0.4465 -0.8421
  389MPD2     C 5810   1.676   0.755  10.757 -0.4824  0.5024 -0.9043
  389MPD2    C1 5811   1.564   0.674  10.731 -0.2156  0.6627 -0.1724
  389MPD2    C2 5812   1.485   0.640  10.844  0.1080  0.5029  0.1461
  389MPD2    C3 5813   1.522   0.674  10.975  0.2869  0.8701  0.4892
  389MPD2    C4 5814   1.643   0.747  10.994  0.2553  0.0568  0.2206
  389MPD2    C5 5815   1.717   0.793  10.883 -0.8257  0.0955 -0.2663
  389MPD2     H 5816   1.405   0.569  10.826  0.7980  0.2256 -1.8703
  389MPD2    H1 5817   1.666   0.786  11.093  2.2842 -1.5742  0.4001
  389MPD2    H2 5818   1.727   0.779  10.664 -0.2683  1.0111 -0.6568
  389MPD2    H3 5819   1.794   0.867  10.899 -0.7578 -0.3246  1.3361
  389MPD2     N 5820   1.444   0.636  11.082  0.6474  0.3894  0.0886
  389MPD2    H5 5821   1.480   0.641  11.177 -0.8762  0.5256  0.6604
  389MPD2    N1 5822   1.531   0.632  10.598 -0.2864  0.3654  0.1021
  389MPD2    H7 5823   1.600   0.643  10.524 -0.6024 -0.7092 -0.3617
  390TMC3    C1 5824   1.282   0.523  11.209 -0.5548 -0.0897  0.0740
  390TMC3    C2 5825   1.178   0.429  11.186  0.9569  0.0745 -0.6185
  390TMC3    C3 5826   1.072   0.423  11.269 -0.2668  0.5343  0.0282
  390TMC3    C4 5827   1.278   0.607  11.315  0.7175 -0.5818 -0.3994
  390TMC3    C5 5828   1.165   0.595  11.398 -0.2738  0.1135  0.2511
  390TMC3    C6 5829   1.071   0.501  11.384  0.1134  0.2896  0.7713
  390TMC3     C 5830   1.328   0.569  11.079 -0.0990 -0.1066  0.1823
  390TMC3     O 5831   1.252   0.550  10.988 -0.1810 -0.5932  0.1673
  390TMC3     H 5832   1.180   0.365  11.098  1.4018 -1.0040  0.1698
  390TMC3    H1 5833   1.359   0.675  11.339 -1.8702  2.0186  1.0163
  390TMC3    H2 5834   1.005   0.474  11.466 -1.1773 -1.0981 -0.7260
  390TMC3    C7 5835   1.170   0.664  11.525  0.6378  0.6033 -0.0073
  390TMC3    C8 5836   0.947   0.362  11.224 -0.6437  0.1085  0.1262
  390TMC3    O1 5837   1.276   0.701  11.567  0.3083  0.1908  0.0732
  390TMC3    O2 5838   0.940   0.250  11.173  0.3457 -0.3544  0.3467
  391MPD2     C 5839   0.282   2.145  11.563  1.1891 -0.5567 -0.4497
  391MPD2    C1 5840   0.410   2.188  11.515  0.5116 -0.3616  0.0988
  391MPD2    C2 5841   0.439   2.181  11.380 -0.2430  0.1567  0.1893
  391MPD2    C3 5842   0.349   2.118  11.291 -0.1081  1.0285  0.2432
  391MPD2    C4 5843   0.226   2.094  11.339 -0.0638 -0.5826 -0.0700
  391MPD2    C5 5844   0.191   2.094  11.468  0.0480  0.9016 -0.6476
  391MPD2     H 5845   0.541   2.194  11.346 -0.3058  0.9722  0.3177
  391MPD2    H1 5846   0.154   2.047  11.273 -1.0502  1.0135 -0.1249
  391MPD2    H2 5847   0.257   2.146  11.668  0.2454 -2.1122 -0.6600
  391MPD2    H3 5848   0.094   2.050  11.487  0.7167 -0.3147 -0.0388
  391MPD2     N 5849   0.385   2.107  11.152  0.5579  0.6060 -0.3281
  391MPD2    H5 5850   0.480   2.139  11.135  1.1549 -0.4254  1.0735
  391MPD2    N1 5851   0.507   2.224  11.611  0.1241  0.6333  0.3083
  391MPD2    H7 5852   0.479   2.191  11.703  0.0142 -1.2128 -0.3796
  392TMC3    C1 5853   0.365   2.109  10.915  0.0542 -0.1493 -0.0725
  392TMC3    C2 5854   0.289   2.073  10.811  0.0651 -0.2326  0.3913
  392TMC3    C3 5855   0.332   2.095  10.688 -0.4280  0.3103 -0.2025
  392TMC3    C4 5856   0.477   2.179  10.899 -0.1565  0.0659 -0.4299
  392TMC3    C5 5857   0.520   2.205  10.775  0.3849  0.4900 -0.1623
  392TMC3    C6 5858   0.450   2.160  10.663 -0.1105 -0.4302  0.1725
  392TMC3     C 5859   0.304   2.091  11.044  0.5088  0.1712  0.2861
  392TMC3     O 5860   0.187   2.060  11.048 -0.0671  0.7264  0.1311
  392TMC3     H 5861   0.198   2.016  10.824  0.2424 -1.1632 -2.4316
  392TMC3    H1 5862   0.530   2.217  10.986 -0.1476  0.8099 -0.7614
  392TMC3    H2 5863   0.477   2.192  10.563 -1.6556  1.6542  0.4217
  392TMC3    C7 5864   0.651   2.275  10.759  0.0300 -0.1013 -0.2602
  392TMC3    C8 5865   0.251   2.042  10.581 -0.5132 -0.2777 -0.5349
  392TMC3    O1 5866   0.711   2.296  10.861  0.2423  0.5013 -0.3467
  392TMC3    O2 5867   0.194   1.932  10.601  0.6407 -0.4774 -0.0723
  393TMC3    C1 5868   0.047   0.051  10.473 -0.2478  0.7889 -0.4577
  393TMC3    C2 5869   4.680   0.026  10.564  0.6698 -0.2346 -0.2326
  393TMC3    C3 5870   4.675   0.111  10.671  0.5897 -0.8421  0.4109
  393TMC3    C4 5871   0.141   0.151  10.486 -0.2421  0.0287 -0.2549
  393TMC3    C5 5872   0.140   0.225  10.603 -0.0085 -0.1266  0.3850
  393TMC3    C6 5873   0.044   0.212  10.690  1.0763 -0.2252  0.1510
  393TMC3     C 5874   0.029   0.031  10.332 -0.0177 -0.5798  0.1524
  393TMC3     O 5875   0.069   0.112  10.251 -0.2557 -0.2753  0.8685
  393TMC3     H 5876   4.599   4.678  10.560  0.5460 -0.1428  0.7916
  393TMC3    H1 5877   0.227   0.164  10.421 -1.1058 -0.0749 -1.4207
  393TMC3    H2 5878   0.039   0.277  10.777 -2.5704 -1.2491  0.6944
  393TMC3    C7 5879   0.209   0.358  10.614  0.0953  0.1749 -1.4765
  393TMC3    C8 5880   4.592   0.075  10.782  0.3509  0.4289  0.1934
  393TMC3    O1 5881   0.175   0.443  10.695 -0.4211  0.2313  0.2316
  393TMC3    O2 5882   4.504   4.716  10.754  0.0884 -0.8660  0.7945
  394TMC3    C1 5883   1.397   0.557  10.413 -0.0141  0.2184  0.0531
  394TMC3    C2 5884   1.270   0.513  10.371 -0.3876  0.1191  0.1962
  394TMC3    C3 5885   1.256   0.457  10.247  0.5300  0.3360 -0.7297
  394TMC3    C4 5886   1.506   0.555  10.329  0.5847  0.2663 -0.4308
  394TMC3    C5 5887   1.489   0.497  10.207 -0.3649 -0.7452 -0.7217
  394TMC3    C6 5888   1.366   0.435  10.169 -0.2259 -0.3504  0.2466
  394TMC3     C 5889   1.407   0.586  10.559 -0.3174  0.7176  0.0970
  394TMC3     O 5890   1.306   0.573  10.623  0.2471  0.1584 -0.2546
  394TMC3     H 5891   1.185   0.509  10.438  0.5173 -1.6609  1.2268
  394TMC3    H1 5892   1.599   0.596  10.368 -1.4031  2.5849  1.8620
  394TMC3    H2 5893   1.354   0.385  10.073 -0.2928  0.8758 -0.3943
  394TMC3    C7 5894   1.596   0.508  10.111 -0.5470  0.1135  0.4071
  394TMC3    C8 5895   1.151   0.362  10.248 -0.3734  0.2370 -0.8976
  394TMC3    O1 5896   1.691   0.581  10.144  0.2280 -0.1582  0.0609
  394TMC3    O2 5897   1.045   0.402  10.297 -0.3452 -0.6830 -0.3412
  395TMC3    C1 5898   0.813   2.974  14.246 -0.1891 -0.5088  0.2388
  395TMC3    C2 5899   0.675   2.977  14.275  0.1158  0.1239 -1.1962
  395TMC3    C3 5900   0.639   3.028  14.396 -0.0949  0.4205 -0.4959
  395TMC3    C4 5901   0.904   3.038  14.322 -0.2939  0.3407  0.1251
  395TMC3    C5 5902   0.857   3.112  14.426 -0.6134 -0.3808 -0.2878
  395TMC3    C6 5903   0.724   3.108  14.464  0.5883  0.1305  0.4636
  395TMC3     C 5904   0.840   2.923  14.111  0.0657  0.2266 -0.4973
  395TMC3     O 5905   0.754   2.944  14.026  0.7704  0.4201 -0.3547
  395TMC3     H 5906   0.599   2.935  14.211  0.5164 -0.4249 -1.3104
  395TMC3    H1 5907   1.000   3.055  14.275  0.2100  1.1428  1.4223
  395TMC3    H2 5908   0.687   3.167  14.547  1.8183 -0.0612  1.1427
  395TMC3    C7 5909   0.941   3.140  14.534 -0.7767  0.4422 -0.1715
  395TMC3    C8 5910   0.514   2.989  14.461  0.2560 -0.3752 -0.1531
  395TMC3    O1 5911   0.917   3.223  14.618  0.3774  0.3305 -0.3825
  395TMC3    O2 5912   0.479   3.052  14.561  0.1764 -0.0643 -0.1713
  396MPD2     C 5913   0.940   3.861   0.081  0.0583 -0.0021  0.5635
  396MPD2    C1 5914   1.011   3.810  17.667 -0.9219 -0.1142  0.1497
  396MPD2    C2 5915   1.072   3.908  17.582  0.4577 -0.0069  0.3081
  396MPD2    C3 5916   1.045   4.040  17.598  0.3043 -0.5245 -0.0567
  396MPD2    C4 5917   0.968   4.084   0.007 -0.6251  0.4941  0.2610
  396MPD2    C5 5918   0.927   3.995   0.099 -0.1336  0.2600  0.5817
  396MPD2     H 5919   1.130   3.880  17.495 -1.1166  1.8789 -1.3488
  396MPD2    H1 5920   0.958   4.191   0.022  1.3684  0.7226 -0.0879
  396MPD2    H2 5921   0.881   3.796   0.145 -0.9519  1.4174  1.0788
  396MPD2    H3 5922   0.862   4.026   0.180 -1.1340 -0.0516 -0.1010
  396MPD2     N 5923   1.117   4.124  17.522 -0.2582 -0.0030  0.5533
  396MPD2    H5 5924   1.201   4.080  17.485 -0.4702 -1.3050  1.6234
  396MPD2    N1 5925   1.029   3.671  17.666 -0.3861 -0.7397 -0.4892
  396MPD2    H7 5926   1.010   3.617   0.052 -2.8918 -1.4518 -1.5152
  397TMC3    C1 5927   1.159   3.470  17.600 -0.1553  0.2512  0.4922
  397TMC3    C2 5928   1.249   3.439  17.507  0.5846 -0.5666  1.0333
  397TMC3    C3 5929   1.224   3.345  17.411  0.0725 -0.2561  0.1353
  397TMC3    C4 5930   1.065   3.372  17.624  0.4374  0.8880  0.6548
  397TMC3    C5 5931   1.051   3.264  17.542  0.1399  0.5751  0.0780
  397TMC3    C6 5932   1.125   3.252  17.430  0.1010 -0.2383  0.4015
  397TMC3     C 5933   1.106   3.602  17.574 -0.6614  0.7535 -0.4195
  397TMC3     O 5934   1.138   3.647  17.468  0.1727 -0.2209  0.3109
  397TMC3     H 5935   1.323   3.517  17.488  1.8403 -1.6317  1.5168
  397TMC3    H1 5936   0.982   3.391  17.690  0.6930  0.1727  1.1754
  397TMC3    H2 5937   1.116   3.170  17.360 -1.5712  0.3597 -0.0719
  397TMC3    C7 5938   0.922   3.198  17.535 -0.4516 -0.3543  0.2650
  397TMC3    C8 5939   1.258   3.364  17.268  0.5436  0.0584  0.6793
  397TMC3    O1 5940   0.879   3.170  17.424 -0.0071 -0.4422  0.1462
  397TMC3    O2 5941   1.220   3.271  17.195  0.1747 -0.4641 -0.3556
  398MPD2     C 5942   3.594   4.150  17.647  0.1685 -0.5939  0.2915
  398MPD2    C1 5943   3.695   4.097   0.027 -0.5419  0.3546 -0.2697
  398MPD2    C2 5944   3.798   4.176   0.059  0.0801  0.5127  0.1205
  398MPD2    C3 5945   3.800   4.310   0.028 -0.4316 -0.1857  0.3708
  398MPD2    C4 5946   3.693   4.362  17.656  1.1689 -0.5441 -0.8060
  398MPD2    C5 5947   3.586   4.284  17.617  0.5814  1.0148  0.2235
  398MPD2     H 5948   3.885   4.142   0.113 -0.8209 -0.5545  0.9005
  398MPD2    H1 5949   3.678   4.467  17.635 -0.5682 -0.9031 -1.3462
  398MPD2    H2 5950   3.509   4.090  17.616  0.2884 -0.3234 -0.5781
  398MPD2    H3 5951   3.500   4.326  17.565 -1.2724 -0.3237  2.2449
  398MPD2     N 5952   3.906   4.398   0.070  0.0266 -0.0822  0.4427
  398MPD2    H5 5953   3.989   4.358   0.112 -0.8136 -1.3809  0.8800
  398MPD2    N1 5954   3.705   3.958   0.061  0.0805  0.3258  0.1023
  398MPD2    H7 5955   3.771   3.923   0.130  0.8834  2.5260  0.4533
  399TMC3    C1 5956   3.658   3.725   0.065 -0.4419 -0.1355  0.4921
  399TMC3    C2 5957   3.789   3.694   0.093  0.3089 -0.9744 -0.8889
  399TMC3    C3 5958   3.811   3.568   0.146 -0.1109 -0.1363  0.0361
  399TMC3    C4 5959   3.562   3.631   0.060  0.1719  0.4090 -0.0488
  399TMC3    C5 5960   3.588   3.507   0.110  0.0291  0.0107  0.2469
  399TMC3    C6 5961   3.711   3.471   0.161  0.2529  0.6448 -0.0704
  399TMC3     C 5962   3.628   3.858   0.004  0.1157 -0.2008 -0.6901
  399TMC3     O 5963   3.522   3.869  17.645  0.0200 -0.2989 -0.5859
  399TMC3     H 5964   3.870   3.765   0.081  0.4664 -0.8319  1.0750
  399TMC3    H1 5965   3.459   3.663   0.055 -0.4621 -0.9361  4.5462
  399TMC3    H2 5966   3.718   3.377   0.215 -0.3992  1.6508  1.7596
  399TMC3    C7 5967   3.483   3.406   0.110 -0.0514  0.2224 -0.5520
  399TMC3    C8 5968   3.949   3.547   0.190 -0.1816 -0.5995 -0.7746
  399TMC3    O1 5969   3.479   3.339   0.214  0.5385 -0.0625  0.2146
  399TMC3    O2 5970   4.041   3.624   0.158  0.3207  0.2199 -0.6516
  400TMC3    C1 5971   2.285   3.264  17.083 -0.4206 -0.6322 -0.2387
  400TMC3    C2 5972   2.192   3.217  16.993 -0.5537 -0.4284 -0.3582
  400TMC3    C3 5973   2.096   3.303  16.952 -0.3521 -0.5068  0.1152
  400TMC3    C4 5974   2.288   3.394  17.125  0.1068 -0.4519 -0.1203
  400TMC3    C5 5975   2.182   3.472  17.088  0.1152  0.9758  0.4764
  400TMC3    C6 5976   2.089   3.428  17.001  0.2190 -0.6668  0.1866
  400TMC3     C 5977   2.363   3.174  17.153  0.2078  0.2469 -0.3350
  400TMC3     O 5978   2.339   3.055  17.146 -0.1511  0.2147 -0.0078
  400TMC3     H 5979   2.178   3.110  16.996  2.6142 -0.7221  3.6620
  400TMC3    H1 5980   2.354   3.424  17.206  0.3795 -0.0768 -0.4777
  400TMC3    H2 5981   2.002   3.490  16.984  1.9279  1.5525 -0.4773
  400TMC3    C7 5982   2.177   3.604  17.136  0.2004  0.7576  0.1478
  400TMC3    C8 5983   1.971   3.251  16.896  0.1081 -0.2155 -0.4088
  400TMC3    O1 5984   2.076   3.668  17.105 -0.3340 -0.0332  0.0210
  400TMC3    O2 5985   1.877   3.322  16.871 -0.0499  0.7200  0.4720
  401MPD2     C 5986   0.745   2.046   0.915  0.9492 -0.2437 -0.3644
  401MPD2    C1 5987   0.788   1.943   0.992 -0.5894 -0.0881  0.2665
  401MPD2    C2 5988   0.746   1.817   0.962  0.2562  0.4798  0.0719
  401MPD2    C3 5989   0.664   1.799   0.855  0.3345 -0.0508  0.1909
  401MPD2    C4 5990   0.606   1.904   0.789 -1.2920  0.0874  0.2247
  401MPD2    C5 5991   0.655   2.028   0.818 -0.0437 -0.3804  1.0024
  401MPD2     H 5992   0.762   1.732   1.028 -0.5367  1.2878  1.2916
  401MPD2    H1 5993   0.531   1.899   0.711  0.1680 -1.3270 -1.0865
  401MPD2    H2 5994   0.772   2.150   0.932 -1.3607  0.1069  1.2040
  401MPD2    H3 5995   0.614   2.117   0.772  0.3257 -0.7403 -0.0159
  401MPD2     N 5996   0.621   1.660   0.833 -0.0588  0.2514 -0.8269
  401MPD2    H5 5997   0.665   1.586   0.888 -1.6153  1.4716  2.0191
  401MPD2    N1 5998   0.870   1.956   1.112  0.2642 -0.2604  0.3485
  401MPD2    H7 5999   0.910   1.872   1.152 -2.4287 -2.3110 -1.2873
  402TMC3    C1 6000   0.515   1.471   0.741 -0.4705  0.9990  0.5614
  402TMC3    C2 6001   0.522   1.401   0.866 -0.0194  0.6887  0.3593
  402TMC3    C3 6002   0.557   1.270   0.871  0.0696  0.0989 -1.1226
  402TMC3    C4 6003   0.518   1.407   0.622  0.8521 -0.3359  0.0027
  402TMC3    C5 6004   0.548   1.276   0.631 -0.1074 -0.1464  0.3134
  402TMC3    C6 6005   0.570   1.206   0.747  1.8458 -0.5058  0.4492
  402TMC3     C 6006   0.528   1.618   0.741 -0.4297 -0.0502  0.2278
  402TMC3     O 6007   0.470   1.684   0.658 -0.0776  0.1459  0.5734
  402TMC3     H 6008   0.519   1.459   0.958  1.3108  0.4062  0.5745
  402TMC3    H1 6009   0.513   1.471   0.535  0.2957 -0.2675  0.0872
  402TMC3    H2 6010   0.607   1.104   0.752 -0.7471 -1.3776  1.5832
  402TMC3    C7 6011   0.564   1.210   0.507 -0.0028 -0.1667  0.6021
  402TMC3    C8 6012   0.611   1.218   0.992 -0.3702 -0.0552 -0.3751
  402TMC3    O1 6013   0.510   1.256   0.410  0.1396 -0.8888  0.0957
  402TMC3    O2 6014   0.712   1.151   0.980 -0.6869 -0.4496 -0.3668
  403MPD2     C 6015   3.561   0.658  13.525  0.4682 -1.0735  0.1883
  403MPD2    C1 6016   3.594   0.537  13.588 -0.5574  0.2955  0.1686
  403MPD2    C2 6017   3.689   0.539  13.694 -0.6882 -0.1817  0.6350
  403MPD2    C3 6018   3.734   0.661  13.750 -0.4434 -0.1459 -0.9946
  403MPD2    C4 6019   3.699   0.782  13.683 -0.2168 -0.0732  0.3228
  403MPD2    C5 6020   3.621   0.773  13.573  0.1966  0.8921 -0.1680
  403MPD2     H 6021   3.729   0.448  13.738  0.1824  0.5226  1.3002
  403MPD2    H1 6022   3.751   0.874  13.705 -1.6627  0.0682  3.1499
  403MPD2    H2 6023   3.493   0.667  13.441  1.1270  0.8146 -0.1421
  403MPD2    H3 6024   3.583   0.862  13.525  0.8210  1.6556  0.7480
  403MPD2     N 6025   3.830   0.656  13.856  0.9087  0.0078 -0.5212
  403MPD2    H5 6026   3.860   0.562  13.875  0.3775  0.0121  0.3620
  403MPD2    N1 6027   3.542   0.421  13.530 -0.4210 -0.5379 -0.3148
  403MPD2    H7 6028   3.478   0.432  13.452 -0.9692 -0.3615  0.1596
  404TMC3    C1 6029   3.527   0.194  13.468  0.1990  0.7497  0.1647
  404TMC3    C2 6030   3.459   0.089  13.516  0.0512 -0.5231 -0.0329
  404TMC3    C3 6031   3.385   0.009  13.437  0.1148  0.2769  0.1644
  404TMC3    C4 6032   3.500   0.231  13.338  0.3537 -0.6272 -0.3166
  404TMC3    C5 6033   3.427   0.151  13.256 -0.5480 -0.2461  0.0847
  404TMC3    C6 6034   3.363   0.042  13.302 -0.1066 -0.1176 -0.6280
  404TMC3     C 6035   3.567   0.290  13.570  0.0633  0.1398  0.1696
  404TMC3     O 6036   3.614   0.253  13.674 -0.2404 -0.2433 -0.2523
  404TMC3     H 6037   3.486   0.064  13.618 -0.2090  1.0022  0.4079
  404TMC3    H1 6038   3.550   0.320  13.300 -2.1924  1.4191  1.0943
  404TMC3    H2 6039   3.299   4.693  13.254 -1.4094  0.7287 -0.2125
  404TMC3    C7 6040   3.384   0.212  13.126  0.9358 -0.0152  1.0067
  404TMC3    C8 6041   3.399   4.589  13.460 -0.1515  0.1705  0.7285
  404TMC3    O1 6042   3.420   0.327  13.108  0.4232 -0.2053 -0.7736
  404TMC3    O2 6043   3.383   4.510  13.370  0.0546  0.3021 -0.1647
  405MPD2     C 6044   4.134   0.109  14.862  0.1027  0.9802 -0.3571
  405MPD2    C1 6045   4.075   0.162  14.969  1.0080  0.9473  0.4221
  405MPD2    C2 6046   4.024   0.287  14.962 -0.1595 -0.1182 -0.0227
  405MPD2    C3 6047   4.013   0.359  14.843 -0.1190  0.3368  0.2312
  405MPD2    C4 6048   4.071   0.303  14.729  0.4956 -0.2527  0.4850
  405MPD2    C5 6049   4.126   0.176  14.744 -0.3522  0.1498  0.0670
  405MPD2     H 6050   3.961   0.328  15.039  2.3666  2.2558  0.7549
  405MPD2    H1 6051   4.074   0.350  14.632  3.0606 -1.8224 -0.1763
  405MPD2    H2 6052   4.189   0.016  14.861 -0.7784  0.4506  0.5992
  405MPD2    H3 6053   4.163   0.130  14.652 -2.4557  0.5663 -0.9823
  405MPD2     N 6054   3.947   0.487  14.843 -0.5732 -0.1964  0.5631
  405MPD2    H5 6055   3.925   0.518  14.937  0.7982 -0.1329  0.8745
  405MPD2    N1 6056   4.084   0.091  15.091 -0.9604 -0.3111 -0.0134
  405MPD2    H7 6057   4.109   4.717  15.086  1.6009  0.4040 -1.2969
  406TMC3    C1 6058   3.559   0.651  14.671  0.1261  0.1408 -0.0071
  406TMC3    C2 6059   3.509   0.661  14.799 -0.0660  0.4016 -0.0390
  406TMC3    C3 6060   3.587   0.665  14.905 -0.0159 -0.7100  0.1876
  406TMC3    C4 6061   3.695   0.648  14.654 -0.0076 -0.3347  1.0111
  406TMC3    C5 6062   3.771   0.621  14.766  0.7430  0.6126  0.2714
  406TMC3    C6 6063   3.720   0.631  14.889  0.2272 -0.5113 -0.6267
  406TMC3     C 6064   3.494   0.553  14.584 -0.1044 -0.3757 -0.4113
  406TMC3     O 6065   3.559   0.456  14.545  0.8379  0.5196 -0.4388
  406TMC3     H 6066   3.403   0.677  14.814 -0.0839  1.6086 -1.5034
  406TMC3    H1 6067   3.735   0.630  14.555 -2.3363  0.3265 -0.0545
  406TMC3    H2 6068   3.779   0.649  14.978 -0.9163  2.3773 -0.4743
  406TMC3    C7 6069   3.897   0.549  14.732 -0.2645  0.7121  0.6238
  406TMC3    C8 6070   3.523   0.616  15.028 -0.0130  0.0551 -0.3928
  406TMC3    O1 6071   3.917   0.531  14.612  0.0274 -0.2252  0.1814
  406TMC3    O2 6072   3.406   0.649  15.049 -0.4331 -0.0916  0.4598
  407MPD2     C 6073   1.736   2.159   9.536  0.9536  0.1241  0.0894
  407MPD2    C1 6074   1.815   2.085   9.624 -0.5741  0.7509 -0.7604
  407MPD2    C2 6075   1.756   2.001   9.716  0.6026 -0.8901 -0.3772
  407MPD2    C3 6076   1.617   1.991   9.728 -0.0573  0.1934  1.1979
  407MPD2    C4 6077   1.536   2.068   9.649 -0.3356  0.8100 -0.2786
  407MPD2    C5 6078   1.593   2.149   9.550  0.1253  0.3694  0.1791
  407MPD2     H 6079   1.818   1.944   9.785  1.2086  1.9458  1.4381
  407MPD2    H1 6080   1.429   2.056   9.636 -0.1816 -0.6502 -0.1541
  407MPD2    H2 6081   1.781   2.193   9.443  0.4623  0.6699  0.0520
  407MPD2    H3 6082   1.537   2.186   9.464  2.5992 -2.6519 -2.7358
  407MPD2     N 6083   1.560   1.910   9.831  0.1651  0.6005 -0.2165
  407MPD2    H5 6084   1.464   1.929   9.856  0.0060 -1.4812  0.7457
  407MPD2    N1 6085   1.953   2.099   9.633  0.3936  0.3973 -0.8426
  407MPD2    H7 6086   2.004   2.028   9.686 -0.1492  1.6943  1.4112
  408TMC3    C1 6087   2.170   2.197   9.599 -0.2134  0.3112  0.0168
  408TMC3    C2 6088   2.237   2.084   9.642  0.3142 -0.2591  0.2853
  408TMC3    C3 6089   2.366   2.102   9.689 -0.3019 -0.0903  0.2804
  408TMC3    C4 6090   2.226   2.320   9.608  0.7122 -0.1351 -0.0012
  408TMC3    C5 6091   2.352   2.329   9.658  0.4769  0.2694  0.8424
  408TMC3    C6 6092   2.431   2.222   9.692  0.9971 -0.1267 -0.3738
  408TMC3     C 6093   2.030   2.198   9.566 -0.1273  0.0204 -0.2126
  408TMC3     O 6094   1.992   2.299   9.511  0.4510 -0.2964  0.6627
  408TMC3     H 6095   2.185   1.990   9.659 -0.0159  0.1537  1.5625
  408TMC3    H1 6096   2.179   2.408   9.565  2.7111  1.6065  1.3466
  408TMC3    H2 6097   2.525   2.241   9.742  1.3995  0.1399 -1.2435
  408TMC3    C7 6098   2.407   2.452   9.657  0.3461 -0.1835  0.6773
  408TMC3    C8 6099   2.446   1.980   9.686 -0.1333  0.7773  0.3707
  408TMC3    O1 6100   2.331   2.549   9.653 -0.1221 -0.4643 -0.7964
  408TMC3    O2 6101   2.392   1.868   9.671  0.3075  0.6061  0.2321
  409MPD2     C 6102   1.208   2.523  16.829 -0.2955  0.1939 -0.3479
  409MPD2    C1 6103   1.214   2.566  16.962 -0.4549 -0.0778  1.0735
  409MPD2    C2 6104   1.248   2.694  16.995  0.2487 -0.4120 -0.0792
  409MPD2    C3 6105   1.276   2.785  16.890 -0.1726  0.0858 -0.2879
  409MPD2    C4 6106   1.275   2.741  16.764 -0.3745  0.9217  0.0908
  409MPD2    C5 6107   1.246   2.614  16.734 -0.8093 -0.2851 -0.0469
  409MPD2     H 6108   1.255   2.731  17.096  0.7068 -2.3792  0.6084
  409MPD2    H1 6109   1.304   2.808  16.684  2.6809 -0.4973 -0.0212
  409MPD2    H2 6110   1.178   2.422  16.804 -0.0295  0.7781 -3.0605
  409MPD2    H3 6111   1.253   2.577  16.632  1.1621 -0.3439  0.1202
  409MPD2     N 6112   1.319   2.921  16.925 -0.1364  0.3515  0.0663
  409MPD2    H5 6113   1.321   2.985  16.846 -0.4789 -1.0067 -1.0455
  409MPD2    N1 6114   1.201   2.485  17.077 -0.0180 -0.8624 -0.1564
  409MPD2    H7 6115   1.216   2.525  17.169 -0.3945  1.3588 -1.0597
  410TMC3    C1 6116   1.421   3.104  17.045 -0.5562  0.4412 -0.0714
  410TMC3    C2 6117   1.538   3.123  17.109  0.1013 -0.4041 -0.1316
  410TMC3    C3 6118   1.615   3.230  17.073  0.1217  0.3541 -0.3062
  410TMC3    C4 6119   1.389   3.182  16.941 -0.3741  0.2582 -0.1120
  410TMC3    C5 6120   1.463   3.288  16.909  0.2549 -0.3109 -1.0532
  410TMC3    C6 6121   1.581   3.315  16.973 -0.1031  0.5429  0.0647
  410TMC3     C 6122   1.369   2.964  17.054  0.4240 -0.2484 -0.6498
  410TMC3     O 6123   1.384   2.904  17.158 -0.0035  0.3529  0.0071
  410TMC3     H 6124   1.569   3.044  17.176  0.7381 -0.8760 -0.9865
  410TMC3    H1 6125   1.299   3.177  16.880 -0.1262 -0.9968 -0.3842
  410TMC3    H2 6126   1.650   3.387  16.931 -0.8064  1.2189  0.0841
  410TMC3    C7 6127   1.447   3.328  16.774  0.6345  0.0667 -0.2161
  410TMC3    C8 6128   1.730   3.258  17.145 -0.0042 -0.4821  0.0842
  410TMC3    O1 6129   1.385   3.256  16.695 -0.3402 -0.4146 -0.4186
  410TMC3    O2 6130   1.752   3.371  17.178  0.1133  0.1993 -0.2140
  411MPD2     C 6131   1.800   3.503  14.737  0.3432  0.1857 -0.5024
  411MPD2    C1 6132   1.721   3.537  14.630  0.4154 -0.4587 -0.4983
  411MPD2    C2 6133   1.632   3.439  14.588 -0.1603  0.0548 -0.0279
  411MPD2    C3 6134   1.637   3.312  14.639  0.0758  0.9012  0.0806
  411MPD2    C4 6135   1.733   3.277  14.730 -0.4979  0.6917  0.6030
  411MPD2    C5 6136   1.807   3.375  14.790 -0.4547  0.0045 -0.4994
  411MPD2     H 6137   1.560   3.458  14.509  0.2968  2.1224  0.0557
  411MPD2    H1 6138   1.722   3.182  14.780  1.7505  0.8607  1.4224
  411MPD2    H2 6139   1.882   3.567  14.768 -0.0966  0.7736 -0.5263
  411MPD2    H3 6140   1.879   3.339  14.862 -0.4094 -0.4497 -0.7740
  411MPD2     N 6141   1.544   3.209  14.601 -0.2142 -0.8374 -0.2237
  411MPD2    H5 6142   1.580   3.116  14.621  0.4189 -0.3964  0.6562
  411MPD2    N1 6143   1.729   3.671  14.585  0.3137  0.1769 -0.6882
  411MPD2    H7 6144   1.787   3.737  14.636 -0.6353  2.0431 -1.9814
  412TMC3    C1 6145   1.384   3.125  14.453  0.2673  0.0474 -0.2131
  412TMC3    C2 6146   1.277   3.156  14.374 -0.4681 -0.7487 -0.1995
  412TMC3    C3 6147   1.267   3.115  14.242 -0.2233 -0.2272 -0.0063
  412TMC3    C4 6148   1.468   3.031  14.400  0.0708  0.2517  0.3869
  412TMC3    C5 6149   1.459   2.974  14.274 -0.3079 -0.6957  0.1629
  412TMC3    C6 6150   1.359   3.018  14.191 -0.2428 -0.6668 -0.3710
  412TMC3     C 6151   1.431   3.235  14.533 -0.1692  0.0846 -0.7631
  412TMC3     O 6152   1.376   3.337  14.499  0.0470  0.5648  0.3266
  412TMC3     H 6153   1.205   3.233  14.399 -0.4443 -1.4686  2.1303
  412TMC3    H1 6154   1.543   3.001  14.472 -1.8571 -0.8472  1.9083
  412TMC3    H2 6155   1.350   2.986  14.088  0.1378 -1.5554 -0.1226
  412TMC3    C7 6156   1.582   2.920  14.212  0.4396 -0.2847 -0.5305
  412TMC3    C8 6157   1.210   3.211  14.155 -0.1493  0.5668 -0.1409
  412TMC3    O1 6158   1.643   2.835  14.277  0.3745 -0.4650 -0.4350
  412TMC3    O2 6159   1.099   3.254  14.183  0.1299 -0.4640 -0.5303
  413MPD2     C 6160   3.025   2.152  15.379 -0.0740  0.0224  0.5007
  413MPD2    C1 6161   2.954   2.047  15.319  0.1667 -0.4604 -0.1978
  413MPD2    C2 6162   3.020   1.928  15.307  0.5458 -0.0865  0.6483
  413MPD2    C3 6163   3.149   1.914  15.357 -0.9239 -0.0774  0.2607
  413MPD2    C4 6164   3.218   2.015  15.417 -0.3339  0.2109  0.8328
  413MPD2    C5 6165   3.156   2.133  15.425  0.1535  0.0949 -0.8240
  413MPD2     H 6166   2.981   1.834  15.270  1.1906 -0.2545  0.3964
  413MPD2    H1 6167   3.319   1.999  15.452 -0.1681 -0.0808  0.2156
  413MPD2    H2 6168   2.984   2.252  15.387 -1.1613 -0.1887 -2.7058
  413MPD2    H3 6169   3.208   2.216  15.470 -1.1792  0.9948 -0.9472
  413MPD2     N 6170   3.206   1.785  15.331  0.5053  0.0142 -0.2038
  413MPD2    H5 6171   3.143   1.715  15.295 -0.1166  0.3963  0.1389
  413MPD2    N1 6172   2.824   2.062  15.267 -0.3261  0.2599  0.1353
  413MPD2    H7 6173   2.780   2.149  15.295 -0.2053 -0.2513  1.9203
  414TMC3    C1 6174   3.340   1.596  15.334  0.3169 -0.1731 -0.0484
  414TMC3    C2 6175   3.436   1.525  15.401  0.3473 -0.3086  0.0626
  414TMC3    C3 6176   3.459   1.393  15.369  0.2924 -0.0930 -0.4410
  414TMC3    C4 6177   3.273   1.546  15.227  0.0188 -0.3053 -0.7359
  414TMC3    C5 6178   3.292   1.416  15.204 -0.1439 -0.0304 -0.1812
  414TMC3    C6 6179   3.381   1.334  15.276 -0.4418  0.9645 -0.2840
  414TMC3     C 6180   3.324   1.736  15.373  0.3466 -0.1890  0.4226
  414TMC3     O 6181   3.419   1.799  15.420 -0.1717  0.6352  0.2428
  414TMC3     H 6182   3.496   1.575  15.476  1.6842  0.3135 -1.4417
  414TMC3    H1 6183   3.197   1.594  15.166  1.0056 -0.3079 -1.9567
  414TMC3    H2 6184   3.380   1.227  15.258 -0.8676  1.0042 -0.4965
  414TMC3    C7 6185   3.307   1.400  15.060  0.0529 -0.2897 -0.3564
  414TMC3    C8 6186   3.598   1.351  15.344 -0.1881  0.3969 -0.0725
  414TMC3    O1 6187   3.238   1.458  14.979  0.2355  0.1347  0.3786
  414TMC3    O2 6188   3.615   1.285  15.242 -0.4454  0.0939 -0.3452
  415TMC3    C1 6189   4.235   3.682  10.028 -0.5664 -0.8833 -0.1187
  415TMC3    C2 6190   4.277   3.730   9.907  0.4242 -0.4213  0.3411
  415TMC3    C3 6191   4.198   3.705   9.798 -0.1641 -0.1611  0.1913
  415TMC3    C4 6192   4.127   3.589  10.036 -0.3385 -0.6900 -0.1406
  415TMC3    C5 6193   4.074   3.548   9.918  0.2724  0.1780  0.3834
  415TMC3    C6 6194   4.090   3.622   9.803  0.5683 -0.7312 -0.0924
  415TMC3     C 6195   4.260   3.747  10.158  0.5797 -0.4298  0.3263
  415TMC3     O 6196   4.223   3.692  10.262 -0.3776  0.1604 -0.3516
  415TMC3     H 6197   4.367   3.790   9.900  0.1682 -0.2758 -1.8331
  415TMC3    H1 6198   4.104   3.546  10.133  0.2702  0.0899  0.3578
  415TMC3    H2 6199   4.027   3.607   9.716 -2.2781  0.0899  1.8314
  415TMC3    C7 6200   3.960   3.455   9.923  1.0464  0.1259  0.0988
  415TMC3    C8 6201   4.209   3.786   9.678  0.9491 -0.4494  0.7272
  415TMC3    O1 6202   3.926   3.388   9.827 -0.0716 -0.2196  0.5390
  415TMC3    O2 6203   4.112   3.807   9.606 -1.0499  0.9806  0.2065
  416MPD2     C 6204   0.412   3.403  11.913 -0.1447  0.0159 -0.2888
  416MPD2    C1 6205   0.409   3.404  11.781  0.8372  0.3709 -0.7213
  416MPD2    C2 6206   0.492   3.318  11.713  0.1539  0.4207  0.4683
  416MPD2    C3 6207   0.589   3.244  11.772  0.0755  1.1337  0.3502
  416MPD2    C4 6208   0.584   3.233  11.911  0.3081  0.1720  0.1630
  416MPD2    C5 6209   0.497   3.314  11.976 -0.4283  0.3099 -0.5079
  416MPD2     H 6210   0.497   3.324  11.605  1.1927 -0.0212  0.4911
  416MPD2    H1 6211   0.658   3.178  11.969 -1.8343 -2.3737  0.4953
  416MPD2    H2 6212   0.346   3.466  11.971  1.0533  0.0328  1.0859
  416MPD2    H3 6213   0.503   3.324  12.084  0.9736  2.5490 -0.8136
  416MPD2     N 6214   0.682   3.165  11.703  0.3665 -0.3280  0.4954
  416MPD2    H5 6215   0.751   3.106  11.748  1.2570 -1.1873 -1.9699
  416MPD2    N1 6216   0.313   3.483  11.722  0.3335 -0.3525 -0.1809
  416MPD2    H7 6217   0.247   3.532  11.782 -0.6915  0.5813 -2.0589
  417TMC3    C1 6218   0.196   3.603  11.556  0.5464  0.2906  0.2619
  417TMC3    C2 6219   0.119   3.672  11.644  0.5280  0.3453  0.3021
  417TMC3    C3 6220   0.046   3.778  11.602 -0.4906 -0.5300 -0.3251
  417TMC3    C4 6221   0.167   3.623  11.421  0.2041  0.7513  0.1003
  417TMC3    C5 6222   0.088   3.729  11.383 -0.3843 -0.0104 -0.5032
  417TMC3    C6 6223   0.020   3.809  11.473 -0.1381  0.0878  0.4655
  417TMC3     C 6224   0.299   3.506  11.588  0.5053 -0.2849 -0.3734
  417TMC3     O 6225   0.360   3.464  11.487 -0.0675 -0.2774  0.4255
  417TMC3     H 6226   0.138   3.656  11.750  1.5409 -0.0757  0.0586
  417TMC3    H1 6227   0.220   3.572  11.342 -0.3250 -0.7182  0.6895
  417TMC3    H2 6228   4.675   3.881  11.432  0.4605  0.3371 -0.1117
  417TMC3    C7 6229   0.058   3.747  11.241  0.4381  1.0055  0.5278
  417TMC3    C8 6230   0.004   3.869  11.712 -0.0166  0.6766  0.5628
  417TMC3    O1 6231   0.041   3.863  11.200 -0.1134  0.2366  0.3171
  417TMC3    O2 6232   4.721   3.818  11.822  0.0259  0.4517 -0.2757
  418TMC3    C1 6233   4.224   4.695   0.086 -0.6490  0.1121  0.5377
  418TMC3    C2 6234   4.090   4.685   0.063 -0.3120 -0.4453  0.6459
  418TMC3    C3 6235   4.019   4.596   0.140 -0.3926 -0.2896 -0.4110
  418TMC3    C4 6236   4.283   4.625   0.183  0.1516  0.9745  0.0423
  418TMC3    C5 6237   4.208   4.540   0.255  0.7589 -0.5768  0.6982
  418TMC3    C6 6238   4.077   4.516   0.233 -0.0622 -0.3857  0.2392
  418TMC3     C 6239   4.308   0.022  17.679 -0.5273  0.9908  0.0332
  418TMC3     O 6240   4.261   0.109  17.611  0.4496  0.3429 -0.2034
  418TMC3     H 6241   4.045   0.012  17.677  0.0923 -0.3551  0.4871
  418TMC3    H1 6242   4.390   4.636   0.194  0.1802 -0.4282  1.1889
  418TMC3    H2 6243   4.011   4.466   0.302  0.3301 -1.4965 -0.1896
  418TMC3    C7 6244   4.262   4.488   0.376  0.6813 -0.8089  0.2073
  418TMC3    C8 6245   3.902   4.536   0.073 -1.0489 -0.2862 -0.2874
  418TMC3    O1 6246   4.210   4.384   0.422  1.0005  0.5284  0.2698
  418TMC3    O2 6247   3.836   4.608  17.697 -0.0586  0.2238 -0.2292
  419MPD2     C 6248   2.652   3.322  12.683 -0.1412 -0.4526 -0.4723
  419MPD2    C1 6249   2.557   3.400  12.622  0.2571  0.6089  0.3453
  419MPD2    C2 6250   2.470   3.477  12.690 -0.3217 -0.1673 -0.3227
  419MPD2    C3 6251   2.468   3.475  12.828  0.4696  0.8195  0.1666
  419MPD2    C4 6252   2.550   3.384  12.889  0.3646 -0.4847 -0.1985
  419MPD2    C5 6253   2.644   3.310  12.817  0.1715  0.0331  0.2861
  419MPD2     H 6254   2.397   3.537  12.638 -2.1165 -0.0500  2.3408
  419MPD2    H1 6255   2.548   3.377  12.997 -1.0528  0.9255 -0.1261
  419MPD2    H2 6256   2.723   3.261  12.628 -0.0219 -1.0497  0.3310
  419MPD2    H3 6257   2.724   3.265  12.876  0.0984  0.6264  0.8535
  419MPD2     N 6258   2.377   3.559  12.895  0.3536  0.6824 -0.3411
  419MPD2    H5 6259   2.327   3.628  12.840 -1.2335 -0.4237 -0.2864
  419MPD2    N1 6260   2.545   3.408  12.480 -0.7784 -1.0216  0.3261
  419MPD2    H7 6261   2.462   3.458  12.450 -0.9175 -2.6691 -2.0687
  420TMC3    C1 6262   2.275   3.693  13.055  0.0792  1.0934 -0.4328
  420TMC3    C2 6263   2.150   3.673  13.001  0.1063  0.1028  0.0391
  420TMC3    C3 6264   2.057   3.768  13.037  0.3817  0.3500 -0.1112
  420TMC3    C4 6265   2.305   3.799  13.145  0.0450  0.3968  0.1713
  420TMC3    C5 6266   2.205   3.887  13.180 -1.0561 -0.2503  0.3645
  420TMC3    C6 6267   2.079   3.868  13.130 -0.8812  0.5772  0.4550
  420TMC3     C 6268   2.378   3.593  13.029  0.7715  0.4012  0.1740
  420TMC3     O 6269   2.461   3.564  13.120  0.0638 -0.6034  0.0881
  420TMC3     H 6270   2.131   3.586  12.940  0.4032  0.0225  0.0599
  420TMC3    H1 6271   2.407   3.816  13.176  0.5425 -1.4661 -0.4593
  420TMC3    H2 6272   1.999   3.935  13.161 -1.4258 -1.4614  3.4231
  420TMC3    C7 6273   2.214   3.943  13.309 -0.1534 -0.6503 -0.1515
  420TMC3    C8 6274   1.927   3.784  12.961  0.7246 -0.6096  0.5671
  420TMC3    O1 6275   2.163   4.051  13.337  0.1307 -0.4725  0.4283
  420TMC3    O2 6276   1.849   3.875  12.992 -0.1750 -0.2511  0.2258
  421TMC3    C1 6277   3.989   0.732  14.013  0.0361 -0.4097 -0.4260
  421TMC3    C2 6278   4.001   0.812  14.122  0.1312  0.4425  0.0772
  421TMC3    C3 6279   4.106   0.797  14.203  0.5406  0.0167  0.3063
  421TMC3    C4 6280   4.083   0.637  13.985 -0.2478 -0.5079 -0.1877
  421TMC3    C5 6281   4.189   0.627  14.070  0.4670  0.6427  0.3335
  421TMC3    C6 6282   4.204   0.703  14.186  0.3459 -0.3106  0.9036
  421TMC3     C 6283   3.880   0.767  13.925 -0.4771  0.2264  0.0593
  421TMC3     O 6284   3.846   0.885  13.920  0.2685 -0.3947  0.1160
  421TMC3     H 6285   3.925   0.888  14.135  1.3909  1.7616 -0.2544
  421TMC3    H1 6286   4.075   0.568  13.902  1.6737 -1.0143  0.0318
  421TMC3    H2 6287   4.296   0.688  14.240  0.3904 -0.3197  0.8259
  421TMC3    C7 6288   4.267   0.502  14.072 -0.7693  0.2980 -0.4494
  421TMC3    C8 6289   4.096   0.869  14.327  0.4507 -0.2678 -0.3446
  421TMC3    O1 6290   4.375   0.504  14.126 -0.1044 -0.0235  0.0601
  421TMC3    O2 6291   3.985   0.884  14.373  0.2669 -0.3014  0.1057
  422TMC3    C1 6292   1.301   1.291  12.628  0.5056  0.0886  0.6834
  422TMC3    C2 6293   1.306   1.419  12.662  0.6059 -0.6076  0.2019
  422TMC3    C3 6294   1.225   1.461  12.765  0.2085  0.4060  0.7287
  422TMC3    C4 6295   1.210   1.202  12.682 -0.6819  0.4655 -0.2289
  422TMC3    C5 6296   1.120   1.247  12.780 -1.0208 -0.5954 -0.1759
  422TMC3    C6 6297   1.131   1.378  12.828 -0.2266  0.0738 -0.1141
  422TMC3     C 6298   1.414   1.245  12.558 -0.2907  0.3826  0.2805
  422TMC3     O 6299   1.473   1.329  12.493 -0.3521 -0.5628  0.2331
  422TMC3     H 6300   1.388   1.484  12.633  1.1410 -1.0588  0.7016
  422TMC3    H1 6301   1.218   1.096  12.661  0.1931  0.5335 -0.2429
  422TMC3    H2 6302   1.067   1.415  12.907 -0.3921 -1.3532  0.4207
  422TMC3    C7 6303   1.023   1.152  12.834  0.4942 -0.2093  0.0557
  422TMC3    C8 6304   1.241   1.598  12.805 -0.0223  0.1730 -0.8687
  422TMC3    O1 6305   1.030   1.033  12.804  0.1727 -0.0034  0.1278
  422TMC3    O2 6306   1.348   1.644  12.765  1.1089 -0.0760 -0.5184
  423MPD2     C 6307   3.265   1.776   0.979 -0.7259 -0.6030 -0.6033
  423MPD2    C1 6308   3.317   1.647   0.963 -0.5393  0.3041  0.1833
  423MPD2    C2 6309   3.355   1.596   0.837  0.2327  0.0119 -0.3167
  423MPD2    C3 6310   3.348   1.676   0.724 -0.3627 -0.0852 -0.2041
  423MPD2    C4 6311   3.302   1.803   0.740 -0.0968 -0.0433 -0.2347
  423MPD2    C5 6312   3.271   1.853   0.868 -0.2112  0.3045 -0.3265
  423MPD2     H 6313   3.396   1.495   0.836 -0.0367 -0.1048  2.5246
  423MPD2    H1 6314   3.297   1.865   0.651 -2.9946 -1.0233 -0.7347
  423MPD2    H2 6315   3.247   1.821   1.076 -0.1202 -1.8735  0.1077
  423MPD2    H3 6316   3.242   1.957   0.877 -1.1377 -0.0631  0.8481
  423MPD2     N 6317   3.376   1.635   0.589  0.7212  0.1273 -0.1616
  423MPD2    H5 6318   3.350   1.691   0.509 -1.2567 -0.0918  0.3103
  423MPD2    N1 6319   3.344   1.561   1.077  0.2529 -0.2333 -0.3998
  423MPD2    H7 6320   3.387   1.470   1.060 -0.5959 -0.3631 -1.8530
  424TMC3    C1 6321   3.363   1.491   1.298 -0.3599  0.1583 -0.1780
  424TMC3    C2 6322   3.497   1.466   1.276  0.0727 -0.0125 -0.3330
  424TMC3    C3 6323   3.571   1.412   1.381  0.2277 -0.0737  0.3355
  424TMC3    C4 6324   3.310   1.476   1.425  0.4943 -0.4774  0.4536
  424TMC3    C5 6325   3.387   1.429   1.529 -0.4951  0.1792 -0.6162
  424TMC3    C6 6326   3.518   1.397   1.502 -0.3495 -0.3121 -0.2386
  424TMC3     C 6327   3.313   1.588   1.206 -0.0789 -0.7340 -0.4971
  424TMC3     O 6328   3.252   1.683   1.255 -0.0827 -0.0842  0.3506
  424TMC3     H 6329   3.545   1.464   1.179  1.8570  4.1934  0.4575
  424TMC3    H1 6330   3.205   1.500   1.435  0.7194  0.9716 -0.7703
  424TMC3    H2 6331   3.577   1.357   1.584  0.2256 -0.7636 -0.8751
  424TMC3    C7 6332   3.357   1.462   1.673  0.0066 -0.5091  0.2703
  424TMC3    C8 6333   3.709   1.379   1.357 -0.4410  0.2485  0.1160
  424TMC3    O1 6334   3.433   1.407   1.755 -0.2333  0.4185 -0.3335
  424TMC3    O2 6335   3.744   1.410   1.240 -0.2738 -0.1295 -0.2939
  425MPD2     C 6336   2.055   1.587   0.247 -0.0440 -0.7417 -0.2445
  425MPD2    C1 6337   1.980   1.499   0.184 -0.5237  0.7565 -0.4315
  425MPD2    C2 6338   1.855   1.526   0.134  0.7417 -0.2095 -0.8190
  425MPD2    C3 6339   1.811   1.657   0.144  0.5551 -0.2192 -0.2973
  425MPD2    C4 6340   1.887   1.748   0.209  0.3380 -0.4808 -0.2526
  425MPD2    C5 6341   2.002   1.712   0.264  0.2583 -0.3660 -0.6134
  425MPD2     H 6342   1.794   1.458   0.076  0.0044  0.7113 -1.1309
  425MPD2    H1 6343   1.854   1.851   0.217  2.0434  0.2114 -1.8644
  425MPD2    H2 6344   2.155   1.570   0.285  0.1063  1.7493  0.4309
  425MPD2    H3 6345   2.062   1.790   0.312 -1.8878 -0.2040  1.8233
  425MPD2     N 6346   1.679   1.682   0.089 -0.2623  0.1842 -1.1548
  425MPD2    H5 6347   1.618   1.606   0.059  0.5990 -0.8372 -0.3382
  425MPD2    N1 6348   2.034   1.368   0.170  0.0420  0.1109 -0.1357
  425MPD2    H7 6349   2.131   1.343   0.186  0.5243  1.0841 -1.5555
  426TMC3    C1 6350   2.038   1.157   0.054 -0.3303 -0.5507  0.4685
  426TMC3    C2 6351   2.012   1.144  17.617  0.2766  0.2726  0.5323
  426TMC3    C3 6352   2.098   1.061  17.547 -0.3349 -0.3278 -0.1697
  426TMC3    C4 6353   2.154   1.110   0.113  0.4682 -0.3009 -0.8611
  426TMC3    C5 6354   2.238   1.045   0.030  1.2689  0.4915  0.1821
  426TMC3    C6 6355   2.211   1.009  17.600 -0.6359  0.6403 -0.6080
  426TMC3     C 6356   1.964   1.263   0.114 -0.9057  0.0905 -0.5477
  426TMC3     O 6357   1.845   1.248   0.112 -0.1635 -0.0764  0.6961
  426TMC3     H 6358   1.920   1.180  17.572 -0.2381 -0.4225  1.0313
  426TMC3    H1 6359   2.181   1.114   0.218 -1.3761 -0.0490 -0.3969
  426TMC3    H2 6360   2.291   0.972  17.536  1.3043  0.4986  1.8894
  426TMC3    C7 6361   2.358   0.988   0.089  0.5964  0.1572 -0.4612
  426TMC3    C8 6362   2.064   1.023  17.408 -0.4661  0.3171  0.1911
  426TMC3    O1 6363   2.396   0.890   0.032 -0.3051  0.2818 -0.1033
  426TMC3    O2 6364   2.148   0.963  17.342 -0.1142  0.0701 -0.4293
  427MPD2     C 6365   0.709   4.090  15.226 -0.2179  0.9902 -0.3767
  427MPD2    C1 6366   0.680   3.957  15.222 -0.1079  0.4558  0.6813
  427MPD2    C2 6367   0.545   3.913  15.217  0.4789  0.1564  0.1090
  427MPD2    C3 6368   0.443   4.013  15.224 -0.2359  0.5032 -0.0668
  427MPD2    C4 6369   0.479   4.144  15.243  0.1958 -0.2030  0.1130
  427MPD2    C5 6370   0.609   4.182  15.248  0.1760  0.2680 -0.2956
  427MPD2     H 6371   0.521   3.808  15.203 -1.0759  0.5035  0.1173
  427MPD2    H1 6372   0.400   4.216  15.259 -0.9181 -0.8306 -2.6833
  427MPD2    H2 6373   0.805   4.139  15.214  0.4435 -0.0910  0.3930
  427MPD2    H3 6374   0.636   4.286  15.267 -0.9663  0.9349 -2.3968
  427MPD2     N 6375   0.305   3.995  15.207  0.0172  0.2523  0.6589
  427MPD2    H5 6376   0.249   4.079  15.199 -0.3610  0.0129  0.7787
  427MPD2    N1 6377   0.786   3.867  15.206 -0.0456  0.4963  0.1619
  427MPD2    H7 6378   0.752   3.773  15.183 -3.8225  1.6292  1.0987
  428TMC3    C1 6379   0.999   3.771  15.212  0.1883  0.3885  0.2239
  428TMC3    C2 6380   0.954   3.665  15.137  0.9731  0.6580  0.0187
  428TMC3    C3 6381   1.044   3.576  15.083  0.2781 -0.3162 -0.5565
  428TMC3    C4 6382   1.130   3.786  15.235  0.2399  0.7740  0.1160
  428TMC3    C5 6383   1.217   3.694  15.179  0.4133 -0.6567  0.9343
  428TMC3    C6 6384   1.177   3.590  15.102 -0.5161 -0.3256  0.0149
  428TMC3     C 6385   0.918   3.885  15.225 -0.1199  0.0233  0.5071
  428TMC3     O 6386   0.974   3.986  15.262  0.2654 -0.0359 -0.6370
  428TMC3     H 6387   0.851   3.652  15.105  1.5117  1.4739 -2.0910
  428TMC3    H1 6388   1.173   3.871  15.287  2.0549  0.0811 -0.2501
  428TMC3    H2 6389   1.247   3.514  15.070  0.0311  0.5066 -0.7834
  428TMC3    C7 6390   1.356   3.710  15.219 -0.0264  0.3777 -0.0207
  428TMC3    C8 6391   1.011   3.444  15.030 -0.1620  0.5534  0.3391
  428TMC3    O1 6392   1.378   3.768  15.322  0.0436  0.5968  0.2996
  428TMC3    O2 6393   1.109   3.377  14.988 -0.2087  0.1810  0.6617
  429MPD2     C 6394   1.327   3.628   0.167  0.3592 -0.1167 -0.3950
  429MPD2    C1 6395   1.443   3.588   0.104  1.0822  0.2206 -0.1229
  429MPD2    C2 6396   1.520   3.682   0.030  0.5402  0.5816  0.5513
  429MPD2    C3 6397   1.483   3.814   0.022 -0.2736  0.4120 -0.2974
  429MPD2    C4 6398   1.363   3.856   0.087 -0.2717  0.8096  0.0145
  429MPD2    C5 6399   1.285   3.760   0.149  0.3513 -0.2101  0.2692
  429MPD2     H 6400   1.612   3.650  17.681 -0.4064 -0.3902 -0.6211
  429MPD2    H1 6401   1.327   3.958   0.077 -1.7989  0.3350  0.6209
  429MPD2    H2 6402   1.274   3.560   0.233  2.3653 -0.3653  0.9549
  429MPD2    H3 6403   1.200   3.791   0.209  0.7999  3.1450 -0.8104
  429MPD2     N 6404   1.571   3.900  17.647  0.8829  0.5763 -0.9168
  429MPD2    H5 6405   1.656   3.857  17.612  0.6206  0.7658 -1.7965
  429MPD2    N1 6406   1.469   3.452   0.100  0.1713  0.2426  0.3495
  429MPD2    H7 6407   1.562   3.432   0.065 -1.4917 -0.6046 -3.6179
  430TMC3    C1 6408   1.665   4.091  17.561 -0.5687  0.3373  0.3106
  430TMC3    C2 6409   1.639   4.197  17.492  0.1234  0.6183  0.4131
  430TMC3    C3 6410   1.721   4.245  17.404  0.0881  0.2697  0.5284
  430TMC3    C4 6411   1.775   4.016  17.536 -0.5132 -0.0277  0.6159
  430TMC3    C5 6412   1.863   4.069  17.447 -0.3126 -0.1580 -0.3126
  430TMC3    C6 6413   1.833   4.181  17.380  0.8652 -0.4487 -0.3587
  430TMC3     C 6414   1.548   4.031  17.627  0.0541  0.1585  0.2826
  430TMC3     O 6415   1.448   4.099  17.641 -0.2017  0.3128 -0.5718
  430TMC3     H 6416   1.547   4.254  17.500  0.6272  1.2266  1.8605
  430TMC3    H1 6417   1.797   3.932  17.601  1.8922 -1.2710 -1.8128
  430TMC3    H2 6418   1.887   4.212  17.290  2.0791 -1.4421  0.0159
  430TMC3    C7 6419   1.975   3.983  17.415  0.1375  0.0660  0.0674
  430TMC3    C8 6420   1.662   4.296  17.280  0.5695 -0.6406  0.2308
  430TMC3    O1 6421   1.972   3.868  17.457 -0.2922 -0.1203 -0.2783
  430TMC3    O2 6422   1.549   4.255  17.266  0.3858 -0.2916  0.0197
  431MPD2     C 6423   2.438   4.148  12.520  0.5676 -0.1906  0.9690
  431MPD2    C1 6424   2.540   4.148  12.427 -0.4765  0.4795 -0.1127
  431MPD2    C2 6425   2.557   4.045  12.340 -0.0184 -0.2299 -0.0111
  431MPD2    C3 6426   2.468   3.937  12.345  0.0161  0.7537  0.3130
  431MPD2    C4 6427   2.365   3.934  12.439  0.2497 -0.0340 -0.0992
  431MPD2    C5 6428   2.349   4.040  12.527  0.5560 -0.8973 -0.2011
  431MPD2     H 6429   2.642   4.040  12.274  0.1121  0.3636  0.1097
  431MPD2    H1 6430   2.294   3.853  12.438 -0.6929  0.7575  2.9024
  431MPD2    H2 6431   2.421   4.220  12.600 -0.6171  1.2286 -0.5674
  431MPD2    H3 6432   2.273   4.037  12.605  1.3016  1.9130  0.6467
  431MPD2     N 6433   2.481   3.815  12.274 -0.2514  0.3917 -0.1304
  431MPD2    H5 6434   2.417   3.739  12.294  1.5848 -1.6365 -1.8920
  431MPD2    N1 6435   2.638   4.252  12.426  0.3154 -0.1289  0.3313
  431MPD2    H7 6436   2.692   4.267  12.341 -2.5422 -2.6187 -1.9301
  432TMC3    C1 6437   2.612   3.647  12.166  0.2869 -0.3644 -0.5185
  432TMC3    C2 6438   2.687   3.600  12.065 -0.2430  0.6840 -0.5183
  432TMC3    C3 6439   2.727   3.471  12.063 -0.1315  0.4153  0.0498
  432TMC3    C4 6440   2.592   3.572  12.271 -0.0121  0.2424  0.2141
  432TMC3    C5 6441   2.628   3.441  12.270  0.5880  0.1351 -0.0500
  432TMC3    C6 6442   2.689   3.387  12.157 -0.3247  0.2421 -0.6484
  432TMC3     C 6443   2.579   3.789  12.179 -0.1683  0.0310  0.6347
  432TMC3     O 6444   2.626   3.867  12.098 -0.4162  0.0741  0.2125
  432TMC3     H 6445   2.711   3.664  11.981  1.6542 -2.6252 -2.4976
  432TMC3    H1 6446   2.559   3.615  12.365  0.4143 -0.2201  0.5713
  432TMC3    H2 6447   2.718   3.283  12.156  0.9912  0.6110 -0.6779
  432TMC3    C7 6448   2.627   3.358  12.393 -0.2714 -0.2610 -0.0263
  432TMC3    C8 6449   2.811   3.410  11.959 -0.3123  1.3765  0.5240
  432TMC3    O1 6450   2.715   3.278  12.403  0.4971  0.6124  0.5125
  432TMC3    O2 6451   2.813   3.287  11.961 -0.1289 -0.0856  0.7015
  433MPD2     C 6452   1.775   2.123  11.080  0.5908  0.5888  0.2065
  433MPD2    C1 6453   1.670   2.053  11.135 -0.2290  0.1625 -1.0446
  433MPD2    C2 6454   1.657   2.055  11.271  0.0444 -0.0428  0.4230
  433MPD2    C3 6455   1.745   2.132  11.348 -0.2784  0.0907  0.0249
  433MPD2    C4 6456   1.848   2.200  11.293 -0.0783 -0.3063 -0.2582
  433MPD2    C5 6457   1.868   2.188  11.160 -0.2634  1.2658  0.2920
  433MPD2     H 6458   1.563   2.028  11.317  0.5671 -1.9692  0.3586
  433MPD2    H1 6459   1.922   2.246  11.357 -0.1523  0.2579 -0.5733
  433MPD2    H2 6460   1.799   2.114  10.975  1.2953  0.9553  0.3365
  433MPD2    H3 6461   1.949   2.250  11.124  0.8203 -0.8511 -0.9212
  433MPD2     N 6462   1.724   2.135  11.490 -0.6388  0.4258 -0.9084
  433MPD2    H5 6463   1.648   2.077  11.524  0.0302  0.0846 -0.0009
  433MPD2    N1 6464   1.575   1.988  11.054 -0.0668 -0.4797 -0.0423
  433MPD2    H7 6465   1.585   2.010  10.956  0.2493 -1.0691 -0.1389
  434TMC3    C1 6466   1.387   1.847  11.007 -0.0868  0.1720  0.6944
  434TMC3    C2 6467   1.279   1.782  11.062 -0.8125 -0.3571  0.2614
  434TMC3    C3 6468   1.207   1.688  10.990  0.3319 -0.3769 -0.0806
  434TMC3    C4 6469   1.412   1.836  10.870  0.4577  0.4676  0.2107
  434TMC3    C5 6470   1.332   1.745  10.802  0.2047 -0.3916 -0.2095
  434TMC3    C6 6471   1.229   1.675  10.852 -0.5124  0.0536  0.8935
  434TMC3     C 6472   1.482   1.899  11.105 -0.0651 -0.1763  0.1436
  434TMC3     O 6473   1.459   1.862  11.219  0.1991 -0.2922 -0.1851
  434TMC3     H 6474   1.238   1.805  11.160  1.2948 -0.6727  1.2381
  434TMC3    H1 6475   1.506   1.867  10.824  0.6015 -0.9721 -0.4599
  434TMC3    H2 6476   1.204   1.585  10.796  2.1671 -0.4766  0.5419
  434TMC3    C7 6477   1.372   1.727  10.670 -0.2271  0.4213  0.1101
  434TMC3    C8 6478   1.203   1.569  11.076 -0.0173 -0.0035  0.0641
  434TMC3    O1 6479   1.485   1.737  10.633 -0.0570 -0.0232  0.8030
  434TMC3    O2 6480   1.126   1.581  11.170 -0.5267  0.1625  0.4687
  435MPD2     C 6481   3.462   2.330  15.501  0.1021  0.8733  0.4295
  435MPD2    C1 6482   3.450   2.325  15.637 -0.2705 -0.1221 -0.5292
  435MPD2    C2 6483   3.552   2.256  15.705  0.7578  0.5255 -0.6201
  435MPD2    C3 6484   3.655   2.195  15.637 -0.3508 -0.4592 -0.7682
  435MPD2    C4 6485   3.670   2.200  15.498 -0.2917  0.0559 -0.1336
  435MPD2    C5 6486   3.569   2.266  15.435  0.5492  0.1804 -0.3313
  435MPD2     H 6487   3.552   2.260  15.814  0.0309  0.4013 -0.6113
  435MPD2    H1 6488   3.752   2.155  15.444 -0.4372  1.0628 -1.1903
  435MPD2    H2 6489   3.389   2.381  15.440  2.8044  3.0888 -0.8966
  435MPD2    H3 6490   3.567   2.280  15.328  0.0683 -0.4843 -0.4042
  435MPD2     N 6491   3.745   2.129  15.718 -0.1743 -0.3197 -0.2173
  435MPD2    H5 6492   3.715   2.120  15.815  1.3562  0.2096  0.3108
  435MPD2    N1 6493   3.342   2.377  15.705 -0.2363 -0.9487  0.3021
  435MPD2    H7 6494   3.340   2.362  15.806  0.1470  0.1431  0.4720
  436TMC3    C1 6495   3.065   2.493  15.973  0.2314  0.1030  0.5164
  436TMC3    C2 6496   3.170   2.492  15.883  0.0861 -0.6428 -0.3074
  436TMC3    C3 6497   3.141   2.497  15.752  0.6908 -0.8393  0.8568
  436TMC3    C4 6498   2.928   2.496  15.931  0.0877  0.0211 -0.3239
  436TMC3    C5 6499   2.903   2.495  15.793 -0.1236 -1.0497 -0.0630
  436TMC3    C6 6500   3.008   2.501  15.701  0.1669  0.1885  0.6107
  436TMC3     C 6501   3.096   2.503  16.119  0.4713  0.5270 -0.8139
  436TMC3     O 6502   3.215   2.503  16.151 -0.0851  0.0026 -0.7805
  436TMC3     H 6503   3.268   2.483  15.929 -0.4905 -2.8491  0.4631
  436TMC3    H1 6504   2.842   2.488  15.997 -0.3447 -0.9350 -1.0008
  436TMC3    H2 6505   2.994   2.488  15.595  0.5464  0.8870  0.4723
  436TMC3    C7 6506   2.781   2.439  15.752  0.1859  0.1705  0.3860
  436TMC3    C8 6507   3.243   2.463  15.655 -1.3000 -0.3685 -0.3897
  436TMC3    O1 6508   2.786   2.355  15.661  0.3863 -0.0579 -0.0013
  436TMC3    O2 6509   3.220   2.492  15.537 -0.0405  0.2312  0.1626
  437TMC3    C1 6510   2.052   4.243  12.166 -0.1977 -0.3376  0.8363
  437TMC3    C2 6511   2.029   4.204  12.297 -0.8884 -0.7568 -0.5109
  437TMC3    C3 6512   2.092   4.270  12.396 -0.0614 -0.4840  0.5532
  437TMC3    C4 6513   2.143   4.338  12.128  0.4540  0.1442 -0.2082
  437TMC3    C5 6514   2.194   4.406  12.237 -0.1942 -0.1787 -0.0352
  437TMC3    C6 6515   2.176   4.374  12.368  0.3438  0.5897  0.2653
  437TMC3     C 6516   1.978   4.170  12.065  0.4304  0.2361 -0.6983
  437TMC3     O 6517   1.914   4.074  12.109  0.1930  0.0351 -0.8272
  437TMC3     H 6518   1.950   4.140  12.334 -0.8135 -0.8913 -0.5868
  437TMC3    H1 6519   2.182   4.337  12.027 -0.4569 -1.6086 -0.5451
  437TMC3    H2 6520   2.235   4.414  12.450 -1.3674  0.2992  1.6515
  437TMC3    C7 6521   2.298   4.495  12.192 -0.2733  0.7953  0.3611
  437TMC3    C8 6522   2.037   4.248  12.530  0.9595 -0.6341  0.2054
  437TMC3    O1 6523   2.342   4.465  12.084  0.1240  0.0096 -0.5208
  437TMC3    O2 6524   1.993   4.136  12.552  0.5787 -0.3343  0.0638
  438MPD2     C 6525   4.671   4.552  16.386  0.1778 -0.0601 -0.6383
  438MPD2    C1 6526   4.657   4.512  16.520  0.1950 -0.6526  0.3083
  438MPD2    C2 6527   4.605   4.600  16.611 -0.2334  0.0915  0.1418
  438MPD2    C3 6528   4.571   0.003  16.572  0.0273 -0.3904 -0.7857
  438MPD2    C4 6529   4.566   0.035  16.441 -0.2421 -0.6850  0.6151
  438MPD2    C5 6530   4.622   4.673  16.351 -0.6747 -0.5114  0.8009
  438MPD2     H 6531   4.603   4.574  16.716  0.1812 -2.6728 -0.5167
  438MPD2    H1 6532   4.527   0.131  16.407 -0.5468 -1.2828 -0.6914
  438MPD2    H2 6533   4.717   4.486  16.314  2.2254  0.8622 -0.1787
  438MPD2    H3 6534   4.641   4.697  16.247  2.7808 -1.9851  1.0848
  438MPD2     N 6535   4.518   0.080  16.677 -0.1780 -0.4946 -0.0942
  438MPD2    H5 6536   4.527   0.055  16.775  1.3851  2.5200  0.5521
  438MPD2    N1 6537   4.686   4.379  16.561  0.5244  0.2547 -0.0354
  438MPD2    H7 6538   4.658   4.347  16.653 -0.8031  0.8034 -0.2475
  439TMC3    C1 6539   0.054   4.168  16.565  0.2512 -0.3945 -0.5630
  439TMC3    C2 6540   0.089   4.049  16.505 -0.0676 -0.1648 -0.0783
  439TMC3    C3 6541   0.154   3.946  16.573 -0.4722  0.3107 -0.0440
  439TMC3    C4 6542   0.097   4.189  16.689 -0.6939 -0.0258  0.0239
  439TMC3    C5 6543   0.162   4.087  16.756  0.0660  0.0874 -0.1651
  439TMC3    C6 6544   0.178   3.964  16.704  0.4713 -0.3094  0.7212
  439TMC3     C 6545   0.038   4.290  16.486 -0.6584  0.2539  0.1059
  439TMC3     O 6546   0.091   4.296  16.376 -0.2935 -0.3517 -0.4204
  439TMC3     H 6547   0.071   4.050  16.399 -1.2668  2.1357  0.1570
  439TMC3    H1 6548   0.113   4.287  16.733 -1.6540 -0.3801  1.1955
  439TMC3    H2 6549   0.233   3.893  16.764  2.3365  0.9036  0.4671
  439TMC3    C7 6550   0.271   4.143  16.834 -0.2358  0.3368  0.1243
  439TMC3    C8 6551   0.279   3.917  16.496 -0.8615  0.1972 -0.0996
  439TMC3    O1 6552   0.253   4.242  16.903  0.0386  0.8710 -0.3979
  439TMC3    O2 6553   0.384   3.912  16.563 -0.1894  0.3587  0.4214
  440MPD2     C 6554   3.498   0.982  15.096  0.0773  0.0759  0.4334
  440MPD2    C1 6555   3.557   1.009  14.971  0.3094  0.0435 -0.1831
  440MPD2    C2 6556   3.693   0.979  14.958  0.3295 -0.2255  0.3512
  440MPD2    C3 6557   3.764   0.929  15.064 -0.0675 -0.0518 -0.7411
  440MPD2    C4 6558   3.711   0.915  15.188 -0.3147 -0.0288  0.4617
  440MPD2    C5 6559   3.571   0.934  15.202  0.2227 -0.2898 -0.2733
  440MPD2     H 6560   3.743   0.993  14.862 -0.4320  1.5742  0.2149
  440MPD2    H1 6561   3.765   0.880  15.275 -0.8458 -0.7317  0.5136
  440MPD2    H2 6562   3.390   0.992  15.104 -0.1216 -2.0740  0.4876
  440MPD2    H3 6563   3.519   0.932  15.297 -2.2932 -0.7154 -1.6608
  440MPD2     N 6564   3.899   0.895  15.058 -0.4506  0.2746 -0.7534
  440MPD2    H5 6565   3.941   0.875  15.148 -1.3109 -0.0744 -0.4403
  440MPD2    N1 6566   3.491   1.053  14.855  0.3604  0.8450 -0.0196
  440MPD2    H7 6567   3.556   1.083  14.783  1.1446 -2.8494 -0.8378
  441TMC3    C1 6568   4.118   0.917  14.996  0.3390  0.8152 -0.0344
  441TMC3    C2 6569   4.137   1.032  15.067 -0.2915 -0.3386 -0.0350
  441TMC3    C3 6570   4.232   1.028  15.164  0.3638  0.4907  0.3563
  441TMC3    C4 6571   4.175   0.799  15.035  0.6911  0.6818 -0.1882
  441TMC3    C5 6572   4.264   0.804  15.137  0.1267  0.3233 -0.2639
  441TMC3    C6 6573   4.302   0.919  15.197  0.1618 -0.1127 -0.2109
  441TMC3     C 6574   3.982   0.904  14.955 -0.1073  0.3853 -0.1504
  441TMC3     O 6575   3.955   0.934  14.840 -0.3201  0.3654 -0.3537
  441TMC3     H 6576   4.081   1.119  15.036 -0.3099 -0.7910 -1.2623
  441TMC3    H1 6577   4.136   0.711  14.985  1.1643  0.5992 -0.4059
  441TMC3    H2 6578   4.353   0.922  15.292  3.8904 -2.7058 -2.1146
  441TMC3    C7 6579   4.270   0.682  15.223 -0.3770  0.4356 -0.3093
  441TMC3    C8 6580   4.209   1.122  15.275 -0.4383  0.1268  0.4119
  441TMC3    O1 6581   4.174   0.611  15.212 -1.0104  0.4687 -1.1533
  441TMC3    O2 6582   4.296   1.119  15.364  0.1242  0.3182  0.0459
  442MPD2     C 6583   1.767   1.314  16.755  0.0344 -0.0166 -0.0095
  442MPD2    C1 6584   1.669   1.223  16.789  0.4747  0.1192 -0.0241
  442MPD2    C2 6585   1.678   1.097  16.728  0.1367  1.1729 -0.2693
  442MPD2    C3 6586   1.774   1.067  16.631  0.2595 -0.0258 -0.5076
  442MPD2    C4 6587   1.866   1.162  16.600  0.0875 -0.1643 -0.7216
  442MPD2    C5 6588   1.867   1.278  16.662 -0.4389  0.1473 -0.1480
  442MPD2     H 6589   1.605   1.021  16.753  2.4982 -0.7422  0.8025
  442MPD2    H1 6590   1.947   1.135  16.533 -0.2036 -1.3857 -0.5890
  442MPD2    H2 6591   1.769   1.416  16.791 -0.4107  0.3563 -1.0358
  442MPD2    H3 6592   1.935   1.353  16.624 -0.2725  0.2599  0.3788
  442MPD2     N 6593   1.786   0.950  16.565  0.3741  0.0056 -0.0212
  442MPD2    H5 6594   1.852   0.941  16.489 -0.0289 -0.9758 -0.2464
  442MPD2    N1 6595   1.558   1.252  16.868 -0.4956  0.1143 -0.2700
  442MPD2    H7 6596   1.504   1.170  16.893  1.0106 -0.8104 -0.0528
  443TMC3    C1 6597   1.392   1.371  16.983  0.4164  0.5345 -0.1074
  443TMC3    C2 6598   1.297   1.454  16.939 -0.1210 -0.4678 -0.1341
  443TMC3    C3 6599   1.164   1.423  16.970  0.7045 -0.1178  0.3879
  443TMC3    C4 6600   1.364   1.254  17.055 -0.0475  0.0643 -0.4018
  443TMC3    C5 6601   1.233   1.230  17.082 -0.3947 -0.0342  0.5736
  443TMC3    C6 6602   1.129   1.306  17.043  0.3832 -0.6203  0.5614
  443TMC3     C 6603   1.509   1.379  16.899  0.0371  0.2871  0.0027
  443TMC3     O 6604   1.547   1.487  16.856 -0.2884 -0.3870  0.2741
  443TMC3     H 6605   1.324   1.539  16.878 -2.0363  2.4446  3.1014
  443TMC3    H1 6606   1.442   1.189  17.094 -0.8913 -0.8199 -0.1988
  443TMC3    H2 6607   1.024   1.289  17.065 -0.1837 -2.0827 -3.3705
  443TMC3    C7 6608   1.207   1.121  17.172  0.2829  0.3058 -0.7186
  443TMC3    C8 6609   1.057   1.498  16.915  0.4707  0.1468 -0.8347
  443TMC3    O1 6610   1.279   1.023  17.178 -0.2393  0.1281 -0.7279
  443TMC3    O2 6611   0.966   1.518  16.990  0.2567  0.9006  0.1425
  444MPD2     C 6612   1.920   0.673  17.365 -0.3300 -0.1241 -0.3096
  444MPD2    C1 6613   1.821   0.624  17.283  0.4418  0.1517 -0.5541
  444MPD2    C2 6614   1.857   0.538  17.176  0.2805  0.6388 -0.3004
  444MPD2    C3 6615   1.994   0.518  17.144 -0.5501 -0.2708 -0.1013
  444MPD2    C4 6616   2.087   0.581  17.220  0.1015 -0.5315 -0.3771
  444MPD2    C5 6617   2.051   0.648  17.335 -0.5674 -0.7558 -0.7203
  444MPD2     H 6618   1.779   0.495  17.116  1.3861  2.4195 -2.9895
  444MPD2    H1 6619   2.193   0.574  17.201 -0.0557 -1.3949 -0.9436
  444MPD2    H2 6620   1.912   0.722  17.462  1.5793 -1.0611  0.3128
  444MPD2    H3 6621   2.129   0.694  17.394 -1.7429 -0.3239  0.5130
  444MPD2     N 6622   2.022   0.429  17.036 -0.1212 -0.3289  0.0694
  444MPD2    H5 6623   1.943   0.395  16.983 -0.9705 -0.4272  1.4027
  444MPD2    N1 6624   1.688   0.651  17.318 -0.4001  0.3289 -0.0687
  444MPD2    H7 6625   1.610   0.604  17.272 -1.7633  0.9345  1.6133
  445TMC3    C1 6626   2.148   0.328  16.869 -0.1121  0.8213 -0.7345
  445TMC3    C2 6627   2.055   0.228  16.854 -0.1673 -0.0783  0.3607
  445TMC3    C3 6628   2.074   0.134  16.758  0.5502  0.0077 -0.2304
  445TMC3    C4 6629   2.263   0.342  16.795  0.6127 -0.4181 -0.5055
  445TMC3    C5 6630   2.277   0.247  16.696 -0.9338 -0.5863 -0.1762
  445TMC3    C6 6631   2.184   0.149  16.677 -0.3249  0.3772 -0.3848
  445TMC3     C 6632   2.150   0.405  16.990 -0.0625 -0.2959  0.1035
  445TMC3     O 6633   2.256   0.453  17.033 -0.8039  0.1261 -0.3428
  445TMC3     H 6634   1.970   0.222  16.922  0.0335  0.9198  0.7018
  445TMC3    H1 6635   2.342   0.414  16.817 -0.1151  0.4887 -0.8745
  445TMC3    H2 6636   2.215   0.073  16.605  3.1634 -0.9933  2.5349
  445TMC3    C7 6637   2.410   0.203  16.674  0.0812 -0.0490  0.2052
  445TMC3    C8 6638   2.032   0.007  16.805  0.1395 -0.0316  0.0933
  445TMC3    O1 6639   2.476   0.257  16.586 -0.6386  0.2219  0.0367
  445TMC3    O2 6640   2.032   0.002  16.927 -0.1656  0.1978  0.2017
  446MPD2     C 6641   1.238   1.648  11.673 -0.2733 -0.2878  0.3327
  446MPD2    C1 6642   1.227   1.636  11.541 -0.4396  0.5334  0.9492
  446MPD2    C2 6643   1.333   1.674  11.460  0.1131  0.1710 -0.7137
  446MPD2    C3 6644   1.457   1.693  11.514 -0.3620 -0.0355 -0.6733
  446MPD2    C4 6645   1.465   1.698  11.653 -0.1196 -0.2998 -0.0214
  446MPD2    C5 6646   1.352   1.685  11.733 -0.0169 -0.8583 -0.5949
  446MPD2     H 6647   1.331   1.662  11.352  0.9449 -0.7939 -0.6195
  446MPD2    H1 6648   1.562   1.708  11.700  0.5305  0.4282 -1.5551
  446MPD2    H2 6649   1.154   1.630  11.739 -1.3281 -0.2648 -0.9819
  446MPD2    H3 6650   1.357   1.691  11.841  0.8284  3.7181 -0.8890
  446MPD2     N 6651   1.559   1.704  11.421  0.1092 -0.8229 -0.0198
  446MPD2    H5 6652   1.529   1.704  11.324 -1.1486 -2.3205  0.3694
  446MPD2    N1 6653   1.110   1.585  11.477 -0.1792 -0.1721  0.4600
  446MPD2    H7 6654   1.101   1.601  11.377 -2.2473  1.6230  0.9391
  447TMC3    C1 6655   1.777   1.709  11.339 -0.2510  0.1669  0.6090
  447TMC3    C2 6656   1.729   1.679  11.213 -0.0984  0.3553  0.3822
  447TMC3    C3 6657   1.821   1.671  11.113  0.0060 -0.5123  0.1209
  447TMC3    C4 6658   1.918   1.720  11.361 -0.9631  0.0118  0.1240
  447TMC3    C5 6659   2.002   1.714  11.253  1.1377  0.5345 -0.0344
  447TMC3    C6 6660   1.954   1.690  11.130  1.0904  0.3054 -0.0612
  447TMC3     C 6661   1.690   1.698  11.455 -0.3860 -0.4481 -0.3581
  447TMC3     O 6662   1.739   1.701  11.567 -0.5269 -0.1362  0.0442
  447TMC3     H 6663   1.623   1.669  11.191  0.1753  0.6035 -1.0245
  447TMC3    H1 6664   1.952   1.731  11.463 -0.9194  1.9552 -0.1141
  447TMC3    H2 6665   2.019   1.677  11.045 -0.8961 -1.9298 -1.2479
  447TMC3    C7 6666   2.136   1.674  11.278 -0.1526  0.1157  0.1223
  447TMC3    C8 6667   1.773   1.632  10.984  0.1170  0.3726 -0.7312
  447TMC3    O1 6668   2.188   1.619  11.184 -0.0720 -0.0175  0.3589
  447TMC3    O2 6669   1.660   1.673  10.948 -0.8059  0.2079  0.4614
  448TMC3    C1 6670   4.379   1.439  16.541  1.4025  0.8898 -0.5365
  448TMC3    C2 6671   4.390   1.312  16.504  0.2817 -0.1322  0.1874
  448TMC3    C3 6672   4.408   1.222  16.606  0.0234  0.1754 -0.2679
  448TMC3    C4 6673   4.384   1.484  16.670 -0.1041 -0.3987 -0.4524
  448TMC3    C5 6674   4.402   1.391  16.772  0.4196  0.3410 -0.5155
  448TMC3    C6 6675   4.425   1.260  16.735  0.6386 -0.4491  0.2225
  448TMC3     C 6676   4.409   1.542  16.435  0.2084  0.1594 -0.1747
  448TMC3     O 6677   4.373   1.509  16.321 -0.3255  0.1981  0.0965
  448TMC3     H 6678   4.385   1.287  16.398  0.4979 -0.8590  0.3505
  448TMC3    H1 6679   4.365   1.581  16.714  0.0691  0.4670 -2.3239
  448TMC3    H2 6680   4.444   1.183  16.809 -1.5519 -0.5679  0.6588
  448TMC3    C7 6681   4.507   1.439  16.865  0.5346  0.3162  0.1977
  448TMC3    C8 6682   4.480   1.095  16.578 -0.1344 -0.3306 -0.7724
  448TMC3    O1 6683   4.559   1.551  16.840 -0.4103 -0.2195 -0.0678
  448TMC3    O2 6684   4.528   1.033  16.675  0.0341  0.0326 -0.4169
  449MPD2     C 6685   1.579   0.724  14.565  0.7718  0.2150 -0.5397
  449MPD2    C1 6686   1.473   0.665  14.499 -0.0181  0.0006  0.2704
  449MPD2    C2 6687   1.436   0.538  14.539  0.0516  0.1364  1.6332
  449MPD2    C3 6688   1.501   0.468  14.640 -0.3331  0.3219  0.2597
  449MPD2    C4 6689   1.602   0.531  14.698 -0.0289 -0.2413 -0.2709
  449MPD2    C5 6690   1.644   0.659  14.664  0.2126 -0.3035  0.1328
  449MPD2     H 6691   1.354   0.496  14.484  0.6390 -0.6429  1.3600
  449MPD2    H1 6692   1.665   0.481  14.770 -0.0574  0.1683  0.0387
  449MPD2    H2 6693   1.626   0.815  14.531  0.5451  1.2503  1.9148
  449MPD2    H3 6694   1.725   0.703  14.721 -1.8563  1.7731  1.4940
  449MPD2     N 6695   1.480   0.328  14.646 -0.4532  0.5219 -0.4112
  449MPD2    H5 6696   1.411   0.287  14.584 -1.0810  0.7560  0.1357
  449MPD2    N1 6697   1.405   0.722  14.393  1.0925  0.1482  0.5339
  449MPD2    H7 6698   1.338   0.657  14.353 -0.1091  0.2752  2.3262
  450TMC3    C1 6699   1.361   0.856  14.201 -0.5676  0.3392  0.1043
  450TMC3    C2 6700   1.451   0.883  14.097  0.4108  0.1309  0.9921
  450TMC3    C3 6701   1.437   0.807  13.982  0.0380  0.3449 -0.1018
  450TMC3    C4 6702   1.257   0.768  14.188 -0.3595  0.3061  0.2667
  450TMC3    C5 6703   1.247   0.696  14.071 -0.1028 -0.0134 -0.1802
  450TMC3    C6 6704   1.339   0.715  13.969  0.0778  0.1232 -0.3833
  450TMC3     C 6705   1.434   0.840  14.324 -0.0220  0.3039  0.6199
  450TMC3     O 6706   1.520   0.918  14.354 -0.3296 -0.1046 -0.1588
  450TMC3     H 6707   1.522   0.965  14.095 -0.0460  0.4962 -0.2693
  450TMC3    H1 6708   1.191   0.748  14.272 -1.7213 -0.6617 -1.0278
  450TMC3    H2 6709   1.321   0.658  13.879 -0.6541 -0.7097  0.2887
  450TMC3    C7 6710   1.208   0.560  14.103  0.7830  1.3804 -0.1603
  450TMC3    C8 6711   1.522   0.848  13.872 -0.2808  0.5395  0.2117
  450TMC3    O1 6712   1.207   0.540  14.225  0.4127 -0.4022 -0.2453
  450TMC3    O2 6713   1.569   0.963  13.878  0.0836  0.1749 -0.6760
  451MPD2     C 6714   2.509   2.916   1.297 -0.1632 -0.5490  0.6418
  451MPD2    C1 6715   2.587   3.026   1.327 -0.0733 -0.0543  0.1159
  451MPD2    C2 6716   2.708   2.990   1.378 -0.3447 -0.3996  0.2629
  451MPD2    C3 6717   2.756   2.859   1.381  0.0001 -0.0674  0.3009
  451MPD2    C4 6718   2.668   2.756   1.350 -0.8111 -0.0337 -0.2978
  451MPD2    C5 6719   2.543   2.787   1.304 -0.1719 -0.0825 -0.1559
  451MPD2     H 6720   2.773   3.077   1.387 -0.4563 -0.0930 -1.9514
  451MPD2    H1 6721   2.694   2.652   1.362 -4.0421 -0.9135 -0.9515
  451MPD2    H2 6722   2.407   2.940   1.270  0.2397  0.7500  0.2908
  451MPD2    H3 6723   2.468   2.713   1.280 -0.0599 -0.7027  1.3783
  451MPD2     N 6724   2.891   2.833   1.414  0.2802  0.3907 -0.0705
  451MPD2    H5 6725   2.930   2.744   1.386  0.0497  0.0315  0.7426
  451MPD2    N1 6726   2.535   3.155   1.308 -0.1809  0.0262  0.5243
  451MPD2    H7 6727   2.436   3.175   1.293 -0.9664 -2.6431  2.2285
  452TMC3    C1 6728   3.113   2.888   1.484 -0.8761 -0.1856  0.4262
  452TMC3    C2 6729   3.184   2.994   1.544 -0.1097 -0.1892 -0.4421
  452TMC3    C3 6730   3.291   3.045   1.481 -0.4505  0.9971 -1.4849
  452TMC3    C4 6731   3.166   2.823   1.378  0.0149  0.1187 -0.9183
  452TMC3    C5 6732   3.277   2.870   1.315  0.3514  0.0720  0.0291
  452TMC3    C6 6733   3.338   2.982   1.365 -0.1550  0.2736  0.2593
  452TMC3     C 6734   2.963   2.917   1.490 -1.4163 -0.0262  0.6105
  452TMC3     O 6735   2.927   3.017   1.550 -0.1686 -0.1971 -0.3402
  452TMC3     H 6736   3.137   3.046   1.627  0.4127 -1.1009  0.4246
  452TMC3    H1 6737   3.126   2.726   1.351  4.4778 -2.2988  1.1065
  452TMC3    H2 6738   3.419   3.016   1.302 -1.6333  0.9337 -1.2898
  452TMC3    C7 6739   3.301   2.820   1.183  0.6401 -0.2810  0.6369
  452TMC3    C8 6740   3.396   3.099   1.573 -0.6998 -0.3221  0.1081
  452TMC3    O1 6741   3.302   2.901   1.089 -0.2675 -0.5379  1.2636
  452TMC3    O2 6742   3.360   3.082   1.690 -0.3799 -0.5822 -0.2770
  453TMC3    C1 6743   3.728   1.079  11.798  0.1629  0.3485 -0.0075
  453TMC3    C2 6744   3.614   1.036  11.862  0.4056 -0.5065 -0.7551
  453TMC3    C3 6745   3.514   0.974  11.791  0.2206 -0.4242  0.0116
  453TMC3    C4 6746   3.739   1.060  11.665  0.1573  0.6927  0.4270
  453TMC3    C5 6747   3.644   1.001  11.590 -1.1222  0.2376  0.5960
  453TMC3    C6 6748   3.530   0.951  11.654 -0.2094 -0.8130 -0.6854
  453TMC3     C 6749   3.850   1.117  11.877  0.0820  1.2036  0.0180
  453TMC3     O 6750   3.954   1.077  11.823 -0.5986 -0.0755  0.9758
  453TMC3     H 6751   3.612   1.033  11.971  4.0277  1.4574 -0.6361
  453TMC3    H1 6752   3.828   1.106  11.623  0.5147  0.2269  0.6717
  453TMC3    H2 6753   3.455   0.897  11.598 -0.0388 -0.6377 -1.0806
  453TMC3    C7 6754   3.658   0.963  11.447 -0.0923 -0.3513  0.1252
  453TMC3    C8 6755   3.418   0.898  11.855  0.5247 -0.3026 -0.1730
  453TMC3    O1 6756   3.558   0.920  11.394  0.0751 -0.0977 -0.2268
  453TMC3    O2 6757   3.323   0.866  11.783  0.2865  0.3359  0.6454
  454MPD2     C 6758   2.814   0.408  16.560  0.7494  0.4504  0.3909
  454MPD2    C1 6759   2.724   0.444  16.465  0.2585 -0.2547 -0.4634
  454MPD2    C2 6760   2.632   0.537  16.488  0.1216 -0.4577 -0.3813
  454MPD2    C3 6761   2.606   0.583  16.618 -0.5612 -1.1821  0.2252
  454MPD2    C4 6762   2.693   0.539  16.715 -0.3680  0.5682 -0.0698
  454MPD2    C5 6763   2.797   0.456  16.688  0.7065 -0.4313 -0.1778
  454MPD2     H 6764   2.559   0.557  16.411 -0.8419  1.4747  1.0374
  454MPD2    H1 6765   2.681   0.577  16.816  1.2718  0.9344 -0.0180
  454MPD2    H2 6766   2.897   0.341  16.545  0.8273  0.4460  0.8483
  454MPD2    H3 6767   2.866   0.424  16.766  0.9515  1.6476  0.4505
  454MPD2     N 6768   2.487   0.651  16.659  0.4950 -0.3799  0.1532
  454MPD2    H5 6769   2.467   0.661  16.758  0.3935 -0.0302  0.0974
  454MPD2    N1 6770   2.714   0.390  16.338  0.0159  0.3105 -0.2586
  454MPD2    H7 6771   2.649   0.439  16.279 -0.9220 -1.6844 -0.8661
  455TMC3    C1 6772   2.259   0.696  16.622  0.8642 -0.3895 -0.2948
  455TMC3    C2 6773   2.238   0.738  16.753 -0.2777 -0.6595 -0.3437
  455TMC3    C3 6774   2.109   0.731  16.798  0.0428 -0.3933 -0.0730
  455TMC3    C4 6775   2.173   0.615  16.561 -0.2352 -0.2925  0.4971
  455TMC3    C5 6776   2.051   0.581  16.622 -0.0783 -0.5174  0.6768
  455TMC3    C6 6777   2.013   0.651  16.739  0.1433 -0.2644  0.1276
  455TMC3     C 6778   2.396   0.681  16.566 -0.5010  0.1998 -0.4323
  455TMC3     O 6779   2.409   0.708  16.445 -0.2988  0.3890  0.0075
  455TMC3     H 6780   2.313   0.790  16.811  1.6071 -1.2542 -2.2255
  455TMC3    H1 6781   2.195   0.577  16.462  0.6074  2.9828 -0.5861
  455TMC3    H2 6782   1.916   0.632  16.784  0.1087 -0.9527 -0.2288
  455TMC3    C7 6783   1.973   0.466  16.569 -0.5752 -1.0530 -0.5165
  455TMC3    C8 6784   2.068   0.816  16.908 -0.1219  0.0738  0.3839
  455TMC3    O1 6785   1.874   0.439  16.633 -0.6533  0.5259 -0.0530
  455TMC3    O2 6786   2.154   0.895  16.948  0.4697 -0.5226  0.2028
  456MPD2     C 6787   0.354   4.634  16.263  0.4824  0.2741 -0.2446
  456MPD2    C1 6788   0.384   0.039  16.230 -0.2432  0.0541 -0.1682
  456MPD2    C2 6789   0.325   0.146  16.295  0.1540  0.3525  0.0739
  456MPD2    C3 6790   0.257   0.122  16.412  0.4760  0.1476 -0.2324
  456MPD2    C4 6791   0.217   4.720  16.441 -0.4314  0.0745  0.1417
  456MPD2    C5 6792   0.269   4.614  16.370 -0.1176 -0.4176 -0.0671
  456MPD2     H 6793   0.351   0.249  16.278  1.0652  0.0207 -0.5262
  456MPD2    H1 6794   0.140   4.694  16.513 -0.1165  0.2224  0.5316
  456MPD2    H2 6795   0.403   4.548  16.217  0.0229 -0.7128  1.1158
  456MPD2    H3 6796   0.234   4.514  16.390 -0.5972 -0.2616 -0.1298
  456MPD2     N 6797   0.215   0.225  16.499  0.5042  0.4331  0.1773
  456MPD2    H5 6798   0.228   0.321  16.466  1.0458  0.2406 -0.1793
  456MPD2    N1 6799   0.474   0.059  16.120 -0.2754 -0.5309  0.3612
  456MPD2    H7 6800   0.511   4.702  16.072  2.7566  0.4106  1.0496
  457TMC3    C1 6801   0.144   0.334  16.701  0.7426 -0.4540  0.6316
  457TMC3    C2 6802   0.102   0.440  16.624 -0.1380  0.5651  0.7077
  457TMC3    C3 6803   0.147   0.559  16.677 -0.2069  0.1961 -0.2221
  457TMC3    C4 6804   0.211   0.343  16.822 -0.8363 -0.9094  0.8283
  457TMC3    C5 6805   0.250   0.470  16.862 -0.5095  0.1014 -0.1927
  457TMC3    C6 6806   0.217   0.579  16.795  0.3480  0.0304 -0.0694
  457TMC3     C 6807   0.187   0.215  16.635  0.2013  0.1449  0.0422
  457TMC3     O 6808   0.189   0.117  16.707  0.1615 -0.0283 -0.4591
  457TMC3     H 6809   0.047   0.436  16.530  0.7848  2.5858  0.0886
  457TMC3    H1 6810   0.242   0.256  16.879 -1.6293 -1.3263  0.6181
  457TMC3    H2 6811   0.242   0.678  16.833 -1.3115  0.1316  0.8005
  457TMC3    C7 6812   0.333   0.474  16.980  0.1353 -0.0405 -0.8129
  457TMC3    C8 6813   0.085   0.674  16.617  0.1839 -0.0426 -0.2882
  457TMC3    O1 6814   0.332   0.379  17.056  0.0956  0.0360  0.8209
  457TMC3    O2 6815   0.075   0.769  16.694  0.4186 -0.2735  0.3583
  458MPD2     C 6816   2.755   4.713  12.292 -0.3543  0.7716 -0.3736
  458MPD2    C1 6817   2.675   0.002  12.409  0.6106 -0.0566  0.2611
  458MPD2    C2 6818   2.544   4.673  12.409 -0.1804 -0.1029 -0.1896
  458MPD2    C3 6819   2.498   4.604  12.296 -0.0712  0.4396  0.0680
  458MPD2    C4 6820   2.585   4.582  12.191  0.3890 -0.9681  0.4371
  458MPD2    C5 6821   2.705   4.639  12.188 -0.1789 -0.5031  0.0170
  458MPD2     H 6822   2.471   4.692  12.487 -0.7388 -0.2199 -0.6900
  458MPD2    H1 6823   2.550   4.538  12.099 -0.7054  0.3421  0.2413
  458MPD2    H2 6824   2.842   0.052  12.283  0.0247  0.3224  0.1650
  458MPD2    H3 6825   2.766   4.635  12.098  0.4248 -1.0257  0.4514
  458MPD2     N 6826   2.359   4.564  12.298 -0.4984  0.6013  0.5155
  458MPD2    H5 6827   2.313   4.572  12.387 -1.0497  0.3049  0.2595
  458MPD2    N1 6828   2.730   0.081  12.517  0.4358 -0.0139 -0.2124
  458MPD2    H7 6829   2.805   0.145  12.495  1.5383 -2.5073 -3.6968
  459TMC3    C1 6830   2.755   0.160  12.734 -0.8533  0.0465 -0.0209
  459TMC3    C2 6831   2.819   0.264  12.689 -1.2836  0.8700 -0.0285
  459TMC3    C3 6832   2.910   0.334  12.762 -0.3145  0.2364  0.2155
  459TMC3    C4 6833   2.771   0.113  12.860 -0.4139  0.1457  0.0215
  459TMC3    C5 6834   2.863   0.176  12.939  0.1788  0.2193  0.3633
  459TMC3    C6 6835   2.937   0.286  12.885  0.0914 -0.0440  0.3790
  459TMC3     C 6836   2.684   0.064  12.644 -0.0037 -0.2050 -0.1343
  459TMC3     O 6837   2.614   4.700  12.688  0.1307  0.1522  0.5111
  459TMC3     H 6838   2.792   0.301  12.591  0.4433  1.5813 -0.2312
  459TMC3    H1 6839   2.712   0.026  12.888 -0.6267  0.1180 -0.5270
  459TMC3    H2 6840   3.015   0.330  12.945  1.5281 -2.5055  0.3144
  459TMC3    C7 6841   2.903   0.117  13.066 -0.8887  0.1527 -0.4158
  459TMC3    C8 6842   2.974   0.462  12.725 -0.2914  0.1755 -0.2906
  459TMC3    O1 6843   2.852   0.011  13.081 -0.3881  0.8777 -0.3874
  459TMC3    O2 6844   3.040   0.527  12.802  0.2959  0.1688  0.1831
  460MPD2     C 6845   1.942   1.408  10.744 -0.0928  0.2411 -0.4858
  460MPD2    C1 6846   1.860   1.516  10.777 -0.5098  0.3554 -0.5747
  460MPD2    C2 6847   1.775   1.568  10.688  0.0887  0.3844  0.2185
  460MPD2    C3 6848   1.775   1.535  10.555  0.0276  0.3160  0.0080
  460MPD2    C4 6849   1.848   1.425  10.518 -0.0659  0.1448  0.4218
  460MPD2    C5 6850   1.928   1.357  10.611 -0.5498 -0.2130 -0.6277
  460MPD2     H 6851   1.710   1.649  10.719 -1.1010 -0.6927  0.5509
  460MPD2    H1 6852   1.860   1.391  10.415 -1.1100  0.9615  0.0366
  460MPD2    H2 6853   2.011   1.351  10.804 -2.9973 -1.1474  1.4911
  460MPD2    H3 6854   1.977   1.266  10.576 -0.3812 -0.3392 -0.0602
  460MPD2     N 6855   1.710   1.624  10.460  0.4332  0.2608 -0.3815
  460MPD2    H5 6856   1.664   1.706  10.498 -1.0391  0.5571 -2.8026
  460MPD2    N1 6857   1.858   1.546  10.914  0.8191 -0.0877 -0.2275
  460MPD2    H7 6858   1.935   1.501  10.963  0.6693  1.3320  1.2905
  461TMC3    C1 6859   1.638   1.720  10.250  0.2286  0.1017 -0.1658
  461TMC3    C2 6860   1.627   1.705  10.111 -0.1797 -0.3810 -0.1834
  461TMC3    C3 6861   1.548   1.779  10.031  0.3111 -0.9248 -0.6941
  461TMC3    C4 6862   1.536   1.790  10.314 -0.4863 -0.1837 -0.2476
  461TMC3    C5 6863   1.459   1.868  10.228 -0.1310 -0.2825 -0.1229
  461TMC3    C6 6864   1.463   1.863  10.092  0.1027  0.3492 -0.4112
  461TMC3     C 6865   1.710   1.616  10.320  0.1027 -0.4932 -0.3032
  461TMC3     O 6866   1.741   1.521  10.248  0.1977 -0.6327 -0.5979
  461TMC3     H 6867   1.693   1.633  10.065  0.9761  0.9720 -0.6484
  461TMC3    H1 6868   1.524   1.794  10.421  0.7220  3.6244 -0.2346
  461TMC3    H2 6869   1.396   1.924  10.032  0.1821  1.5926  0.7798
  461TMC3    C7 6870   1.388   1.986  10.283 -0.3101  0.0252 -0.4589
  461TMC3    C8 6871   1.616   1.810   9.904 -0.5394  0.1924 -0.2107
  461TMC3    O1 6872   1.327   2.049  10.198 -0.1075 -0.0873  0.0748
  461TMC3    O2 6873   1.726   1.761   9.888  0.1324  0.1160  0.5576
  462TMC3    C1 6874   1.603   3.848   0.342  0.2123  0.2882 -0.0268
  462TMC3    C2 6875   1.734   3.846   0.312 -0.3239  0.0336  0.0633
  462TMC3    C3 6876   1.797   3.725   0.313 -0.0521 -0.5607  0.2605
  462TMC3    C4 6877   1.536   3.738   0.391 -0.4221  0.2653  0.3573
  462TMC3    C5 6878   1.608   3.622   0.400 -0.0830 -0.3610 -0.0719
  462TMC3    C6 6879   1.737   3.608   0.349  0.0152  0.1502 -0.1018
  462TMC3     C 6880   1.527   3.969   0.356  0.2767 -0.7352 -0.0206
  462TMC3     O 6881   1.423   3.963   0.427  0.0355 -0.3237 -0.4117
  462TMC3     H 6882   1.790   3.939   0.307  0.2363 -0.2421  1.1369
  462TMC3    H1 6883   1.428   3.739   0.400 -0.4721  2.1604 -0.3180
  462TMC3    H2 6884   1.789   3.517   0.376 -3.4823 -1.7434  0.1946
  462TMC3    C7 6885   1.541   3.494   0.442 -0.6925  0.3236  0.2959
  462TMC3    C8 6886   1.922   3.731   0.246  0.3281 -0.3991  0.3293
  462TMC3    O1 6887   1.616   3.395   0.446 -0.7019 -0.3499  0.6468
  462TMC3    O2 6888   1.997   3.831   0.237  0.4751  0.0167 -0.2275
  463MPD2     C 6889   3.273   2.114   2.529 -0.3938 -0.5409  0.6721
  463MPD2    C1 6890   3.253   1.985   2.484  0.0192  0.0426 -0.5483
  463MPD2    C2 6891   3.354   1.894   2.465 -0.1200 -0.0517 -0.1319
  463MPD2    C3 6892   3.488   1.935   2.500  0.0642  0.1605 -0.7621
  463MPD2    C4 6893   3.505   2.062   2.552 -0.3206  0.7003  0.5610
  463MPD2    C5 6894   3.407   2.155   2.547 -0.1540  0.0545  0.0088
  463MPD2     H 6895   3.340   1.803   2.408  0.6336 -1.0594  1.2976
  463MPD2    H1 6896   3.602   2.101   2.582 -0.8181  0.2720  2.7921
  463MPD2    H2 6897   3.198   2.189   2.546 -0.0510  0.0977 -0.5731
  463MPD2    H3 6898   3.430   2.258   2.573 -2.8454  0.7432 -0.2542
  463MPD2     N 6899   3.599   1.859   2.475  0.1287 -0.0182  0.1414
  463MPD2    H5 6900   3.693   1.892   2.496  0.6166 -0.0669 -1.9877
  463MPD2    N1 6901   3.124   1.929   2.464  0.2158 -0.3297  0.2323
  463MPD2    H7 6902   3.121   1.834   2.426  2.7166 -0.8905  1.3824
  464TMC3    C1 6903   2.902   1.907   2.420  0.7983 -0.2949  0.2972
  464TMC3    C2 6904   2.805   1.979   2.350  0.2711  0.3410 -0.1955
  464TMC3    C3 6905   2.762   1.906   2.240  0.2493 -0.4047  0.3376
  464TMC3    C4 6906   2.937   1.774   2.401 -0.6809  0.7525  0.0331
  464TMC3    C5 6907   2.870   1.702   2.307  0.0202  0.1783 -0.2474
  464TMC3    C6 6908   2.796   1.779   2.213 -0.0992  0.4726  0.1844
  464TMC3     C 6909   3.001   1.991   2.475  0.1772  0.1942  0.7053
  464TMC3     O 6910   2.969   2.107   2.485 -0.4768  0.3767  0.7860
  464TMC3     H 6911   2.772   2.078   2.380 -1.5899  0.0577 -1.2858
  464TMC3    H1 6912   3.010   1.715   2.455 -0.8104 -0.6884 -1.3650
  464TMC3    H2 6913   2.765   1.733   2.120  0.6700  0.1414  0.0886
  464TMC3    C7 6914   2.909   1.562   2.275  0.0214 -0.0562 -0.2799
  464TMC3    C8 6915   2.723   1.977   2.115 -0.8782 -0.0939  0.0192
  464TMC3    O1 6916   3.001   1.506   2.329 -0.0673  0.6458 -0.0723
  464TMC3    O2 6917   2.711   1.911   2.011  0.4941  0.3816 -0.1054
  465MPD2     C 6918   4.305   0.679  16.505 -0.6434  0.3312  0.2679
  465MPD2    C1 6919   4.197   0.615  16.556  0.7575 -0.4800  0.4208
  465MPD2    C2 6920   4.094   0.572  16.479  0.6052 -0.0599 -0.3873
  465MPD2    C3 6921   4.099   0.587  16.341  0.2822 -0.2945 -0.1773
  465MPD2    C4 6922   4.212   0.650  16.285 -0.8982  0.3780  0.4928
  465MPD2    C5 6923   4.309   0.701  16.371  0.6038 -0.7633 -0.3077
  465MPD2     H 6924   4.017   0.512  16.527  0.8623  0.2820  0.4588
  465MPD2    H1 6925   4.224   0.671  16.180  1.6031 -1.6878  0.3492
  465MPD2    H2 6926   4.388   0.716  16.563 -0.0910 -2.8874  1.5247
  465MPD2    H3 6927   4.397   0.752  16.331  0.6221 -1.2770 -0.9244
  465MPD2     N 6928   3.984   0.549  16.264  0.4412  0.0977  0.3002
  465MPD2    H5 6929   3.907   0.507  16.315 -0.2692 -0.4777 -1.2519
  465MPD2    N1 6930   4.183   0.589  16.699 -0.4072 -0.5795  0.4700
  465MPD2    H7 6931   4.092   0.557  16.731 -0.3921  0.3987  1.5213
  466TMC3    C1 6932   3.625   0.459  16.197 -0.3832  0.4166  0.1713
  466TMC3    C2 6933   3.558   0.569  16.140 -0.0093  0.2055  0.1081
  466TMC3    C3 6934   3.625   0.655  16.063  0.6236  0.6627 -0.4981
  466TMC3    C4 6935   3.761   0.449  16.186 -0.2396  0.0799  0.0212
  466TMC3    C5 6936   3.824   0.536  16.101  0.5287  0.7022 -0.1577
  466TMC3    C6 6937   3.761   0.636  16.039 -0.3633 -0.1705  0.2015
  466TMC3     C 6938   3.548   0.364  16.276  0.0139  0.1918 -0.1825
  466TMC3     O 6939   3.447   0.416  16.327  0.2671 -0.1619 -0.0523
  466TMC3     H 6940   3.450   0.577  16.137  0.1283  1.5693 -1.8797
  466TMC3    H1 6941   3.816   0.371  16.237  1.3699  0.4271 -1.1830
  466TMC3    H2 6942   3.824   0.710  15.991  0.6777  0.6087  2.7448
  466TMC3    C7 6943   3.962   0.564  16.134 -0.3652 -0.7587  0.1751
  466TMC3    C8 6944   3.559   0.776  16.035 -0.2192  0.4038 -0.7125
  466TMC3    O1 6945   4.032   0.622  16.049 -0.1539 -0.2436  0.5313
  466TMC3    O2 6946   3.606   0.842  15.945 -0.4527 -0.1644 -0.3254
  467TMC3    C1 6947   0.013   4.315  13.773  0.1969  0.2168  0.3043
  467TMC3    C2 6948   4.655   4.421  13.733 -0.1927 -0.1497  0.2525
  467TMC3    C3 6949   4.521   4.400  13.725 -0.1702 -0.8539 -0.0553
  467TMC3    C4 6950   4.687   4.185  13.797 -0.2468  0.0470 -0.1803
  467TMC3    C5 6951   4.551   4.171  13.791  0.2497 -0.5194  0.6401
  467TMC3    C6 6952   4.470   4.273  13.755 -0.3310 -0.3043  0.2619
  467TMC3     C 6953   0.154   4.326  13.750  0.3605 -0.3785  0.6706
  467TMC3     O 6954   0.237   4.268  13.818  0.1354  0.5682 -0.3355
  467TMC3     H 6955   4.691   4.523  13.721  0.2867 -0.2259  1.0122
  467TMC3    H1 6956   0.040   4.114  13.822  1.1513  1.6162 -0.0625
  467TMC3    H2 6957   4.363   4.259  13.763 -0.1162 -2.2109 -0.3409
  467TMC3    C7 6958   4.501   4.033  13.782 -0.9929  0.2269  0.4015
  467TMC3    C8 6959   4.445   4.484  13.626  0.6913  0.3508  0.0074
  467TMC3    O1 6960   4.550   3.959  13.702  0.0010 -0.7063 -0.2287
  467TMC3    O2 6961   4.491   4.592  13.595  0.2481 -0.0396 -0.1158
  468MPD2     C 6962   3.636   1.856  10.480 -0.0202 -0.2153  0.2983
  468MPD2    C1 6963   3.656   1.818  10.611 -0.7200  0.6093  0.4873
  468MPD2    C2 6964   3.633   1.682  10.641 -0.1811 -0.0349  0.2359
  468MPD2    C3 6965   3.606   1.585  10.545  0.2201 -0.9446 -0.4513
  468MPD2    C4 6966   3.610   1.622  10.412 -0.0698 -0.3407 -0.3645
  468MPD2    C5 6967   3.610   1.757  10.383 -0.5275 -0.5035 -0.4801
  468MPD2     H 6968   3.647   1.647  10.742  0.4927  1.1816  0.5635
  468MPD2    H1 6969   3.593   1.557  10.327 -0.6901 -1.9333  1.0020
  468MPD2    H2 6970   3.639   1.956  10.439 -0.5580 -0.6369 -0.7723
  468MPD2    H3 6971   3.598   1.776  10.277  0.2078  0.7664 -0.3436
  468MPD2     N 6972   3.580   1.444  10.576  0.7829  0.0408  0.0521
  468MPD2    H5 6973   3.568   1.376  10.502  2.9986 -1.2087  0.8291
  468MPD2    N1 6974   3.674   1.904  10.717  0.5013 -0.2513 -0.1750
  468MPD2    H7 6975   3.664   1.871  10.812 -1.3933 -2.4082 -1.1182
  469TMC3    C1 6976   3.751   2.109  10.824  0.7574  0.1524 -0.2658
  469TMC3    C2 6977   3.735   2.040  10.945 -0.0359 -0.3163  0.6164
  469TMC3    C3 6978   3.824   2.061  11.046  0.1187 -0.2811  0.0270
  469TMC3    C4 6979   3.847   2.206  10.811 -0.1592  0.2254  0.3034
  469TMC3    C5 6980   3.922   2.233  10.923  0.5973 -0.3677  0.5940
  469TMC3    C6 6981   3.920   2.155  11.035  0.4752  0.5768 -0.5816
  469TMC3     C 6982   3.719   2.035  10.693  0.1978 -0.5299 -0.0776
  469TMC3     O 6983   3.738   2.089  10.582  0.4423  0.3277  0.3899
  469TMC3     H 6984   3.659   1.963  10.947 -1.1925  0.8247  1.1276
  469TMC3    H1 6985   3.876   2.255  10.719  2.7554  0.6448  1.4629
  469TMC3    H2 6986   3.998   2.160  11.111 -1.7608  1.6714  1.6172
  469TMC3    C7 6987   4.038   2.318  10.906  0.5566 -0.4374  0.3246
  469TMC3    C8 6988   3.833   1.959  11.151 -0.1967 -0.0804 -0.1770
  469TMC3    O1 6989   4.064   2.344  10.792  0.0167 -0.5471  0.2530
  469TMC3    O2 6990   3.791   1.853  11.108  0.1356  0.0641 -0.3040
  470TMC3    C1 6991   1.248   2.903   0.937  0.6976 -0.1245  0.6357
  470TMC3    C2 6992   1.271   3.030   0.920 -0.5727 -0.1958 -0.5185
  470TMC3    C3 6993   1.333   3.101   1.024  0.4957 -0.6539 -1.0059
  470TMC3    C4 6994   1.273   2.829   1.048  0.1690 -0.0029 -0.6871
  470TMC3    C5 6995   1.319   2.902   1.147 -0.8354 -0.2084 -0.1100
  470TMC3    C6 6996   1.346   3.037   1.143 -0.0305  0.1508  0.9612
  470TMC3     C 6997   1.167   2.842   0.828  0.3032  0.2880  0.3376
  470TMC3     O 6998   1.124   2.918   0.746 -0.2065  0.1391 -0.2194
  470TMC3     H 6999   1.244   3.082   0.829  1.0066  1.3518 -0.0963
  470TMC3    H1 7000   1.280   2.721   1.059  0.6561  0.1434  0.4077
  470TMC3    H2 7001   1.377   3.090   1.233 -1.1736  2.3880  0.0276
  470TMC3    C7 7002   1.369   2.831   1.262  0.0425 -0.3889 -0.5981
  470TMC3    C8 7003   1.328   3.246   1.021 -0.1821  0.0124 -0.2486
  470TMC3    O1 7004   1.470   2.881   1.315 -0.1082  0.3672  0.4419
  470TMC3    O2 7005   1.418   3.303   1.084  0.1457  0.2441  0.1179
  471MPD2     C 7006   1.593   4.610  16.880  0.1460  0.5316  0.1206
  471MPD2    C1 7007   1.563   4.475  16.894 -0.4551 -0.3826  0.5792
  471MPD2    C2 7008   1.598   4.410  17.016 -0.2951 -0.0968  0.6313
  471MPD2    C3 7009   1.673   4.475  17.113  0.2626 -0.3261 -0.2880
  471MPD2    C4 7010   1.720   4.603  17.082  1.0195 -0.8765 -0.3563
  471MPD2    C5 7011   1.684   4.667  16.969  0.9703  0.3963  0.0790
  471MPD2     H 7012   1.551   4.315  17.040  2.6728 -1.9247 -0.7780
  471MPD2    H1 7013   1.774   4.658  17.157 -0.7228  1.3769 -0.7674
  471MPD2    H2 7014   1.560   4.669  16.796 -0.0842 -0.0106 -0.1682
  471MPD2    H3 7015   1.710   0.048  16.967 -1.7706  1.0468 -1.7843
  471MPD2     N 7016   1.717   4.411  17.234  0.1659 -0.0279  0.3728
  471MPD2    H5 7017   1.794   4.446  17.289  0.0706 -2.0914  1.8310
  471MPD2    N1 7018   1.481   4.398  16.801 -0.0725 -0.8336 -0.6391
  471MPD2    H7 7019   1.460   4.301  16.818  1.0601 -0.8383  0.7500
  472TMC3    C1 7020   1.464   4.317  16.582 -0.3092 -0.3839 -0.6048
  472TMC3    C2 7021   1.423   4.343  16.456  0.5164 -0.5048  0.2034
  472TMC3    C3 7022   1.446   4.241  16.369 -0.4251  0.9362  0.6041
  472TMC3    C4 7023   1.529   4.197  16.626 -0.1983  0.1007 -0.0090
  472TMC3    C5 7024   1.545   4.096  16.534 -0.3689 -0.7626 -1.1213
  472TMC3    C6 7025   1.511   4.117  16.402  0.0178  0.1010  0.0517
  472TMC3     C 7026   1.464   4.432  16.669 -0.0991 -0.2229 -0.1834
  472TMC3     O 7027   1.469   4.543  16.621  0.2925  0.0588 -0.5119
  472TMC3     H 7028   1.376   4.436  16.427 -1.1784 -0.9607  1.5404
  472TMC3    H1 7029   1.572   4.181  16.724 -1.1619 -0.0518  0.3930
  472TMC3    H2 7030   1.527   4.055  16.314  1.3102  0.3445  0.1170
  472TMC3    C7 7031   1.561   3.959  16.592 -0.3941 -0.6516  0.0354
  472TMC3    C8 7032   1.331   4.212  16.296  0.2171 -0.1463 -0.2508
  472TMC3    O1 7033   1.554   3.947  16.713  0.0736  0.1165  0.5020
  472TMC3    O2 7034   1.283   4.294  16.221 -0.8606  0.1940  0.3219
  473MPD2     C 7035   1.980   1.778  13.602 -0.8911  0.3468 -0.3852
  473MPD2    C1 7036   1.890   1.877  13.636  0.3873 -0.7244 -0.2191
  473MPD2    C2 7037   1.905   1.941  13.752 -0.1014  0.0758 -0.0080
  473MPD2    C3 7038   2.005   1.905  13.842  0.0484  0.4746 -0.5369
  473MPD2    C4 7039   2.088   1.802  13.807 -0.4851 -0.0055  0.0122
  473MPD2    C5 7040   2.075   1.737  13.689 -0.4533 -0.3298  0.3977
  473MPD2     H 7041   1.836   2.017  13.787 -1.9381 -2.1828  1.3269
  473MPD2    H1 7042   2.166   1.768  13.874 -1.3396 -1.6994  0.1476
  473MPD2    H2 7043   1.981   1.715  13.513 -1.5097  0.9564 -0.8252
  473MPD2    H3 7044   2.131   1.645  13.674  0.0609 -0.2475  1.8563
  473MPD2     N 7045   2.023   1.954  13.974  0.1504  0.0256 -0.0423
  473MPD2    H5 7046   2.107   1.923  14.022  0.2148  0.0759 -0.1220
  473MPD2    N1 7047   1.781   1.901  13.550 -0.1208  0.1635 -0.4369
  473MPD2    H7 7048   1.717   1.972  13.585  2.0106  1.6736  0.3617
  474TMC3    C1 7049   1.968   2.070  14.183  0.8385 -0.2257 -0.0100
  474TMC3    C2 7050   1.860   2.099  14.264  0.2808 -0.4027 -0.5446
  474TMC3    C3 7051   1.886   2.129  14.394 -0.0479 -0.0523 -0.3718
  474TMC3    C4 7052   2.099   2.100  14.225 -0.1586  0.1394 -0.4481
  474TMC3    C5 7053   2.116   2.137  14.356  0.6975 -0.5320  0.1202
  474TMC3    C6 7054   2.012   2.149  14.444  0.2090  0.6794 -0.0769
  474TMC3     C 7055   1.932   2.036  14.048 -0.2930  1.2481 -1.1431
  474TMC3     O 7056   1.817   2.049  14.015 -0.5988 -0.1329 -0.2403
  474TMC3     H 7057   1.759   2.088  14.226 -0.8579  0.6932  2.2211
  474TMC3    H1 7058   2.184   2.085  14.161 -0.0348  0.9220 -0.4686
  474TMC3    H2 7059   2.023   2.157  14.551 -1.5324  1.6802  0.0227
  474TMC3    C7 7060   2.249   2.160  14.401 -0.4800  0.1699  0.2533
  474TMC3    C8 7061   1.783   2.212  14.454 -0.3662 -0.8181 -0.2568
  474TMC3    O1 7062   2.340   2.150  14.318 -0.4299  0.0125 -0.0858
  474TMC3    O2 7063   1.663   2.191  14.438  0.1419  0.6860  0.1582
  475MPD2     C 7064   0.599   0.666  10.464  0.4485 -0.0850  0.4013
  475MPD2    C1 7065   0.582   0.571  10.365 -0.2990  0.3666  0.0588
  475MPD2    C2 7066   0.490   0.470  10.391  1.0906 -0.5022 -0.4159
  475MPD2    C3 7067   0.407   0.469  10.501 -0.0904  0.7256 -0.2816
  475MPD2    C4 7068   0.422   0.572  10.594 -0.2734  0.5648  0.0513
  475MPD2    C5 7069   0.516   0.672  10.577  0.7325 -1.0431 -0.2023
  475MPD2     H 7070   0.468   0.392  10.319  1.6983 -0.4400 -0.6719
  475MPD2    H1 7071   0.361   0.580  10.683  0.8330  2.7774  0.6297
  475MPD2    H2 7072   0.678   0.740  10.461  1.2387 -0.9963 -1.5079
  475MPD2    H3 7073   0.535   0.751  10.648 -1.9500 -2.0791  1.6690
  475MPD2     N 7074   0.316   0.362  10.522 -0.6412 -0.1740  0.4369
  475MPD2    H5 7075   0.328   0.279  10.464  0.4201 -0.2507  0.7593
  475MPD2    N1 7076   0.668   0.562  10.256 -0.7148  0.6461  0.0970
  475MPD2    H7 7077   0.709   0.653  10.237  1.9571 -0.5185  0.3162
  476TMC3    C1 7078   0.772   0.491  10.052  0.6885  0.3252  0.3458
  476TMC3    C2 7079   0.750   0.422   9.938 -0.2537 -0.2728 -0.1006
  476TMC3    C3 7080   0.847   0.424   9.840  0.2988 -0.0791  0.7607
  476TMC3    C4 7081   0.885   0.569  10.070 -0.1103 -0.4156 -0.8608
  476TMC3    C5 7082   0.974   0.576   9.967 -0.1741  0.1049  0.3614
  476TMC3    C6 7083   0.953   0.505   9.849 -0.5008  0.6021 -0.1454
  476TMC3     C 7084   0.676   0.463  10.165  0.2191 -1.1867 -0.0032
  476TMC3     O 7085   0.617   0.355  10.161 -0.0546  0.4003  0.0928
  476TMC3     H 7086   0.663   0.359   9.923 -0.8892  0.0742  2.1339
  476TMC3    H1 7087   0.897   0.612  10.169  3.1484  1.8758 -2.2534
  476TMC3    H2 7088   1.027   0.522   9.771 -0.0226  0.5391  0.2916
  476TMC3    C7 7089   1.106   0.628   9.978 -0.2910  0.0179  0.8083
  476TMC3    C8 7090   0.837   0.343   9.722 -0.3464 -0.3071 -0.3407
  476TMC3    O1 7091   1.197   0.578   9.913  0.7483 -0.2808 -0.0946
  476TMC3    O2 7092   0.907   0.383   9.629 -0.1731 -0.1373  0.2501
  477MPD2     C 7093   1.835   0.975  11.624 -0.4277 -0.0964  0.7189
  477MPD2    C1 7094   1.773   0.912  11.736  0.3244  0.2744  0.7298
  477MPD2    C2 7095   1.861   0.851  11.823  0.0878 -0.0764  0.7534
  477MPD2    C3 7096   1.995   0.837  11.790 -0.4460 -0.3112  0.0512
  477MPD2    C4 7097   2.041   0.884  11.672 -0.5738 -0.4721  0.5690
  477MPD2    C5 7098   1.971   0.965  11.590  0.0355  0.5667 -0.2719
  477MPD2     H 7099   1.820   0.811  11.915  2.8764 -4.0382  0.2920
  477MPD2    H1 7100   2.140   0.870  11.632 -1.3024 -0.6925 -1.1607
  477MPD2    H2 7101   1.784   1.054  11.570  0.2160  0.8509  1.4767
  477MPD2    H3 7102   2.006   1.007  11.496  2.8740 -0.3546  0.3815
  477MPD2     N 7103   2.071   0.772  11.882  0.9712 -0.1613 -0.6914
  477MPD2    H5 7104   2.013   0.730  11.954  2.4690  0.7968  1.0864
  477MPD2    N1 7105   1.636   0.941  11.759  0.8179 -0.1987 -0.0689
  477MPD2    H7 7106   1.594   0.999  11.688 -1.1447 -0.9561  0.4719
  478TMC3    C1 7107   1.427   0.966  11.855  0.1734  0.6094  0.4518
  478TMC3    C2 7108   1.409   1.068  11.951  0.2488 -0.0856 -0.1698
  478TMC3    C3 7109   1.368   1.191  11.910  0.1325 -0.3266 -0.5605
  478TMC3    C4 7110   1.397   0.994  11.726  0.2903 -0.5157  0.4257
  478TMC3    C5 7111   1.348   1.114  11.687 -0.0924  0.3622  0.4841
  478TMC3    C6 7112   1.339   1.219  11.778  0.0408  0.2003  0.0673
  478TMC3     C 7113   1.561   0.908  11.866 -0.5330 -0.4535 -0.1473
  478TMC3     O 7114   1.583   0.843  11.967 -0.0244  0.5762 -0.1513
  478TMC3     H 7115   1.444   1.066  12.053  0.4546 -0.4289 -0.2476
  478TMC3    H1 7116   1.399   0.907  11.661  2.5623  0.0481 -0.2505
  478TMC3    H2 7117   1.319   1.319  11.740 -2.0158  0.2517  1.2976
  478TMC3    C7 7118   1.409   1.144  11.554  0.0975  0.3630  0.7167
  478TMC3    C8 7119   1.378   1.298  12.012 -0.4576  0.2443  0.3937
  478TMC3    O1 7120   1.510   1.074  11.538  0.0716 -0.0182 -0.1377
  478TMC3    O2 7121   1.335   1.268  12.120 -0.7512  0.0506  0.0761
  479MPD2     C 7122   1.638   3.716  14.989  0.4407 -0.1114 -0.9564
  479MPD2    C1 7123   1.575   3.722  15.113 -0.2547  0.0254 -0.5187
  479MPD2    C2 7124   1.633   3.806  15.212 -0.7863  0.6616 -0.1732
  479MPD2    C3 7125   1.740   3.888  15.179  0.6452 -0.6014 -0.5804
  479MPD2    C4 7126   1.788   3.890  15.056 -0.3501 -0.9572  0.4257
  479MPD2    C5 7127   1.752   3.795  14.960  0.1144 -0.0130  0.2768
  479MPD2     H 7128   1.589   3.835  15.307 -0.7919  0.6301 -0.1661
  479MPD2    H1 7129   1.873   3.954  15.038 -1.5587  0.2357 -0.9759
  479MPD2    H2 7130   1.594   3.665  14.904  1.7499  0.0943 -1.7629
  479MPD2    H3 7131   1.804   3.788  14.865  0.6415 -2.0880  0.7250
  479MPD2     N 7132   1.790   3.982  15.263  0.5988 -0.2199  0.2241
  479MPD2    H5 7133   1.855   4.050  15.226  0.9584 -0.2750  0.7455
  479MPD2    N1 7134   1.445   3.672  15.117  0.5747 -0.4351  0.3676
  479MPD2    H7 7135   1.406   3.618  15.040  0.4292 -1.5998  1.2504
  480TMC3    C1 7136   1.648   4.168  15.627 -0.0492  0.5118 -0.1512
  480TMC3    C2 7137   1.599   4.263  15.544 -0.1908 -0.1001  0.4783
  480TMC3    C3 7138   1.661   4.284  15.424 -0.0387 -0.2203 -0.0731
  480TMC3    C4 7139   1.756   4.089  15.594 -0.0152 -0.4545  0.2633
  480TMC3    C5 7140   1.808   4.102  15.465 -0.8950  0.5373 -0.2310
  480TMC3    C6 7141   1.772   4.209  15.384 -0.6150 -0.2913 -0.0205
  480TMC3     C 7142   1.553   4.079  15.690 -0.1938  0.3948 -0.1741
  480TMC3     O 7143   1.593   4.023  15.790 -0.0905  0.0903 -0.4872
  480TMC3     H 7144   1.511   4.313  15.583 -1.1032 -0.6422 -0.8699
  480TMC3    H1 7145   1.792   4.008  15.657  2.3127  0.9671  0.7759
  480TMC3    H2 7146   1.835   4.220  15.297 -1.2034 -1.9528 -0.6555
  480TMC3    C7 7147   1.772   3.980  15.397  0.1276 -0.7999  1.0603
  480TMC3    C8 7148   1.603   4.369  15.327  0.2537 -0.2565  0.0627
  480TMC3    O1 7149   1.758   3.888  15.474  0.4500  0.1854 -0.3364
  480TMC3    O2 7150   1.572   4.482  15.361  0.5265 -0.1535 -0.4177
  481MPD2     C 7151   3.129   3.442  14.206  0.4369  0.1193  0.0707
  481MPD2    C1 7152   3.021   3.369  14.232 -0.9644  0.2874 -0.0162
  481MPD2    C2 7153   3.018   3.277  14.338  0.6976 -0.1267 -0.0141
  481MPD2    C3 7154   3.128   3.274  14.426 -1.0029  1.5946  0.2958
  481MPD2    C4 7155   3.239   3.351  14.393  0.5719 -0.2921  0.2829
  481MPD2    C5 7156   3.239   3.438  14.290 -1.0856 -0.0587  0.8988
  481MPD2     H 7157   2.925   3.224  14.358  2.6857 -3.5633  0.2623
  481MPD2    H1 7158   3.324   3.354  14.461  1.5003 -0.4531 -0.8693
  481MPD2    H2 7159   3.128   3.505  14.118 -0.7200  0.2787  0.1920
  481MPD2    H3 7160   3.324   3.504  14.277 -0.4164 -1.0523  0.1588
  481MPD2     N 7161   3.132   3.196  14.545  0.9873  0.3440  0.0905
  481MPD2    H5 7162   3.215   3.219  14.599  0.6086  1.4663  0.1931
  481MPD2    N1 7163   2.918   3.383  14.137 -0.6059 -0.4216 -0.0764
  481MPD2    H7 7164   2.946   3.442  14.059 -2.2388  0.4973  0.0260
  482TMC3    C1 7165   2.701   3.380  14.038  0.0240 -0.4805  0.4603
  482TMC3    C2 7166   2.606   3.300  13.990  0.2076 -0.2232 -0.2393
  482TMC3    C3 7167   2.496   3.345  13.924  0.5624  0.0242  0.2395
  482TMC3    C4 7168   2.695   3.521  14.017 -0.2367 -0.1263 -0.0262
  482TMC3    C5 7169   2.582   3.561  13.946 -0.3545  0.2228 -0.1978
  482TMC3    C6 7170   2.483   3.474  13.898  0.7594  0.1689  0.6375
  482TMC3     C 7171   2.791   3.333  14.149 -0.2209 -0.4352 -0.0598
  482TMC3     O 7172   2.751   3.250  14.226 -0.2818 -0.1848 -0.7236
  482TMC3     H 7173   2.606   3.198  14.028 -1.6585  0.5574  1.8465
  482TMC3    H1 7174   2.771   3.591  14.049 -0.0763 -1.0617  1.5917
  482TMC3    H2 7175   2.389   3.514  13.860  0.7235 -0.0617  0.4830
  482TMC3    C7 7176   2.571   3.701  13.902  0.1604 -0.0021 -0.2456
  482TMC3    C8 7177   2.422   3.243  13.843 -0.0214 -0.3433 -0.3722
  482TMC3    O1 7178   2.617   3.788  13.978  0.7754 -0.2618  0.4844
  482TMC3    O2 7179   2.438   3.122  13.863  0.0676 -0.6016 -0.4765
  483TMC3    C1 7180   1.033   2.071   1.238  0.2557  0.0723 -0.6872
  483TMC3    C2 7181   1.111   2.180   1.237 -0.0534  0.4763  0.2416
  483TMC3    C3 7182   1.218   2.174   1.329 -0.4620  0.0811 -0.2469
  483TMC3    C4 7183   1.054   1.958   1.317 -0.9395 -0.2223 -0.4416
  483TMC3    C5 7184   1.159   1.960   1.403  0.2922  0.3147  0.1118
  483TMC3    C6 7185   1.243   2.069   1.414  0.0626 -0.0297 -1.1689
  483TMC3     C 7186   0.915   2.077   1.157 -0.3885 -0.0373 -0.7429
  483TMC3     O 7187   0.866   2.186   1.140  0.2245  0.0144  0.4491
  483TMC3     H 7188   1.090   2.267   1.176  0.7875  0.1122 -0.5657
  483TMC3    H1 7189   0.993   1.869   1.309 -0.5744 -0.3792 -1.4044
  483TMC3    H2 7190   1.322   2.072   1.489  0.7084 -1.2904 -1.7886
  483TMC3    C7 7191   1.208   1.838   1.462 -0.0820  1.3752 -0.7545
  483TMC3    C8 7192   1.332   2.258   1.303 -0.1127  0.4689  0.4680
  483TMC3    O1 7193   1.284   1.858   1.561  0.6119 -0.3495  0.4098
  483TMC3    O2 7194   1.428   2.257   1.379  0.4497  0.0508  0.2273
  484MPD2     C 7195   2.943   0.653  12.410 -0.1396 -0.2285 -0.8442
  484MPD2    C1 7196   3.013   0.599  12.514  0.6631  0.1116  0.5759
  484MPD2    C2 7197   3.151   0.620  12.530 -0.7564  0.4817  0.5719
  484MPD2    C3 7198   3.218   0.706  12.451  0.7633 -0.0654 -0.0146
  484MPD2    C4 7199   3.151   0.748  12.344  0.2450 -0.1318 -0.1679
  484MPD2    C5 7200   3.022   0.727  12.325  0.9302  0.0880  0.6169
  484MPD2     H 7201   3.206   0.577  12.613  1.7066  0.8984 -0.8557
  484MPD2    H1 7202   3.208   0.799  12.267 -2.1241  0.7258 -1.3465
  484MPD2    H2 7203   2.844   0.629  12.373 -0.6064 -0.0075  0.2648
  484MPD2    H3 7204   2.970   0.768  12.239  0.8766  3.4048  2.2497
  484MPD2     N 7205   3.358   0.743  12.457  0.2448  0.4340 -0.0705
  484MPD2    H5 7206   3.391   0.805  12.383  2.5279 -0.7321 -0.0306
  484MPD2    N1 7207   2.945   0.502  12.595 -0.3177 -0.2868  0.5285
  484MPD2    H7 7208   2.874   0.449  12.545  1.1101  0.3261 -2.2124
  485TMC3    C1 7209   3.575   0.742  12.508 -0.0230  0.1315 -0.1575
  485TMC3    C2 7210   3.680   0.704  12.586  0.7182 -0.1840  0.6807
  485TMC3    C3 7211   3.807   0.747  12.552  0.1386 -0.3751 -0.9952
  485TMC3    C4 7212   3.605   0.808  12.395 -0.0678  0.4124  0.3188
  485TMC3    C5 7213   3.724   0.865  12.366  0.2729 -0.6005  0.6168
  485TMC3    C6 7214   3.828   0.836  12.453  0.0173  0.0700 -0.0417
  485TMC3     C 7215   3.449   0.682  12.534 -0.1727  0.1001  1.0567
  485TMC3     O 7216   3.438   0.591  12.619 -0.6666 -0.6582 -0.3590
  485TMC3     H 7217   3.665   0.641  12.673  0.6560 -0.5169  0.4276
  485TMC3    H1 7218   3.533   0.808  12.314  1.4715  0.1186 -1.0453
  485TMC3    H2 7219   3.922   0.886  12.437  0.1266  0.1259  0.7763
  485TMC3    C7 7220   3.760   0.850  12.224 -0.5263 -0.0665 -0.7364
  485TMC3    C8 7221   3.912   0.649  12.547 -0.4291 -0.3951 -0.4014
  485TMC3    O1 7222   3.682   0.884  12.134 -0.6852 -0.9301 -0.3362
  485TMC3    O2 7223   4.009   0.686  12.485  0.3812 -0.5176  0.6172
  486MPD2     C 7224   0.589   3.799  13.150 -0.0457 -0.0493  0.0112
  486MPD2    C1 7225   0.636   3.830  13.026  0.9640 -0.4135  1.0381
  486MPD2    C2 7226   0.594   3.944  12.965 -0.2986 -0.6021 -0.2340
  486MPD2    C3 7227   0.499   4.025  13.025  0.0670  0.2558  0.6187
  486MPD2    C4 7228   0.457   4.000  13.157 -0.3174  0.6478  0.2307
  486MPD2    C5 7229   0.512   3.889  13.214  0.1251  0.0536  0.2965
  486MPD2     H 7230   0.626   3.971  12.865  2.0226  0.6951  0.8907
  486MPD2    H1 7231   0.390   4.066  13.210 -1.2847 -0.7930  0.8068
  486MPD2    H2 7232   0.602   3.705  13.203 -0.6595  0.0675  0.3692
  486MPD2    H3 7233   0.471   3.867  13.312  0.5357  0.5048  0.5678
  486MPD2     N 7234   0.457   4.137  12.951  0.1914  0.2984  0.2804
  486MPD2    H5 7235   0.498   4.145  12.859  0.1291 -0.3887  0.1869
  486MPD2    N1 7236   0.726   3.734  12.967 -0.3539  0.3809  0.1271
  486MPD2    H7 7237   0.755   3.653  13.021 -1.8636 -1.6525 -2.1130
  487TMC3    C1 7238   0.820   3.614  12.788 -0.4549 -0.1023 -0.0252
  487TMC3    C2 7239   0.729   3.533  12.720  0.8456 -0.0783 -1.9103
  487TMC3    C3 7240   0.723   3.403  12.748 -0.1305  0.7330  0.9831
  487TMC3    C4 7241   0.917   3.557  12.862  0.1305 -1.3156  0.1938
  487TMC3    C5 7242   0.915   3.417  12.880 -0.5099 -0.5493  0.0647
  487TMC3    C6 7243   0.821   3.333  12.821  0.7314  0.3490 -0.3563
  487TMC3     C 7244   0.751   3.735  12.830  0.4591 -0.1690 -0.8404
  487TMC3     O 7245   0.695   3.790  12.741 -0.1956  0.1206  0.5487
  487TMC3     H 7246   0.641   3.578  12.676 -0.0861  0.2733  0.2992
  487TMC3    H1 7247   0.978   3.623  12.922 -2.7241  1.7623 -0.3192
  487TMC3    H2 7248   0.802   3.239  12.872  0.0012  1.5421  1.5595
  487TMC3    C7 7249   1.026   3.361  12.951  0.0608  0.1869 -0.8564
  487TMC3    C8 7250   0.590   3.364  12.774 -0.1198  0.6555  0.1340
  487TMC3    O1 7251   1.078   3.439  13.027 -0.0228  0.2248 -0.1200
  487TMC3    O2 7252   0.507   3.445  12.819  0.0210 -0.3212  0.0139
  488MPD2     C 7253   1.086   0.432  16.485 -0.0435  0.3344 -0.1670
  488MPD2    C1 7254   1.140   0.514  16.581 -0.1704  0.2615 -0.3280
  488MPD2    C2 7255   1.136   0.490  16.723 -0.7973 -0.3000 -0.0278
  488MPD2    C3 7256   1.051   0.391  16.762  0.4634  0.3172 -0.4326
  488MPD2    C4 7257   0.972   0.323  16.667 -0.0724 -0.2976  0.3711
  488MPD2    C5 7258   0.987   0.348  16.531 -0.2101 -0.6019  0.0763
  488MPD2     H 7259   1.199   0.549  16.789 -1.1842 -0.1964  0.2541
  488MPD2    H1 7260   0.902   0.245  16.695  2.3356 -2.1180  1.2024
  488MPD2    H2 7261   1.108   0.438  16.379 -0.1652  0.1204 -0.2031
  488MPD2    H3 7262   0.941   0.283  16.458  1.1351  0.8413 -2.0812
  488MPD2     N 7263   1.041   0.366  16.905  0.6132 -0.8043  0.6065
  488MPD2    H5 7264   1.093   0.424  16.970 -1.1390  0.8328  0.5550
  488MPD2    N1 7265   1.210   0.631  16.545  0.3291 -0.1374 -0.4045
  488MPD2    H7 7266   1.262   0.683  16.614  1.4865  1.1941 -2.2961
  489TMC3    C1 7267   0.903   0.344  17.089 -0.5022  0.8790 -0.3318
  489TMC3    C2 7268   0.943   0.469  17.122  0.5225 -0.4399 -0.3874
  489TMC3    C3 7269   0.944   0.504  17.257 -0.3506  0.3300  0.5982
  489TMC3    C4 7270   0.862   0.256  17.182  0.3522  0.1899 -0.7019
  489TMC3    C5 7271   0.877   0.294  17.315 -0.4148  0.6248 -0.1499
  489TMC3    C6 7272   0.910   0.420  17.359 -0.6446 -0.0521  0.3348
  489TMC3     C 7273   0.944   0.288  16.960  0.0957 -0.2044  0.2306
  489TMC3     O 7274   0.898   0.183  16.916 -0.6265  0.2392 -0.1103
  489TMC3     H 7275   0.961   0.541  17.044  2.5691 -0.9042 -0.3581
  489TMC3    H1 7276   0.838   0.153  17.159 -1.9032 -0.1979  3.2925
  489TMC3    H2 7277   0.918   0.449  17.463  1.7425  1.6957 -0.3314
  489TMC3    C7 7278   0.811   0.204  17.414 -0.4760 -0.1516  0.5082
  489TMC3    C8 7279   1.007   0.633  17.277 -0.3497  0.0812 -0.0635
  489TMC3    O1 7280   0.854   0.201  17.526  0.4890 -0.2279  0.4952
  489TMC3    O2 7281   1.068   0.686  17.184 -0.1144 -0.1014  0.0055
  490MPD2     C 7282   2.131   0.589   0.011  0.4244  0.0401 -0.1525
  490MPD2    C1 7283   2.195   0.517   0.104  0.4295 -0.5631 -0.0473
  490MPD2    C2 7284   2.218   0.571   0.229  0.1243  0.0002  0.1124
  490MPD2    C3 7285   2.190   0.708   0.254 -0.2863 -0.7563  0.3303
  490MPD2    C4 7286   2.106   0.773   0.162 -0.3761 -0.0615 -0.0762
  490MPD2    C5 7287   2.075   0.708   0.048  0.3546  0.1205 -0.1650
  490MPD2     H 7288   2.278   0.515   0.300  0.5145  2.0507  1.4162
  490MPD2    H1 7289   2.069   0.874   0.177  0.9892  0.5697 -0.9697
  490MPD2    H2 7290   2.104   0.554  17.610  0.9511  0.3687 -0.4084
  490MPD2    H3 7291   2.019   0.764  17.672 -0.7960 -0.7480  0.0412
  490MPD2     N 7292   2.218   0.786   0.369  0.2311 -0.1091 -0.6031
  490MPD2    H5 7293   2.151   0.861   0.385  0.4591  0.4990 -2.5045
  490MPD2    N1 7294   2.240   0.389   0.071  0.3817  0.2907  0.2852
  490MPD2    H7 7295   2.217   0.363  17.674 -0.3980 -1.5044  0.9668
  491TMC3    C1 7296   2.299   0.167   0.083  0.2213 -0.1568  0.5523
  491TMC3    C2 7297   2.271   0.060   0.157 -0.0495  0.0823 -0.4817
  491TMC3    C3 7298   2.167   4.701   0.117 -0.1593 -0.3107 -0.3529
  491TMC3    C4 7299   2.237   0.180  17.657 -0.0218  0.2388 -0.2249
  491TMC3    C5 7300   2.126   0.105  17.631 -0.4995  0.4309  0.7519
  491TMC3    C6 7301   2.088   4.724   0.011 -0.2139  0.2354 -0.1726
  491TMC3     C 7302   2.303   0.299   0.151  0.6509 -0.3628  0.4799
  491TMC3     O 7303   2.330   0.302   0.270 -0.1807 -0.3958 -0.7410
  491TMC3     H 7304   2.302   0.045   0.260 -0.7299  0.8670 -0.1586
  491TMC3    H1 7305   2.272   0.252  17.584 -0.2346  1.2951  0.7275
  491TMC3    H2 7306   2.009   4.655  17.680  2.0875 -2.1851 -0.7155
  491TMC3    C7 7307   2.041   0.158  17.527  0.1088 -0.0886  0.4743
  491TMC3    C8 7308   2.090   4.648   0.226  0.0175  0.9475  0.0012
  491TMC3    O1 7309   2.082   0.256  17.465  0.0261  0.7744  0.3195
  491TMC3    O2 7310   2.021   0.002   0.287 -0.2281 -0.2819  0.4374
  492MPD2     C 7311   1.959   4.575  11.358  0.3039  0.4734  0.5780
  492MPD2    C1 7312   1.848   4.570  11.272  0.4018  0.7918 -0.6342
  492MPD2    C2 7313   1.719   4.585  11.318 -0.0922 -0.1970 -0.5526
  492MPD2    C3 7314   1.703   4.585  11.457  0.4529  0.1529  0.0676
  492MPD2    C4 7315   1.811   4.590  11.537 -0.0878  0.7389 -0.1241
  492MPD2    C5 7316   1.943   4.587  11.492  0.5341 -0.3228  0.6865
  492MPD2     H 7317   1.638   4.594  11.246 -0.8432 -0.9742  0.1928
  492MPD2    H1 7318   1.795   4.601  11.644 -3.7790 -0.5179 -0.5570
  492MPD2    H2 7319   2.059   4.571  11.315  0.3517  0.7811  0.6591
  492MPD2    H3 7320   2.028   4.597  11.559  1.6352  0.1760 -0.7838
  492MPD2     N 7321   1.576   4.594  11.520  0.3757 -0.4689  0.0814
  492MPD2    H5 7322   1.584   4.590  11.621  1.6178  1.4001  0.0439
  492MPD2    N1 7323   1.888   4.579  11.135 -0.1643 -0.0625 -0.0875
  492MPD2    H7 7324   1.986   4.590  11.113 -0.7656  0.8708 -2.2895
  493TMC3    C1 7325   1.880   4.601  10.906 -0.0825 -0.0706  0.4667
  493TMC3    C2 7326   1.831   4.670  10.801 -0.3531 -0.4425 -0.0543
  493TMC3    C3 7327   1.912   4.689  10.695 -0.1916  0.7586  0.2379
  493TMC3    C4 7328   2.011   4.537  10.898 -0.5934 -0.8918  0.4418
  493TMC3    C5 7329   2.076   4.554  10.782  0.3292  0.4058  0.2719
  493TMC3    C6 7330   2.036   4.632  10.685  0.5652 -0.7606 -0.5516
  493TMC3     C 7331   1.805   4.593  11.029 -0.7586 -0.5049  0.2390
  493TMC3     O 7332   1.687   4.586  11.025 -0.2892  0.8440 -0.5836
  493TMC3     H 7333   1.738   4.721  10.823  0.7871  1.9868 -0.9231
  493TMC3    H1 7334   2.055   4.466  10.967  2.0436  0.2449 -0.0515
  493TMC3    H2 7335   2.093   4.625  10.594  2.3068 -0.1526  0.4888
  493TMC3    C7 7336   2.196   4.484  10.766 -0.1440 -0.9507 -0.1650
  493TMC3    C8 7337   1.862   0.033  10.566 -0.2261  0.4260  0.2108
  493TMC3    O1 7338   2.285   4.548  10.712  0.1388 -0.1665 -0.2837
  493TMC3    O2 7339   1.742   0.063  10.560  0.3661  0.0997  0.6081
  494TMC3    C1 7340   2.977   1.479   0.859  0.3005  0.0040 -0.6107
  494TMC3    C2 7341   3.073   1.381   0.880  0.3351 -0.1092  0.2229
  494TMC3    C3 7342   3.115   1.307   0.777 -0.0883  0.6274  0.1893
  494TMC3    C4 7343   2.926   1.507   0.733 -0.5985 -0.0761 -0.4733
  494TMC3    C5 7344   2.977   1.428   0.630 -0.5240  0.1763 -0.0506
  494TMC3    C6 7345   3.071   1.329   0.654  0.1882 -0.1367 -0.6352
  494TMC3     C 7346   2.942   1.570   0.968  0.4676  0.2754  0.2975
  494TMC3     O 7347   2.911   1.687   0.936 -0.0775  0.3551  0.2250
  494TMC3     H 7348   3.133   1.373   0.970 -0.2001  2.3757  0.7897
  494TMC3    H1 7349   2.847   1.581   0.724  0.6953  1.6605  2.4130
  494TMC3    H2 7350   3.102   1.268   0.570  0.2390 -2.2747  0.9248
  494TMC3    C7 7351   3.006   1.510   0.514  0.2825  0.2236  0.8560
  494TMC3    C8 7352   3.169   1.175   0.797 -0.4686  0.0892 -0.7832
  494TMC3    O1 7353   3.043   1.454   0.412  0.4188 -0.0199 -0.0983
  494TMC3    O2 7354   3.222   1.113   0.703 -0.4488 -0.3942 -0.1376
  495TMC3    C1 7355   1.662   3.867  14.454 -0.0390 -0.4239  0.2915
  495TMC3    C2 7356   1.580   3.901  14.350 -1.0530  0.1066 -0.2359
  495TMC3    C3 7357   1.501   4.013  14.361  0.3536  0.4909  0.3159
  495TMC3    C4 7358   1.669   3.937  14.572  1.4167 -0.3521 -0.4083
  495TMC3    C5 7359   1.592   4.050  14.584 -0.3840 -1.0985 -0.0755
  495TMC3    C6 7360   1.496   4.081  14.483  0.7809  0.0199  0.6117
  495TMC3     C 7361   1.670   3.722  14.470  0.1540  0.3827 -0.1586
  495TMC3     O 7362   1.594   3.661  14.400  0.3524 -0.4292  0.0252
  495TMC3     H 7363   1.578   3.840  14.261 -0.1662  1.5532 -1.2431
  495TMC3    H1 7364   1.738   3.912  14.651  1.9712 -1.8383 -1.3712
  495TMC3    H2 7365   1.427   4.163  14.500 -0.2476 -1.0051  1.3678
  495TMC3    C7 7366   1.581   4.118  14.715  0.1805 -0.6520 -0.8924
  495TMC3    C8 7367   1.383   4.024  14.284  0.4669  0.6049  0.0808
  495TMC3    O1 7368   1.616   4.041  14.804  0.0734 -0.2027 -0.1252
  495TMC3    O2 7369   1.290   4.083  14.338  0.5369  0.1564 -0.2976
  496MPD2     C 7370   2.878   3.311  15.278  0.4052  0.4390 -0.2593
  496MPD2    C1 7371   2.990   3.315  15.370 -0.5663 -0.5879 -0.1021
  496MPD2    C2 7372   2.968   3.281  15.501  0.0990 -1.1305  0.6064
  496MPD2    C3 7373   2.846   3.222  15.535 -0.4397  0.1025  0.8214
  496MPD2    C4 7374   2.739   3.229  15.449  0.1352  0.0894  0.1686
  496MPD2    C5 7375   2.754   3.282  15.328 -0.7161 -0.3238  0.8332
  496MPD2     H 7376   3.043   3.303  15.577 -1.8480  0.5537  2.0391
  496MPD2    H1 7377   2.639   3.192  15.470 -0.2576 -0.4855 -2.8099
  496MPD2    H2 7378   2.887   3.355  15.179  3.0155 -3.0936 -1.6313
  496MPD2    H3 7379   2.665   3.274  15.265 -2.3218  0.0551  3.0742
  496MPD2     N 7380   2.811   3.183  15.666 -0.2438 -0.5246  0.0419
  496MPD2    H5 7381   2.718   3.141  15.668 -1.7629  2.9117  0.8966
  496MPD2    N1 7382   3.114   3.361  15.346 -0.2361  0.0059 -0.0226
  496MPD2    H7 7383   3.165   3.392  15.428 -0.0166 -0.7983  0.1467
  497TMC3    C1 7384   2.826   3.122  15.884 -0.2582  0.1692 -0.3601
  497TMC3    C2 7385   2.697   3.075  15.872  0.0436 -0.5174  0.0549
  497TMC3    C3 7386   2.621   3.091  15.986  0.0482  0.5588  0.0630
  497TMC3    C4 7387   2.872   3.178  15.997  0.7271 -0.3584  0.5498
  497TMC3    C5 7388   2.791   3.188  16.106  0.3132  0.8734 -0.6758
  497TMC3    C6 7389   2.662   3.141  16.110 -0.1484  0.5254 -0.0157
  497TMC3     C 7390   2.902   3.164  15.769  0.1043  0.1377  0.3096
  497TMC3     O 7391   3.016   3.206  15.780 -0.5556  0.6240 -0.0756
  497TMC3     H 7392   2.651   3.040  15.781 -1.6652 -1.2306  1.1756
  497TMC3    H1 7393   2.969   3.225  16.002  0.6840 -0.2852  0.7397
  497TMC3    H2 7394   2.599   3.154  16.197  1.5324  0.1523  1.2623
  497TMC3    C7 7395   2.843   3.242  16.233  0.7803  0.0536  0.3569
  497TMC3    C8 7396   2.481   3.040  15.989  0.3196 -0.9848 -0.5489
  497TMC3    O1 7397   2.762   3.263  16.321  0.1823  0.0177  0.4217
  497TMC3    O2 7398   2.403   3.097  16.061  0.2338 -0.1151  0.0320
  498MPD2     C 7399   4.534   4.023   9.358  0.2136 -0.0094  0.0042
  498MPD2    C1 7400   4.605   3.949   9.441  0.3893  0.1301  0.3538
  498MPD2    C2 7401   4.540   3.888   9.546 -0.2429  0.5569 -0.5420
  498MPD2    C3 7402   4.400   3.883   9.553  0.9752  0.3521  0.7675
  498MPD2    C4 7403   4.324   3.950   9.459  1.1161  0.2060 -0.4692
  498MPD2    C5 7404   4.398   4.021   9.369  0.1874  0.1417 -0.1951
  498MPD2     H 7405   4.592   3.840   9.628 -0.0341 -1.1435 -1.6815
  498MPD2    H1 7406   4.216   3.953   9.464  1.1450  2.1695 -1.0811
  498MPD2    H2 7407   4.581   4.074   9.274 -1.0958 -1.3661 -1.5619
  498MPD2    H3 7408   4.352   4.086   9.295 -0.7236  1.3759  1.4508
  498MPD2     N 7409   4.341   3.807   9.655  0.1139 -0.0185  0.2484
  498MPD2    H5 7410   4.402   3.762   9.722  1.6057 -0.9767 -1.7465
  498MPD2    N1 7411   0.024   3.965   9.426 -0.0509 -0.2083 -0.5344
  498MPD2    H7 7412   0.056   4.028   9.353 -2.5522  2.4160  0.6286
  499TMC3    C1 7413   0.246   3.931   9.496  0.5485  0.5166  0.5337
  499TMC3    C2 7414   0.342   3.839   9.511 -0.2206 -0.6268 -0.5765
  499TMC3    C3 7415   0.470   3.872   9.479  0.0979  0.1419  0.2540
  499TMC3    C4 7416   0.276   4.053   9.451 -0.0245  0.4146  0.2571
  499TMC3    C5 7417   0.402   4.087   9.422 -0.4201  0.1774  0.5471
  499TMC3    C6 7418   0.504   3.993   9.431  0.1596 -0.0806 -0.1330
  499TMC3     C 7419   0.106   3.883   9.499 -0.9045 -0.3619  0.1861
  499TMC3     O 7420   0.078   3.775   9.551 -0.6772 -0.3933 -0.1009
  499TMC3     H 7421   0.317   3.736   9.538  0.7497 -0.7720 -0.2200
  499TMC3    H1 7422   0.206   4.135   9.442 -0.3280 -0.0274 -1.5016
  499TMC3    H2 7423   0.610   4.013   9.421  0.3648 -0.5794  1.0577
  499TMC3    C7 7424   0.430   4.213   9.368  0.1834 -0.0743 -0.2327
  499TMC3    C8 7425   0.582   3.777   9.496  0.2733  0.5553 -0.0595
  499TMC3    O1 7426   0.344   4.299   9.352  0.1270 -0.3938 -0.2838
  499TMC3    O2 7427   0.683   3.801   9.427  0.4314  0.0444 -0.5930
  500MPD2     C 7428   1.493   0.980   9.684  0.0280  0.2964  0.4038
  500MPD2    C1 7429   1.473   1.099   9.751  0.4888 -0.0902  0.2657
  500MPD2    C2 7430   1.368   1.186   9.715 -0.3610 -0.0710 -0.7362
  500MPD2    C3 7431   1.297   1.156   9.603  0.1778 -0.1722 -0.0453
  500MPD2    C4 7432   1.321   1.044   9.527 -1.0397  0.0881 -0.3644
  500MPD2    C5 7433   1.416   0.954   9.574 -0.1108  0.1318 -0.7825
  500MPD2     H 7434   1.345   1.278   9.766  1.2685 -0.3281  0.4696
  500MPD2    H1 7435   1.263   1.035   9.436 -1.1840 -2.6589 -0.0018
  500MPD2    H2 7436   1.569   0.904   9.701  0.9765  1.6258  2.1533
  500MPD2    H3 7437   1.447   0.866   9.520 -0.7342  0.3652 -1.5169
  500MPD2     N 7438   1.192   1.238   9.560  0.0339  0.4802 -0.9901
  500MPD2    H5 7439   1.132   1.201   9.487 -0.5437  0.2001 -0.3744
  500MPD2    N1 7440   1.554   1.135   9.862 -0.0235 -0.3607 -0.9448
  500MPD2    H7 7441   1.543   1.230   9.895 -0.5550 -0.3794 -1.0629
  501TMC3    C1 7442   1.685   1.113  10.054  0.1369 -1.0777  0.8631
  501TMC3    C2 7443   1.609   1.201  10.121 -0.4002  0.9641 -0.2368
  501TMC3    C3 7444   1.630   1.208  10.256  0.0483 -0.1849  0.1065
  501TMC3    C4 7445   1.788   1.057  10.118 -1.4793 -0.6754  0.1320
  501TMC3    C5 7446   1.798   1.061  10.253  0.0294 -0.9072 -0.0298
  501TMC3    C6 7447   1.713   1.131  10.333 -0.0751 -0.6359 -0.6906
  501TMC3     C 7448   1.632   1.051   9.932 -0.2921 -0.8066 -0.6194
  501TMC3     O 7449   1.676   0.945   9.895  0.7962 -0.0569 -0.3064
  501TMC3     H 7450   1.540   1.261  10.064  1.8182  1.7419 -2.0820
  501TMC3    H1 7451   1.835   0.978  10.060  1.5157  0.8200  0.5318
  501TMC3    H2 7452   1.705   1.112  10.439 -1.9022 -0.8690 -0.8688
  501TMC3    C7 7453   1.875   0.964  10.323 -0.6307  0.2654  0.6078
  501TMC3    C8 7454   1.553   1.297  10.343 -0.1774 -0.0049 -0.0776
  501TMC3    O1 7455   1.843   0.935  10.434  0.2648 -0.2773  0.3601
  501TMC3    O2 7456   1.575   1.307  10.463 -0.1434  0.5863  0.0176
  502TMC3    C1 7457   0.947   0.119  15.483 -0.5719  0.2533 -0.0342
  502TMC3    C2 7458   0.888   0.241  15.466 -0.0681 -0.0428  0.2603
  502TMC3    C3 7459   0.777   0.251  15.383 -0.2521  0.0793 -0.4573
  502TMC3    C4 7460   0.895   0.008  15.418 -0.2313  0.2581 -0.1227
  502TMC3    C5 7461   0.795   0.021  15.325 -0.3594  0.3669  0.2432
  502TMC3    C6 7462   0.728   0.144  15.316 -0.6865  0.3457 -0.2888
  502TMC3     C 7463   1.038   0.104  15.594 -0.3870 -0.4210  0.1283
  502TMC3     O 7464   1.112   0.199  15.608  0.2456  0.1078  0.2815
  502TMC3     H 7465   0.927   0.331  15.513 -0.5845  0.3947 -0.1527
  502TMC3    H1 7466   0.954   4.641  15.425 -0.8227 -0.2745 -1.9303
  502TMC3    H2 7467   0.648   0.157  15.244 -2.0110 -2.0636  0.7504
  502TMC3    C7 7468   0.718   4.617  15.335  0.7158 -0.2488 -0.4336
  502TMC3    C8 7469   0.704   0.374  15.380  0.1593 -0.0272  0.4163
  502TMC3    O1 7470   0.771   4.515  15.381 -0.3084 -0.6278  0.3114
  502TMC3    O2 7471   0.759   0.474  15.336 -0.3015 -0.3677  0.8552
  503MPD2     C 7472   2.670   0.347  17.044  0.1984  0.1332 -0.1313
  503MPD2    C1 7473   2.744   0.346  17.160 -0.4241 -0.0340  0.8265
  503MPD2    C2 7474   2.820   0.228  17.181 -0.2514  0.7722 -0.0946
  503MPD2    C3 7475   2.816   0.117  17.096 -0.0204  0.3373 -0.0184
  503MPD2    C4 7476   2.747   0.124  16.978 -0.2814  0.1681  0.4132
  503MPD2    C5 7477   2.674   0.246  16.954 -0.1925 -0.1396 -0.6596
  503MPD2     H 7478   2.881   0.212  17.269  0.0683 -1.1218 -0.6677
  503MPD2    H1 7479   2.742   0.048  16.900  2.0784 -0.1578  0.5860
  503MPD2    H2 7480   2.606   0.428  17.012 -0.6908 -1.1413 -1.5903
  503MPD2    H3 7481   2.617   0.247  16.861 -2.4797  4.6918  0.7633
  503MPD2     N 7482   2.892   0.013  17.132 -0.3607 -0.0196 -0.4282
  503MPD2    H5 7483   2.938   0.015  17.222 -2.0813  1.3393  0.4019
  503MPD2    N1 7484   2.759   0.462  17.245  0.7551 -0.8194  0.5235
  503MPD2    H7 7485   2.797   0.439  17.336 -1.9154 -1.3542  1.5209
  504TMC3    C1 7486   3.015   4.535  17.136  0.8314  0.4009  1.2319
  504TMC3    C2 7487   2.990   4.514  17.269  0.2157  0.1589  0.0183
  504TMC3    C3 7488   3.091   4.458  17.342 -0.1888  0.1398 -0.2358
  504TMC3    C4 7489   3.131   4.497  17.070 -0.8840  0.0023  0.3289
  504TMC3    C5 7490   3.231   4.452  17.154 -0.6469  0.1923 -0.2759
  504TMC3    C6 7491   3.205   4.418  17.284 -0.0178  0.2053  0.0690
  504TMC3     C 7492   2.927   4.630  17.060  0.2383  0.0632 -0.1713
  504TMC3     O 7493   2.907   4.605  16.940  0.4039 -0.6308 -0.1358
  504TMC3     H 7494   2.896   4.546  17.312  1.0746 -1.6912  3.2735
  504TMC3    H1 7495   3.145   4.512  16.964 -2.8730  0.2459  0.1014
  504TMC3    H2 7496   3.286   4.387  17.348  0.0547  0.5765  0.1504
  504TMC3    C7 7497   3.362   4.449  17.099  0.2261  0.2394 -0.6215
  504TMC3    C8 7498   3.050   4.405  17.473 -0.0137  0.1117  0.5432
  504TMC3    O1 7499   3.370   4.460  16.977  0.4035 -0.2971 -0.3277
  504TMC3    O2 7500   2.935   4.388  17.498 -0.0243  0.4608  0.2803
  505MPD2     C 7501   3.345   3.919  10.966 -0.8608  0.2081 -0.5026
  505MPD2    C1 7502   3.417   3.882  10.856 -0.3079  0.3947 -0.2759
  505MPD2    C2 7503   3.540   3.937  10.827  0.3195  0.1538 -0.0297
  505MPD2    C3 7504   3.600   4.037  10.914  0.2357  0.5803  0.3321
  505MPD2    C4 7505   3.526   4.069  11.023 -0.4610  0.1643 -0.4037
  505MPD2    C5 7506   3.398   4.024  11.042  0.3230 -0.5135 -0.3073
  505MPD2     H 7507   3.594   3.906  10.738 -2.0368 -1.0206 -1.0441
  505MPD2    H1 7508   3.566   4.142  11.093  0.1341 -1.4329  0.9129
  505MPD2    H2 7509   3.246   3.878  10.985 -0.5707 -1.5089 -2.7580
  505MPD2    H3 7510   3.351   4.062  11.131 -1.5911  0.4202 -1.7201
  505MPD2     N 7511   3.730   4.087  10.904  0.0500 -0.2174  0.0127
  505MPD2    H5 7512   3.771   4.141  10.979  1.0747  1.1956 -1.5336
  505MPD2    N1 7513   3.373   3.773  10.786 -0.6607 -0.3818 -0.1747
  505MPD2    H7 7514   3.291   3.726  10.821 -0.0218 -1.6232 -0.3627
  506TMC3    C1 7515   3.442   3.560  10.704 -0.1997  0.9134  0.5654
  506TMC3    C2 7516   3.470   3.488  10.592  0.1017 -0.4070  0.8716
  506TMC3    C3 7517   3.494   3.356  10.601  0.0070 -0.5963  0.1708
  506TMC3    C4 7518   3.444   3.507  10.832 -0.0071  0.1514 -0.2747
  506TMC3    C5 7519   3.475   3.374  10.847 -0.4591 -0.1090 -0.3653
  506TMC3    C6 7520   3.494   3.294  10.732 -0.0487 -0.5192  0.8084
  506TMC3     C 7521   3.447   3.705  10.686  0.3858 -0.1397  0.2844
  506TMC3     O 7522   3.530   3.738  10.606  0.5740  0.3503 -0.0356
  506TMC3     H 7523   3.448   3.526  10.493  0.8414 -0.7783  0.5706
  506TMC3    H1 7524   3.428   3.562  10.924 -1.9594  2.1506 -1.8133
  506TMC3    H2 7525   3.518   3.189  10.729 -0.4617 -0.5563 -1.2810
  506TMC3    C7 7526   3.551   3.341  10.960  0.2388 -0.4167  0.4256
  506TMC3    C8 7527   3.518   3.275  10.485  0.1560 -0.1788  0.3018
  506TMC3    O1 7528   3.502   3.288  11.057 -0.1384  0.2902 -0.2872
  506TMC3    O2 7529   3.495   3.152  10.494  0.1908  0.1341 -0.3744
  507TMC3    C1 7530   4.010   4.673  15.504  0.4745  0.0146  0.9947
  507TMC3    C2 7531   3.877   4.640  15.506  0.2590  0.1272  0.1661
  507TMC3    C3 7532   3.800   4.667  15.392  0.4326  0.2386  0.0702
  507TMC3    C4 7533   4.070   0.004  15.391  0.2029 -0.9312  1.7017
  507TMC3    C5 7534   4.000   0.011  15.279  0.2873  0.2532 -0.7414
  507TMC3    C6 7535   3.864   4.710  15.278  0.6833  0.5978 -0.3045
  507TMC3     C 7536   4.068   4.700  15.636  0.1981 -0.2433  0.0439
  507TMC3     O 7537   4.158   0.060  15.640 -0.2102  0.0505  0.1439
  507TMC3     H 7538   3.820   4.628  15.597  2.3430  2.1429  1.7281
  507TMC3    H1 7539   4.170   0.043  15.401  0.7931 -1.8213 -0.7391
  507TMC3    H2 7540   3.803   4.724  15.190  1.0993  3.1665 -0.1970
  507TMC3    C7 7541   4.015   0.125  15.204  0.3612  0.1860  0.4037
  507TMC3    C8 7542   3.681   0.027  15.411 -0.0843  0.3623 -0.9146
  507TMC3    O1 7543   3.950   0.221  15.239 -0.3180 -0.1759  0.0418
  507TMC3    O2 7544   3.597   4.719  15.496  0.1939 -0.6046 -0.2431
  508MPD2     C 7545   4.657   2.691  16.210 -0.9452 -0.0307  0.2724
  508MPD2    C1 7546   0.057   2.713  16.162  0.1813  0.9188  0.2343
  508MPD2    C2 7547   0.074   2.730  16.024 -0.0364  0.4938  0.2949
  508MPD2    C3 7548   4.694   2.721  15.935 -0.1663 -0.1185  0.0784
  508MPD2    C4 7549   4.571   2.689  15.986  0.6475  0.3874  0.2882
  508MPD2    C5 7550   4.555   2.668  16.118  0.7365 -0.9597 -0.6141
  508MPD2     H 7551   0.167   2.758  15.976  0.2014 -1.2578 -0.2750
  508MPD2    H1 7552   4.480   2.692  15.927  2.3743  1.0165 -2.3301
  508MPD2    H2 7553   4.645   2.680  16.318 -1.5853  0.3406  0.2380
  508MPD2    H3 7554   4.456   2.656  16.162  1.4653  0.0487  1.3163
  508MPD2     N 7555   4.723   2.747  15.798  0.2903 -0.4614 -0.5909
  508MPD2    H5 7556   0.096   2.749  15.770  0.0969  1.8651 -1.0795
  508MPD2    N1 7557   0.161   2.743  16.254  0.6106  0.3598  0.1366
  508MPD2    H7 7558   0.134   2.724  16.350 -0.1591  1.0099  0.0518
  509TMC3    C1 7559   4.679   2.868  15.351  0.1470 -0.1405  0.3477
  509TMC3    C2 7560   0.088   2.910  15.352 -0.4428  0.0877  0.2162
  509TMC3    C3 7561   0.158   2.923  15.468  0.6747 -0.2952 -0.4145
  509TMC3    C4 7562   4.624   2.820  15.467  0.2337  0.1547 -0.3513
  509TMC3    C5 7563   4.698   2.826  15.585 -0.5399 -0.6565 -0.0198
  509TMC3    C6 7564   0.097   2.887  15.591 -0.2363  0.5284 -0.9329
  509TMC3     C 7565   4.584   2.917  15.250  0.1733 -0.5309  0.2401
  509TMC3     O 7566   4.494   2.834  15.229 -0.2995  0.1825 -0.9003
  509TMC3     H 7567   0.137   2.945  15.262  0.3678 -0.6333  0.3744
  509TMC3    H1 7568   4.530   2.766  15.456 -0.9386  1.7752  1.6312
  509TMC3    H2 7569   0.144   2.910  15.685 -0.9325  0.5620 -0.5955
  509TMC3    C7 7570   4.632   2.775  15.700 -1.1677 -0.0003  0.7201
  509TMC3    C8 7571   0.274   3.012  15.483 -0.0425  0.0301 -0.0557
  509TMC3    O1 7572   4.512   2.754  15.705 -0.0715  0.2760 -0.2376
  509TMC3    O2 7573   0.284   3.084  15.582 -0.0583  0.1922 -0.7485
  510MPD2     C 7574   2.977   4.652  14.590  0.9436  0.1581  0.1677
  510MPD2    C1 7575   2.917   4.537  14.535  0.1269  0.4776 -1.0089
  510MPD2    C2 7576   3.002   4.446  14.473 -1.0280 -0.1873 -0.1750
  510MPD2    C3 7577   3.142   4.456  14.481  0.6877 -0.1116 -0.2023
  510MPD2    C4 7578   3.194   4.569  14.541 -0.2460  0.5428  0.0902
  510MPD2    C5 7579   3.114   4.666  14.598  0.8810 -0.3220 -0.4450
  510MPD2     H 7580   2.963   4.350  14.441  0.5370 -0.9335  0.1837
  510MPD2    H1 7581   3.300   4.587  14.545 -0.0958  0.1616 -1.9909
  510MPD2    H2 7582   2.918   0.000  14.644  3.0782  2.5719 -0.7319
  510MPD2    H3 7583   3.155   0.032  14.640  1.2098 -0.5543 -0.2683
  510MPD2     N 7584   3.219   4.349  14.425  0.0905  0.3912  0.1410
  510MPD2    H5 7585   3.184   4.272  14.369 -0.7000  0.1310  0.9954
  510MPD2    N1 7586   2.780   4.498  14.546  0.2478 -0.0972  0.0816
  510MPD2    H7 7587   2.754   4.406  14.510  0.3059  0.6514 -1.8490
  511TMC3    C1 7588   2.606   4.451  14.691 -0.3189 -0.5107 -0.2279
  511TMC3    C2 7589   2.566   4.485  14.815 -0.0132  0.0329 -0.0784
  511TMC3    C3 7590   2.528   4.382  14.897  0.6837  0.2450 -0.1047
  511TMC3    C4 7591   2.623   4.319  14.655  0.1099 -0.0154 -0.3733
  511TMC3    C5 7592   2.573   4.223  14.745 -0.7248 -0.0692  0.2917
  511TMC3    C6 7593   2.527   4.255  14.870  0.1675  0.1614  0.0212
  511TMC3     C 7594   2.687   4.557  14.630  0.0228 -0.5106 -0.4478
  511TMC3     O 7595   2.702   4.662  14.692  0.2886 -0.3379 -0.3333
  511TMC3     H 7596   2.547   4.589  14.841  2.4311  0.3628  0.3690
  511TMC3    H1 7597   2.654   4.291  14.555  0.3118  0.6760 -0.5045
  511TMC3    H2 7598   2.492   4.182  14.941  1.6943  0.4569  1.0864
  511TMC3    C7 7599   2.569   4.086  14.696 -0.4833 -0.4196 -0.0390
  511TMC3    C8 7600   2.513   4.425  15.030  0.1696  0.3230 -0.8868
  511TMC3    O1 7601   2.587   4.068  14.578 -0.0773 -0.6412  0.3571
  511TMC3    O2 7602   2.463   4.534  15.054  0.8150 -0.3097  0.3366
  512TMC3    C1 7603   1.390   3.628  12.758 -0.1139 -0.3984 -0.1245
  512TMC3    C2 7604   1.470   3.612  12.870 -0.8090  0.1859  0.0018
  512TMC3    C3 7605   1.524   3.484  12.879 -0.0974 -0.1334  0.5655
  512TMC3    C4 7606   1.370   3.536  12.663  0.7396 -0.4810 -0.5359
  512TMC3    C5 7607   1.407   3.409  12.686  0.1602  0.0479  1.1090
  512TMC3    C6 7608   1.488   3.379  12.794  0.1165 -0.4878 -0.1447
  512TMC3     C 7609   1.291   3.738  12.770 -0.2985 -0.0694 -0.3702
  512TMC3     O 7610   1.227   3.763  12.669  0.0259 -0.2741 -0.4600
  512TMC3     H 7611   1.498   3.699  12.929 -2.9514  0.5850  0.4265
  512TMC3    H1 7612   1.311   3.557  12.575 -0.2982 -2.0102 -0.1980
  512TMC3    H2 7613   1.540   3.285  12.800  1.0981 -0.0048 -1.1230
  512TMC3    C7 7614   1.350   3.305  12.607  0.1884 -0.1118  0.3265
  512TMC3    C8 7615   1.649   3.465  12.955 -0.6535  0.7332 -0.1310
  512TMC3    O1 7616   1.290   3.342  12.509 -0.4225  0.1244  0.1288
  512TMC3    O2 7617   1.735   3.391  12.911 -0.5022  0.1958  0.3393
  513MPD2     C 7618   2.633   4.236  12.993 -0.0775 -0.4602 -0.3093
  513MPD2    C1 7619   2.649   4.110  12.955 -0.0895  0.0749  0.1504
  513MPD2    C2 7620   2.669   4.012  13.056 -0.2288  0.0912  0.6233
  513MPD2    C3 7621   2.655   4.037  13.191  0.9307  0.6595  0.1705
  513MPD2    C4 7622   2.617   4.160  13.231 -0.5831 -0.2326  0.2835
  513MPD2    C5 7623   2.610   4.257  13.132  0.3822 -0.1370 -0.1849
  513MPD2     H 7624   2.694   3.908  13.035  0.3622  0.5693 -1.0416
  513MPD2    H1 7625   2.600   4.188  13.335 -1.1752  0.1601  0.0859
  513MPD2    H2 7626   2.610   4.312  12.919 -4.1414  0.4085  1.8946
  513MPD2    H3 7627   2.571   4.354  13.159 -2.8819 -1.4124 -0.2341
  513MPD2     N 7628   2.674   3.920  13.276  0.1986  0.5422 -0.8701
  513MPD2    H5 7629   2.699   3.832  13.231 -0.4610  0.6997 -1.5375
  513MPD2    N1 7630   2.667   4.075  12.815 -0.2146  0.8123 -0.4109
  513MPD2    H7 7631   2.661   4.150  12.746  0.7661  0.6536 -0.6675
  514TMC3    C1 7632   2.711   3.922  12.626  0.0381  0.2637  0.1547
  514TMC3    C2 7633   2.799   4.010  12.570 -0.0002  0.0072 -0.3396
  514TMC3    C3 7634   2.885   3.957  12.486 -0.8683 -0.3112 -0.6379
  514TMC3    C4 7635   2.704   3.791  12.601  0.0989 -0.0951 -0.4113
  514TMC3    C5 7636   2.804   3.742  12.521  0.2546 -0.1970  0.1204
  514TMC3    C6 7637   2.891   3.823  12.453  0.1662  0.2494  0.3962
  514TMC3     C 7638   2.670   3.942  12.765  0.6156  0.2216  0.1050
  514TMC3     O 7639   2.642   3.842  12.829  0.5425 -0.1081 -0.3333
  514TMC3     H 7640   2.810   4.114  12.598  1.1124  0.0024 -0.7755
  514TMC3    H1 7641   2.623   3.733  12.643  0.8193  0.5305  1.8213
  514TMC3    H2 7642   2.971   3.783  12.391  0.9091  0.3366  1.3061
  514TMC3    C7 7643   2.873   3.634  12.583  0.5742 -0.4805  0.1309
  514TMC3    C8 7644   3.010   4.029  12.461 -0.2397  0.2927  1.1121
  514TMC3    O1 7645   2.954   3.571  12.514  0.3713 -0.0122 -0.2243
  514TMC3    O2 7646   3.029   4.127  12.529 -0.2012  0.0574 -0.4482
  515MPD2     C 7647   1.709   1.113  14.923 -0.2661 -0.1279  0.2576
  515MPD2    C1 7648   1.690   0.980  14.962  0.2017  0.0338  0.0569
  515MPD2    C2 7649   1.784   0.926  15.054  0.4996  0.1264 -0.0951
  515MPD2    C3 7650   1.888   1.001  15.107 -0.1618 -0.2071 -0.4381
  515MPD2    C4 7651   1.898   1.133  15.067 -0.3524  0.2151 -0.3158
  515MPD2    C5 7652   1.806   1.191  14.985  0.5931 -0.9991  0.1389
  515MPD2     H 7653   1.771   0.825  15.092 -1.9546 -0.7248 -3.2336
  515MPD2    H1 7654   1.980   1.197  15.097 -2.7620  2.9943  0.3635
  515MPD2    H2 7655   1.641   1.170  14.861 -0.7443  0.3633  1.2275
  515MPD2    H3 7656   1.817   1.296  14.961  0.8118 -0.5052  2.3993
  515MPD2     N 7657   1.989   0.944  15.191 -0.3519 -0.0476  0.7719
  515MPD2    H5 7658   2.049   1.013  15.235 -0.3947  0.2433  0.3858
  515MPD2    N1 7659   1.580   0.898  14.919 -0.4546 -0.1843 -0.4032
  515MPD2    H7 7660   1.580   0.804  14.956 -0.2810  0.0385  0.1565
  516TMC3    C1 7661   1.373   0.858  14.796  0.1165  0.7938 -0.4319
  516TMC3    C2 7662   1.297   0.903  14.691  0.8993  0.3924  0.5444
  516TMC3    C3 7663   1.199   0.823  14.639  0.9302  0.0958  0.4635
  516TMC3    C4 7664   1.332   0.740  14.858 -0.0718  0.2985  0.5739
  516TMC3    C5 7665   1.214   0.672  14.817 -0.5646  0.8078 -0.6391
  516TMC3    C6 7666   1.161   0.704  14.695 -0.3056 -0.0170 -0.4360
  516TMC3     C 7667   1.474   0.951  14.843 -0.0553  0.2519 -0.2901
  516TMC3     O 7668   1.454   1.068  14.812  0.3234 -0.3678 -0.6686
  516TMC3     H 7669   1.333   0.981  14.625  0.1145  0.8216  0.6151
  516TMC3    H1 7670   1.368   0.710  14.956 -0.6851 -2.0305  0.1014
  516TMC3    H2 7671   1.076   0.655  14.651 -0.4357 -0.1590 -0.0233
  516TMC3    C7 7672   1.187   0.543  14.884  0.0612 -0.3241  0.2434
  516TMC3    C8 7673   1.116   0.859  14.526 -0.2441  0.0342 -0.0135
  516TMC3    O1 7674   1.266   0.506  14.966  0.1438 -0.1333 -0.2790
  516TMC3    O2 7675   1.051   0.774  14.468 -0.0394  0.3637 -0.1658
  517MPD2     C 7676   0.975   2.148   0.075  0.0446 -0.1941  0.2128
  517MPD2    C1 7677   1.113   2.157   0.087 -0.2376  0.5303 -0.1885
  517MPD2    C2 7678   1.170   2.264   0.148 -0.1216  0.7200  0.1120
  517MPD2    C3 7679   1.087   2.365   0.196 -0.0767  0.0784  0.7139
  517MPD2    C4 7680   0.960   2.370   0.168 -0.0344 -0.4768 -0.1667
  517MPD2    C5 7681   0.900   2.259   0.116  0.1974 -0.2994  0.0971
  517MPD2     H 7682   1.278   2.265   0.159 -0.0182 -3.4642 -0.6503
  517MPD2    H1 7683   0.892   2.434   0.222  0.4873 -0.6461  0.6972
  517MPD2    H2 7684   0.918   2.059   0.052 -1.2708  0.7774 -0.3003
  517MPD2    H3 7685   0.793   2.247   0.102  0.0659  0.7759  0.1915
  517MPD2     N 7686   1.134   2.460   0.283 -0.4564  0.5458 -0.0431
  517MPD2    H5 7687   1.064   2.524   0.320  0.0243  1.5675 -0.8842
  517MPD2    N1 7688   1.195   2.047   0.044  0.2861 -0.1932 -0.4722
  517MPD2    H7 7689   1.292   2.063   0.067  0.0805 -0.4239  0.5702
  518TMC3    C1 7690   1.268   1.835  17.677 -0.0637 -0.1388 -0.2563
  518TMC3    C2 7691   1.241   1.716  17.617  0.0105  0.0015  0.4785
  518TMC3    C3 7692   1.351   1.638  17.599  0.4333 -0.0791  0.1708
  518TMC3    C4 7693   1.395   1.877   0.018 -0.5422 -0.5379  0.3593
  518TMC3    C5 7694   1.497   1.793  17.689 -0.0922 -0.5467 -0.6872
  518TMC3    C6 7695   1.477   1.673  17.625  0.1866 -1.0717 -0.8705
  518TMC3     C 7696   1.154   1.921   0.005  0.1231 -0.0993  0.2844
  518TMC3     O 7697   1.045   1.878  17.676  0.4767 -0.5480  0.1961
  518TMC3     H 7698   1.142   1.685  17.585 -0.0886 -0.9681  1.7116
  518TMC3    H1 7699   1.420   1.961   0.082 -0.6569 -1.3416  1.4599
  518TMC3    H2 7700   1.550   1.599  17.594  0.3623  0.2881 -3.7172
  518TMC3    C7 7701   1.621   1.800   0.076  0.6880  0.3752 -0.7574
  518TMC3    C8 7702   1.328   1.492  17.621 -0.2282  0.0354  0.1220
  518TMC3    O1 7703   1.649   1.913   0.114 -0.1579 -0.2173 -0.7118
  518TMC3    O2 7704   1.425   1.418  17.597  0.0808 -0.1329  0.0033
  519MPD2     C 7705   2.883   0.662  14.179  0.0849  0.1080  0.4592
  519MPD2    C1 7706   2.797   0.561  14.141  0.2266  0.0827  0.4712
  519MPD2    C2 7707   2.844   0.432  14.139 -0.0985  0.4524 -0.1802
  519MPD2    C3 7708   2.970   0.400  14.174 -0.2516  0.0793  0.2751
  519MPD2    C4 7709   3.058   0.503  14.210  0.0362  0.5555 -0.6177
  519MPD2    C5 7710   3.013   0.633  14.204  0.7649 -0.1115  0.0626
  519MPD2     H 7711   2.772   0.364  14.096 -0.2978 -0.0749  0.9822
  519MPD2    H1 7712   3.160   0.491  14.244 -0.8045 -0.1218  1.7105
  519MPD2    H2 7713   2.850   0.765  14.187 -0.5937 -0.0306 -0.4931
  519MPD2    H3 7714   3.086   0.704  14.241  1.4849 -0.4830 -0.6333
  519MPD2     N 7715   3.013   0.267  14.162  0.3054 -0.1955 -0.0085
  519MPD2    H5 7716   3.112   0.254  14.178 -0.1851 -0.4292  2.8088
  519MPD2    N1 7717   2.664   0.581  14.103  0.0799 -1.2081  0.1774
  519MPD2    H7 7718   2.617   0.492  14.088 -0.6452 -0.5573 -1.4689
  520TMC3    C1 7719   2.989   0.034  14.142  0.7593  0.0032 -0.1108
  520TMC3    C2 7720   2.899   4.650  14.143 -0.7274 -0.1592  0.2041
  520TMC3    C3 7721   2.956   4.527  14.119  0.8238  0.4184  0.3295
  520TMC3    C4 7722   3.126   0.026  14.104  0.0535 -0.4583 -0.2638
  520TMC3    C5 7723   3.179   4.626  14.087 -0.3149 -0.3313  0.0822
  520TMC3    C6 7724   3.094   4.519  14.090  0.4464 -0.3991  0.3938
  520TMC3     C 7725   2.925   0.159  14.171 -0.4299  0.6032  0.5863
  520TMC3     O 7726   2.806   0.153  14.183 -0.1024  0.0012 -0.2827
  520TMC3     H 7727   2.803   4.655  14.194 -1.4665  0.1660 -1.2056
  520TMC3    H1 7728   3.199   0.105  14.109 -0.6119  0.1658 -0.3733
  520TMC3    H2 7729   3.126   4.418  14.071  0.3864  0.0215 -1.9677
  520TMC3    C7 7730   3.318   4.609  14.119  0.5094  1.1004  0.4472
  520TMC3    C8 7731   2.875   4.435  14.032 -0.0995  0.7564  0.0336
  520TMC3    O1 7732   3.345   4.514  14.191  0.2417  0.2499 -0.4328
  520TMC3    O2 7733   2.906   4.317  14.027  0.4391  0.0150 -0.3831
  521MPD2     C 7734   4.297   2.830  17.663 -0.4146  0.1004  0.4349
  521MPD2    C1 7735   4.184   2.869  17.604  0.6168 -0.1570 -0.4171
  521MPD2    C2 7736   4.191   2.958  17.502  0.7594  0.6943 -0.5556
  521MPD2    C3 7737   4.317   3.001  17.454  0.5121 -0.4438 -0.1562
  521MPD2    C4 7738   4.433   2.949  17.505  0.2776  0.2783  0.3555
  521MPD2    C5 7739   4.417   2.867  17.615 -0.3868 -0.0064  0.6870
  521MPD2     H 7740   4.098   2.993  17.459  0.6765 -1.8338 -2.3888
  521MPD2    H1 7741   4.534   2.960  17.468  0.4066  1.5301  1.0726
  521MPD2    H2 7742   4.300   2.764   0.050  0.7480 -0.0264  0.3030
  521MPD2    H3 7743   4.501   2.818  17.662  0.9807 -0.7430 -2.5129
  521MPD2     N 7744   4.321   3.095  17.346  0.3637  0.4055  0.3950
  521MPD2    H5 7745   4.232   3.112  17.299 -0.7548 -1.3406  1.9150
  521MPD2    N1 7746   4.061   2.830  17.661 -0.2961 -0.1000  0.4165
  521MPD2    H7 7747   4.076   2.764   0.038 -0.0744  0.6232  1.0030
  522TMC3    C1 7748   4.417   3.249  17.190 -0.5983 -0.1426 -0.0851
  522TMC3    C2 7749   4.530   3.293  17.129  0.9348  0.6370 -0.6719
  522TMC3    C3 7750   4.527   3.412  17.064  0.3148 -0.4777  0.8940
  522TMC3    C4 7751   4.304   3.324  17.187  0.6653  0.1517 -0.3394
  522TMC3    C5 7752   4.308   3.445  17.126  0.2052 -0.3290  0.7380
  522TMC3    C6 7753   4.416   3.486  17.047 -0.3258 -0.4791 -0.6666
  522TMC3     C 7754   4.438   3.144  17.286 -0.6238  0.1064  0.4053
  522TMC3     O 7755   4.557   3.130  17.316  0.2099 -0.3652  0.3856
  522TMC3     H 7756   4.630   3.256  17.151  0.1513 -0.9234  0.2351
  522TMC3    H1 7757   4.217   3.294  17.245 -0.1301  1.9591 -0.5811
  522TMC3    H2 7758   4.418   3.584  16.999 -1.2078  1.2640  2.8372
  522TMC3    C7 7759   4.177   3.520  17.105 -0.0519  0.4142  0.2730
  522TMC3    C8 7760   4.653   3.453  17.003 -0.0872  0.8577  0.6371
  522TMC3    O1 7761   4.186   3.641  17.084 -0.3776 -0.0772  0.2019
  522TMC3    O2 7762   4.677   3.573  17.014  0.7613  0.1884  0.2473
  523MPD2     C 7763   1.360   2.136  10.614  0.2014 -0.6817  0.0828
  523MPD2    C1 7764   1.373   2.132  10.473  0.4144  0.1769  1.1390
  523MPD2    C2 7765   1.387   2.255  10.409  0.0756  0.0647  0.6147
  523MPD2    C3 7766   1.368   2.376  10.470 -0.5035  0.2233  0.3946
  523MPD2    C4 7767   1.349   2.371  10.604  0.5846  0.5139  0.3812
  523MPD2    C5 7768   1.349   2.257  10.671  0.7559  0.2350 -0.2545
  523MPD2     H 7769   1.426   2.255  10.308  0.0507  0.0829  0.6053
  523MPD2    H1 7770   1.316   2.455  10.664 -0.2886  0.6303 -0.2553
  523MPD2    H2 7771   1.343   2.043  10.668  0.9296  0.7038  2.6879
  523MPD2    H3 7772   1.328   2.271  10.777 -0.9104  0.1958 -0.5829
  523MPD2     N 7773   1.386   2.501  10.388  0.5984 -0.3463  0.0341
  523MPD2    H5 7774   1.448   2.490  10.308  0.5416  0.2942 -0.1005
  523MPD2    N1 7775   1.408   2.005  10.415 -0.5792  0.3145  0.1485
  523MPD2    H7 7776   1.452   1.928  10.465 -0.4627  0.2991  0.0211
  524TMC3    C1 7777   1.428   2.735  10.376  0.3435  0.1483  0.6283
  524TMC3    C2 7778   1.527   2.698  10.283 -0.3475 -0.7526  0.6295
  524TMC3    C3 7779   1.581   2.804  10.217 -0.7406  0.3237 -0.4008
  524TMC3    C4 7780   1.371   2.859  10.386  0.1840 -0.0517  0.0050
  524TMC3    C5 7781   1.428   2.954  10.309 -0.3535  0.2274  0.3179
  524TMC3    C6 7782   1.541   2.939  10.228 -0.2597  0.0142 -0.0360
  524TMC3     C 7783   1.352   2.624  10.434 -0.4181  1.0141  0.8073
  524TMC3     O 7784   1.277   2.645  10.527 -0.0639  0.0905  0.7202
  524TMC3     H 7785   1.571   2.600  10.292  1.3919 -0.1276 -0.9247
  524TMC3    H1 7786   1.297   2.892  10.457 -0.3366  0.8356 -0.9426
  524TMC3    H2 7787   1.574   3.006  10.150 -0.2047  1.8853  1.6169
  524TMC3    C7 7788   1.347   3.076  10.294  0.3248  1.1204  1.3523
  524TMC3    C8 7789   1.703   2.792  10.149  0.0674 -0.1990 -0.1187
  524TMC3    O1 7790   1.237   3.069  10.339 -0.0484 -0.2421 -0.2767
  524TMC3    O2 7791   1.759   2.897  10.122 -0.1179  0.0157  0.0470
  525MPD2     C 7792   4.274   4.683  14.448 -0.3947  0.1741  0.5592
  525MPD2    C1 7793   4.385   0.025  14.516  0.1983 -0.3604 -0.0119
  525MPD2    C2 7794   4.406   0.157  14.498  0.5040 -0.2703  0.4070
  525MPD2    C3 7795   4.327   0.234  14.410 -0.9796 -0.6904 -0.3651
  525MPD2    C4 7796   4.219   0.173  14.350 -0.7059 -0.1846 -0.5083
  525MPD2    C5 7797   4.199   0.038  14.368 -0.0291  0.6403  0.2536
  525MPD2     H 7798   4.492   0.202  14.548  0.4235 -1.9694  2.0460
  525MPD2    H1 7799   4.144   0.223  14.290 -0.5104  0.9764  0.2191
  525MPD2    H2 7800   4.246   4.578  14.454 -0.6293  0.3042  1.8329
  525MPD2    H3 7801   4.120   4.709  14.317 -2.4306  1.9476  2.6492
  525MPD2     N 7802   4.330   0.380  14.419  0.1080  0.1941 -0.0556
  525MPD2    H5 7803   4.242   0.431  14.414 -0.3305 -0.7378 -1.8062
  525MPD2    N1 7804   4.461   4.674  14.610  0.0080  0.2753  0.1169
  525MPD2    H7 7805   4.539   4.713  14.663  0.3391  0.4313 -0.4737
  526TMC3    C1 7806   4.536   4.478  14.719 -0.0045  0.0848 -0.2958
  526TMC3    C2 7807   4.502   4.403  14.835 -0.7588  0.4037 -0.6843
  526TMC3    C3 7808   4.599   4.391  14.930  0.5321  0.0831 -0.0444
  526TMC3    C4 7809   4.657   4.528  14.712 -0.0201  0.1292  0.1484
  526TMC3    C5 7810   0.020   4.514  14.815  0.2434  0.1151  0.4238
  526TMC3    C6 7811   4.718   4.451  14.928 -0.3765  0.2311  0.0136
  526TMC3     C 7812   4.427   4.544  14.648 -0.6861 -0.2510 -0.0769
  526TMC3     O 7813   4.315   4.488  14.655  0.1294  0.3912  0.2962
  526TMC3     H 7814   4.397   4.382  14.851 -0.7282  0.8897  0.1868
  526TMC3    H1 7815   4.688   4.589  14.628  3.2077 -1.1059  0.4645
  526TMC3    H2 7816   0.069   4.435  15.004  1.0668  0.7324 -1.2950
  526TMC3    C7 7817   0.158   4.562  14.801 -0.6457 -0.5719 -0.4698
  526TMC3    C8 7818   4.564   4.326  15.056 -0.1659 -1.1290 -0.4166
  526TMC3    O1 7819   0.224   4.579  14.901  0.6679 -0.4744 -0.2559
  526TMC3    O2 7820   4.626   4.345  15.157  0.7223  0.4039 -0.1143
  527MPD2     C 7821   3.165   1.734   2.052  0.6585  0.3225 -0.2539
  527MPD2    C1 7822   3.169   1.808   1.934  0.5199  0.3578 -0.3644
  527MPD2    C2 7823   3.210   1.747   1.822 -0.2969 -0.2396  0.1725
  527MPD2    C3 7824   3.240   1.615   1.819  0.3073 -0.7698 -0.0503
  527MPD2    C4 7825   3.244   1.538   1.940  0.2509  0.5452 -0.2283
  527MPD2    C5 7826   3.194   1.601   2.049 -0.4517 -0.7661  0.2348
  527MPD2     H 7827   3.211   1.804   1.729 -0.5739 -1.7631 -0.7703
  527MPD2    H1 7828   3.244   1.430   1.941  2.3011  0.5514  1.1225
  527MPD2    H2 7829   3.135   1.778   2.147 -0.5033 -0.5351 -0.2163
  527MPD2    H3 7830   3.193   1.550   2.144 -1.2702  0.4359  0.8618
  527MPD2     N 7831   3.268   1.563   1.689  0.3579  1.1042  0.0472
  527MPD2    H5 7832   3.232   1.618   1.612  2.0998  2.1461 -0.0211
  527MPD2    N1 7833   3.134   1.943   1.928  0.7089 -0.2394 -0.2284
  527MPD2    H7 7834   3.138   1.992   1.840 -2.6163 -1.0401 -0.8067
  528TMC3    C1 7835   3.054   2.155   1.986  0.2424  0.4222 -0.2357
  528TMC3    C2 7836   3.095   2.250   2.073 -0.0028  0.5150  0.3343
  528TMC3    C3 7837   3.118   2.376   2.014  0.2670 -0.5085  0.0676
  528TMC3    C4 7838   3.028   2.180   1.855 -0.0333 -0.2258  0.4092
  528TMC3    C5 7839   3.051   2.302   1.799  0.0603 -1.0436 -0.1917
  528TMC3    C6 7840   3.096   2.402   1.877 -0.0405 -0.4124  0.8100
  528TMC3     C 7841   3.084   2.021   2.029 -0.0656 -0.1403 -0.6458
  528TMC3     O 7842   3.060   1.990   2.145 -0.2587 -0.2131  0.5123
  528TMC3     H 7843   3.145   2.211   2.161 -0.9604 -0.3478  0.5015
  528TMC3    H1 7844   2.965   2.105   1.807  1.8585 -0.2011 -2.1267
  528TMC3    H2 7845   3.109   2.501   1.835 -2.2088 -0.2849  0.4285
  528TMC3    C7 7846   3.051   2.334   1.653  0.5577 -0.4522 -0.7310
  528TMC3    C8 7847   3.190   2.476   2.095  0.5485 -0.1356  0.0860
  528TMC3    O1 7848   3.078   2.450   1.616  0.3408  0.2365  0.6185
  528TMC3    O2 7849   3.228   2.575   2.034  0.4230  0.2003  0.2685
  529MPD2     C 7850   0.195   1.287   0.658 -0.0311 -0.4685  0.1110
  529MPD2    C1 7851   0.158   1.156   0.645  0.3254  0.4529  0.0437
  529MPD2    C2 7852   0.070   1.114   0.543 -0.0227  0.5307  0.0962
  529MPD2    C3 7853   0.020   1.216   0.455  0.4345 -0.0148 -0.1194
  529MPD2    C4 7854   0.070   1.345   0.463 -0.1649 -0.5458  0.7488
  529MPD2    C5 7855   0.154   1.376   0.561 -0.2386  0.0259 -0.1656
  529MPD2     H 7856   0.025   1.016   0.544  1.5120 -0.1969 -1.1781
  529MPD2    H1 7857   0.029   1.419   0.395  2.5142 -0.7563 -1.0949
  529MPD2    H2 7858   0.269   1.324   0.728 -0.1630  1.2454 -0.6599
  529MPD2    H3 7859   0.203   1.470   0.585 -0.4435 -0.1059  0.7921
  529MPD2     N 7860   4.655   1.195   0.347  0.6344 -0.2668 -0.4435
  529MPD2    H5 7861   4.619   1.278   0.300 -1.3223 -1.2281 -0.6228
  529MPD2    N1 7862   0.202   1.059   0.739 -0.2034  0.2173  0.5118
  529MPD2    H7 7863   0.197   0.960   0.717  2.1091 -0.0038  0.9895
  530TMC3    C1 7864   0.298   0.980   0.948 -0.0977  0.0610 -0.1483
  530TMC3    C2 7865   0.334   1.024   1.070  0.2493  0.1595 -0.1361
  530TMC3    C3 7866   0.401   0.940   1.152  0.2698 -0.7932 -0.4862
  530TMC3    C4 7867   0.322   0.854   0.904  0.4135 -0.0579 -0.0870
  530TMC3    C5 7868   0.397   0.774   0.992  0.5278  0.4043 -0.0606
  530TMC3    C6 7869   0.445   0.811   1.117 -0.7969 -0.6328 -0.1846
  530TMC3     C 7870   0.253   1.095   0.863  0.7130 -0.2116  0.9780
  530TMC3     O 7871   0.268   1.205   0.912 -0.4351 -0.1737 -0.0025
  530TMC3     H 7872   0.318   1.121   1.114  1.7563  0.4201 -0.1622
  530TMC3    H1 7873   0.297   0.826   0.803  0.5542 -0.1703 -0.0916
  530TMC3    H2 7874   0.501   0.750   1.186  0.1847  1.8341  1.2273
  530TMC3    C7 7875   0.349   0.644   0.978  0.0168 -0.1674 -0.4680
  530TMC3    C8 7876   0.430   0.976   1.291 -1.3143  0.4083 -0.0973
  530TMC3    O1 7877   0.235   0.642   0.934  0.0049  0.2140  0.1514
  530TMC3    O2 7878   0.341   1.036   1.346 -0.2706  1.2084  0.1675
  531MPD2     C 7879   3.034   3.399  13.005  0.6284  0.4505 -0.2231
  531MPD2    C1 7880   2.924   3.480  13.034 -0.0900  0.7292  0.5508
  531MPD2    C2 7881   2.860   3.555  12.935 -0.1928  0.2601  0.2957
  531MPD2    C3 7882   2.902   3.543  12.806  0.3553 -0.3857 -0.2450
  531MPD2    C4 7883   3.012   3.467  12.776  0.2118 -0.0774 -0.7592
  531MPD2    C5 7884   3.073   3.399  12.878  0.1559  0.7746  0.8646
  531MPD2     H 7885   2.771   3.611  12.961  1.4164  2.2592  1.4319
  531MPD2    H1 7886   3.073   3.471  12.686  0.5514  0.3553 -0.5080
  531MPD2    H2 7887   3.097   3.344  13.074 -1.6656  0.1749  1.6588
  531MPD2    H3 7888   3.159   3.336  12.861  0.1743  1.2390 -0.8668
  531MPD2     N 7889   2.837   3.625  12.717 -0.1972 -0.1634  0.7528
  531MPD2    H5 7890   2.775   3.694  12.758 -3.0235 -1.9395 -0.4715
  531MPD2    N1 7891   2.879   3.493  13.170 -0.7537  0.4395 -0.7641
  531MPD2    H7 7892   2.915   3.421  13.232 -1.5958 -1.4436 -2.4537
  532TMC3    C1 7893   2.769   3.587  13.358  0.4873 -0.0557  0.0618
  532TMC3    C2 7894   2.687   3.692  13.380 -0.1446 -0.4184  0.2442
  532TMC3    C3 7895   2.722   3.793  13.461 -0.3112 -0.0276  0.4883
  532TMC3    C4 7896   2.881   3.569  13.432 -0.1864  0.2200 -1.1945
  532TMC3    C5 7897   2.914   3.672  13.516 -0.0272  0.0398 -1.3524
  532TMC3    C6 7898   2.829   3.777  13.539  0.5973 -0.3508 -0.0453
  532TMC3     C 7899   2.808   3.596  13.217  0.7220 -0.5207  0.0237
  532TMC3     O 7900   2.787   3.709  13.171  0.7070  0.2079  0.2484
  532TMC3     H 7901   2.595   3.695  13.323 -0.5953  0.7339  1.0335
  532TMC3    H1 7902   2.960   3.495  13.423 -1.0379 -0.5057 -2.5363
  532TMC3    H2 7903   2.851   3.862  13.601 -2.0963  0.3683 -0.0783
  532TMC3    C7 7904   3.037   3.676  13.591 -0.2573 -0.3680 -0.0838
  532TMC3    C8 7905   2.697   3.926  13.413  0.0226 -0.1258  0.6857
  532TMC3    O1 7906   3.073   3.568  13.638  0.0714  0.4120  0.1721
  532TMC3    O2 7907   2.710   4.025  13.485  0.5253  0.0165  0.3987
  533TMC3    C1 7908   4.385   0.590  14.505  0.4047  0.4379 -0.4505
  533TMC3    C2 7909   4.485   0.684  14.490  0.1305 -0.3856  0.1184
  533TMC3    C3 7910   4.480   0.800  14.563  0.0944 -0.0197  0.1981
  533TMC3    C4 7911   4.296   0.595  14.605 -0.2797  0.0893 -0.3283
  533TMC3    C5 7912   4.313   0.689  14.703 -0.2694  0.9784  0.7726
  533TMC3    C6 7913   4.389   0.805  14.669 -0.1649  0.2456 -0.0609
  533TMC3     C 7914   4.430   0.456  14.466  0.3352 -0.1529 -0.0990
  533TMC3     O 7915   4.549   0.424  14.465  0.2640 -0.2896  0.5594
  533TMC3     H 7916   4.570   0.669  14.425 -0.3132 -1.0734 -0.3059
  533TMC3    H1 7917   4.248   0.503  14.637 -2.1314  1.5542  1.0974
  533TMC3    H2 7918   4.388   0.890  14.737 -1.8881 -0.4807  0.8172
  533TMC3    C7 7919   4.357   0.629  14.828  0.5239 -0.3401 -0.0684
  533TMC3    C8 7920   4.604   0.856  14.608 -0.4851 -0.1976  0.1847
  533TMC3    O1 7921   4.326   0.513  14.844 -0.4100 -0.2790  0.0172
  533TMC3    O2 7922   4.617   0.869  14.731 -0.1078 -0.5478 -0.3142
  534MPD2     C 7923   2.946   1.293   2.137 -0.1173  0.3212  0.6790
  534MPD2    C1 7924   2.836   1.369   2.143  0.0418 -0.1581  0.0588
  534MPD2    C2 7925   2.717   1.319   2.090  0.4477  0.2525 -0.3657
  534MPD2    C3 7926   2.712   1.190   2.038  1.1370 -0.5722 -0.3796
  534MPD2    C4 7927   2.825   1.108   2.039  0.3195 -0.0736  0.3225
  534MPD2    C5 7928   2.941   1.162   2.086 -0.3671 -0.2361 -0.5098
  534MPD2     H 7929   2.629   1.382   2.091  0.3058  0.0280  1.0819
  534MPD2    H1 7930   2.827   1.007   1.999 -2.9952  0.0548 -0.1664
  534MPD2    H2 7931   3.044   1.331   2.161 -0.2713  1.0730  0.1150
  534MPD2    H3 7932   3.030   1.101   2.086 -0.2888 -0.1207  1.0510
  534MPD2     N 7933   2.605   1.132   1.974  0.6702  0.0052 -0.1658
  534MPD2    H5 7934   2.619   1.041   1.932 -2.4469 -0.7798  0.4907
  534MPD2    N1 7935   2.825   1.502   2.192  0.4310  0.1287 -0.5523
  534MPD2    H7 7936   2.733   1.543   2.176  0.3254  0.3496  0.6847
  535TMC3    C1 7937   2.397   1.118   1.855  0.2700  0.1319  1.1721
  535TMC3    C2 7938   2.262   1.153   1.862  0.0739 -0.0845 -0.1773
  535TMC3    C3 7939   2.188   1.108   1.759 -0.0424  0.5713 -0.2142
  535TMC3    C4 7940   2.453   1.041   1.755 -0.3718  0.5341  1.1636
  535TMC3    C5 7941   2.371   0.994   1.655 -0.3405  0.0830 -0.8014
  535TMC3    C6 7942   2.244   1.034   1.651  0.2307 -0.1521  0.5254
  535TMC3     C 7943   2.480   1.194   1.951 -0.6326  0.6982 -0.2119
  535TMC3     O 7944   2.434   1.290   2.013 -0.3094  0.0826  0.9532
  535TMC3     H 7945   2.224   1.206   1.948 -1.0297 -0.7034 -0.2908
  535TMC3    H1 7946   2.559   1.024   1.737 -0.3328  3.2254 -1.1814
  535TMC3    H2 7947   2.177   1.010   1.568  1.2562 -2.9457  0.5044
  535TMC3    C7 7948   2.431   0.926   1.541 -0.2121  0.0502  0.2130
  535TMC3    C8 7949   2.041   1.115   1.776  0.2119 -0.1414 -0.5799
  535TMC3    O1 7950   2.549   0.938   1.520  0.4831 -0.0864 -0.4141
  535TMC3    O2 7951   1.981   1.069   1.680 -0.7548 -0.0446 -0.8952
  536MPD2     C 7952   1.188   4.699  16.878 -0.6082  0.2927 -0.2150
  536MPD2    C1 7953   1.202   4.559  16.897 -0.2001  0.0076  0.2024
  536MPD2    C2 7954   1.163   4.474  16.794 -0.2932 -0.4358 -0.1367
  536MPD2    C3 7955   1.111   4.529  16.674  0.2290 -0.1856  0.1587
  536MPD2    C4 7956   1.106   4.665  16.665 -0.3125  0.5487  0.0524
  536MPD2    C5 7957   1.147   0.028  16.764 -0.2287  0.0632 -0.0285
  536MPD2     H 7958   1.173   4.367  16.811 -0.1016 -0.3167  0.5062
  536MPD2    H1 7959   1.081   4.717  16.573 -2.4041  0.8906  0.8120
  536MPD2    H2 7960   1.214   0.044  16.957 -2.5601  2.0602 -1.1172
  536MPD2    H3 7961   1.152   0.134  16.745 -0.2360  0.1036  0.1948
  536MPD2     N 7962   1.082   4.460  16.552 -0.2220  0.0647  0.2699
  536MPD2    H5 7963   1.038   4.518  16.481  1.4148  2.0029  0.8460
  536MPD2    N1 7964   1.244   4.523  17.026 -0.2565  0.1455 -0.5597
  536MPD2    H7 7965   1.275   4.601  17.084  0.2022 -1.0939  0.8510
  537TMC3    C1 7966   1.261   4.416  17.235 -0.2118  0.1830 -0.2197
  537TMC3    C2 7967   1.347   4.511  17.289 -0.1509  0.0786  0.0842
  537TMC3    C3 7968   1.361   4.518  17.422 -0.7868  0.3713  0.6224
  537TMC3    C4 7969   1.196   4.327  17.317  0.2815 -0.0788 -0.3258
  537TMC3    C5 7970   1.225   4.331  17.452  0.8110 -0.0045 -0.2906
  537TMC3    C6 7971   1.302   4.431  17.510  0.1554  0.1082 -0.2339
  537TMC3     C 7972   1.231   4.399  17.090  0.4394  0.2248 -0.3823
  537TMC3     O 7973   1.186   4.293  17.054  0.5271 -0.0205  0.2138
  537TMC3     H 7974   1.410   4.569  17.221  0.9335 -1.1026  0.0730
  537TMC3    H1 7975   1.117   4.261  17.284 -0.7672  1.0546 -0.0742
  537TMC3    H2 7976   1.317   4.424  17.617  2.8474  1.5459 -0.5265
  537TMC3    C7 7977   1.124   4.265  17.539 -0.0394  0.1847  0.3259
  537TMC3    C8 7978   1.456   4.606  17.483 -0.3154 -0.0708  0.0441
  537TMC3    O1 7979   1.069   4.348  17.610  0.0147 -0.3065 -0.5443
  537TMC3    O2 7980   1.503   4.588  17.593 -0.2988 -0.2531  0.6065
  538TMC3    C1 7981   2.272   2.301  10.479 -0.3286  0.4439  0.9024
  538TMC3    C2 7982   2.403   2.328  10.495  0.2705  0.2734  0.4194
  538TMC3    C3 7983   2.445   2.455  10.469 -0.2555  0.8199 -0.7542
  538TMC3    C4 7984   2.184   2.391  10.432  0.3619  0.3902  0.3920
  538TMC3    C5 7985   2.225   2.524  10.414 -0.4827  0.6080 -0.1090
  538TMC3    C6 7986   2.360   2.556  10.421  0.1611 -0.2892 -0.3130
  538TMC3     C 7987   2.210   2.190  10.555 -0.5253  0.5846 -0.2977
  538TMC3     O 7988   2.134   2.110  10.496 -0.1293 -0.0856 -0.3095
  538TMC3     H 7989   2.470   2.254  10.537  1.0695  0.0600 -1.2474
  538TMC3    H1 7990   2.080   2.361  10.433  0.9752 -1.7284 -0.8571
  538TMC3    H2 7991   2.384   2.661  10.420  1.0200 -0.4543  3.3938
  538TMC3    C7 7992   2.127   2.626  10.431 -0.4196  0.1083 -0.1512
  538TMC3    C8 7993   2.585   2.502  10.464 -0.2354  0.4455  0.2024
  538TMC3    O1 7994   2.172   2.740  10.410 -0.0074  0.3128  0.0529
  538TMC3    O2 7995   2.606   2.607  10.406 -0.4044 -0.4392  0.5486
  539MPD2     C 7996   1.481   1.505  12.199  0.6422  0.2615  0.3816
  539MPD2    C1 7997   1.490   1.515  12.058  0.8443 -0.4876  0.7052
  539MPD2    C2 7998   1.576   1.620  12.013  0.3821  0.0220 -0.4239
  539MPD2    C3 7999   1.629   1.716  12.100  0.4079 -0.1089  0.0886
  539MPD2    C4 8000   1.615   1.708  12.229  0.0120 -0.4553 -0.5776
  539MPD2    C5 8001   1.535   1.607  12.276 -0.2956 -0.1551  0.0195
  539MPD2     H 8002   1.598   1.626  11.907 -0.5218  1.2714 -0.5403
  539MPD2    H1 8003   1.673   1.769  12.297 -0.4458 -0.6997  0.0376
  539MPD2    H2 8004   1.425   1.424  12.245  1.8465 -1.0515 -0.4660
  539MPD2    H3 8005   1.532   1.585  12.382  1.2460  0.5869  0.2046
  539MPD2     N 8006   1.695   1.829  12.054  0.7942 -0.3378  0.4595
  539MPD2    H5 8007   1.727   1.886  12.132  1.6689 -1.2216  0.7460
  539MPD2    N1 8008   1.428   1.419  11.971  0.1567 -0.4423  0.1723
  539MPD2    H7 8009   1.462   1.421  11.875 -2.9423 -2.6629 -0.9739
  540TMC3    C1 8010   1.780   1.983  11.893 -0.3027 -0.5912  0.6347
  540TMC3    C2 8011   1.758   2.009  11.756  0.4501 -0.3731  0.2695
  540TMC3    C3 8012   1.734   2.139  11.722  0.5898  0.5526  0.3911
  540TMC3    C4 8013   1.758   2.082  11.983  0.0590  0.2505  0.0761
  540TMC3    C5 8014   1.731   2.211  11.939 -0.2745 -0.0943  0.3417
  540TMC3    C6 8015   1.725   2.240  11.809  0.2382 -0.2272  0.9937
  540TMC3     C 8016   1.752   1.849  11.930 -0.1547  0.4909  0.6201
  540TMC3     O 8017   1.749   1.773  11.834 -0.3200 -0.1050 -0.0469
  540TMC3     H 8018   1.769   1.935  11.678 -1.4831  1.4063 -1.6623
  540TMC3    H1 8019   1.768   2.068  12.090 -1.9561 -4.3857 -0.3685
  540TMC3    H2 8020   1.719   2.345  11.783  2.9754 -0.5455 -0.9259
  540TMC3    C7 8021   1.642   2.290  12.021  0.4535  0.2802  1.0345
  540TMC3    C8 8022   1.790   2.184  11.594 -0.4211  0.7499 -0.1196
  540TMC3    O1 8023   1.548   2.343  11.962 -0.4177  0.2202 -0.3497
  540TMC3    O2 8024   1.886   2.266  11.599  0.4439 -0.7219  0.2842
  541MPD2     C 8025   4.525   3.853  13.141  0.5909  0.4901  0.0520
  541MPD2    C1 8026   4.529   3.775  13.024  0.7075 -0.0913 -0.3024
  541MPD2    C2 8027   4.514   3.835  12.900  0.2647  0.2830 -0.0896
  541MPD2    C3 8028   4.498   3.975  12.891 -0.6527  0.4353  0.4576
  541MPD2    C4 8029   4.499   4.050  13.008 -0.0106 -0.2585 -0.0509
  541MPD2    C5 8030   4.504   3.983  13.125  0.2417 -0.4894 -0.0483
  541MPD2     H 8031   4.516   3.777  12.808 -3.5629 -0.4643  0.2752
  541MPD2    H1 8032   4.477   4.156  13.006 -3.4193 -0.9554  1.3611
  541MPD2    H2 8033   4.529   3.809  13.240  1.8859  0.3335 -0.0716
  541MPD2    H3 8034   4.497   4.040  13.218  1.5810 -0.1134 -0.1784
  541MPD2     N 8035   4.507   4.042  12.771  0.1900  0.4558 -0.3070
  541MPD2    H5 8036   4.494   4.141  12.788 -2.8873  0.0369 -0.3015
  541MPD2    N1 8037   4.539   3.635  13.036 -0.5549  0.1053  0.3655
  541MPD2    H7 8038   4.533   3.599  13.131 -0.3284  0.2499  0.4330
  542TMC3    C1 8039   4.547   4.114  12.544  0.0697  0.5103  0.0400
  542TMC3    C2 8040   4.577   4.077  12.416  0.1740 -0.3322  0.1099
  542TMC3    C3 8041   4.631   4.167  12.325 -0.1990 -0.4693 -0.4267
  542TMC3    C4 8042   4.572   4.245  12.592  1.1445 -0.6856 -0.0663
  542TMC3    C5 8043   4.628   4.321  12.495  0.1540 -0.4596 -0.6987
  542TMC3    C6 8044   4.648   4.296  12.361  0.7091 -0.1032  0.8707
  542TMC3     C 8045   4.524   3.999  12.639 -0.0241 -0.0322  0.1292
  542TMC3     O 8046   4.543   3.887  12.604 -0.1209 -0.0406 -0.1994
  542TMC3     H 8047   4.549   3.977  12.383 -2.1176 -0.1048  1.3562
  542TMC3    H1 8048   4.560   4.277  12.694 -0.7843 -1.1395 -0.1450
  542TMC3    H2 8049   4.715   4.360  12.304  0.0309  0.3874  0.6290
  542TMC3    C7 8050   4.681   4.450  12.541 -0.3356 -0.1931 -0.2369
  542TMC3    C8 8051   4.658   4.124  12.186  0.0904 -0.0350 -0.2252
  542TMC3    O1 8052   4.679   4.466  12.662 -0.2400 -0.5214  0.3219
  542TMC3    O2 8053   4.653   4.005  12.158 -0.1465  0.4976  0.2589
  543TMC3    C1 8054   4.427   0.249  16.793  0.7347 -0.2278 -0.6334
  543TMC3    C2 8055   4.364   0.156  16.871 -0.3558  0.3058 -0.5116
  543TMC3    C3 8056   4.353   0.173  17.002 -0.4315 -0.2092 -0.4208
  543TMC3    C4 8057   4.484   0.365  16.849 -0.2550  0.1210 -0.3369
  543TMC3    C5 8058   4.473   0.372  16.985 -0.0095  0.5851 -0.2387
  543TMC3    C6 8059   4.403   0.279  17.063  0.6034  0.0060 -0.0338
  543TMC3     C 8060   4.484   0.210  16.664 -0.0176 -0.1305  0.5229
  543TMC3     O 8061   4.517   0.296  16.588  0.1956 -0.0831  0.4231
  543TMC3     H 8062   4.331   0.064  16.823 -0.3548  1.0469 -1.9477
  543TMC3    H1 8063   4.540   0.434  16.787 -2.1195  0.4069 -1.6934
  543TMC3    H2 8064   4.403   0.274  17.172  0.2643  0.5076 -0.0114
  543TMC3    C7 8065   4.572   0.459  17.051  0.5567  0.3530  0.1492
  543TMC3    C8 8066   4.346   0.052  17.085 -0.1517  0.4872 -0.2564
  543TMC3    O1 8067   4.579   0.438  17.166  0.2057 -0.6019 -0.2794
  543TMC3    O2 8068   4.415   4.685  17.036 -0.0115  0.2848  0.2206
  544MPD2     C 8069   4.184   4.472  17.463 -0.2845  0.0979 -0.0811
  544MPD2    C1 8070   4.290   4.462  17.381 -0.7123  0.4678  0.4614
  544MPD2    C2 8071   4.322   4.568  17.289  0.3815 -0.3797  0.1712
  544MPD2    C3 8072   4.243   4.679  17.281  0.4379 -0.2308  0.2675
  544MPD2    C4 8073   4.132   4.684  17.360  0.0613  0.7011  0.1415
  544MPD2    C5 8074   4.105   4.585  17.450  0.6600  0.3502  0.0603
  544MPD2     H 8075   4.415   4.561  17.234  0.6147 -2.3436  0.8106
  544MPD2    H1 8076   4.054   0.033  17.346 -0.9594 -0.5610 -0.8072
  544MPD2    H2 8077   4.144   4.403  17.538 -0.4101  0.4429  0.1693
  544MPD2    H3 8078   4.022   4.596  17.519  1.4139  1.1176  0.8654
  544MPD2     N 8079   4.261   0.056  17.192 -0.2940 -0.5739 -0.1507
  544MPD2    H5 8080   4.200   0.136  17.204 -0.6580 -0.6069 -1.7862
  544MPD2    N1 8081   4.366   4.340  17.395  0.8695 -0.3617 -0.4816
  544MPD2    H7 8082   4.333   4.275  17.466  0.1706  0.7354  0.2079
  545TMC3    C1 8083   4.535   4.177  17.357  0.5513 -0.2849  0.2081
  545TMC3    C2 8084   4.633   4.135  17.274 -0.0702  0.0252  0.0488
  545TMC3    C3 8085   4.702   4.028  17.320  0.1881 -0.1123 -0.9207
  545TMC3    C4 8086   4.504   4.128  17.478 -0.3667  0.3282 -0.1665
  545TMC3    C5 8087   4.582   4.023  17.526  0.4408  0.3820  0.0133
  545TMC3    C6 8088   4.682   3.977  17.447  0.0552  0.1971  0.0100
  545TMC3     C 8089   4.464   4.295  17.312  0.0760  0.8649 -1.0309
  545TMC3     O 8090   4.479   4.333  17.196  0.2537 -0.6375  0.4731
  545TMC3     H 8091   4.645   4.182  17.177 -0.1457  1.0259  0.5208
  545TMC3    H1 8092   4.428   4.174  17.539 -2.3117 -1.7209 -1.0718
  545TMC3    H2 8093   0.027   3.905  17.489  0.6769 -1.1123 -3.2677
  545TMC3    C7 8094   4.552   3.982  17.659  0.2868  0.9017  0.4386
  545TMC3    C8 8095   0.089   3.982  17.233  0.0492 -0.6914 -0.7765
  545TMC3    O1 8096   4.476   4.054   0.023  0.2129  0.5492 -0.1726
  545TMC3    O2 8097   0.130   4.058  17.148 -0.3286  0.0377  0.2815
  546MPD2     C 8098   1.155   4.693   0.065  1.1156 -0.4100  0.1643
  546MPD2    C1 8099   1.122   0.006  17.634 -0.6892  0.1196 -0.5424
  546MPD2    C2 8100   1.155   0.128  17.579  0.3012 -0.0768 -0.0906
  546MPD2    C3 8101   1.223   0.220  17.656 -0.2705  0.3173 -0.5616
  546MPD2    C4 8102   1.238   0.188   0.094  0.9737 -0.2742  0.6947
  546MPD2    C5 8103   1.207   0.067   0.149  0.5934  0.4847 -0.7776
  546MPD2     H 8104   1.134   0.162  17.479 -0.4362 -1.9234 -0.5689
  546MPD2    H1 8105   1.275   0.260   0.166  2.7830 -2.1442  1.6515
  546MPD2    H2 8106   1.129   4.595   0.103  0.4066  0.4975  2.0319
  546MPD2    H3 8107   1.234   0.030   0.247 -0.8508  1.1789 -0.1189
  546MPD2     N 8108   1.254   0.357  17.620  0.4740  0.9440  0.2031
  546MPD2    H5 8109   1.271   0.406   0.008  3.1094  1.3821 -0.5846
  546MPD2    N1 8110   1.047   4.634  17.559  0.0700 -1.0145 -0.0223
  546MPD2    H7 8111   1.027   4.546  17.606  0.2246 -1.3535 -0.5859
  547TMC3    C1 8112   0.904   4.551  17.404  0.1412  1.2891 -0.0365
  547TMC3    C2 8113   0.900   4.499  17.276  0.3349 -0.4345 -0.3705
  547TMC3    C3 8114   0.831   4.383  17.260 -0.1727 -0.3032 -0.3021
  547TMC3    C4 8115   0.839   4.494  17.508 -0.6193 -0.7631  1.2073
  547TMC3    C5 8116   0.765   4.385  17.489 -0.3314 -0.0107  0.5566
  547TMC3    C6 8117   0.767   4.323  17.370 -0.0570 -0.5257 -0.2307
  547TMC3     C 8118   1.003   4.649  17.430  0.4537  1.4012 -0.9136
  547TMC3     O 8119   1.043   4.722  17.340  0.1955 -0.2892 -0.1090
  547TMC3     H 8120   0.953   4.555  17.199  0.2176 -2.0531 -1.6219
  547TMC3    H1 8121   0.818   4.547  17.600 -2.2749  0.0214  0.3943
  547TMC3    H2 8122   0.725   4.223  17.357 -0.1590 -0.2560 -1.9982
  547TMC3    C7 8123   0.708   4.324  17.610  0.3112  0.4474  0.1223
  547TMC3    C8 8124   0.827   4.333  17.118 -0.5703 -0.1542  0.2930
  547TMC3    O1 8125   0.701   4.399   0.011 -0.6416 -0.1633 -0.5636
  547TMC3    O2 8126   0.903   4.381  17.036  0.1852  0.5991 -0.4392
  548MPD2     C 8127   0.851   0.341  12.331  0.9543 -0.0229 -0.0546
  548MPD2    C1 8128   0.799   0.306  12.453  0.2232 -0.6878 -0.2852
  548MPD2    C2 8129   0.759   0.175  12.474 -0.1533  0.4025 -0.2247
  548MPD2    C3 8130   0.763   0.079  12.373 -0.9310  0.6693 -0.3011
  548MPD2    C4 8131   0.811   0.117  12.247 -0.2123  0.1890 -0.7219
  548MPD2    C5 8132   0.865   0.246  12.238 -0.1837 -0.1783 -0.2622
  548MPD2     H 8133   0.725   0.142  12.571 -4.7839  0.2238 -1.8818
  548MPD2    H1 8134   0.836   0.046  12.170 -2.0484 -0.2978 -0.8696
  548MPD2    H2 8135   0.876   0.442  12.304  1.7064  0.3394  1.9615
  548MPD2    H3 8136   0.912   0.275  12.145  0.0937  3.3897  0.9942
  548MPD2     N 8137   0.731   4.669  12.402  0.3504 -0.4775 -0.3697
  548MPD2    H5 8138   0.727   4.647  12.501 -0.1913 -1.2076 -0.5576
  548MPD2    N1 8139   0.787   0.414  12.547  0.5047 -0.8127 -0.0698
  548MPD2    H7 8140   0.816   0.503  12.509  0.3667 -1.2078 -1.0827
  549TMC3    C1 8141   0.701   0.531  12.740 -0.6056 -0.3347 -0.4263
  549TMC3    C2 8142   0.629   0.633  12.678  0.6010 -0.0034  0.1831
  549TMC3    C3 8143   0.566   0.733  12.751 -0.3486 -0.0846 -0.2128
  549TMC3    C4 8144   0.698   0.528  12.873  0.4755 -0.1617  0.2482
  549TMC3    C5 8145   0.619   0.620  12.934  0.0604  0.1712  0.2299
  549TMC3    C6 8146   0.556   0.729  12.891  0.5961 -0.0141 -0.5687
  549TMC3     C 8147   0.718   0.408  12.668 -0.0277 -0.4397  0.3410
  549TMC3     O 8148   0.679   0.305  12.714  0.3416 -0.1202  0.0346
  549TMC3     H 8149   0.630   0.651  12.571  0.2444  0.3750  0.2411
  549TMC3    H1 8150   0.748   0.442  12.917 -2.1582 -2.3400 -1.0082
  549TMC3    H2 8151   0.486   0.783  12.953 -2.1062  0.4004 -3.9766
  549TMC3    C7 8152   0.540   0.558  13.039 -0.4848  0.0021 -0.0751
  549TMC3    C8 8153   0.472   0.820  12.670 -0.0577 -0.4531 -0.4779
  549TMC3    O1 8154   0.501   0.615  13.140 -0.2668 -0.1603 -0.2894
  549TMC3    O2 8155   0.439   0.780  12.560  0.3942 -0.5961  0.8048
  550TMC3    C1 8156   4.184   3.400  12.747 -0.2292  0.1217 -0.2194
  550TMC3    C2 8157   4.188   3.491  12.851  0.3071 -0.5499  0.0274
  550TMC3    C3 8158   4.103   3.602  12.844 -0.0536  0.2556 -0.1796
  550TMC3    C4 8159   4.131   3.430  12.624  0.2055  0.4640  0.4132
  550TMC3    C5 8160   4.051   3.546  12.616  0.4411 -0.4344 -0.0767
  550TMC3    C6 8161   4.038   3.628  12.727 -0.3162 -0.1767  0.7683
  550TMC3     C 8162   4.290   3.304  12.737 -0.7230 -0.0744  0.5112
  550TMC3     O 8163   4.313   3.234  12.835  0.1159 -0.3610 -0.6586
  550TMC3     H 8164   4.243   3.479  12.943 -0.8063 -1.3958  0.5792
  550TMC3    H1 8165   4.111   3.353  12.550  1.0527 -0.3543  1.0336
  550TMC3    H2 8166   3.993   3.725  12.706  0.2639  0.0105  0.3772
  550TMC3    C7 8167   3.986   3.570  12.486  1.0626  0.7419  0.1505
  550TMC3    C8 8168   4.106   3.704  12.949  0.4157 -0.2919 -0.1360
  550TMC3    O1 8169   3.888   3.640  12.481 -0.6298 -0.3953 -0.3164
  550TMC3    O2 8170   4.057   3.809  12.911 -0.4766  0.5083  0.2860
  551TMC3    C1 8171   1.637   1.190  13.250  0.3059  0.0569 -0.5211
  551TMC3    C2 8172   1.740   1.181  13.159  0.2962  0.1440 -0.1981
  551TMC3    C3 8173   1.854   1.266  13.166 -0.5663  0.5697 -0.1168
  551TMC3    C4 8174   1.650   1.277  13.352  0.4988 -0.2863  0.0482
  551TMC3    C5 8175   1.763   1.353  13.369 -0.5923  0.1534 -0.1456
  551TMC3    C6 8176   1.865   1.354  13.276  0.3024 -0.5525  0.3198
  551TMC3     C 8177   1.530   1.105  13.232 -0.1593  0.5608  0.0277
  551TMC3     O 8178   1.546   1.012  13.150 -0.0227 -0.4651  0.0360
  551TMC3     H 8179   1.735   1.118  13.070  0.3256 -1.5732  1.0215
  551TMC3    H1 8180   1.580   1.270  13.435 -0.6247  0.8702 -0.7894
  551TMC3    H2 8181   1.950   1.418  13.296 -0.4888  1.2742 -2.2283
  551TMC3    C7 8182   1.771   1.435  13.492  0.3338  0.7176  0.6678
  551TMC3    C8 8183   1.954   1.266  13.064  0.2088 -0.2480  0.0562
  551TMC3    O1 8184   1.881   1.458  13.534  0.3842 -0.2910  0.0568
  551TMC3    O2 8185   1.985   1.158  13.015  0.2791  0.2027  0.2521
  552MPD2     C 8186   3.736   3.433  14.295 -0.3371  0.0032 -0.1356
  552MPD2    C1 8187   3.810   3.444  14.178  0.6138 -0.8346 -0.2872
  552MPD2    C2 8188   3.947   3.459  14.184  0.2025  0.0826 -0.3809
  552MPD2    C3 8189   4.008   3.455  14.311 -0.2409  0.5519 -0.4846
  552MPD2    C4 8190   3.940   3.424  14.422  0.0811 -0.3626 -0.1040
  552MPD2    C5 8191   3.806   3.418  14.414  0.0628 -0.4645  0.4811
  552MPD2     H 8192   4.002   3.491  14.096  0.1374  1.2893  0.0185
  552MPD2    H1 8193   3.994   3.410  14.514  0.0721  2.1137  0.2556
  552MPD2    H2 8194   3.628   3.424  14.292 -0.2510 -0.7140 -1.1158
  552MPD2    H3 8195   3.750   3.395  14.504 -2.7137  0.3149 -1.0399
  552MPD2     N 8196   4.145   3.478  14.332 -0.1596 -0.3980 -0.1686
  552MPD2    H5 8197   4.179   3.493  14.426 -0.7530  3.1354 -0.5109
  552MPD2    N1 8198   3.751   3.438  14.049  0.4844  0.0863 -0.6607
  552MPD2    H7 8199   3.808   3.427  13.966 -1.0620  2.4605 -2.0361
  553TMC3    C1 8200   3.573   3.379  13.901  0.6529  0.1343 -0.2820
  553TMC3    C2 8201   3.590   3.437  13.784 -0.0897  0.5458 -0.1385
  553TMC3    C3 8202   3.497   3.404  13.688 -0.2949  0.7161  0.6733
  553TMC3    C4 8203   3.472   3.289  13.923  0.0040 -0.1224  0.7062
  553TMC3    C5 8204   3.385   3.257  13.820  0.5828  0.0525 -0.1933
  553TMC3    C6 8205   3.392   3.319  13.703 -0.2091  0.1774  0.3872
  553TMC3     C 8206   3.612   3.438  14.026  0.5800  0.5485 -0.0464
  553TMC3     O 8207   3.517   3.459  14.100  0.9023  0.3478 -0.1958
  553TMC3     H 8208   3.670   3.506  13.760  2.2524 -2.4526 -0.9451
  553TMC3    H1 8209   3.448   3.258  14.024 -3.2267 -0.5164 -0.1850
  553TMC3    H2 8210   3.321   3.292  13.626 -1.2298 -0.7196  1.6457
  553TMC3    C7 8211   3.264   3.180  13.840 -0.0238 -0.3380 -0.0410
  553TMC3    C8 8212   3.519   3.452  13.551 -0.0384 -0.5512 -0.2308
  553TMC3    O1 8213   3.171   3.225  13.780 -0.4024  0.2586  0.1047
  553TMC3    O2 8214   3.635   3.488  13.526  0.0895  0.4651  0.7266
  554TMC3    C1 8215   0.854   2.209  11.856 -0.1163  0.2130  0.2585
  554TMC3    C2 8216   0.732   2.215  11.791  0.3729  0.0699 -0.1272
  554TMC3    C3 8217   0.725   2.298  11.678  0.7484  0.2035 -0.1978
  554TMC3    C4 8218   0.962   2.274  11.812 -0.8622  0.0813  0.3273
  554TMC3    C5 8219   0.943   2.377  11.718  0.5967 -0.6712 -0.0153
  554TMC3    C6 8220   0.822   2.389  11.656 -0.2020  0.3262 -0.0226
  554TMC3     C 8221   0.870   2.136  11.982  0.1252  0.7432 -0.6564
  554TMC3     O 8222   0.985   2.123  12.027 -0.4371 -0.2341  0.6664
  554TMC3     H 8223   0.659   2.138  11.811  0.4080  0.1380  0.2710
  554TMC3    H1 8224   1.057   2.227  11.833 -1.0650  0.1750  1.4315
  554TMC3    H2 8225   0.804   2.465  11.581 -1.6787 -0.1349 -0.1409
  554TMC3    C7 8226   1.044   2.404  11.624  0.1591 -0.0161 -0.0063
  554TMC3    C8 8227   0.623   2.287  11.572  0.4042 -0.1835 -0.5874
  554TMC3    O1 8228   1.001   2.427  11.513  0.1751  0.2053  0.5148
  554TMC3    O2 8229   0.644   2.356  11.472 -0.4406 -0.1128  0.4257
  555TMC3    C1 8230   0.500   1.636  15.183 -0.0559 -0.1171 -0.9009
  555TMC3    C2 8231   0.626   1.621  15.223  0.3119  0.0984 -0.0497
  555TMC3    C3 8232   0.656   1.518  15.307  1.0952 -0.3234  0.4080
  555TMC3    C4 8233   0.401   1.547  15.212 -0.9225  0.3414 -0.6554
  555TMC3    C5 8234   0.437   1.434  15.280 -0.0256 -0.0706 -0.4292
  555TMC3    C6 8235   0.567   1.418  15.330  0.1251 -0.2377 -0.6462
  555TMC3     C 8236   0.471   1.761  15.115 -0.1518  0.6925 -0.2999
  555TMC3     O 8237   0.571   1.831  15.097 -0.1469  0.2755  0.0853
  555TMC3     H 8238   0.709   1.684  15.194 -0.4047  1.1247  0.1195
  555TMC3    H1 8239   0.302   1.564  15.173 -0.5838  1.8053 -0.8803
  555TMC3    H2 8240   0.598   1.325  15.375  1.2974  1.2381  1.5777
  555TMC3    C7 8241   0.335   1.351  15.331  0.5517  0.0334  0.3903
  555TMC3    C8 8242   0.791   1.517  15.359  0.4654 -0.6294  0.4630
  555TMC3    O1 8243   0.359   1.312  15.444  0.1050  0.2945 -0.1960
  555TMC3    O2 8244   0.867   1.582  15.297  0.2340 -0.1838  0.2819
  556MPD2     C 8245   3.105   3.602  10.643  0.6063 -0.0198 -0.3804
  556MPD2    C1 8246   3.114   3.486  10.719 -0.4834  0.7646 -0.7879
  556MPD2    C2 8247   3.133   3.371  10.645 -0.3629 -0.1058  0.0329
  556MPD2    C3 8248   3.146   3.368  10.511  0.0355  0.5477 -0.2197
  556MPD2    C4 8249   3.135   3.487  10.434 -0.1568  0.2570  0.8288
  556MPD2    C5 8250   3.118   3.600  10.505 -0.3074  0.1669 -0.0358
  556MPD2     H 8251   3.147   3.281  10.705  3.1895 -0.0324 -0.6986
  556MPD2    H1 8252   3.162   3.495  10.330  2.6900 -1.7097  1.4119
  556MPD2    H2 8253   3.075   3.696  10.689  2.5277 -0.2554  1.3437
  556MPD2    H3 8254   3.096   3.693  10.453 -2.8597 -0.0350  0.6997
  556MPD2     N 8255   3.169   3.244  10.447 -0.8196 -0.0033 -0.4784
  556MPD2    H5 8256   3.147   3.168  10.512 -1.4607  2.1036  1.7560
  556MPD2    N1 8257   3.104   3.476  10.859 -0.0097 -0.4679  0.1076
  556MPD2    H7 8258   3.113   3.387  10.908 -0.6245  0.1494  1.3228
  557TMC3    C1 8259   3.217   3.082  10.279 -0.4021  0.0208  0.6502
  557TMC3    C2 8260   3.256   3.044  10.151  1.2012  0.2165  0.4179
  557TMC3    C3 8261   3.246   2.909  10.117  0.0917  0.2228  0.6669
  557TMC3    C4 8262   3.145   2.990  10.357 -0.1512  0.1453 -0.4431
  557TMC3    C5 8263   3.163   2.857  10.324 -0.0868  0.6771  0.3446
  557TMC3    C6 8264   3.213   2.815  10.206 -0.7191 -0.0296  0.4367
  557TMC3     C 8265   3.214   3.222  10.319 -0.0973  0.5118 -0.3591
  557TMC3     O 8266   3.255   3.309  10.245  0.5136 -0.4637 -0.7161
  557TMC3     H 8267   3.300   3.111  10.078 -4.0528  0.3787 -2.6118
  557TMC3    H1 8268   3.088   3.013  10.446 -1.0093 -0.2341 -0.8949
  557TMC3    H2 8269   3.198   2.713  10.173  3.4299  0.4691 -3.1089
  557TMC3    C7 8270   3.057   2.773  10.379 -0.4085  0.3797 -0.4320
  557TMC3    C8 8271   3.306   2.885   9.989  0.7067 -0.1406  0.0476
  557TMC3    O1 8272   2.947   2.826  10.411 -0.1363 -0.3328  0.9229
  557TMC3    O2 8273   3.360   2.968   9.916  0.3117  0.0241 -0.6634
  558TMC3    C1 8274   1.013   1.376   9.623 -0.3766  0.5280 -0.2778
  558TMC3    C2 8275   0.973   1.470   9.711 -0.0204  0.2669  0.6213
  558TMC3    C3 8276   0.844   1.494   9.733 -0.3318 -0.1233  0.4229
  558TMC3    C4 8277   0.920   1.301   9.555 -0.7931 -0.7374  0.7470
  558TMC3    C5 8278   0.792   1.333   9.580  0.4225 -0.2251 -0.6564
  558TMC3    C6 8279   0.752   1.429   9.666  0.1944  0.1134 -0.1739
  558TMC3     C 8280   1.161   1.359   9.608  0.9433  0.4334  0.2706
  558TMC3     O 8281   1.240   1.439   9.657  0.8100 -0.8804  0.2352
  558TMC3     H 8282   1.045   1.539   9.753 -3.6048  2.3626  3.1955
  558TMC3    H1 8283   0.941   1.221   9.486 -0.0404 -0.9678  1.2475
  558TMC3    H2 8284   0.651   1.455   9.695  0.9428  0.7314  1.8600
  558TMC3    C7 8285   0.688   1.276   9.486  1.2713  0.9459  0.0951
  558TMC3    C8 8286   0.804   1.559   9.856 -0.8001 -0.2862 -0.7356
  558TMC3    O1 8287   0.605   1.356   9.448 -0.5400 -1.2426 -0.5622
  558TMC3    O2 8288   0.723   1.650   9.842 -0.0448  0.3506 -0.0599
  559MPD2     C 8289   0.340   1.729  10.878  0.7513  0.2359 -0.6316
  559MPD2    C1 8290   0.298   1.609  10.929  0.4848 -0.5341 -0.3865
  559MPD2    C2 8291   0.391   1.544  11.015 -0.3099  0.1161 -0.1126
  559MPD2    C3 8292   0.521   1.584  11.023  0.6143  0.7536 -0.4429
  559MPD2    C4 8293   0.560   1.696  10.960 -0.5891 -0.2327  0.2091
  559MPD2    C5 8294   0.463   1.775  10.904  0.0667  0.6484  0.3894
  559MPD2     H 8295   0.361   1.449  11.060  2.2908  0.4097  2.2489
  559MPD2    H1 8296   0.659   1.739  10.963 -1.3900  1.3947  3.5641
  559MPD2    H2 8297   0.278   1.793  10.817  1.1016 -0.9336 -2.2070
  559MPD2    H3 8298   0.504   1.860  10.850  2.0104 -0.9727 -0.6589
  559MPD2     N 8299   0.611   1.512  11.111  0.4261 -0.1490  0.7440
  559MPD2    H5 8300   0.560   1.437  11.156 -1.1544  1.2426  1.2683
  559MPD2    N1 8301   0.164   1.577  10.920 -0.1925 -0.0088  0.0993
  559MPD2    H7 8302   0.103   1.649  10.882 -0.8980 -0.1827  0.9123
  560TMC3    C1 8303   0.799   1.470  11.245  0.9230 -0.4277 -0.5970
  560TMC3    C2 8304   0.740   1.349  11.268 -0.7345  0.1961 -0.3013
  560TMC3    C3 8305   0.773   1.283  11.387  0.6992  0.3691 -0.9089
  560TMC3    C4 8306   0.897   1.519  11.330 -0.0393  0.3789 -0.1112
  560TMC3    C5 8307   0.921   1.451  11.449 -0.5629  0.1138  0.3377
  560TMC3    C6 8308   0.851   1.343  11.487 -0.2547 -0.2120  0.9463
  560TMC3     C 8309   0.742   1.557  11.141 -0.4477  0.0337 -0.2380
  560TMC3     O 8310   0.798   1.657  11.105 -0.1302  0.3604  0.1894
  560TMC3     H 8311   0.692   1.294  11.188  1.9417 -0.7160 -1.2629
  560TMC3    H1 8312   0.947   1.610  11.302 -0.1830  0.2536 -0.7724
  560TMC3    H2 8313   0.867   1.288  11.578 -2.5352  1.8281  2.6045
  560TMC3    C7 8314   1.034   1.485  11.529  0.2235 -0.2057  0.5193
  560TMC3    C8 8315   0.807   1.151  11.349 -0.3319 -0.9067  0.0996
  560TMC3    O1 8316   1.057   1.429  11.635 -0.0471 -0.2771  0.2707
  560TMC3    O2 8317   0.760   1.106  11.243  0.3762  0.2645 -0.5956
  561TMC3    C1 8318   3.262   0.374  11.366  0.1433  0.0417 -0.5317
  561TMC3    C2 8319   3.217   0.306  11.478  0.3825 -0.1637  0.2918
  561TMC3    C3 8320   3.153   0.385  11.571  0.1194 -0.4981 -1.0909
  561TMC3    C4 8321   3.251   0.510  11.341 -0.6627  0.2488  0.6899
  561TMC3    C5 8322   3.190   0.580  11.442 -0.0319 -0.1695 -0.7199
  561TMC3    C6 8323   3.150   0.521  11.564  0.2278 -0.2590  0.5295
  561TMC3     C 8324   3.362   0.302  11.286 -0.9342  0.5383 -0.1298
  561TMC3     O 8325   3.341   0.182  11.279 -0.8366  0.6728 -0.4949
  561TMC3     H 8326   3.218   0.198  11.478  0.5629 -0.1638 -2.2846
  561TMC3    H1 8327   3.275   0.541  11.240  0.7451 -3.3785 -0.0898
  561TMC3    H2 8328   3.091   0.582  11.632 -0.0492 -0.7742  0.7510
  561TMC3    C7 8329   3.130   0.711  11.414 -0.0275 -0.3448  0.5298
  561TMC3    C8 8330   3.076   0.317  11.668 -0.3833 -0.7107  0.9990
  561TMC3    O1 8331   3.035   0.757  11.476  0.0623  0.0343  0.5679
  561TMC3    O2 8332   3.088   0.195  11.678 -0.0327  0.0521  0.6279
  562TMC3    C1 8333   0.761   1.808  15.592 -0.5174 -0.2657  0.3926
  562TMC3    C2 8334   0.792   1.882  15.486 -0.1884  1.4456  0.0337
  562TMC3    C3 8335   0.690   1.923  15.399  0.0502  0.5481  0.0019
  562TMC3    C4 8336   0.625   1.766  15.605  0.7142  0.9646 -0.1545
  562TMC3    C5 8337   0.523   1.815  15.517  0.3790 -0.4715  0.2976
  562TMC3    C6 8338   0.551   1.899  15.418 -0.9206  0.1508  0.3990
  562TMC3     C 8339   0.850   1.788  15.707  0.8689 -0.2261  0.2884
  562TMC3     O 8340   0.810   1.720  15.799  0.2879  0.8034  0.2067
  562TMC3     H 8341   0.897   1.900  15.464  0.2628 -0.9877  0.2658
  562TMC3    H1 8342   0.610   1.696  15.686 -0.3302  0.9273 -0.3831
  562TMC3    H2 8343   0.477   1.934  15.346 -0.9873 -0.0706  0.3628
  562TMC3    C7 8344   0.393   1.747  15.526  1.2794 -0.2840 -0.8726
  562TMC3    C8 8345   0.729   2.033  15.308  0.3972  0.7449 -0.4065
  562TMC3    O1 8346   0.322   1.737  15.428 -0.6883 -0.4467  0.3374
  562TMC3    O2 8347   0.844   2.043  15.285 -0.3611 -0.0706 -0.2045
  563MPD2     C 8348   1.828   2.730  16.128  0.0642  0.8621  0.4856
  563MPD2    C1 8349   1.855   2.863  16.142  0.1453 -0.0657 -0.2865
  563MPD2    C2 8350   1.984   2.899  16.181 -0.0025 -0.0425 -0.0537
  563MPD2    C3 8351   2.077   2.806  16.211 -0.0028  0.1914 -0.0871
  563MPD2    C4 8352   2.051   2.672  16.195 -0.2218 -0.2735  0.9074
  563MPD2    C5 8353   1.927   2.642  16.153  0.0692  0.3021  0.3793
  563MPD2     H 8354   2.001   3.004  16.202 -1.4961 -0.2565  2.2979
  563MPD2    H1 8355   2.121   2.593  16.219  0.3389 -0.4155 -1.1444
  563MPD2    H2 8356   1.735   2.689  16.089  0.8928 -2.8819  2.5003
  563MPD2    H3 8357   1.906   2.537  16.140  0.8695  0.1950 -0.0160
  563MPD2     N 8358   2.203   2.854  16.247 -0.3415 -0.0791  0.4407
  563MPD2    H5 8359   2.211   2.954  16.259  1.2714 -0.2207  0.5986
  563MPD2    N1 8360   1.748   2.955  16.128  0.7492 -0.1588  0.2492
  563MPD2    H7 8361   1.653   2.918  16.129  0.7028 -0.0691 -0.5136
  564TMC3    C1 8362   1.653   3.159  16.197  0.4193 -0.4907 -0.1261
  564TMC3    C2 8363   1.543   3.084  16.217  0.0996 -0.0431  0.5359
  564TMC3    C3 8364   1.504   3.052  16.342  0.6286  0.3087  0.5022
  564TMC3    C4 8365   1.716   3.213  16.306  0.2368 -0.9345 -0.1421
  564TMC3    C5 8366   1.690   3.173  16.426  0.6835 -0.2930 -0.6088
  564TMC3    C6 8367   1.575   3.105  16.444  0.1755  0.1805 -0.3821
  564TMC3     C 8368   1.759   3.092  16.116  0.3432 -0.7474  0.5324
  564TMC3     O 8369   1.860   3.150  16.079 -0.5988  0.0439 -0.1714
  564TMC3     H 8370   1.500   3.031  16.133  0.2309  0.4117  0.1837
  564TMC3    H1 8371   1.811   3.262  16.285  0.6970 -1.3448  0.9406
  564TMC3    H2 8372   1.549   3.094  16.549  0.7647 -0.4069 -0.2991
  564TMC3    C7 8373   1.803   3.111  16.489  0.1169 -0.1407 -0.3062
  564TMC3    C8 8374   1.462   2.916  16.370  0.5758 -0.0381 -0.0966
  564TMC3    O1 8375   1.910   3.170  16.485  0.3933  0.1016  0.1303
  564TMC3    O2 8376   1.453   2.896  16.486 -0.0885 -0.3444 -0.4059
  565TMC3    C1 8377   3.124   3.956   9.962  0.7917  0.3775 -0.3271
  565TMC3    C2 8378   3.065   3.867  10.050 -0.2430  0.4088  0.4277
  565TMC3    C3 8379   3.019   3.742  10.008  0.2604 -0.3318  0.8364
  565TMC3    C4 8380   3.121   3.922   9.823  0.1790 -0.2803  0.0780
  565TMC3    C5 8381   3.088   3.789   9.786 -0.2128 -0.2327 -0.5570
  565TMC3    C6 8382   3.038   3.697   9.876  0.6757 -0.1321 -0.4627
  565TMC3     C 8383   3.087   4.095   9.982 -0.7040 -0.2830 -0.4834
  565TMC3     O 8384   3.038   4.128  10.090 -0.2765 -0.5989 -0.1615
  565TMC3     H 8385   3.047   3.892  10.154 -1.1358  0.1118  0.3421
  565TMC3    H1 8386   3.195   3.974   9.764 -1.8763  1.1158 -1.2788
  565TMC3    H2 8387   2.974   3.619   9.837 -0.6990  0.8208 -0.0970
  565TMC3    C7 8388   3.141   3.744   9.657  0.4994 -0.0733 -0.5367
  565TMC3    C8 8389   2.968   3.650  10.111 -0.4277  0.2628  0.6882
  565TMC3    O1 8390   3.163   3.833   9.576  0.3009  0.5612  0.3014
  565TMC3    O2 8391   2.923   3.707  10.211 -0.1102 -0.2407  0.1038
  566MPD2     C 8392   3.621   2.421  14.155 -0.0760 -1.0539  0.6209
  566MPD2    C1 8393   3.739   2.353  14.178  0.5926 -0.3316  0.1542
  566MPD2    C2 8394   3.732   2.217  14.143  0.1556  1.0196  0.2862
  566MPD2    C3 8395   3.622   2.154  14.080  0.3261  0.1436 -0.6515
  566MPD2    C4 8396   3.508   2.230  14.053 -0.4611 -0.4030 -0.1054
  566MPD2    C5 8397   3.513   2.361  14.101  0.0543  0.2593  0.5698
  566MPD2     H 8398   3.813   2.147  14.159 -0.2035  0.5243 -0.0633
  566MPD2    H1 8399   3.418   2.189  14.007  0.5976 -1.9833 -0.7655
  566MPD2    H2 8400   3.624   2.528  14.173  2.6531 -0.6146 -2.4733
  566MPD2    H3 8401   3.432   2.427  14.071 -0.0488 -0.6710 -1.2493
  566MPD2     N 8402   3.624   2.019  14.037 -0.3131  0.9592  0.3551
  566MPD2    H5 8403   3.537   1.983  13.997 -0.7263 -1.5404  3.5677
  566MPD2    N1 8404   3.850   2.412  14.242  0.4448 -0.9823 -0.1019
  566MPD2    H7 8405   3.830   2.493  14.299 -1.2089 -0.6672 -1.1423
  567TMC3    C1 8406   4.023   2.271  14.149  0.8616  0.0732 -0.2057
  567TMC3    C2 8407   3.999   2.294  14.019  0.0928 -0.0874  0.0647
  567TMC3    C3 8408   4.080   2.235  13.924 -1.0262  0.0468  0.1117
  567TMC3    C4 8409   4.114   2.177  14.190  0.1844  0.2338 -0.0552
  567TMC3    C5 8410   4.191   2.112  14.095  0.2873  0.0888  0.7595
  567TMC3    C6 8411   4.171   2.144  13.964 -0.1000 -0.2711  0.5786
  567TMC3     C 8412   3.972   2.352  14.255 -1.0681  0.7502 -0.0114
  567TMC3     O 8413   4.057   2.378  14.340 -0.0614 -0.2281 -1.0146
  567TMC3     H 8414   3.917   2.359  13.989  0.6806 -0.5761 -2.5482
  567TMC3    H1 8415   4.132   2.158  14.295 -2.0813  2.5298  0.7504
  567TMC3    H2 8416   4.226   2.080  13.896 -0.1658 -1.0661  1.2744
  567TMC3    C7 8417   4.305   2.043  14.151  0.4677 -0.3536 -0.1237
  567TMC3    C8 8418   4.060   2.275  13.786  0.3132 -0.0480 -0.7927
  567TMC3    O1 8419   4.415   2.067  14.100  0.0195 -0.5731  0.2329
  567TMC3    O2 8420   3.946   2.311  13.755  0.1897  0.3779 -0.3663
  568MPD2     C 8421   2.290   1.870  16.969 -0.0826  0.4674  0.0096
  568MPD2    C1 8422   2.156   1.827  16.974 -0.5137  0.6303  0.1044
  568MPD2    C2 8423   2.061   1.917  16.919  0.3270 -0.0303 -0.2393
  568MPD2    C3 8424   2.102   2.033  16.860  0.1846  0.7611 -0.3602
  568MPD2    C4 8425   2.231   2.072  16.854 -0.3210  0.2068 -0.1984
  568MPD2    C5 8426   2.330   1.995  16.918  0.1841  0.4817  0.0450
  568MPD2     H 8427   1.955   1.894  16.926  0.1283  0.5637 -1.3010
  568MPD2    H1 8428   2.267   2.166  16.814 -0.0718 -0.3646 -1.3174
  568MPD2    H2 8429   2.369   1.810  17.013 -0.1581  0.1184 -0.3255
  568MPD2    H3 8430   2.434   2.024  16.915 -0.5968  3.2250 -0.7822
  568MPD2     N 8431   2.003   2.109  16.797 -0.0527  0.5126  0.1448
  568MPD2    H5 8432   1.911   2.071  16.780  0.1037 -1.5227  3.8813
  568MPD2    N1 8433   2.119   1.705  17.039  0.2238 -0.6490 -0.0104
  568MPD2    H7 8434   2.196   1.648  17.074 -1.5069 -1.9094  1.6911
  569TMC3    C1 8435   1.883   2.295  16.733  0.9147  0.5842  0.5596
  569TMC3    C2 8436   1.848   2.413  16.790 -0.0184  0.7806  0.1267
  569TMC3    C3 8437   1.714   2.448  16.793  0.5092  0.3993  0.3822
  569TMC3    C4 8438   1.804   2.220  16.646 -0.3634 -0.4204  0.7405
  569TMC3    C5 8439   1.679   2.270  16.634  0.0689 -0.7062  0.1023
  569TMC3    C6 8440   1.634   2.371  16.715 -0.1519 -0.2848 -0.9366
  569TMC3     C 8441   2.016   2.245  16.762  0.2702  0.5937  0.0532
  569TMC3     O 8442   2.098   2.331  16.787 -0.0046  0.1271  0.9282
  569TMC3     H 8443   1.923   2.467  16.847  0.6643 -0.0055 -0.0361
  569TMC3    H1 8444   1.849   2.164  16.565 -1.2003 -1.3379  0.9126
  569TMC3    H2 8445   1.529   2.396  16.723  0.5500  2.1342  0.6844
  569TMC3    C7 8446   1.630   2.289  16.495  0.3424 -0.3509  0.0132
  569TMC3    C8 8447   1.674   2.580  16.794  0.7900  0.3173  0.0173
  569TMC3    O1 8448   1.650   2.203  16.405  0.5322 -0.3167 -0.2796
  569TMC3    O2 8449   1.594   2.608  16.706 -0.4058 -0.3772  0.5861
  570TMC3    C1 8450   1.300   0.804  16.418  0.6152  0.4382 -0.1964
  570TMC3    C2 8451   1.374   0.820  16.304  0.0357  0.0164  0.8614
  570TMC3    C3 8452   1.462   0.928  16.309 -0.1415  1.1416  0.6214
  570TMC3    C4 8453   1.299   0.880  16.532 -0.3477 -0.6476 -0.1315
  570TMC3    C5 8454   1.373   0.992  16.525  0.3824  0.1839 -0.6737
  570TMC3    C6 8455   1.460   1.013  16.419  0.5289  0.2121  0.1312
  570TMC3     C 8456   1.226   0.678  16.419 -0.1037  0.5998 -1.2527
  570TMC3     O 8457   1.182   0.635  16.311  0.3808  0.1237 -0.5844
  570TMC3     H 8458   1.357   0.765  16.212  1.0874  1.7557 -0.3695
  570TMC3    H1 8459   1.238   0.855  16.618  1.4600  2.2414  1.9813
  570TMC3    H2 8460   1.519   1.104  16.422  0.0420  0.5848 -1.3976
  570TMC3    C7 8461   1.313   1.109  16.597  0.0490 -0.1201 -0.2089
  570TMC3    C8 8462   1.553   0.961  16.202 -0.1802 -0.7079 -0.1004
  570TMC3    O1 8463   1.261   1.090  16.710 -0.1382  0.4770 -0.3976
  570TMC3    O2 8464   1.624   1.061  16.226  0.1805  0.1856 -0.3017
  571MPD2     C 8465   3.714   1.736   0.399  0.0542  0.2805  0.2423
  571MPD2    C1 8466   3.751   1.811   0.286 -0.1353  0.0232 -0.1828
  571MPD2    C2 8467   3.788   1.939   0.308  0.1011 -0.2527  0.8548
  571MPD2    C3 8468   3.791   1.995   0.434 -0.4171  0.5615  0.2266
  571MPD2    C4 8469   3.752   1.923   0.540  0.2891  0.5459  0.1299
  571MPD2    C5 8470   3.714   1.791   0.523  0.1372  0.2483  1.6705
  571MPD2     H 8471   3.810   1.997   0.219  0.7701  0.1817  1.2968
  571MPD2    H1 8472   3.753   1.966   0.639 -1.1831 -0.7154  0.7075
  571MPD2    H2 8473   3.673   1.636   0.392  1.4634 -0.1886 -1.3313
  571MPD2    H3 8474   3.690   1.740   0.616  3.2796 -2.0315  1.2325
  571MPD2     N 8475   3.845   2.122   0.462 -0.2847  0.0542  0.4013
  571MPD2    H5 8476   3.864   2.138   0.561 -3.2984  0.1616  0.9421
  571MPD2    N1 8477   3.742   1.745   0.160  0.8086  0.0997  0.6376
  571MPD2    H7 8478   3.740   1.644   0.170  0.3835  0.2147  1.7331
  572TMC3    C1 8479   3.931   2.341   0.433  0.0852  0.2057  0.3050
  572TMC3    C2 8480   3.896   2.363   0.571  0.4287 -0.6929  0.1401
  572TMC3    C3 8481   3.931   2.485   0.621  0.3234 -0.3284 -0.3195
  572TMC3    C4 8482   4.016   2.424   0.363 -0.9698 -0.2757  0.1379
  572TMC3    C5 8483   4.060   2.534   0.432  0.1193 -0.1104  0.1952
  572TMC3    C6 8484   4.019   2.570   0.555  0.1284 -0.2058  0.1482
  572TMC3     C 8485   3.874   2.220   0.370  0.4645  0.1743 -0.1134
  572TMC3     O 8486   3.869   2.219   0.245 -0.1418  0.7743 -0.1172
  572TMC3     H 8487   3.809   2.310   0.609  1.5772 -1.6062  1.4958
  572TMC3    H1 8488   4.045   2.401   0.261 -0.7534  2.1270 -0.3552
  572TMC3    H2 8489   4.047   2.665   0.599  0.8775 -0.4031  0.0993
  572TMC3    C7 8490   4.137   2.632   0.362  0.3629 -0.0785  0.0190
  572TMC3    C8 8491   3.872   2.530   0.745  0.3471 -0.0260 -0.2559
  572TMC3    O1 8492   4.135   2.642   0.237  0.7660 -0.1442 -0.1388
  572TMC3    O2 8493   3.885   2.649   0.771  0.0552  0.1630 -0.6761
  573MPD2     C 8494   0.344   2.778   1.024 -0.6420 -0.2658  0.6634
  573MPD2    C1 8495   0.252   2.749   0.932  0.7138  0.5156  0.2502
  573MPD2    C2 8496   0.220   2.836   0.832 -0.5131  0.3036  0.0512
  573MPD2    C3 8497   0.290   2.961   0.818  0.0055 -0.4423  0.7419
  573MPD2    C4 8498   0.383   2.989   0.909  0.3136 -0.3138  0.0738
  573MPD2    C5 8499   0.413   2.902   1.014 -0.3994 -0.2584  0.0265
  573MPD2     H 8500   0.146   2.809   0.757  0.7260 -1.1644 -0.6336
  573MPD2    H1 8501   0.445   3.077   0.901 -0.1777  0.0558  0.3293
  573MPD2    H2 8502   0.372   2.706   1.100 -0.5020  0.6075  1.4403
  573MPD2    H3 8503   0.497   2.918   1.080  0.7265  1.1206 -1.7657
  573MPD2     N 8504   0.271   3.056   0.713  0.0698 -0.1792 -0.6980
  573MPD2    H5 8505   0.330   3.139   0.708  0.0736 -0.1101  0.3334
  573MPD2    N1 8506   0.195   2.615   0.946  0.3765 -0.2057 -0.2374
  573MPD2    H7 8507   0.212   2.554   1.025  1.3911  0.5733  0.1519
  574TMC3    C1 8508   0.176   3.139   0.516  0.6366 -0.0476  0.4904
  574TMC3    C2 8509   0.060   3.202   0.486 -0.0943  0.6572 -0.0400
  574TMC3    C3 8510   0.073   3.287   0.378 -0.3742 -0.1271 -0.1897
  574TMC3    C4 8511   0.300   3.171   0.466 -0.3021  0.5330  0.2983
  574TMC3    C5 8512   0.305   3.249   0.356 -0.1436  0.2437 -0.0640
  574TMC3    C6 8513   0.191   3.310   0.313  0.0769 -0.2562  0.0010
  574TMC3     C 8514   0.163   3.052   0.627  0.2665 -0.0462  0.5906
  574TMC3     O 8515   0.064   2.983   0.638  0.2202 -0.5267  0.6373
  574TMC3     H 8516   4.696   3.184   0.547 -1.2731  1.6035 -1.4698
  574TMC3    H1 8517   0.396   3.134   0.501 -0.5476 -0.4073 -0.0273
  574TMC3    H2 8518   0.192   3.370   0.223  1.0403 -0.5107 -0.1592
  574TMC3    C7 8519   0.440   3.281   0.305  0.4572  0.7498  0.1160
  574TMC3    C8 8520   4.699   3.394   0.382 -0.3357  1.0127 -0.5293
  574TMC3    O1 8521   0.533   3.295   0.384  0.2905  0.5108  0.1895
  574TMC3    O2 8522   4.642   3.407   0.491  0.2683 -0.0272 -0.6279
  575TMC3    C1 8523   2.727   3.538  10.925  0.5559  0.7582 -0.2858
  575TMC3    C2 8524   2.689   3.420  10.982  0.4196 -0.0673  0.1901
  575TMC3    C3 8525   2.654   3.319  10.892 -0.5229  0.3337  0.3468
  575TMC3    C4 8526   2.749   3.555  10.792 -0.0993 -0.1040 -0.4623
  575TMC3    C5 8527   2.720   3.451  10.711  0.8004  0.1039 -0.2989
  575TMC3    C6 8528   2.666   3.336  10.761  0.7905  0.8543 -0.1042
  575TMC3     C 8529   2.739   3.647  11.018  0.3552 -0.0496 -0.1203
  575TMC3     O 8530   2.682   3.640  11.129  0.1515 -0.4396 -0.0472
  575TMC3     H 8531   2.667   3.429  11.087 -1.2629  0.9433 -0.2532
  575TMC3    H1 8532   2.777   3.652  10.754  1.6961 -1.0827 -1.6123
  575TMC3    H2 8533   2.628   3.261  10.692  1.7026 -0.3860  0.7195
  575TMC3    C7 8534   2.760   3.463  10.573  0.1591 -0.8469 -0.4770
  575TMC3    C8 8535   2.639   3.185  10.941 -0.3104 -0.3499 -0.3049
  575TMC3    O1 8536   2.772   3.580  10.531  0.0806 -0.1016  0.0068
  575TMC3    O2 8537   2.638   3.095  10.861 -0.0284  0.3166  0.2369
  576MPD2     C 8538   1.995   0.725  12.601  0.1849 -0.5723  0.0862
  576MPD2    C1 8539   2.015   0.814  12.501  0.4463 -0.5098  0.4472
  576MPD2    C2 8540   1.964   0.936  12.514  0.0151  0.2547 -0.4146
  576MPD2    C3 8541   1.906   0.984  12.629  0.1536  0.4063 -0.7828
  576MPD2    C4 8542   1.880   0.894  12.729  0.5974 -0.2277  0.4763
  576MPD2    C5 8543   1.929   0.767  12.716 -0.0324 -0.4247  0.3278
  576MPD2     H 8544   1.989   1.005  12.434 -2.2909 -1.6418 -2.7523
  576MPD2    H1 8545   1.842   0.933  12.822  0.2930 -1.1940  0.7591
  576MPD2    H2 8546   2.021   0.620  12.601  0.4775 -0.4995  0.8055
  576MPD2    H3 8547   1.918   0.699  12.800  0.2945 -0.9827 -0.0829
  576MPD2     N 8548   1.866   1.118  12.632  0.2087  0.6797  0.6378
  576MPD2    H5 8549   1.902   1.179  12.559  0.1522  0.5777  0.5258
  576MPD2    N1 8550   2.074   0.780  12.374 -0.3988  0.2792 -0.0261
  576MPD2    H7 8551   2.063   0.851  12.303  0.1603  0.5405  0.1414
  577TMC3    C1 8552   2.228   0.661  12.232  0.5812  0.1653  0.4308
  577TMC3    C2 8553   2.316   0.558  12.215  0.5474  0.2415 -0.3303
  577TMC3    C3 8554   2.394   0.548  12.101 -0.3342  0.5098 -0.5494
  577TMC3    C4 8555   2.187   0.731  12.120  0.2560  0.3400 -0.6599
  577TMC3    C5 8556   2.250   0.698  12.003 -0.1890 -0.1820 -0.4974
  577TMC3    C6 8557   2.361   0.618  11.992  0.1572 -0.3097 -0.0100
  577TMC3     C 8558   2.177   0.684  12.361 -0.1362  0.2683 -0.0688
  577TMC3     O 8559   2.211   0.608  12.452 -0.3793  0.3148  0.0863
  577TMC3     H 8560   2.347   0.504  12.304 -0.0295  0.0131 -0.2727
  577TMC3    H1 8561   2.108   0.805  12.128 -0.1689  0.0080 -1.7987
  577TMC3    H2 8562   2.410   0.612  11.896 -1.1713 -0.5878 -0.6819
  577TMC3    C7 8563   2.204   0.753  11.882 -0.2688 -0.7535 -0.3757
  577TMC3    C8 8564   2.514   0.464  12.104 -0.1927  0.2034 -0.2546
  577TMC3    O1 8565   2.288   0.775  11.793 -0.3205 -0.2885  0.4169
  577TMC3    O2 8566   2.521   0.386  12.197  0.2563 -0.6371  0.0584
  578MPD2     C 8567   0.513   1.291   1.330  0.5733 -0.0072 -0.3899
  578MPD2    C1 8568   0.601   1.261   1.228  0.2725  0.2856 -0.2552
  578MPD2    C2 8569   0.730   1.231   1.262  0.2282  0.1054 -0.5264
  578MPD2    C3 8570   0.769   1.228   1.398  0.1551  0.0753 -0.4414
  578MPD2    C4 8571   0.679   1.259   1.493  0.2480 -0.3490  0.4684
  578MPD2    C5 8572   0.548   1.286   1.465 -0.0738  0.4024  0.1781
  578MPD2     H 8573   0.812   1.224   1.192  0.7362  0.3356  0.0529
  578MPD2    H1 8574   0.704   1.264   1.598  1.1305  0.7491  0.2035
  578MPD2    H2 8575   0.413   1.331   1.312  1.2034  2.2867  1.1914
  578MPD2    H3 8576   0.476   1.316   1.540  0.6225 -3.1680  2.2809
  578MPD2     N 8577   0.902   1.197   1.440  0.3911  0.0070  0.4961
  578MPD2    H5 8578   0.960   1.152   1.369  0.9293  1.2358  0.1534
  578MPD2    N1 8579   0.546   1.263   1.101 -0.1511 -0.2746 -0.1910
  578MPD2    H7 8580   0.455   1.309   1.101  0.1844  0.3807  1.1444
  579TMC3    C1 8581   1.086   1.134   1.577 -0.3369 -0.5529 -0.6443
  579TMC3    C2 8582   1.165   1.200   1.663 -0.0521 -0.1549 -0.6541
  579TMC3    C3 8583   1.297   1.161   1.656  0.0448 -0.6808  0.7353
  579TMC3    C4 8584   1.118   1.036   1.489  0.1594 -0.1993 -0.3208
  579TMC3    C5 8585   1.251   1.007   1.488 -0.3460  0.3071  0.0060
  579TMC3    C6 8586   1.337   1.067   1.570 -0.9305 -0.2699  0.2758
  579TMC3     C 8587   0.947   1.192   1.568 -0.5843  0.0026 -0.1659
  579TMC3     O 8588   0.910   1.257   1.668  0.7888  0.3773 -0.0435
  579TMC3     H 8589   1.129   1.272   1.735  1.3798 -0.0611 -0.0356
  579TMC3    H1 8590   1.046   0.984   1.428 -0.9307  1.2401 -0.2682
  579TMC3    H2 8591   1.436   1.026   1.560 -0.0864  1.6491  0.8487
  579TMC3    C7 8592   1.300   0.900   1.404  0.1670  0.2734 -0.2145
  579TMC3    C8 8593   1.384   1.233   1.750 -0.5129 -0.2874 -0.0870
  579TMC3    O1 8594   1.405   0.850   1.443  0.3192  0.4280  0.4846
  579TMC3    O2 8595   1.342   1.333   1.806 -0.1365 -0.0277  0.0394
  580TMC3    C1 8596   0.356   0.476  11.933  0.7808  0.7722  0.3112
  580TMC3    C2 8597   0.468   0.557  11.946  0.2508 -0.0383 -0.0100
  580TMC3    C3 8598   0.569   0.507  12.024  0.0116  0.7369  0.0168
  580TMC3    C4 8599   0.337   0.352  11.995 -0.1144  0.3598 -0.8020
  580TMC3    C5 8600   0.432   0.317  12.078  0.4637 -1.0196  0.8632
  580TMC3    C6 8601   0.550   0.389  12.100 -0.2943  0.3214 -0.1926
  580TMC3     C 8602   0.272   0.522  11.831  0.3683  0.2566 -0.5509
  580TMC3     O 8603   0.260   0.643  11.822  0.1139 -0.7293 -0.1782
  580TMC3     H 8604   0.486   0.645  11.885  2.5801  0.5742  1.5994
  580TMC3    H1 8605   0.244   0.297  11.982  0.5840 -0.9400 -0.2508
  580TMC3    H2 8606   0.631   0.342  12.154 -1.2485  1.0709  1.8783
  580TMC3    C7 8607   0.403   0.199  12.161  0.3247  0.1648 -0.4776
  580TMC3    C8 8608   0.692   0.575  12.035  0.2622 -0.9343 -0.4255
  580TMC3    O1 8609   0.478   0.198  12.260 -0.2204 -0.8123  0.2511
  580TMC3    O2 8610   0.749   0.555  12.140  0.7895 -0.6187  0.4788
  581MPD2     C 8611   2.793   0.393  15.355  0.3366  0.0852 -0.3105
  581MPD2    C1 8612   2.845   0.334  15.243 -0.3097 -0.1819  0.7227
  581MPD2    C2 8613   2.778   0.350  15.120  0.0370  0.1422  0.0912
  581MPD2    C3 8614   2.661   0.424  15.116  0.0581 -0.2002 -0.0463
  581MPD2    C4 8615   2.620   0.489  15.233 -0.1914 -0.0539 -0.2215
  581MPD2    C5 8616   2.689   0.489  15.349  0.0959 -0.3209  0.1034
  581MPD2     H 8617   2.803   0.299  15.028  0.1504 -0.5541  0.5021
  581MPD2    H1 8618   2.536   0.558  15.225  0.8182  1.4285  1.7793
  581MPD2    H2 8619   2.839   0.377  15.451  2.0380  0.2366 -1.1074
  581MPD2    H3 8620   2.656   0.532  15.443  2.8806 -0.1448  0.9993
  581MPD2     N 8621   2.568   0.422  15.004  0.5356 -1.8364  0.5365
  581MPD2    H5 8622   2.479   0.468  15.016  1.5452  0.5609 -1.2570
  581MPD2    N1 8623   2.945   0.230  15.268  0.0289 -0.0196  0.8917
  581MPD2    H7 8624   2.951   0.220  15.369 -1.4550 -1.2439  0.8617
  582TMC3    C1 8625   3.087   0.051  15.208  0.4423  0.6437  0.1633
  582TMC3    C2 8626   3.149   0.062  15.325  0.3910 -0.2324  0.3936
  582TMC3    C3 8627   3.233   4.687  15.368  0.4179 -0.2748  0.1576
  582TMC3    C4 8628   3.112   4.662  15.129 -0.4674 -0.4537  0.1420
  582TMC3    C5 8629   3.211   4.571  15.170 -0.5123 -0.8775  0.2892
  582TMC3    C6 8630   3.279   4.586  15.284 -0.4698 -0.5099  0.3892
  582TMC3     C 8631   2.991   0.145  15.171 -0.0817  0.5290 -0.5558
  582TMC3     O 8632   2.970   0.137  15.052  0.4560  0.3480 -0.4439
  582TMC3     H 8633   3.146   0.150  15.388 -0.6768  1.6274 -2.2787
  582TMC3    H1 8634   3.046   4.643  15.045 -0.4120 -0.0311  0.0049
  582TMC3    H2 8635   3.337   4.502  15.321 -1.1114 -1.9199 -1.8026
  582TMC3    C7 8636   3.155   4.439  15.159  0.2034 -0.5617 -1.1649
  582TMC3    C8 8637   3.236   4.663  15.510  0.0314  0.2304  0.1719
  582TMC3    O1 8638   3.229   4.345  15.136  0.5960  0.2884  0.1986
  582TMC3    O2 8639   3.151   4.706  15.582 -0.1042 -0.1188 -0.1113
  583MPD2     C 8640   2.973   1.352  16.799  0.4724  0.3562  0.2481
  583MPD2    C1 8641   2.971   1.491  16.770 -0.4212 -0.2768 -0.2368
  583MPD2    C2 8642   2.944   1.578  16.879 -0.0867  0.0362 -1.0097
  583MPD2    C3 8643   2.950   1.530  17.010 -0.3093 -0.2468  0.3728
  583MPD2    C4 8644   2.970   1.391  17.032  0.4294 -0.4782  0.0138
  583MPD2    C5 8645   2.978   1.309  16.927 -0.2161  0.1835 -0.1268
  583MPD2     H 8646   2.933   1.685  16.867  0.1072  0.3153  1.2818
  583MPD2    H1 8647   2.964   1.348  17.131  0.6990  1.0227  0.6794
  583MPD2    H2 8648   2.993   1.274  16.726  1.9228  1.0247 -0.0719
  583MPD2    H3 8649   2.970   1.203  16.948 -1.1221  0.6876  1.9666
  583MPD2     N 8650   2.949   1.622  17.122  0.2045  0.8416  0.6938
  583MPD2    H5 8651   2.938   1.722  17.107  0.5388  0.8118  0.2722
  583MPD2    N1 8652   2.971   1.535  16.638 -0.2056 -0.9235  0.2641
  583MPD2    H7 8653   2.971   1.637  16.632 -0.7821 -0.9710 -0.6894
  584TMC3    C1 8654   2.976   1.705  17.343 -0.0758  0.5986  0.5885
  584TMC3    C2 8655   3.012   1.829  17.291  0.0072  0.7419 -0.3171
  584TMC3    C3 8656   3.043   1.927  17.381 -0.7727  0.9421  0.7384
  584TMC3    C4 8657   2.979   1.675  17.478 -0.4084 -0.3668  0.4276
  584TMC3    C5 8658   3.025   1.775  17.562  0.3701 -0.3791  0.0847
  584TMC3    C6 8659   3.054   1.907  17.514  0.4886  0.4176 -0.2834
  584TMC3     C 8660   2.976   1.586  17.256 -0.2151  0.4491  0.6253
  584TMC3     O 8661   3.024   1.483  17.302 -0.0780  0.4367  0.2361
  584TMC3     H 8662   3.004   1.852  17.186  0.3166  0.2293 -0.4526
  584TMC3    H1 8663   2.958   1.575  17.514 -1.3498 -0.4053 -0.2318
  584TMC3    H2 8664   3.069   1.989  17.583  0.1645  0.8789 -0.7562
  584TMC3    C7 8665   3.041   1.736   0.003  0.1962 -0.1229 -0.2841
  584TMC3    C8 8666   3.106   2.041  17.318 -0.6686  0.1943  0.0012
  584TMC3    O1 8667   3.017   1.623   0.035 -0.1667 -0.0263 -0.2063
  584TMC3    O2 8668   3.096   2.049  17.198 -0.5310  1.1865  0.4984
  585MPD2     C 8669   2.708   0.273   1.046  0.0464  1.3310 -0.0525
  585MPD2    C1 8670   2.806   0.345   0.988 -0.1389 -0.4394 -0.2952
  585MPD2    C2 8671   2.781   0.400   0.864  0.3249  0.1788  0.1269
  585MPD2    C3 8672   2.660   0.376   0.799 -0.7509  0.5992  0.4056
  585MPD2    C4 8673   2.561   0.309   0.867  0.6428  0.2274 -0.4699
  585MPD2    C5 8674   2.584   0.239   0.985  0.2496 -0.0065 -0.3108
  585MPD2     H 8675   2.862   0.457   0.820 -0.6281  1.2615 -0.2437
  585MPD2    H1 8676   2.468   0.288   0.815  0.8838 -0.9489 -0.4274
  585MPD2    H2 8677   2.723   0.227   1.143 -0.6080  2.5768  0.6229
  585MPD2    H3 8678   2.506   0.180   1.033  0.1729 -0.5840 -1.1466
  585MPD2     N 8679   2.629   0.429   0.670 -0.2718  0.2051  0.2789
  585MPD2    H5 8680   2.540   0.400   0.630  0.5032 -4.2750  1.7862
  585MPD2    N1 8681   2.927   0.363   1.063  0.2292  0.4456  0.3667
  585MPD2    H7 8682   2.939   0.304   1.145  2.1534  1.9428  1.1695
  586TMC3    C1 8683   2.627   0.568   0.490 -0.2458  0.4071 -0.2933
  586TMC3    C2 8684   2.668   0.561   0.361 -0.2309  0.0783  0.0019
  586TMC3    C3 8685   2.600   0.630   0.261 -0.4923  0.2329 -0.4893
  586TMC3    C4 8686   2.506   0.621   0.525 -0.0893 -0.2072 -0.0679
  586TMC3    C5 8687   2.428   0.680   0.422  0.1468 -0.9970  0.8552
  586TMC3    C6 8688   2.481   0.699   0.298 -0.1670  0.2452 -0.8766
  586TMC3     C 8689   2.711   0.509   0.592 -0.6874 -0.2599 -0.7536
  586TMC3     O 8690   2.832   0.505   0.590 -0.2903 -0.1678  0.3131
  586TMC3     H 8691   2.756   0.505   0.331 -0.7756 -1.7459  1.7909
  586TMC3    H1 8692   2.476   0.628   0.629  0.8494  1.5055  0.0818
  586TMC3    H2 8693   2.425   0.755   0.224 -2.0214  1.1149  1.2035
  586TMC3    C7 8694   2.310   0.763   0.466  0.6666  0.3755  0.0378
  586TMC3    C8 8695   2.625   0.583   0.126  0.0984 -0.0796 -0.3316
  586TMC3    O1 8696   2.320   0.822   0.572 -0.2502 -0.1674 -0.2994
  586TMC3    O2 8697   2.708   0.493   0.113  0.3502 -0.4966  0.6722
  587TMC3    C1 8698   4.584   3.451  16.072 -0.4739 -0.5777 -0.0436
  587TMC3    C2 8699   4.550   3.563  16.145  0.0172 -0.2725  0.3743
  587TMC3    C3 8700   4.655   3.634  16.192 -0.1184  0.1739  0.2451
  587TMC3    C4 8701   4.705   3.408  16.035 -0.5127 -0.2937 -0.7586
  587TMC3    C5 8702   0.082   3.477  16.090  0.2341  0.6267  0.5159
  587TMC3    C6 8703   0.060   3.595  16.165 -0.0637  0.3531 -0.6468
  587TMC3     C 8704   4.470   3.399  15.994 -0.0650  0.4243 -0.5132
  587TMC3     O 8705   4.498   3.347  15.886  0.0359  0.3828 -0.0729
  587TMC3     H 8706   4.445   3.591  16.150 -0.1990 -0.9812 -0.2963
  587TMC3    H1 8707   0.001   3.323  15.971 -0.6578  0.5750 -1.9444
  587TMC3    H2 8708   0.143   3.648  16.210 -0.2039 -1.1191  1.3059
  587TMC3    C7 8709   0.212   3.472  16.017  0.1999 -0.0853  0.2806
  587TMC3    C8 8710   4.642   3.779  16.212  0.3810 -0.2094  0.3518
  587TMC3    O1 8711   0.201   3.421  15.908  0.1604 -0.0552 -0.0606
  587TMC3    O2 8712   0.023   3.834  16.236 -0.4728  0.0982  0.3881
  588TMC3    C1 8713   2.301   1.636  10.008 -0.6911 -0.2983 -0.5101
  588TMC3    C2 8714   2.267   1.543   9.917 -0.3774  0.0161  0.8094
  588TMC3    C3 8715   2.342   1.434   9.903 -0.3227 -0.5253 -0.4662
  588TMC3    C4 8716   2.415   1.635  10.087 -0.1804  0.2732 -0.1989
  588TMC3    C5 8717   2.491   1.520  10.074  0.0599  0.5519  0.4175
  588TMC3    C6 8718   2.457   1.418   9.981 -0.1045 -0.3400  0.4447
  588TMC3     C 8719   2.239   1.773  10.004 -0.6261  0.4309 -0.3062
  588TMC3     O 8720   2.119   1.788   9.975 -0.3867 -0.1291  0.4521
  588TMC3     H 8721   2.172   1.544   9.864 -0.2793  1.9628  0.6707
  588TMC3    H1 8722   2.421   1.700  10.174 -2.6871 -0.1363  0.2857
  588TMC3    H2 8723   2.530   1.344   9.949  0.9278  1.6625 -1.8511
  588TMC3    C7 8724   2.637   1.525  10.085  0.4348  0.8823  0.5149
  588TMC3    C8 8725   2.303   1.339   9.793  0.0225 -0.9153 -0.2703
  588TMC3    O1 8726   2.706   1.447  10.029 -0.0878 -0.6545 -0.2124
  588TMC3    O2 8727   2.231   1.374   9.703 -0.0684  0.2280  0.2608
  589TMC3    C1 8728   1.334   4.084   1.293  0.2949 -0.2857  0.7014
  589TMC3    C2 8729   1.439   4.075   1.382 -0.7519 -0.6255  0.0719
  589TMC3    C3 8730   1.538   3.982   1.359  0.1813 -0.0446  0.3012
  589TMC3    C4 8731   1.313   4.002   1.188  0.0878  0.7498 -0.9442
  589TMC3    C5 8732   1.407   3.903   1.177 -0.5930 -0.0310 -0.1199
  589TMC3    C6 8733   1.520   3.893   1.250  0.0518  0.7162 -0.0806
  589TMC3     C 8734   1.237   4.197   1.310  0.7103  0.5542  0.9013
  589TMC3     O 8735   1.144   4.194   1.233  0.0850  0.3733  0.5865
  589TMC3     H 8736   1.441   4.128   1.477  1.8229 -0.7337  0.0669
  589TMC3    H1 8737   1.214   4.005   1.144 -0.8151  1.1798  1.1596
  589TMC3    H2 8738   1.589   3.810   1.235 -0.7054 -0.3627  2.3991
  589TMC3    C7 8739   1.369   3.780   1.113 -0.1844 -0.3988  0.6236
  589TMC3    C8 8740   1.628   3.935   1.462  0.1218  0.1473 -0.2049
  589TMC3    O1 8741   1.451   3.687   1.106 -0.2631  0.0013 -0.0436
  589TMC3    O2 8742   1.602   3.976   1.572 -0.3299 -0.1093 -0.9811
  590MPD2     C 8743   0.979   3.038  16.589  0.4875 -0.0137 -0.3120
  590MPD2    C1 8744   0.900   3.031  16.476  0.1995  0.1972  0.1078
  590MPD2    C2 8745   0.951   3.075  16.359  0.0116  0.1728 -0.0115
  590MPD2    C3 8746   1.079   3.127  16.352  0.3421 -0.4252  0.4466
  590MPD2    C4 8747   1.161   3.129  16.467  1.2847  0.6054  1.0983
  590MPD2    C5 8748   1.109   3.073  16.582 -0.2524  0.5655  0.0801
  590MPD2     H 8749   0.893   3.090  16.269 -1.0938  0.1573  0.6929
  590MPD2    H1 8750   1.265   3.160  16.473  0.9610  2.3502 -2.2709
  590MPD2    H2 8751   0.944   3.004  16.686  0.4532  2.0616  0.3953
  590MPD2    H3 8752   1.172   3.066  16.670 -0.0264 -0.0542 -0.1289
  590MPD2     N 8753   1.122   3.175  16.226 -0.4149 -0.2555 -0.1322
  590MPD2    H5 8754   1.065   3.154  16.144 -1.2001 -0.4904  0.4807
  590MPD2    N1 8755   0.772   2.978  16.486  0.0009 -0.0326 -0.2593
  590MPD2    H7 8756   0.742   2.951  16.579  1.9976  0.3458  0.4905
  591TMC3    C1 8757   1.224   3.313  16.070  0.3856 -0.0493 -0.0739
  591TMC3    C2 8758   1.192   3.224  15.973  0.1554 -0.2286 -0.4562
  591TMC3    C3 8759   1.214   3.257  15.842 -0.4401 -0.2049  0.4720
  591TMC3    C4 8760   1.279   3.441  16.049  0.2739  0.2474  0.1758
  591TMC3    C5 8761   1.317   3.464  15.917 -0.3421 -0.4085  0.4079
  591TMC3    C6 8762   1.286   3.375  15.816 -0.3326  0.3806 -0.1459
  591TMC3     C 8763   1.227   3.266  16.202 -0.7671  0.0762  0.1370
  591TMC3     O 8764   1.280   3.329  16.288 -0.1999  0.3717  0.4351
  591TMC3     H 8765   1.154   3.126  16.000 -2.0220 -0.0200 -2.6851
  591TMC3    H1 8766   1.281   3.514  16.129  3.1313  0.8762 -0.4913
  591TMC3    H2 8767   1.302   3.398  15.711  1.2754  0.0919  0.0290
  591TMC3    C7 8768   1.338   3.611  15.889 -0.7634 -0.2503  0.5247
  591TMC3    C8 8769   1.259   3.138  15.774 -1.1192 -0.3836 -0.2627
  591TMC3    O1 8770   1.432   3.675  15.940  0.2385  0.2258  0.5378
  591TMC3    O2 8771   1.193   3.038  15.783 -0.5256  0.6282  0.4350
  592MPD2     C 8772   1.119   4.082  11.121 -0.4061  0.2049 -0.2113
  592MPD2    C1 8773   1.029   4.164  11.186 -0.6780 -0.0133 -0.9780
  592MPD2    C2 8774   0.913   4.097  11.233  0.5943 -0.4925 -0.2950
  592MPD2    C3 8775   0.901   3.963  11.228  0.3215 -0.3234  0.6511
  592MPD2    C4 8776   0.993   3.884  11.166  0.6086  0.3086  0.5799
  592MPD2    C5 8777   1.099   3.948  11.113  0.5741  0.5200  0.3222
  592MPD2     H 8778   0.845   4.160  11.290 -1.6276 -3.2342  0.1149
  592MPD2    H1 8779   0.989   3.776  11.161  0.6351  0.3952 -1.2131
  592MPD2    H2 8780   1.208   4.130  11.083  0.2409 -0.3796  0.5671
  592MPD2    H3 8781   1.176   3.887  11.066 -0.1543 -0.6026  0.5973
  592MPD2     N 8782   0.797   3.901  11.307 -0.1924 -0.1708  0.3244
  592MPD2    H5 8783   0.743   3.969  11.359 -1.8390 -1.1902 -0.0597
  592MPD2    N1 8784   1.053   4.307  11.183  0.2651  0.0112 -0.1690
  592MPD2    H7 8785   1.151   4.329  11.166 -0.1023  1.0855 -0.9123
  593TMC3    C1 8786   1.020   4.533  11.257  0.2292 -0.1515  0.1484
  593TMC3    C2 8787   0.977   4.606  11.365  0.2974  0.0421  0.9105
  593TMC3    C3 8788   1.032   0.004  11.389  0.6846  0.4486 -0.2194
  593TMC3    C4 8789   1.108   4.591  11.167  0.4354 -0.6167 -0.3892
  593TMC3    C5 8790   1.162   4.716  11.195 -0.4118 -0.3270  0.6732
  593TMC3    C6 8791   1.135   0.056  11.311 -0.4459 -0.3621  0.4892
  593TMC3     C 8792   0.965   4.402  11.225 -0.0020 -0.8240 -0.3787
  593TMC3     O 8793   0.851   4.389  11.262  0.3851 -0.3949 -0.5257
  593TMC3     H 8794   0.904   4.561  11.432 -2.1956  2.3526 -0.2400
  593TMC3    H1 8795   1.134   4.543  11.074 -3.1346 -1.7605 -0.8068
  593TMC3    H2 8796   1.166   0.158  11.328  1.3980 -0.5787 -1.5734
  593TMC3    C7 8797   1.270   0.050  11.117 -0.0525 -0.5154  0.2811
  593TMC3    C8 8798   0.997   0.069  11.509  0.4129 -0.6070 -0.4209
  593TMC3    O1 8799   1.346   0.122  11.179  0.2546  0.4241  0.1783
  593TMC3    O2 8800   0.877   0.055  11.539  0.8648 -0.4920 -0.3759
  594MPD2     C 8801   0.029   3.743  13.884 -0.7415 -0.8240  0.0757
  594MPD2    C1 8802   0.068   3.744  14.016 -0.1826  0.5539 -0.0646
  594MPD2    C2 8803   0.179   3.816  14.054  0.0622  0.1110 -0.0836
  594MPD2    C3 8804   0.248   3.904  13.972 -0.1798 -0.5651  0.0912
  594MPD2    C4 8805   0.205   3.913  13.844  0.0351 -0.5106 -0.0399
  594MPD2    C5 8806   0.099   3.832  13.801  0.8027 -0.2921  0.4908
  594MPD2     H 8807   0.201   3.810  14.160 -0.6148  3.6759  0.2621
  594MPD2    H1 8808   0.244   3.993  13.781  1.0707  0.9561  2.4673
  594MPD2    H2 8809   4.659   3.707  13.844 -0.6549 -1.0047  0.0378
  594MPD2    H3 8810   0.071   3.860  13.700 -1.6427  2.1216  1.8355
  594MPD2     N 8811   0.357   3.973  14.022  1.1341 -0.2466  0.4550
  594MPD2    H5 8812   0.381   3.953  14.119 -0.8961 -0.8395  0.8351
  594MPD2    N1 8813   4.706   3.668  14.100 -1.2018 -0.4946 -0.6057
  594MPD2    H7 8814   4.626   3.616  14.066 -2.3283  0.2044  0.9864
  595TMC3    C1 8815   0.750   4.199  14.082  0.2111 -0.3382 -0.0762
  595TMC3    C2 8816   0.679   4.125  13.991 -0.5370 -0.3090  0.3678
  595TMC3    C3 8817   0.546   4.111  14.011 -0.1876  0.1278  0.3542
  595TMC3    C4 8818   0.688   4.268  14.182  0.1746 -0.2153  0.4460
  595TMC3    C5 8819   0.551   4.262  14.188  0.4334  0.1097 -0.6830
  595TMC3    C6 8820   0.483   4.182  14.101  0.5111 -0.6045 -0.0493
  595TMC3     C 8821   0.884   4.159  14.100  0.7631 -0.1925  0.1033
  595TMC3     O 8822   0.936   4.191  14.207 -0.0581  0.8105 -0.3218
  595TMC3     H 8823   0.728   4.063  13.916 -0.4816  2.4419 -1.8707
  595TMC3    H1 8824   0.738   4.316  14.266 -0.5734 -0.0910  0.8272
  595TMC3    H2 8825   0.374   4.183  14.103  0.4809 -1.6007 -2.1919
  595TMC3    C7 8826   0.475   4.320  14.303 -0.2213 -0.2979  0.0406
  595TMC3    C8 8827   0.461   4.017  13.939 -0.2582 -0.0316 -0.2516
  595TMC3    O1 8828   0.386   4.247  14.341 -0.4918 -0.2008  0.1917
  595TMC3    O2 8829   0.477   3.997  13.816  0.2189 -0.6139  0.6119
  596MPD2     C 8830   3.575   0.989  16.654  0.7232  0.6729 -0.4597
  596MPD2    C1 8831   3.623   1.112  16.623 -0.3899  0.3302 -0.1962
  596MPD2    C2 8832   3.657   1.139  16.494 -0.3137  0.1458 -0.0232
  596MPD2    C3 8833   3.643   1.053  16.401  0.3854  0.2694  0.3628
  596MPD2    C4 8834   3.589   0.926  16.430  0.4521 -0.8859 -0.0702
  596MPD2    C5 8835   3.556   0.902  16.555  0.3899 -0.0080  0.4735
  596MPD2     H 8836   3.697   1.239  16.479  1.9512 -0.6290  0.8687
  596MPD2    H1 8837   3.568   0.853  16.352  0.6706 -0.7967 -0.2145
  596MPD2    H2 8838   3.562   0.955  16.756 -1.3778  0.2450 -0.8821
  596MPD2    H3 8839   3.531   0.800  16.585  2.6930 -0.2638  1.4575
  596MPD2     N 8840   3.671   1.087  16.267 -0.1521  0.2233  0.7933
  596MPD2    H5 8841   3.672   1.014  16.197  1.0511  2.1077 -1.1329
  596MPD2    N1 8842   3.646   1.223  16.705  0.3247 -0.0258 -0.1385
  596MPD2    H7 8843   3.677   1.311  16.664  1.0474  0.7998  2.1588
  597TMC3    C1 8844   3.668   1.337  16.901 -0.1256  0.0604  0.7806
  597TMC3    C2 8845   3.730   1.431  16.825  0.5828  0.5111 -0.6017
  597TMC3    C3 8846   3.714   1.558  16.854 -0.0476  0.1288  0.0722
  597TMC3    C4 8847   3.593   1.372  17.010  0.0269 -0.1752  0.0117
  597TMC3    C5 8848   3.582   1.508  17.041 -0.5470  0.0944 -0.6775
  597TMC3    C6 8849   3.641   1.599  16.959  0.3229  0.3264  0.0097
  597TMC3     C 8850   3.627   1.214  16.837 -0.1009 -0.1482  0.1865
  597TMC3     O 8851   3.597   1.117  16.906 -0.5386  0.1673  0.1773
  597TMC3     H 8852   3.800   1.407  16.745  0.2051 -4.7284  0.6489
  597TMC3    H1 8853   3.544   1.295  17.069  0.8236 -0.4761  0.2755
  597TMC3    H2 8854   3.633   1.705  16.980 -0.6998  0.7257 -2.4233
  597TMC3    C7 8855   3.565   1.534  17.192 -0.5337  1.0518  0.2758
  597TMC3    C8 8856   3.788   1.659  16.775 -0.0102 -0.2748  0.1131
  597TMC3    O1 8857   3.574   1.439  17.267  0.2568 -0.2667 -0.3401
  597TMC3    O2 8858   3.796   1.768  16.824  0.3786 -0.0656 -0.0208
  598TMC3    C1 8859   2.321   3.331  15.291 -0.6588 -0.5816  0.1577
  598TMC3    C2 8860   2.194   3.274  15.313 -0.9584  0.0347 -0.0672
  598TMC3    C3 8861   2.113   3.276  15.202  0.1863  0.2264  0.6843
  598TMC3    C4 8862   2.355   3.380  15.163  0.4502 -0.1723  0.2375
  598TMC3    C5 8863   2.269   3.379  15.059  0.3133 -0.2829  0.0361
  598TMC3    C6 8864   2.148   3.324  15.073  0.1717  0.1464  0.5366
  598TMC3     C 8865   2.408   3.373  15.409 -0.8346  0.5089  0.3471
  598TMC3     O 8866   2.503   3.442  15.377  0.0280  0.0062 -0.5561
  598TMC3     H 8867   2.149   3.254  15.410 -2.4979  1.4167 -0.5131
  598TMC3    H1 8868   2.456   3.418  15.148 -0.6417  2.3244 -0.7197
  598TMC3    H2 8869   2.075   3.321  14.993  0.0527 -0.5118  0.6669
  598TMC3    C7 8870   2.288   3.468  14.945  0.7161 -0.5054  0.9786
  598TMC3    C8 8871   1.986   3.208  15.205 -0.6918 -0.2582 -1.0368
  598TMC3    O1 8872   2.206   3.453  14.852 -0.5302 -0.5981  0.2012
  598TMC3    O2 8873   1.921   3.217  15.101 -0.9860 -0.5581 -0.5094
  599MPD2     C 8874   2.388   0.748  16.106 -0.8078 -0.3179 -0.5465
  599MPD2    C1 8875   2.329   0.630  16.112 -0.0407  0.0218  0.1418
  599MPD2    C2 8876   2.196   0.625  16.141  0.1717  0.5210  0.7267
  599MPD2    C3 8877   2.117   0.741  16.156 -0.4908  0.5524  0.5560
  599MPD2    C4 8878   2.178   0.862  16.149 -0.2442 -0.4376  0.5445
  599MPD2    C5 8879   2.310   0.860  16.113 -0.5851  0.0594  0.8206
  599MPD2     H 8880   2.151   0.528  16.157 -1.6479  1.2394 -0.0049
  599MPD2    H1 8881   2.134   0.960  16.157  0.8729 -0.0994  2.8268
  599MPD2    H2 8882   2.495   0.761  16.088 -0.4534 -1.2923  0.8228
  599MPD2    H3 8883   2.363   0.955  16.116 -0.4241  0.0065 -0.4521
  599MPD2     N 8884   1.985   0.733  16.200 -0.0113  0.1535  0.2064
  599MPD2    H5 8885   1.943   0.817  16.238 -0.8534  0.1416 -0.7279
  599MPD2    N1 8886   2.415   0.515  16.099  0.4507 -0.4334 -0.1436
  599MPD2    H7 8887   2.513   0.540  16.095  0.5163 -1.1638 -2.5575
  600TMC3    C1 8888   1.794   0.652  16.297  0.2360 -0.2908 -0.5335
  600TMC3    C2 8889   1.695   0.555  16.297 -0.2116 -0.1300  0.1167
  600TMC3    C3 8890   1.617   0.551  16.405  0.3730  0.2218  0.4896
  600TMC3    C4 8891   1.817   0.732  16.403  0.0643  0.5327  0.2682
  600TMC3    C5 8892   1.733   0.720  16.511 -0.1275 -0.2081 -0.3200
  600TMC3    C6 8893   1.638   0.629  16.514  0.1091 -0.2782  0.0135
  600TMC3     C 8894   1.907   0.624  16.212  0.6313 -0.3262 -0.2231
  600TMC3     O 8895   1.919   0.520  16.157  0.4106 -0.5004 -0.0566
  600TMC3     H 8896   1.686   0.478  16.221  0.8837  0.9954 -1.1516
  600TMC3    H1 8897   1.901   0.801  16.409 -0.2588  1.0809 -1.4792
  600TMC3    H2 8898   1.577   0.630  16.603  0.3223 -2.1083  0.1965
  600TMC3    C7 8899   1.718   0.839  16.600 -0.0159  0.8643 -0.0217
  600TMC3    C8 8900   1.540   0.433  16.428 -1.3518 -0.5862 -0.1985
  600TMC3    O1 8901   1.622   0.823  16.675  0.4622 -0.0375 -0.5330
  600TMC3    O2 8902   1.515   0.405  16.544  0.3444 -0.1420 -0.3405
  601MPD2     C 8903   4.476   3.023   0.357 -0.4435  0.0360  0.7550
  601MPD2    C1 8904   4.368   3.005   0.270  0.0494 -0.3046  0.4955
  601MPD2    C2 8905   4.286   2.892   0.295 -0.1212  0.2785  0.4373
  601MPD2    C3 8906   4.299   2.812   0.413 -0.2039  0.1650 -0.0030
  601MPD2    C4 8907   4.402   2.838   0.502 -0.0223 -0.2968 -0.0721
  601MPD2    C5 8908   4.479   2.949   0.473  0.0921  0.2225  0.2093
  601MPD2     H 8909   4.203   2.875   0.227 -0.3335  1.2294  0.4509
  601MPD2    H1 8910   4.422   2.786   0.595 -0.3620 -0.7534 -0.2599
  601MPD2    H2 8911   4.551   3.101   0.351  1.5229 -2.0374 -1.9834
  601MPD2    H3 8912   4.541   2.981   0.555  2.0377  2.8750 -2.2873
  601MPD2     N 8913   4.211   2.707   0.450 -0.4530 -0.0641 -0.1290
  601MPD2    H5 8914   4.221   2.673   0.546 -2.9271 -0.6564 -0.0852
  601MPD2    N1 8915   4.350   3.090   0.157  0.4232  0.3840 -0.2550
  601MPD2    H7 8916   4.277   3.060   0.093 -0.0384 -0.8370  0.8400
  602TMC3    C1 8917   4.370   3.260  17.692 -0.0730  0.0701 -0.7648
  602TMC3    C2 8918   4.454   3.343  17.624 -0.6516  0.2988 -0.4896
  602TMC3    C3 8919   4.393   3.427  17.537 -0.4736 -0.1205 -0.3522
  602TMC3    C4 8920   4.234   3.267  17.683 -0.5360 -0.4535 -0.1518
  602TMC3    C5 8921   4.179   3.359  17.592 -0.4430 -0.3469  0.0733
  602TMC3    C6 8922   4.259   3.437  17.515  0.5509 -0.1210 -0.6205
  602TMC3     C 8923   4.428   3.187   0.114  0.0827 -0.6765  0.3574
  602TMC3     O 8924   4.543   3.216   0.142 -0.1114  0.4693 -0.3636
  602TMC3     H 8925   4.562   3.337  17.630 -0.6648  0.4984 -0.0655
  602TMC3    H1 8926   4.171   3.192   0.029 -1.2203  1.1393  1.6048
  602TMC3    H2 8927   4.215   3.498  17.437 -3.1815 -0.6718  1.0575
  602TMC3    C7 8928   4.037   3.376  17.586 -0.1130 -0.1429 -0.3470
  602TMC3    C8 8929   4.474   3.521  17.453  0.2701  0.5448  0.4016
  602TMC3    O1 8930   3.972   3.273  17.600  0.1457  0.2686 -0.3150
  602TMC3    O2 8931   4.573   3.484  17.395  0.1481  0.4494  0.6988
  603TMC3    C1 8932   2.447   3.836  10.915 -0.0819 -0.3527 -0.5945
  603TMC3    C2 8933   2.421   3.862  11.043 -0.0223 -0.3681 -0.3566
  603TMC3    C3 8934   2.423   3.993  11.084 -0.6374  0.0180 -0.4298
  603TMC3    C4 8935   2.507   3.934  10.836  0.3439  0.1618 -0.2883
  603TMC3    C5 8936   2.530   4.060  10.887 -0.2089  1.1513 -0.2868
  603TMC3    C6 8937   2.480   4.090  11.009 -0.2913  0.1656 -0.4674
  603TMC3     C 8938   2.420   3.706  10.855  0.6498  0.3379  0.5527
  603TMC3     O 8939   2.460   3.675  10.743  0.3666 -0.0337 -0.4863
  603TMC3     H 8940   2.368   3.793  11.108  2.1297 -1.4792  0.2547
  603TMC3    H1 8941   2.532   3.926  10.731  3.2881 -1.1368  0.5273
  603TMC3    H2 8942   2.510   4.188  11.046  1.2930 -0.2646 -0.6283
  603TMC3    C7 8943   2.531   4.168  10.788  0.0061  0.8433  0.0656
  603TMC3    C8 8944   2.424   4.023  11.227  0.1507  0.7825  0.7944
  603TMC3    O1 8945   2.442   4.249  10.781 -0.4849 -0.0691 -0.0107
  603TMC3    O2 8946   2.473   3.930  11.292 -0.1242  0.7814 -0.4197
  604MPD2     C 8947   3.000   2.590  16.623 -0.0191 -0.1161  0.3077
  604MPD2    C1 8948   2.882   2.590  16.556  0.1830 -0.0725  0.0456
  604MPD2    C2 8949   2.877   2.565  16.416  0.0143  0.0775  0.2993
  604MPD2    C3 8950   2.992   2.550  16.345  0.5160  0.1649 -0.4600
  604MPD2    C4 8951   3.107   2.562  16.412 -1.1967  0.1896  0.2711
  604MPD2    C5 8952   3.110   2.570  16.552 -0.0133  0.3546  0.1393
  604MPD2     H 8953   2.782   2.580  16.366 -0.0256  1.5977  0.8263
  604MPD2    H1 8954   3.203   2.540  16.368  0.0465 -1.5226  3.8875
  604MPD2    H2 8955   3.015   2.604  16.729  4.0740 -0.4229 -0.2259
  604MPD2    H3 8956   3.205   2.569  16.605  0.4297 -2.7849 -0.7415
  604MPD2     N 8957   2.989   2.529  16.205 -0.5030  0.0186  0.9066
  604MPD2    H5 8958   2.896   2.540  16.166  0.1089 -0.5047 -0.7007
  604MPD2    N1 8959   2.776   2.629  16.641  0.1791 -0.4826 -0.4390
  604MPD2    H7 8960   2.805   2.635  16.738 -1.7827  0.3627  0.0996
  605TMC3    C1 8961   2.567   2.720  16.713 -0.2411 -0.1043 -0.6843
  605TMC3    C2 8962   2.628   2.761  16.827 -0.3858 -0.5345  0.1482
  605TMC3    C3 8963   2.566   2.865  16.891  0.0429  0.0904  0.3745
  605TMC3    C4 8964   2.443   2.760  16.679 -0.5503 -0.5743 -0.2272
  605TMC3    C5 8965   2.378   2.860  16.757 -0.3860 -0.4641 -0.2877
  605TMC3    C6 8966   2.446   2.922  16.860  0.2165  0.3478  0.0403
  605TMC3     C 8967   2.640   2.647  16.614  0.6152  0.6597 -0.2328
  605TMC3     O 8968   2.578   2.622  16.510  0.6404 -0.3512  0.2460
  605TMC3     H 8969   2.729   2.738  16.858 -0.3942  0.2308  0.7382
  605TMC3    H1 8970   2.405   2.734  16.581  0.1462 -3.1362  0.1809
  605TMC3    H2 8971   2.397   3.001  16.916 -1.2658  0.7770 -1.8394
  605TMC3    C7 8972   2.237   2.881  16.723 -0.1315 -0.1505 -0.4986
  605TMC3    C8 8973   2.660   2.936  16.975 -0.5630 -0.1423 -0.6350
  605TMC3    O1 8974   2.181   2.969  16.786  0.0548 -0.9848  0.8036
  605TMC3    O2 8975   2.725   2.870  17.046  0.1202 -0.2745 -0.5212
  606TMC3    C1 8976   3.936   0.908  16.911  0.4242 -0.4008  0.8505
  606TMC3    C2 8977   3.955   0.919  17.048  0.3462 -0.4130  0.0898
  606TMC3    C3 8978   3.916   0.817  17.132 -0.8404  0.1182 -0.2397
  606TMC3    C4 8979   3.884   0.795  16.857 -0.0731 -0.1357 -0.4655
  606TMC3    C5 8980   3.865   0.688  16.946 -0.3895  0.4364  0.2287
  606TMC3    C6 8981   3.873   0.696  17.081  0.2400 -0.2166  0.3040
  606TMC3     C 8982   3.966   1.022  16.826 -0.2269 -0.6412  0.0225
  606TMC3     O 8983   3.995   1.131  16.876  0.3306  0.4602 -0.0047
  606TMC3     H 8984   3.993   1.011  17.089  1.6001 -1.2865  0.8989
  606TMC3    H1 8985   3.848   0.781  16.755 -0.8989 -0.9303 -0.0638
  606TMC3    H2 8986   3.877   0.604  17.138 -1.8732  0.8654  2.1961
  606TMC3    C7 8987   3.868   0.568  16.877 -0.3650  0.3874  0.4640
  606TMC3    C8 8988   3.968   0.823  17.267  0.0457 -0.1327 -0.9041
  606TMC3    O1 8989   3.920   0.572  16.769 -0.1066 -0.3671 -0.2800
  606TMC3    O2 8990   4.058   0.904  17.268  0.2358 -0.0177 -0.2830
  607MPD2     C 8991   1.026   3.968  11.593 -0.0699  0.4498  0.9230
  607MPD2    C1 8992   1.055   4.054  11.700  0.4951 -0.5444 -0.4471
  607MPD2    C2 8993   1.045   4.008  11.832 -0.1145 -0.9293 -0.6743
  607MPD2    C3 8994   1.037   3.868  11.846  0.6889 -0.2580  0.0813
  607MPD2    C4 8995   1.024   3.784  11.741 -0.4517 -0.0442  0.4789
  607MPD2    C5 8996   1.012   3.830  11.616  0.8431 -0.0873  0.4279
  607MPD2     H 8997   1.057   4.070  11.920  0.1718  0.2399 -1.5312
  607MPD2    H1 8998   1.022   3.676  11.750  2.0706 -0.1117  0.1460
  607MPD2    H2 8999   1.030   4.002  11.490 -0.8214  2.4675  1.5474
  607MPD2    H3 9000   0.991   3.763  11.534  0.4569  0.5058  0.0442
  607MPD2     N 9001   1.036   3.824  11.982  0.1503  0.0269 -0.9083
  607MPD2    H5 9002   1.034   3.902  12.047 -1.8418 -1.0584  0.3363
  607MPD2    N1 9003   1.087   4.192  11.689  0.0069 -0.2464 -0.1336
  607MPD2    H7 9004   1.080   4.247  11.775  0.4024  0.9359 -0.8541
  608TMC3    C1 9005   1.168   4.400  11.598  0.1582 -1.0136  0.4474
  608TMC3    C2 9006   1.178   4.431  11.732 -0.1816  0.1736  0.1399
  608TMC3    C3 9007   1.269   4.528  11.769  0.2715  0.0837  0.2506
  608TMC3    C4 9008   1.254   4.442  11.506 -0.4689  0.1751  0.3358
  608TMC3    C5 9009   1.341   4.544  11.544  0.0063  0.8573 -0.2541
  608TMC3    C6 9010   1.349   4.590  11.674  0.3479  0.5090  0.6884
  608TMC3     C 9011   1.121   4.263  11.576 -0.4609  0.3112 -0.2024
  608TMC3     O 9012   1.154   4.212  11.470  0.0839 -0.4261  0.1644
  608TMC3     H 9013   1.104   4.398  11.804 -1.0557  3.2928  0.6784
  608TMC3    H1 9014   1.257   4.420  11.400  2.3497  0.8038  0.2844
  608TMC3    H2 9015   1.420   4.665  11.707  0.9167  1.2237 -2.1841
  608TMC3    C7 9016   1.455   4.568  11.451 -0.1906  0.5775 -0.1555
  608TMC3    C8 9017   1.283   4.558  11.917  0.7222 -0.3472  0.2758
  608TMC3    O1 9018   1.435   4.540  11.334 -0.1022  0.2927  0.3378
  608TMC3    O2 9019   1.328   4.665  11.958  0.0783 -0.4684  0.3336
  609TMC3    C1 9020   0.198   2.889   9.486  0.2342 -0.9148  0.1168
  609TMC3    C2 9021   0.119   2.829   9.389 -0.3309 -0.1135  0.1507
  609TMC3    C3 9022   0.109   2.696   9.397  0.0677  0.5831  0.1949
  609TMC3    C4 9023   0.289   2.834   9.566 -0.0290  0.2301  0.5925
  609TMC3    C5 9024   0.270   2.700   9.574  0.3449 -0.5520  0.0097
  609TMC3    C6 9025   0.184   2.634   9.489 -0.0682 -0.0897  0.0528
  609TMC3     C 9026   0.134   3.015   9.531 -0.3066 -0.6494  0.2385
  609TMC3     O 9027   0.027   3.058   9.494  0.0259  0.1295 -0.4812
  609TMC3     H 9028   0.045   2.894   9.343  1.4827  1.6477 -0.2494
  609TMC3    H1 9029   0.363   2.886   9.627  0.4107  0.7520 -0.3878
  609TMC3    H2 9030   0.177   2.526   9.502  1.8207 -0.4502 -1.8497
  609TMC3    C7 9031   0.375   2.627   9.641 -0.1142 -0.0674  0.0514
  609TMC3    C8 9032   0.014   2.626   9.318  0.0688  0.8216 -0.1249
  609TMC3    O1 9033   0.438   2.682   9.730  0.4260  0.3357 -0.3832
  609TMC3    O2 9034   4.715   2.514   9.358 -0.1699  0.0025  0.4196
  610TMC3    C1 9035   1.693   4.360  12.462 -0.8873  0.2988  0.2335
  610TMC3    C2 9036   1.702   4.340  12.325  0.3214  0.3256  0.2451
  610TMC3    C3 9037   1.654   4.223  12.269  0.0003 -0.1314  0.6646
  610TMC3    C4 9038   1.662   4.252  12.544 -0.0114 -0.1985 -0.1039
  610TMC3    C5 9039   1.623   4.140  12.489  0.1550 -0.8910  0.3285
  610TMC3    C6 9040   1.610   4.119  12.350 -0.4696 -0.1672 -0.1238
  610TMC3     C 9041   1.664   4.501  12.498  0.1078 -0.4186  0.6228
  610TMC3     O 9042   1.651   4.586  12.408 -0.3428  0.2649  0.6196
  610TMC3     H 9043   1.729   4.423  12.261 -0.6230  1.2916  1.1211
  610TMC3    H1 9044   1.672   4.272  12.650 -1.1773 -0.1818 -0.0020
  610TMC3    H2 9045   1.574   4.024  12.312 -0.2211 -0.7007  0.9612
  610TMC3    C7 9046   1.642   4.029  12.581 -0.3921  0.0245  0.0037
  610TMC3    C8 9047   1.619   4.231  12.132  0.3712 -0.0285 -0.0895
  610TMC3    O1 9048   1.642   4.054  12.702 -0.4133  0.2636 -0.0054
  610TMC3    O2 9049   1.649   4.337  12.072  0.3723  0.4593  0.5858
  611MPD2     C 9050   1.842   3.848  10.518 -0.2619  0.2532 -0.5805
  611MPD2    C1 9051   1.770   3.932  10.439 -0.3183  0.0122  0.4870
  611MPD2    C2 9052   1.835   4.019  10.346  0.1977  0.7271 -0.1683
  611MPD2    C3 9053   1.975   4.028  10.347 -0.0096 -0.4942  0.6714
  611MPD2    C4 9054   2.039   3.933  10.421 -0.0415 -0.2265  0.3987
  611MPD2    C5 9055   1.976   3.847  10.506  0.6145  0.2670  0.6665
  611MPD2     H 9056   1.791   4.099  10.288 -2.6884 -0.2212  0.7350
  611MPD2    H1 9057   2.147   3.933  10.416 -0.0970 -2.9535 -0.9321
  611MPD2    H2 9058   1.801   3.771  10.582 -1.5454  1.4162  0.0046
  611MPD2    H3 9059   2.036   3.782  10.569  1.5109  0.7008  0.2575
  611MPD2     N 9060   2.064   4.115  10.270 -0.5142 -0.4978  0.4302
  611MPD2    H5 9061   2.165   4.103  10.271 -0.4252  0.0309 -3.2519
  611MPD2    N1 9062   1.625   3.922  10.437 -0.0256 -0.0207  0.2480
  611MPD2    H7 9063   1.585   3.867  10.512 -0.1142  0.7076  0.7361
  612TMC3    C1 9064   2.115   4.295  10.117 -0.1294  0.2076 -0.4757
  612TMC3    C2 9065   2.231   4.323  10.181  0.2730  0.1214 -0.3008
  612TMC3    C3 9066   2.332   4.382  10.105 -0.0208  0.2234 -0.4386
  612TMC3    C4 9067   2.094   4.325   9.981  0.1356 -0.2466  0.4788
  612TMC3    C5 9068   2.194   4.390   9.917  0.0957 -0.1601  0.1290
  612TMC3    C6 9069   2.320   4.408   9.968 -0.4849  0.2266  0.3672
  612TMC3     C 9070   2.011   4.213  10.190 -0.8000  0.7980 -0.2922
  612TMC3     O 9071   1.902   4.211  10.133  0.0386  0.3702  0.0341
  612TMC3     H 9072   2.231   4.298  10.286 -1.3470  2.2762  0.2241
  612TMC3    H1 9073   1.999   4.295   9.937 -1.4554  2.3819  2.1638
  612TMC3    H2 9074   2.394   4.467   9.913 -0.7146 -0.7327 -0.9700
  612TMC3    C7 9075   2.157   4.445   9.790 -1.2727  0.0322  0.3412
  612TMC3    C8 9076   2.470   4.356  10.150 -0.4430 -0.0774 -0.3042
  612TMC3    O1 9077   2.048   4.408   9.743 -0.1584 -0.1666 -0.0661
  612TMC3    O2 9078   2.563   4.384  10.078 -0.4838 -0.0170  0.0308
  613MPD2     C 9079   0.698   1.463  16.792  0.2041 -0.4066 -0.3801
  613MPD2    C1 9080   0.697   1.475  16.659  0.5264 -0.1578  0.2076
  613MPD2    C2 9081   0.583   1.524  16.593  0.1722 -0.2822 -0.1931
  613MPD2    C3 9082   0.458   1.520  16.670  0.5885 -0.1561 -0.4179
  613MPD2    C4 9083   0.467   1.514  16.810  0.0580 -0.6504 -0.7046
  613MPD2    C5 9084   0.590   1.503  16.872  0.4717  0.6616 -0.7709
  613MPD2     H 9085   0.574   1.524  16.485  0.4680 -2.7300 -0.2370
  613MPD2    H1 9086   0.380   1.530  16.872  1.2758  1.5649  0.4179
  613MPD2    H2 9087   0.780   1.417  16.846 -0.9436 -1.9045  0.0856
  613MPD2    H3 9088   0.590   1.494  16.980 -0.7768  0.1406 -0.8054
  613MPD2     N 9089   0.327   1.538  16.609 -0.5913 -0.0605 -1.2385
  613MPD2    H5 9090   0.245   1.527  16.667  1.0105  0.3596  1.0829
  613MPD2    N1 9091   0.811   1.443  16.581  0.1512 -0.1309  0.5416
  613MPD2    H7 9092   0.881   1.386  16.629  0.9012 -1.2098 -1.8670
  614TMC3    C1 9093   0.917   1.389  16.388 -0.3253 -0.1692  0.0540
  614TMC3    C2 9094   0.856   1.264  16.379  0.1311 -0.0405 -0.1465
  614TMC3    C3 9095   0.826   1.205  16.262  0.2787 -0.6088  0.6014
  614TMC3    C4 9096   0.976   1.435  16.276 -0.3556  0.1728  0.7186
  614TMC3    C5 9097   0.949   1.365  16.162 -0.3219  0.7286 -0.7471
  614TMC3    C6 9098   0.865   1.256  16.145  0.5096  0.1050 -0.3668
  614TMC3     C 9099   0.829   1.482  16.454  0.0331 -0.3607  0.6324
  614TMC3     O 9100   0.772   1.565  16.383 -0.0174 -0.0681 -1.0505
  614TMC3     H 9101   0.809   1.221  16.467 -0.7784 -0.4690 -0.8491
  614TMC3    H1 9102   1.028   1.530  16.272  0.1056 -0.1521 -1.7087
  614TMC3    H2 9103   0.841   1.217  16.047  0.7657 -1.4207  0.1837
  614TMC3    C7 9104   1.017   1.418  16.041  0.0512 -0.0083  0.2134
  614TMC3    C8 9105   0.678   1.176  16.266  0.6095  0.0725 -0.1914
  614TMC3    O1 9106   1.125   1.472  16.065 -0.1747  0.4446 -0.0822
  614TMC3    O2 9107   0.614   1.243  16.348  0.1391 -0.0241 -0.0882
  615MPD2     C 9108   4.175   2.923  16.370 -0.1749  0.0866 -0.8585
  615MPD2    C1 9109   4.260   2.957  16.269 -0.1964 -0.1799 -0.1294
  615MPD2    C2 9110   4.250   2.895  16.143  0.1083  0.6232  0.8749
  615MPD2    C3 9111   4.166   2.789  16.118  0.2320 -0.6226  0.5390
  615MPD2    C4 9112   4.095   2.744  16.226 -1.2451  0.2586  0.2957
  615MPD2    C5 9113   4.101   2.806  16.345  0.0408  0.3910 -0.1087
  615MPD2     H 9114   4.308   2.927  16.057 -1.2740  0.3135 -0.1640
  615MPD2    H1 9115   4.031   2.657  16.222 -1.7667  0.5734  1.9841
  615MPD2    H2 9116   4.175   2.973  16.466 -2.3363  1.5422 -1.6113
  615MPD2    H3 9117   4.036   2.768  16.423 -2.4810  0.2801 -2.2328
  615MPD2     N 9118   4.166   2.733  15.984  0.2207  0.0047  0.2049
  615MPD2    H5 9119   4.209   2.786  15.908  0.4537 -0.3820  0.0670
  615MPD2    N1 9120   4.358   3.063  16.289  0.0524  0.7579  0.0251
  615MPD2    H7 9121   4.422   3.068  16.211 -1.0220  1.8171 -0.7877
  616TMC3    C1 9122   4.493   3.232  16.395 -0.2701 -0.1306 -1.0994
  616TMC3    C2 9123   4.612   3.177  16.348 -0.6421 -0.1077 -0.0346
  616TMC3    C3 9124   0.001   3.244  16.369 -0.3962 -0.4107 -0.2037
  616TMC3    C4 9125   4.489   3.351  16.462 -0.3183  0.3183  0.0495
  616TMC3    C5 9126   4.613   3.406  16.485  0.6454 -0.4471 -0.0900
  616TMC3    C6 9127   0.005   3.354  16.442 -0.4674 -0.1956  0.0905
  616TMC3     C 9128   4.370   3.152  16.393  0.1515 -0.1292 -0.3025
  616TMC3     O 9129   4.297   3.169  16.490  0.3763  0.1988  1.0387
  616TMC3     H 9130   4.629   3.071  16.333  2.5109  0.8702 -3.2932
  616TMC3    H1 9131   4.401   3.394  16.509 -1.2643 -2.0200  0.4177
  616TMC3    H2 9132   0.093   3.415  16.460 -0.2022 -0.8489  1.0122
  616TMC3    C7 9133   4.623   3.540  16.543 -0.6710 -0.1115  0.5135
  616TMC3    C8 9134   0.115   3.189  16.305  0.2171  0.6000 -0.0183
  616TMC3    O1 9135   4.715   3.613  16.508 -0.4916  0.2999  0.2592
  616TMC3    O2 9136   0.096   3.097  16.229 -0.5196  0.1895 -0.3055
  617MPD2     C 9137   2.360   1.401  13.865 -0.2435 -0.1642 -0.1504
  617MPD2    C1 9138   2.396   1.308  13.958 -0.6680 -0.0179 -0.4282
  617MPD2    C2 9139   2.308   1.204  13.984 -0.2883  0.1660 -0.2914
  617MPD2    C3 9140   2.189   1.201  13.916  0.3929 -0.2709 -0.6495
  617MPD2    C4 9141   2.158   1.298  13.826  0.0832 -0.4296 -0.1608
  617MPD2    C5 9142   2.246   1.393  13.804  0.4381  0.1435  0.1101
  617MPD2     H 9143   2.335   1.117  14.043 -0.5190 -0.0346 -0.4769
  617MPD2    H1 9144   2.058   1.311  13.785 -0.9495 -1.1430  2.0854
  617MPD2    H2 9145   2.423   1.487  13.844  1.2138 -1.0504  0.5952
  617MPD2    H3 9146   2.218   1.474  13.736  0.4356 -0.3363 -0.4609
  617MPD2     N 9147   2.102   1.092  13.947  0.2874 -0.2701 -0.5817
  617MPD2    H5 9148   2.125   1.038  14.030 -0.3138  2.0670  1.1128
  617MPD2    N1 9149   2.533   1.311  14.004  0.1249 -0.6388 -0.1162
  617MPD2    H7 9150   2.585   1.398  14.011 -0.8565 -0.0260 -0.5899
  618TMC3    C1 9151   2.720   1.213  14.104  0.2590  0.4910 -0.2299
  618TMC3    C2 9152   2.811   1.113  14.086  0.0228 -0.3434 -1.0534
  618TMC3    C3 9153   2.938   1.133  14.127  0.0040  0.4292  0.7423
  618TMC3    C4 9154   2.753   1.335  14.158  0.6527  0.4247 -0.5231
  618TMC3    C5 9155   2.882   1.362  14.191 -0.6102 -0.0953 -0.2830
  618TMC3    C6 9156   2.979   1.257  14.181 -0.0641 -0.1167  0.4280
  618TMC3     C 9157   2.591   1.196  14.041 -0.2281 -0.0710  0.5428
  618TMC3     O 9158   2.567   1.081  14.006  0.4233  0.4453  0.4073
  618TMC3     H 9159   2.777   1.013  14.059 -2.7400  0.4109 -0.4246
  618TMC3    H1 9160   2.680   1.406  14.193  0.3504  0.4827 -1.2738
  618TMC3    H2 9161   3.080   1.265  14.220  1.0530 -0.6401 -2.3359
  618TMC3    C7 9162   2.913   1.490  14.246  0.5053 -0.2067 -0.2840
  618TMC3    C8 9163   3.037   1.034  14.075  0.3369 -0.4816  0.2598
  618TMC3    O1 9164   2.835   1.534  14.332 -0.7914 -0.2414 -0.2436
  618TMC3    O2 9165   2.990   0.942  14.013 -0.3691 -1.0947  0.2446
  619MPD2     C 9166   3.982   3.184  13.456 -0.4227  0.0163  0.3147
  619MPD2    C1 9167   3.864   3.255  13.448 -0.4055 -0.6157 -0.4647
  619MPD2    C2 9168   3.739   3.193  13.452  0.2140 -0.4212 -0.3750
  619MPD2    C3 9169   3.737   3.058  13.477  0.5390 -0.0306  0.0424
  619MPD2    C4 9170   3.849   2.991  13.504  0.1290 -0.2071 -0.2553
  619MPD2    C5 9171   3.971   3.050  13.492  0.6520 -0.8710  0.3686
  619MPD2     H 9172   3.652   3.248  13.419 -0.2347  0.0694  1.6537
  619MPD2    H1 9173   3.854   2.884  13.523 -2.7308 -0.1477  0.8438
  619MPD2    H2 9174   4.081   3.227  13.459 -0.8536  1.1727 -2.4716
  619MPD2    H3 9175   4.060   2.990  13.506 -0.4388 -2.1953  1.6503
  619MPD2     N 9176   3.619   2.977  13.479  0.0171 -0.4902  0.3403
  619MPD2    H5 9177   3.633   2.882  13.512 -0.4303 -0.5062  0.4730
  619MPD2    N1 9178   3.862   3.394  13.421 -0.3705  0.6211 -0.2986
  619MPD2    H7 9179   3.775   3.446  13.428 -2.1483 -2.2885 -0.8732
  620TMC3    C1 9180   3.918   3.603  13.359 -0.1588 -0.3261  0.4758
  620TMC3    C2 9181   3.871   3.602  13.232 -0.5984 -0.0773  0.2427
  620TMC3    C3 9182   3.754   3.659  13.200 -0.1896 -0.3627 -0.1811
  620TMC3    C4 9183   3.873   3.692  13.447 -0.4067 -0.9954  0.4366
  620TMC3    C5 9184   3.771   3.775  13.400 -0.0642 -0.0963  0.0807
  620TMC3    C6 9185   3.704   3.753  13.285 -0.4432 -0.1130 -0.5031
  620TMC3     C 9186   3.971   3.482  13.409  0.0709  0.2361 -0.7226
  620TMC3     O 9187   4.091   3.464  13.393 -0.0878  0.0833  0.1886
  620TMC3     H 9188   3.900   3.521  13.166  1.1660  0.0976  0.8107
  620TMC3    H1 9189   3.912   3.685  13.547  0.5602 -2.0199 -0.0058
  620TMC3    H2 9190   3.634   3.825  13.246 -0.4455  0.8528  1.3172
  620TMC3    C7 9191   3.697   3.843  13.506 -1.0831  0.0967  0.1142
  620TMC3    C8 9192   3.698   3.637  13.066  0.1231  0.1811  0.9018
  620TMC3    O1 9193   3.749   3.879  13.612 -0.3745  0.0122  0.0800
  620TMC3    O2 9194   3.773   3.636  12.970 -0.4610  0.1844  0.2066
  621MPD2     C 9195   4.476   2.234   9.876 -0.2904 -0.8134  0.4637
  621MPD2    C1 9196   4.504   2.176   9.998 -0.2882  0.1923  0.1196
  621MPD2    C2 9197   4.546   2.249  10.107 -0.0662 -0.3482 -0.1072
  621MPD2    C3 9198   4.543   2.389  10.096  0.0847  0.5520 -0.1075
  621MPD2    C4 9199   4.503   2.452   9.975 -0.4574 -0.1702 -0.6605
  621MPD2    C5 9200   4.470   2.372   9.863 -0.5881 -0.3736 -0.1923
  621MPD2     H 9201   4.567   2.206  10.204 -1.2199  0.3881  0.4683
  621MPD2    H1 9202   4.483   2.555   9.949 -3.0805 -0.8907 -1.5280
  621MPD2    H2 9203   4.432   2.174   9.797 -2.5621 -0.0667  1.1582
  621MPD2    H3 9204   4.429   2.416   9.772 -0.1906  1.7135  0.6546
  621MPD2     N 9205   4.600   2.468  10.196  0.3225 -0.0456 -0.5099
  621MPD2    H5 9206   4.632   2.424  10.282  1.6493  2.0118  0.0722
  621MPD2    N1 9207   4.489   2.037  10.001  0.1550 -0.3097 -0.2863
  621MPD2    H7 9208   4.453   2.006   9.911 -1.2829  1.1118 -0.2110
  622TMC3    C1 9209   4.457   1.818  10.094 -0.1946 -0.4814  0.2263
  622TMC3    C2 9210   4.472   1.739  10.201  0.3128 -0.1996 -0.8891
  622TMC3    C3 9211   4.434   1.607  10.198  0.0537 -0.0707 -0.6467
  622TMC3    C4 9212   4.412   1.775   9.974  0.3278 -0.4499 -0.2230
  622TMC3    C5 9213   4.382   1.639   9.974  0.4884 -0.6621  0.7088
  622TMC3    C6 9214   4.396   1.560  10.080 -0.1085  0.0513  0.6004
  622TMC3     C 9215   4.479   1.962  10.114 -0.7240 -0.5062  0.0126
  622TMC3     O 9216   4.477   1.996  10.233 -0.4202  0.4457  0.2225
  622TMC3     H 9217   4.504   1.789  10.291 -2.4777  2.4889 -1.4021
  622TMC3    H1 9218   4.388   1.840   9.890  0.4729 -1.6768 -1.2155
  622TMC3    H2 9219   4.381   1.453  10.073  4.4793 -0.5317 -0.2446
  622TMC3    C7 9220   4.368   1.569   9.846  0.0613 -0.2984 -0.3022
  622TMC3    C8 9221   4.370   1.554  10.315  0.4112 -0.1291 -0.5979
  622TMC3    O1 9222   4.386   1.448   9.838 -0.0702 -0.1283  0.1715
  622TMC3    O2 9223   4.406   1.619  10.412 -0.5500 -0.3956 -0.3220
  623MPD2     C 9224   3.077   2.879  16.243 -0.5382  0.3186  0.6540
  623MPD2    C1 9225   3.017   2.881  16.367  0.0689  0.3245  0.8583
  623MPD2    C2 9226   3.086   2.896  16.480  0.2280  0.4576  0.4595
  623MPD2    C3 9227   3.227   2.888  16.487  0.6102 -0.4352  0.1438
  623MPD2    C4 9228   3.297   2.890  16.367  0.1890  0.5827  0.6168
  623MPD2    C5 9229   3.216   2.892  16.250  0.0818  0.6221 -0.1597
  623MPD2     H 9230   3.023   2.898  16.568 -1.4183  0.1413 -0.7231
  623MPD2    H1 9231   3.405   2.873  16.368 -0.3604 -2.9892 -1.9316
  623MPD2    H2 9232   3.020   2.882  16.151  1.0075 -0.0003 -0.3056
  623MPD2    H3 9233   3.264   2.875  16.154 -2.2831  3.5731 -1.8695
  623MPD2     N 9234   3.284   2.879  16.616  0.4813  0.6895  0.4601
  623MPD2    H5 9235   3.220   2.888  16.695 -1.4163 -2.8424 -0.6799
  623MPD2    N1 9236   2.874   2.888  16.389 -0.3132 -0.1065 -0.2625
  623MPD2    H7 9237   2.850   2.912  16.484  1.1216 -1.5107  0.4669
  624TMC3    C1 9238   3.546   3.080  16.927  0.2285  0.3156  0.7695
  624TMC3    C2 9239   3.431   3.093  17.001 -0.0288  0.2604  0.0616
  624TMC3    C3 9240   3.321   3.016  16.968  0.0678 -0.2175 -0.1606
  624TMC3    C4 9241   3.545   2.986  16.825  0.5066  0.3550  0.2416
  624TMC3    C5 9242   3.428   2.924  16.789 -0.4058 -0.0337  0.2806
  624TMC3    C6 9243   3.316   2.935  16.863 -0.0438  0.4036  0.5613
  624TMC3     C 9244   3.663   3.163  16.956  0.3419  0.7507 -1.2830
  624TMC3     O 9245   3.769   3.116  16.916 -0.0152  0.4907 -0.3072
  624TMC3     H 9246   3.424   3.150  17.093 -2.1333  1.7514 -1.0400
  624TMC3    H1 9247   3.633   2.975  16.762  1.9954  2.8257  1.8693
  624TMC3    H2 9248   3.220   2.886  16.846 -1.1931  2.1701  2.0648
  624TMC3    C7 9249   3.414   2.904  16.646 -0.2017  0.1279  0.3559
  624TMC3    C8 9250   3.194   3.037  17.040  0.5962 -0.0031 -0.0612
  624TMC3    O1 9251   3.516   2.909  16.578 -0.8421 -0.0882  0.1937
  624TMC3    O2 9252   3.129   2.938  17.068 -0.3385 -0.0122  0.4464
  625MPD2     C 9253   3.893   3.778   0.586 -0.7222  0.4213  0.6474
  625MPD2    C1 9254   3.943   3.905   0.585  0.3700  0.3142  0.4659
  625MPD2    C2 9255   4.067   3.938   0.634 -0.0865 -0.0011 -0.2304
  625MPD2    C3 9256   4.158   3.841   0.652  0.0831 -0.4901 -0.5433
  625MPD2    C4 9257   4.114   3.712   0.641 -0.6302  0.3298 -0.0346
  625MPD2    C5 9258   3.983   3.675   0.614 -1.2415  0.0257 -0.0670
  625MPD2     H 9259   4.095   4.042   0.647  1.4702 -0.4972  0.3124
  625MPD2    H1 9260   4.182   3.627   0.649 -1.2287 -0.1632 -0.2049
  625MPD2    H2 9261   3.790   3.752   0.563 -1.1729  1.3118  1.6636
  625MPD2    H3 9262   3.957   3.570   0.617 -1.1862  0.0335  0.8926
  625MPD2     N 9263   4.292   3.886   0.667 -0.1879  0.3018 -0.2964
  625MPD2    H5 9264   4.313   3.985   0.665 -1.8581  0.7068  2.6980
  625MPD2    N1 9265   3.862   4.010   0.546  0.6435  0.2502  0.4062
  625MPD2    H7 9266   3.888   4.101   0.582 -1.9582  1.4163 -0.6772
  626TMC3    C1 9267   3.675   4.120   0.474 -0.3363  0.1195  0.2406
  626TMC3    C2 9268   3.600   4.158   0.364  0.2465 -0.4707 -0.4669
  626TMC3    C3 9269   3.562   4.284   0.358  0.3141  0.2412  0.2657
  626TMC3    C4 9270   3.699   4.205   0.578 -0.0838  0.0225  0.3692
  626TMC3    C5 9271   3.641   4.327   0.571 -0.2947 -0.6949  0.3202
  626TMC3    C6 9272   3.565   4.364   0.467  0.5301 -0.0602 -0.3463
  626TMC3     C 9273   3.754   3.997   0.463 -0.9100 -0.3251 -0.5233
  626TMC3     O 9274   3.750   3.926   0.365 -0.2137  0.1336  0.5899
  626TMC3     H 9275   3.590   4.084   0.286 -0.2445 -2.1309  1.1834
  626TMC3    H1 9276   3.737   4.173   0.675 -2.2986  0.1991  1.2985
  626TMC3    H2 9277   3.530   4.467   0.467 -0.2155 -0.3146 -1.0004
  626TMC3    C7 9278   3.606   4.383   0.698  0.0115  0.2012  0.6908
  626TMC3    C8 9279   3.453   4.312   0.266 -0.5194 -0.7089 -0.3439
  626TMC3    O1 9280   3.693   4.393   0.783  0.1817  0.1539 -0.3033
  626TMC3    O2 9281   3.419   4.427   0.240  0.0370 -0.2262  0.0674
  627MPD2     C 9282   1.922   4.698  14.844 -0.2091  0.3121 -0.1158
  627MPD2    C1 9283   2.031   4.706  14.755  0.3720  0.2139  0.2672
  627MPD2    C2 9284   2.042   4.617  14.653 -0.0820 -0.0845  0.1419
  627MPD2    C3 9285   1.950   4.516  14.635 -0.2619 -1.0301 -0.5638
  627MPD2    C4 9286   1.845   4.508  14.719 -0.0853  0.2199  0.1783
  627MPD2    C5 9287   1.831   4.601  14.826  0.1793  0.1583 -0.0819
  627MPD2     H 9288   2.117   4.624  14.575  0.7720 -0.6098  0.9169
  627MPD2    H1 9289   1.768   4.436  14.693  0.8341 -0.7630  0.1827
  627MPD2    H2 9290   1.909   0.052  14.918  0.2384 -1.1352  1.4716
  627MPD2    H3 9291   1.743   4.590  14.888  0.4021 -0.2154  0.1729
  627MPD2     N 9292   1.976   4.430  14.527 -0.7350  0.3504  0.1626
  627MPD2    H5 9293   2.063   4.452  14.480 -0.8595  0.5548  0.0251
  627MPD2    N1 9294   2.113   0.091  14.768 -0.0623  0.0119  0.3784
  627MPD2    H7 9295   2.081   0.175  14.815  3.4970 -0.9039  4.4316
  628TMC3    C1 9296   2.304   0.223  14.714 -0.2469  0.0004 -0.0365
  628TMC3    C2 9297   2.431   0.226  14.748  0.0143  0.3369  0.2079
  628TMC3    C3 9298   2.476   0.348  14.803 -0.3178  0.8343 -0.4622
  628TMC3    C4 9299   2.221   0.337  14.728  0.2154  0.1135 -0.4089
  628TMC3    C5 9300   2.272   0.455  14.775 -0.0084  0.0727  0.1873
  628TMC3    C6 9301   2.400   0.455  14.817  0.1964 -0.1498 -0.4263
  628TMC3     C 9302   2.242   0.089  14.721 -0.1602 -0.4907 -1.0312
  628TMC3     O 9303   2.307   4.721  14.670 -0.2904 -0.0208  0.7796
  628TMC3     H 9304   2.489   0.134  14.746  0.6143  0.6615  2.2314
  628TMC3    H1 9305   2.125   0.332  14.679 -0.1376 -1.8346  0.4794
  628TMC3    H2 9306   2.431   0.555  14.844 -0.3895 -0.5014  1.5131
  628TMC3    C7 9307   2.192   0.575  14.771  0.1228 -1.1590  0.2181
  628TMC3    C8 9308   2.581   0.335  14.899  0.9413  0.6332  0.4018
  628TMC3    O1 9309   2.229   0.663  14.852 -0.1344 -0.3669  0.0676
  628TMC3    O2 9310   2.669   0.256  14.877  0.2819 -0.1985  0.2312
  629MPD2     C 9311   0.602   3.221  16.158  0.5302  0.2047 -0.0107
  629MPD2    C1 9312   0.583   3.279  16.282  0.0294  0.3509  0.7818
  629MPD2    C2 9313   0.461   3.287  16.337 -0.0940  0.3220 -0.7460
  629MPD2    C3 9314   0.351   3.230  16.280 -0.1626 -0.4944  0.3997
  629MPD2    C4 9315   0.368   3.176  16.155  0.3570 -0.2727  0.2797
  629MPD2    C5 9316   0.495   3.173  16.096  0.2419  0.4783 -0.7082
  629MPD2     H 9317   0.456   3.346  16.428  0.8536 -0.8274  0.0492
  629MPD2    H1 9318   0.277   3.139  16.109  0.3402 -0.9447  0.8618
  629MPD2    H2 9319   0.695   3.207  16.103  0.5191  0.3073 -0.0554
  629MPD2    H3 9320   0.510   3.120  16.003 -1.8544  1.0272 -1.3540
  629MPD2     N 9321   0.231   3.250  16.341  0.3044 -0.0701  0.1956
  629MPD2    H5 9322   0.224   3.330  16.403 -1.4758 -0.2037  0.1484
  629MPD2    N1 9323   0.703   3.317  16.346 -0.1728  0.6622 -0.4392
  629MPD2    H7 9324   0.787   3.302  16.291 -1.2183 -0.9990 -1.5649
  630TMC3    C1 9325   0.846   3.395  16.504  0.0956 -0.5137 -0.3142
  630TMC3    C2 9326   0.925   3.449  16.401  0.8574 -0.6278  0.0321
  630TMC3    C3 9327   1.056   3.475  16.427 -0.0433  0.1464  0.1085
  630TMC3    C4 9328   0.893   3.382  16.634  0.7561  0.1410 -0.1426
  630TMC3    C5 9329   1.027   3.389  16.649 -0.1412 -0.3735 -1.1000
  630TMC3    C6 9330   1.111   3.433  16.545 -0.5168 -0.0011 -0.2108
  630TMC3     C 9331   0.717   3.351  16.478  0.3862  0.1699  0.1523
  630TMC3     O 9332   0.640   3.342  16.571 -0.2188 -0.1030 -0.4649
  630TMC3     H 9333   0.878   3.500  16.317  0.9302 -0.6014  0.0067
  630TMC3    H1 9334   0.826   3.340  16.708 -1.4300  2.3700 -0.8509
  630TMC3    H2 9335   1.218   3.441  16.557 -0.4998 -0.6566  0.0975
  630TMC3    C7 9336   1.080   3.410  16.782  0.1904 -0.8663 -0.0273
  630TMC3    C8 9337   1.101   3.609  16.402  0.4703  0.3748 -0.2480
  630TMC3    O1 9338   1.031   3.347  16.874 -0.3012  0.1695  0.2406
  630TMC3    O2 9339   1.154   3.663  16.501 -0.3972  0.2603  0.1888
  631MPD2     C 9340   3.391   2.856  15.412  0.2455  0.0537  0.1349
  631MPD2    C1 9341   3.496   2.949  15.433  0.1078  0.9950  0.1590
  631MPD2    C2 9342   3.618   2.896  15.475 -0.0344 -0.2657 -0.5119
  631MPD2    C3 9343   3.640   2.767  15.505 -0.0572 -0.8642  0.6382
  631MPD2    C4 9344   3.541   2.675  15.481  0.0562 -0.5320 -0.4222
  631MPD2    C5 9345   3.417   2.718  15.436 -0.0122 -0.6097 -0.9809
  631MPD2     H 9346   3.700   2.964  15.492  1.5839 -1.7634 -2.4157
  631MPD2    H1 9347   3.553   2.569  15.498 -0.5089 -0.4255  0.6790
  631MPD2    H2 9348   3.299   2.894  15.369  0.6191  2.3580  1.3692
  631MPD2    H3 9349   3.344   2.644  15.407  1.0655 -1.4585 -1.5588
  631MPD2     N 9350   3.772   2.729  15.557 -0.6378  0.0428  0.3469
  631MPD2    H5 9351   3.854   2.787  15.569 -1.5035  1.4477 -0.5567
  631MPD2    N1 9352   3.471   3.088  15.413 -0.1267  0.0718  0.1191
  631MPD2    H7 9353   3.373   3.107  15.395 -0.3074 -0.0893  0.9271
  632TMC3    C1 9354   3.519   3.305  15.343  0.4407 -0.4713 -0.5369
  632TMC3    C2 9355   3.380   3.321  15.349 -0.5670 -0.0897 -0.5919
  632TMC3    C3 9356   3.319   3.378  15.243 -0.3649  0.8119 -0.1822
  632TMC3    C4 9357   3.593   3.347  15.236 -0.0007 -0.4123 -0.0304
  632TMC3    C5 9358   3.526   3.418  15.142  0.2910  0.7742  0.1522
  632TMC3    C6 9359   3.393   3.429  15.141 -0.0041  0.0530 -0.0367
  632TMC3     C 9360   3.564   3.183  15.411  0.3520 -0.0931  0.0392
  632TMC3     O 9361   3.685   3.177  15.429  0.2573  0.1781  0.1704
  632TMC3     H 9362   3.333   3.280  15.437  0.2621 -1.1157 -0.6316
  632TMC3    H1 9363   3.697   3.321  15.227  0.1836  0.7108 -1.1427
  632TMC3    H2 9364   3.338   3.480  15.063  0.0327  2.9062  1.8074
  632TMC3    C7 9365   3.583   3.501  15.036  0.6639 -0.3340 -0.0717
  632TMC3    C8 9366   3.180   3.362  15.222 -0.0920 -0.4762  0.7078
  632TMC3    O1 9367   3.515   3.537  14.945  0.0743 -0.2884  0.6726
  632TMC3    O2 9368   3.135   3.349  15.109  0.5559 -0.1982  0.3765
  633MPD2     C 9369   3.240   0.856  17.207 -0.2080  0.4357 -0.4725
  633MPD2    C1 9370   3.212   0.830  17.078  1.2132  0.9297 -0.4003
  633MPD2    C2 9371   3.204   0.696  17.039  0.3985 -0.2778  0.3701
  633MPD2    C3 9372   3.206   0.595  17.134  0.2952  0.1835  0.7013
  633MPD2    C4 9373   3.230   0.622  17.262 -0.8635  0.1778  0.1530
  633MPD2    C5 9374   3.243   0.750  17.302 -0.7125 -0.6682 -0.4821
  633MPD2     H 9375   3.192   0.671  16.934 -1.1630 -0.7419  0.6701
  633MPD2    H1 9376   3.224   0.546  17.339  0.2882 -1.7108 -1.6479
  633MPD2    H2 9377   3.264   0.956  17.240 -1.4947  1.2619 -2.0883
  633MPD2    H3 9378   3.266   0.776  17.404  0.4048  0.6029 -1.0500
  633MPD2     N 9379   3.190   0.459  17.105  0.3467 -0.2407 -0.2999
  633MPD2    H5 9380   3.201   0.394  17.183 -0.6756 -0.1215 -0.0567
  633MPD2    N1 9381   3.230   0.927  16.977 -0.1360  0.0258  0.1248
  633MPD2    H7 9382   3.237   0.895  16.881  0.5458 -1.3698  0.6457
  634TMC3    C1 9383   3.256   1.139  16.872 -0.0659 -0.6681 -0.7798
  634TMC3    C2 9384   3.228   1.082  16.752  0.6606 -0.0554 -0.1749
  634TMC3    C3 9385   3.253   1.155  16.634 -0.4616 -0.3747 -0.8559
  634TMC3    C4 9386   3.290   1.266  16.875 -0.3110 -0.2940  1.0316
  634TMC3    C5 9387   3.316   1.330  16.759 -0.4134  0.6558 -0.0122
  634TMC3    C6 9388   3.305   1.282  16.636  0.5248 -0.6445  0.1523
  634TMC3     C 9389   3.244   1.062  17.000  0.3366  0.1755 -0.3589
  634TMC3     O 9390   3.235   1.127  17.103 -0.0367 -0.0944  0.2769
  634TMC3     H 9391   3.176   0.987  16.747  0.2287  0.1694  0.0099
  634TMC3    H1 9392   3.298   1.301  16.977  1.5037 -1.0091  1.1375
  634TMC3    H2 9393   3.318   1.333  16.542  0.5139 -0.1012  0.4442
  634TMC3    C7 9394   3.337   1.477  16.750 -0.9098 -0.0321 -0.2831
  634TMC3    C8 9395   3.263   1.068  16.517 -0.7500 -0.3900  0.4250
  634TMC3    O1 9396   3.388   1.517  16.645 -0.0907 -0.5531  0.1946
  634TMC3    O2 9397   3.278   0.944  16.529  0.5493 -0.1989  0.2721
  635TMC3    C1 9398   3.760   1.714  17.628 -0.5126  0.7158 -0.0150
  635TMC3    C2 9399   3.833   1.762  17.521  0.2632 -0.7869 -0.3834
  635TMC3    C3 9400   3.865   1.672  17.417  0.5036 -0.4246  0.0347
  635TMC3    C4 9401   3.722   1.582  17.634 -0.1482  0.3540  0.1568
  635TMC3    C5 9402   3.753   1.499  17.532  0.0137 -0.1713  0.0785
  635TMC3    C6 9403   3.822   1.540  17.420  0.0045  0.0131 -0.1899
  635TMC3     C 9404   3.738   1.809   0.039  0.3288 -0.0326 -0.2660
  635TMC3     O 9405   3.725   1.926   0.015  0.4832 -0.1652 -0.6258
  635TMC3     H 9406   3.873   1.863  17.525  1.2058 -1.2299  1.2509
  635TMC3    H1 9407   3.667   1.548   0.023  1.7673 -0.9029  0.8674
  635TMC3    H2 9408   3.859   1.470  17.346 -1.1991 -0.3162 -0.4785
  635TMC3    C7 9409   3.734   1.354  17.556  0.7178 -0.3518 -0.9089
  635TMC3    C8 9410   3.924   1.727  17.295 -0.5236  0.5656 -0.0726
  635TMC3    O1 9411   3.711   1.322  17.671  0.8488  0.1481 -1.2894
  635TMC3    O2 9412   3.899   1.847  17.292  0.0140  0.0027  0.2386
  636MPD2     C 9413   0.182   1.551  15.620 -0.5403 -0.3023 -0.7662
  636MPD2    C1 9414   0.258   1.626  15.705 -0.4097  0.2265 -0.2956
  636MPD2    C2 9415   0.251   1.610  15.840 -0.6108 -0.2976 -0.0532
  636MPD2    C3 9416   0.153   1.529  15.896  0.7910  0.2743 -0.0296
  636MPD2    C4 9417   0.072   1.457  15.810  0.4756 -0.0593  0.6080
  636MPD2    C5 9418   0.078   1.474  15.674  1.0057  0.2164 -0.4633
  636MPD2     H 9419   0.311   1.661  15.915  1.3392 -0.2839 -1.6098
  636MPD2    H1 9420   4.719   1.385  15.834  0.6030 -0.0537  1.0287
  636MPD2    H2 9421   0.176   1.573  15.514 -0.0998  2.1691 -0.2821
  636MPD2    H3 9422   0.010   1.430  15.601  0.7750  2.1712 -1.4246
  636MPD2     N 9423   0.135   1.523  16.033  0.1291  0.0833  0.1401
  636MPD2    H5 9424   0.190   1.584  16.093 -0.0184  1.6795 -1.3449
  636MPD2    N1 9425   0.365   1.706  15.659 -0.1869 -0.1631  0.2158
  636MPD2    H7 9426   0.431   1.749  15.722  2.6390  0.0696 -2.9127
  637TMC3    C1 9427   0.043   1.454  16.240  0.1175 -0.7688 -0.1390
  637TMC3    C2 9428   0.126   1.545  16.310  0.6762 -1.1282  0.0037
  637TMC3    C3 9429   0.163   1.505  16.437  0.5368  0.2718 -0.2436
  637TMC3    C4 9430   0.012   1.325  16.288  0.0295  0.5923  1.1497
  637TMC3    C5 9431   0.081   1.283  16.401  0.6660 -1.2542 -1.1735
  637TMC3    C6 9432   0.143   1.376  16.481 -0.1928  0.5826  0.0737
  637TMC3     C 9433   0.040   1.451  16.097  0.0304  0.0361  0.3346
  637TMC3     O 9434   4.678   1.373  16.053  0.3392 -0.3530 -0.0853
  637TMC3     H 9435   0.160   1.637  16.264 -0.2126 -0.1028  1.4121
  637TMC3    H1 9436   4.665   1.259  16.239 -0.5062  2.9923 -1.2768
  637TMC3    H2 9437   0.192   1.343  16.572 -0.4496  1.6079  0.5833
  637TMC3    C7 9438   0.174   1.170  16.388 -0.3984 -0.1976  0.0153
  637TMC3    C8 9439   0.299   1.549  16.473 -0.1563  0.2128 -0.2279
  637TMC3    O1 9440   0.262   1.161  16.474  0.5358  0.7915 -0.0740
  637TMC3    O2 9441   0.373   1.596  16.390  0.4685  0.7325 -0.2829
  638MPD2     C 9442   4.696   0.675  14.979 -0.1809 -0.3328  0.5455
  638MPD2    C1 9443   4.565   0.625  14.969 -0.8069 -0.1266 -0.6072
  638MPD2    C2 9444   4.535   0.513  15.036  0.3567 -0.0679  0.7783
  638MPD2    C3 9445   4.622   0.455  15.120  0.3474  0.5376 -0.0731
  638MPD2    C4 9446   0.031   0.501  15.132  0.4557 -0.0645 -0.1273
  638MPD2    C5 9447   0.067   0.608  15.056 -0.2176  0.0371  0.1749
  638MPD2     H 9448   4.432   0.478  15.040 -0.5626  2.1095 -3.7390
  638MPD2    H1 9449   0.111   0.456  15.190 -1.2258 -0.2758  1.9947
  638MPD2    H2 9450   4.724   0.756  14.912  2.0996 -0.3605  1.4882
  638MPD2    H3 9451   0.168   0.646  15.056  0.3664 -1.5173  0.9840
  638MPD2     N 9452   4.573   0.341  15.187 -0.0934 -0.2059  0.0655
  638MPD2    H5 9453   4.485   0.302  15.152 -0.3305 -0.8219  1.3771
  638MPD2    N1 9454   4.474   0.687  14.878 -0.8022 -0.3622 -0.2276
  638MPD2    H7 9455   4.511   0.764  14.824 -0.9944 -0.1442 -0.0446
  639TMC3    C1 9456   4.574   0.144  15.311 -0.4510  0.5392 -0.7657
  639TMC3    C2 9457   4.487   0.094  15.222 -0.2512 -0.3838 -0.1763
  639TMC3    C3 9458   4.462   4.684  15.228 -0.5142 -0.1000  0.3167
  639TMC3    C4 9459   4.633   0.068  15.409 -0.4384  0.3280  0.7308
  639TMC3    C5 9460   4.608   4.656  15.404 -0.8639  0.0491 -0.2322
  639TMC3    C6 9461   4.521   4.595  15.320  0.2133 -0.2474  0.4141
  639TMC3     C 9462   4.638   0.271  15.283 -0.4429 -0.0634 -0.1132
  639TMC3     O 9463   0.026   0.285  15.326 -0.4270  0.1935  0.6927
  639TMC3     H 9464   4.433   0.152  15.148 -0.4500 -0.8592 -0.4071
  639TMC3    H1 9465   4.719   0.104  15.465 -0.8572  0.2290  1.4309
  639TMC3    H2 9466   4.500   4.490  15.337 -0.6390 -0.2073 -0.3535
  639TMC3    C7 9467   4.716   4.570  15.444  0.1145  0.3853 -0.3847
  639TMC3    C8 9468   4.380   4.636  15.124  0.0481 -0.1915 -0.4523
  639TMC3    O1 9469   4.689   4.452  15.467  0.5878  0.3809  0.1850
  639TMC3    O2 9470   4.373   4.699  15.023  0.2561 -0.4368 -0.0361
  640MPD2     C 9471   0.810   3.514  10.112 -0.6217  0.2782 -0.0141
  640MPD2    C1 9472   0.878   3.572  10.011 -0.0039 -0.1140 -1.0711
  640MPD2    C2 9473   0.817   3.680   9.947  0.3745 -0.5142 -0.7410
  640MPD2    C3 9474   0.697   3.737   9.984  0.5855  0.4980 -0.4236
  640MPD2    C4 9475   0.643   3.686  10.102 -0.3350 -0.7152  0.0447
  640MPD2    C5 9476   0.696   3.574  10.156 -0.5310  0.3943 -0.5618
  640MPD2     H 9477   0.872   3.721   9.863  1.1319 -2.2820 -1.1036
  640MPD2    H1 9478   0.554   3.732  10.145  1.1765  0.1030  2.2984
  640MPD2    H2 9479   0.850   3.429  10.167 -0.4636  0.7766  0.6459
  640MPD2    H3 9480   0.642   3.531  10.239  0.4566 -0.0758 -0.1587
  640MPD2     N 9481   0.641   3.850   9.923 -0.2981  0.0787  0.0788
  640MPD2    H5 9482   0.548   3.877   9.955  0.1972  0.6924  0.9720
  640MPD2    N1 9483   0.997   3.509   9.969 -0.4554  0.1361 -0.0997
  640MPD2    H7 9484   1.013   3.416  10.005  0.7989 -0.4310 -2.1313
  641TMC3    C1 9485   1.193   3.457   9.842 -0.0558 -0.2102  0.0458
  641TMC3    C2 9486   1.181   3.320   9.870 -0.6297  0.5292  0.1470
  641TMC3    C3 9487   1.298   3.249   9.855  0.6162  0.1750  0.1912
  641TMC3    C4 9488   1.308   3.515   9.797 -0.4500 -0.5070 -0.5885
  641TMC3    C5 9489   1.422   3.436   9.789  0.1120 -0.5993  0.7497
  641TMC3    C6 9490   1.417   3.306   9.834 -0.6752 -0.8820  0.7820
  641TMC3     C 9491   1.085   3.553   9.869 -0.8696 -0.6054 -0.4252
  641TMC3     O 9492   1.085   3.658   9.807 -0.0946 -0.2011  0.1392
  641TMC3     H 9493   1.088   3.274   9.899 -1.0541  0.3267 -1.5702
  641TMC3    H1 9494   1.303   3.623   9.792 -0.0469 -0.4948 -0.7378
  641TMC3    H2 9495   1.507   3.251   9.857  1.4511  2.4821  0.4747
  641TMC3    C7 9496   1.553   3.486   9.750 -0.5882 -0.3418 -0.2128
  641TMC3    C8 9497   1.284   3.109   9.900  0.0523 -0.6278 -0.6198
  641TMC3    O1 9498   1.642   3.399   9.745  0.1860  0.8030 -0.1675
  641TMC3    O2 9499   1.172   3.071   9.940  0.3619 -0.2566 -0.3854
  642TMC3    C1 9500   0.665   4.441  12.384 -0.0672  0.1231 -0.2782
  642TMC3    C2 9501   0.706   4.428  12.515 -0.1621  0.1663  0.4919
  642TMC3    C3 9502   0.692   4.302  12.568  0.2472 -0.2645  0.0467
  642TMC3    C4 9503   0.610   4.344  12.305 -0.7986 -0.3550  0.4826
  642TMC3    C5 9504   0.603   4.217  12.364 -0.0708 -0.1366 -0.6470
  642TMC3    C6 9505   0.634   4.197  12.493 -0.5545 -0.4089  0.5756
  642TMC3     C 9506   0.698   4.565  12.314 -0.0081  0.2445 -0.1921
  642TMC3     O 9507   0.670   4.576  12.195 -0.5743 -0.5961 -0.5305
  642TMC3     H 9508   0.761   4.508  12.563  0.7316 -0.1434 -0.0229
  642TMC3    H1 9509   0.586   4.363  12.201 -0.5686  0.8535  0.6411
  642TMC3    H2 9510   0.608   4.101  12.536 -0.7108 -0.7637 -0.2913
  642TMC3    C7 9511   0.582   4.110  12.272  0.0159  0.6460 -0.6902
  642TMC3    C8 9512   0.685   4.296  12.712 -0.3516 -0.5832  0.2661
  642TMC3    O1 9513   0.527   4.135  12.167  0.4412 -0.4807  0.1914
  642TMC3    O2 9514   0.650   4.185  12.759  0.2454  0.2520  0.0183
  643TMC3    C1 9515   0.483   4.359   0.666 -0.1170  0.3224 -0.1294
  643TMC3    C2 9516   0.350   4.396   0.663  0.1483  0.6246 -0.1001
  643TMC3    C3 9517   0.263   4.313   0.602  0.1140 -0.2361  0.0235
  643TMC3    C4 9518   0.526   4.240   0.615 -0.1465 -0.0945  0.3967
  643TMC3    C5 9519   0.428   4.155   0.573  0.6335 -0.1618 -0.0924
  643TMC3    C6 9520   0.297   4.188   0.565 -0.3691  0.4880 -0.3243
  643TMC3     C 9521   0.575   4.475   0.689 -0.1537 -0.0986 -0.0969
  643TMC3     O 9522   0.530   4.581   0.646 -0.4102  0.1230 -0.2920
  643TMC3     H 9523   0.316   4.493   0.696 -2.5251 -0.3018 -0.1175
  643TMC3    H1 9524   0.630   4.216   0.628 -0.6298 -0.5663  3.3854
  643TMC3    H2 9525   0.228   4.117   0.521 -0.9189  0.2677  0.8900
  643TMC3    C7 9526   0.476   4.072   0.472  0.1657  0.9691  0.7694
  643TMC3    C8 9527   0.191   4.371   0.498  0.0320 -0.2166 -0.0553
  643TMC3    O1 9528   0.500   3.955   0.505 -0.6487  0.0044 -0.4706
  643TMC3    O2 9529   0.110   4.299   0.434  0.1668  0.0076  0.0053
  644MPD2     C 9530   1.705   4.468  10.139 -0.4896 -0.4368  0.1506
  644MPD2    C1 9531   1.642   4.407  10.031  0.5394  0.3828 -0.1564
  644MPD2    C2 9532   1.554   4.485   9.954  0.0549  0.0307  0.5542
  644MPD2    C3 9533   1.535   4.619   9.985  0.2132 -0.0037 -0.2486
  644MPD2    C4 9534   1.593   4.673  10.095 -0.6445  0.0678  0.3648
  644MPD2    C5 9535   1.674   4.599  10.175 -0.3104  0.1430  0.3822
  644MPD2     H 9536   1.501   4.437   9.872  1.8837 -1.6044  0.3326
  644MPD2    H1 9537   1.587   0.053  10.125 -0.6511  0.0203  0.5300
  644MPD2    H2 9538   1.764   4.405  10.205  1.3809  0.4192 -0.7138
  644MPD2    H3 9539   1.701   4.643  10.270 -0.4508 -1.0970  0.9976
  644MPD2     N 9540   1.450   4.689   9.897  0.5808  0.1261 -0.6886
  644MPD2    H5 9541   1.412   4.636   9.820  0.5282 -1.2008  0.2637
  644MPD2    N1 9542   1.655   4.265  10.011 -0.3671 -0.6052  0.6610
  644MPD2    H7 9543   1.727   4.214  10.061  0.5107 -1.5456 -1.5703
  645TMC3    C1 9544   1.314   0.115   9.795 -0.1124  0.1969  0.4313
  645TMC3    C2 9545   1.306   0.242   9.756  0.5559 -0.6699  0.3295
  645TMC3    C3 9546   1.236   0.262   9.650 -0.3542 -0.1361 -0.1649
  645TMC3    C4 9547   1.250   0.013   9.732 -0.5646  0.0223  0.7019
  645TMC3    C5 9548   1.180   0.046   9.621 -0.0529 -0.3230  0.4035
  645TMC3    C6 9549   1.192   0.167   9.564 -0.3555 -0.2449  0.2558
  645TMC3     C 9550   1.404   0.093   9.905  0.5128 -0.5195  0.6131
  645TMC3     O 9551   1.444   0.190   9.963  0.5591 -0.3522  0.0309
  645TMC3     H 9552   1.355   0.325   9.805 -2.4706  0.2975  1.7120
  645TMC3    H1 9553   1.239   4.638   9.774 -1.2872 -1.3322 -2.7655
  645TMC3    H2 9554   1.135   0.199   9.478 -1.2289 -1.9462  0.2071
  645TMC3    C7 9555   1.169   4.657   9.537 -0.0091 -0.3524  0.2008
  645TMC3    C8 9556   1.277   0.383   9.576  0.6814  0.3462  0.1977
  645TMC3    O1 9557   1.155   4.547   9.586 -0.1853 -0.2743  0.0301
  645TMC3    O2 9558   1.395   0.412   9.572  0.4744 -0.1521  0.0834
  646MPD2     C 9559   0.045   4.173  14.626  0.3944 -0.1287  0.1457
  646MPD2    C1 9560   4.669   4.114  14.699  0.2942  0.6593 -0.6521
  646MPD2    C2 9561   4.533   4.120  14.666 -0.0367 -0.0453 -0.2856
  646MPD2    C3 9562   4.490   4.179  14.548  0.4628  0.4871 -0.0316
  646MPD2    C4 9563   4.592   4.218  14.467  0.6273  0.0169  0.7213
  646MPD2    C5 9564   4.722   4.227  14.506  0.0932 -0.8244 -0.1853
  646MPD2     H 9565   4.457   4.082  14.733 -1.1282  0.6263 -1.1395
  646MPD2    H1 9566   4.582   4.253  14.365  0.4684  1.8539  1.3752
  646MPD2    H2 9567   0.151   4.166  14.648  0.3037  1.6359  1.1456
  646MPD2    H3 9568   0.072   4.270  14.440 -0.7399  2.5333  1.0897
  646MPD2     N 9569   4.351   4.190  14.520  0.1158 -0.0407 -0.4280
  646MPD2    H5 9570   4.299   4.155  14.599 -1.1106  0.2766 -1.0916
  646MPD2    N1 9571   4.717   4.039  14.813  0.0394 -0.1992 -1.0255
  646MPD2    H7 9572   0.089   4.053  14.841  0.0923  0.3630 -1.4832
  647TMC3    C1 9573   4.701   3.874  14.990  0.3446  0.0685  0.2634
  647TMC3    C2 9574   4.640   3.756  15.012 -0.8382  0.4780 -0.2198
  647TMC3    C3 9575   4.688   3.686  15.120 -0.5615 -0.1225 -0.5436
  647TMC3    C4 9576   0.079   3.932  15.057  0.0010  0.0577 -0.4101
  647TMC3    C5 9577   0.116   3.852  15.165  0.1864 -0.1431  0.2606
  647TMC3    C6 9578   0.059   3.731  15.199 -0.3263  0.5085  0.3318
  647TMC3     C 9579   4.638   3.950  14.880 -0.4802  0.3847  0.2382
  647TMC3     O 9580   4.528   3.908  14.851 -0.0639 -0.3638  0.2784
  647TMC3     H 9581   4.563   3.712  14.949 -1.5435 -1.3104  1.8841
  647TMC3    H1 9582   0.107   4.037  15.050  0.8345  0.0236  2.2562
  647TMC3    H2 9583   0.096   3.673  15.283  1.2519  0.2109 -0.5594
  647TMC3    C7 9584   0.251   3.870  15.214 -0.2004  0.1733  0.6866
  647TMC3    C8 9585   4.645   3.549  15.145 -0.2461  0.0165  0.6186
  647TMC3    O1 9586   0.302   3.766  15.252 -0.0249  0.5590  0.3282
  647TMC3    O2 9587   4.706   3.493  15.234  0.1688 -0.2890  0.1687
  648TMC3    C1 9588   3.675   1.216  16.076  1.2889 -0.6751  0.3664
  648TMC3    C2 9589   3.728   1.120  15.999 -0.5737  0.1388 -0.0069
  648TMC3    C3 9590   3.741   1.150  15.866 -0.2432 -0.8077 -0.1589
  648TMC3    C4 9591   3.639   1.333  16.022 -0.3411  0.9241 -0.3193
  648TMC3    C5 9592   3.635   1.353  15.888  0.6024  0.0402  0.1525
  648TMC3    C6 9593   3.681   1.258  15.802  0.4844  0.0819  0.1257
  648TMC3     C 9594   3.695   1.215  16.216  0.1247  0.3250  0.1670
  648TMC3     O 9595   3.711   1.325  16.263 -0.0580 -0.1432  0.2824
  648TMC3     H 9596   3.779   1.033  16.040 -0.4906 -0.4533 -1.3589
  648TMC3    H1 9597   3.595   1.413  16.081 -1.5815  1.5764 -2.1199
  648TMC3    H2 9598   3.680   1.268  15.694 -0.9942  0.9660  0.2166
  648TMC3    C7 9599   3.585   1.479  15.833  0.3087  0.2213 -0.3853
  648TMC3    C8 9600   3.800   1.048  15.783 -0.3117 -0.1922  0.0563
  648TMC3    O1 9601   3.585   1.487  15.713 -0.6974  0.5709  0.1850
  648TMC3    O2 9602   3.748   1.008  15.682  0.2811  0.7911 -0.6470
  649TMC3    C1 9603   2.919   3.048  12.875 -0.0260 -0.2125 -0.2379
  649TMC3    C2 9604   3.058   3.052  12.891  0.2371 -0.2820  0.6196
  649TMC3    C3 9605   3.105   3.012  13.019  0.0764 -0.6023 -0.0521
  649TMC3    C4 9606   2.831   3.003  12.968 -0.0814  0.5589 -0.4325
  649TMC3    C5 9607   2.889   2.969  13.089 -0.3985  0.5394  0.0659
  649TMC3    C6 9608   3.018   2.973  13.114  0.7127  1.0429 -0.7442
  649TMC3     C 9609   2.878   3.014  12.737 -0.3728  0.1230 -1.0044
  649TMC3     O 9610   2.755   3.003  12.721 -0.8542 -0.2478  0.2657
  649TMC3     H 9611   3.112   3.108  12.815  0.3654 -0.4872  0.5601
  649TMC3    H1 9612   2.724   2.987  12.957  0.2008 -2.2315  1.0771
  649TMC3    H2 9613   3.049   2.953  13.216  0.0695 -3.0534 -1.3453
  649TMC3    C7 9614   2.805   2.891  13.182 -1.0124  0.2692 -0.3216
  649TMC3    C8 9615   3.238   3.037  13.064  0.4770 -0.5701  0.3277
  649TMC3    O1 9616   2.699   2.939  13.207 -0.0287 -0.0559 -0.1865
  649TMC3    O2 9617   3.262   2.993  13.174 -0.0977 -0.4776  0.6382
  650TMC3    C1 9618   0.346   4.329  12.901  0.3302 -0.4155 -0.2457
  650TMC3    C2 9619   0.306   4.443  12.963 -0.7428 -0.1871 -0.9429
  650TMC3    C3 9620   0.294   4.546  12.875  0.4956  0.4888  0.3105
  650TMC3    C4 9621   0.354   4.304  12.770 -0.2556 -0.1218  0.4691
  650TMC3    C5 9622   0.326   4.406  12.683 -0.2219 -0.0857  0.3260
  650TMC3    C6 9623   0.299   4.532  12.740  0.0889 -0.3999 -0.2802
  650TMC3     C 9624   0.357   4.215  12.992 -0.0273 -0.2343 -0.1478
  650TMC3     O 9625   0.279   4.209  13.084  0.0795  0.0063  0.1234
  650TMC3     H 9626   0.299   4.448  13.071 -1.4862 -1.6413 -0.9111
  650TMC3    H1 9627   0.394   4.213  12.727  1.0478  0.9156 -0.5452
  650TMC3    H2 9628   0.277   4.612  12.670 -0.3348 -0.4367 -0.1874
  650TMC3    C7 9629   0.326   4.397  12.535 -0.1536 -0.9804 -0.5935
  650TMC3    C8 9630   0.358   4.669  12.913  0.4962  0.0922  0.0895
  650TMC3    O1 9631   0.335   4.286  12.486 -0.8701  0.1008 -0.1411
  650TMC3    O2 9632   0.400   0.007  12.819  0.0661 -0.1696 -0.3499
  651MPD2     C 9633   4.058   0.902  10.694  0.0691 -0.5505  0.2511
  651MPD2    C1 9634   4.019   1.035  10.684 -0.2436  0.2820 -0.0415
  651MPD2    C2 9635   4.108   1.135  10.717  0.0974 -0.7584 -0.0906
  651MPD2    C3 9636   4.236   1.103  10.760 -0.7044  0.2651 -0.5044
  651MPD2    C4 9637   4.274   0.974  10.783 -0.0732 -0.3967 -0.1554
  651MPD2    C5 9638   4.186   0.873  10.743 -0.3263 -0.2310 -0.2232
  651MPD2     H 9639   4.072   1.236  10.708  2.1470  0.0914  1.0797
  651MPD2    H1 9640   4.364   0.943  10.834  0.8221  1.0138 -0.8775
  651MPD2    H2 9641   4.004   0.818  10.653  0.6704 -1.8991  2.1824
  651MPD2    H3 9642   4.210   0.769  10.761 -0.8865 -0.5908 -1.5401
  651MPD2     N 9643   4.316   1.217  10.799  0.1024  0.6002 -0.4328
  651MPD2    H5 9644   4.276   1.303  10.765 -1.4840  0.7498  1.7834
  651MPD2    N1 9645   3.885   1.079  10.649 -0.0513  0.1837 -0.4261
  651MPD2    H7 9646   3.867   1.178  10.647 -0.0843  0.1674 -0.8797
  652TMC3    C1 9647   4.689   1.457  10.950  0.5180  0.4296 -0.2401
  652TMC3    C2 9648   4.624   1.342  10.915  0.1471  0.4211  0.3782
  652TMC3    C3 9649   4.483   1.344  10.891  0.5400 -0.2680  0.1066
  652TMC3    C4 9650   4.622   1.571  10.958 -0.3307 -0.3061 -0.1658
  652TMC3    C5 9651   4.482   1.572  10.938 -0.3612 -0.0438  0.2132
  652TMC3    C6 9652   4.409   1.458  10.908  0.4845 -0.3983 -0.0010
  652TMC3     C 9653   0.110   1.463  10.974  0.3336 -0.7295  0.2831
  652TMC3     O 9654   0.160   1.362  11.024  0.7829  0.0280  0.5437
  652TMC3     H 9655   4.666   1.242  10.907 -3.1950 -1.1364  2.6236
  652TMC3    H1 9656   4.678   1.662  10.977 -1.7260  0.5407 -0.1054
  652TMC3    H2 9657   4.301   1.455  10.919  0.3521  0.0485 -1.2197
  652TMC3    C7 9658   4.401   1.687  10.993 -0.4845 -0.5219  0.4507
  652TMC3    C8 9659   4.420   1.218  10.884 -0.1213  0.0245  0.5563
  652TMC3    O1 9660   4.284   1.663  11.024 -0.0471  1.1771 -0.0807
  652TMC3    O2 9661   4.472   1.125  10.949 -0.6229 -0.1252 -0.1083
  653MPD2     C 9662   3.412   0.915   0.122  0.3951 -0.3540 -0.3857
  653MPD2    C1 9663   3.335   1.022   0.098 -0.6328  0.3834 -0.0387
  653MPD2    C2 9664   3.210   1.003   0.036  0.1297  0.9361  0.8820
  653MPD2    C3 9665   3.169   0.877  17.695  0.3383  0.0493  0.3105
  653MPD2    C4 9666   3.258   0.776   0.012 -0.7363  0.2167  0.1764
  653MPD2    C5 9667   3.376   0.792   0.081 -0.2739  0.3033 -0.0062
  653MPD2     H 9668   3.153   1.089   0.001  0.2120  1.0591  1.0488
  653MPD2    H1 9669   3.243   0.672  17.681  0.8497  0.2805 -0.9011
  653MPD2    H2 9670   3.501   0.917   0.183  0.7260  3.9026 -1.0060
  653MPD2    H3 9671   3.442   0.708   0.099  0.0716  0.4781 -0.4531
  653MPD2     N 9672   3.046   0.862  17.624 -0.4144  0.3916 -0.7126
  653MPD2    H5 9673   2.988   0.945  17.622 -1.1636 -0.0881  1.1352
  653MPD2    N1 9674   3.374   1.152   0.135 -0.2931 -0.1541  0.2127
  653MPD2    H7 9675   3.308   1.228   0.119  1.0401  0.7727 -0.8892
  654TMC3    C1 9676   2.872   0.758  17.504 -0.1781 -0.3132 -0.1550
  654TMC3    C2 9677   2.803   0.874  17.509  0.4335  0.5094 -1.1873
  654TMC3    C3 9678   2.702   0.895  17.418 -0.4896  0.7955  0.2903
  654TMC3    C4 9679   2.842   0.665  17.411 -0.3514  0.6491 -0.9208
  654TMC3    C5 9680   2.740   0.683  17.324  0.2987 -0.6245  0.1381
  654TMC3    C6 9681   2.666   0.794  17.323 -0.5711  0.4333 -0.4676
  654TMC3     C 9682   2.996   0.743  17.572 -0.1447 -0.0399  0.3001
  654TMC3     O 9683   3.046   0.634  17.552  0.1048 -0.1865  0.2366
  654TMC3     H 9684   2.831   0.950  17.581 -0.7952 -0.0500 -0.1066
  654TMC3    H1 9685   2.912   0.586  17.388 -0.7130  0.0793 -0.0414
  654TMC3    H2 9686   2.588   0.812  17.251 -1.0796 -0.0863 -0.0465
  654TMC3    C7 9687   2.717   0.588  17.220 -0.4642 -0.8368 -0.0903
  654TMC3    C8 9688   2.635   1.026  17.407  0.3013  0.4809 -0.2509
  654TMC3    O1 9689   2.666   0.636  17.120 -0.0646  0.3213  0.1934
  654TMC3    O2 9690   2.601   1.061  17.294  0.0373 -0.3842 -0.2348
  655MPD2     C 9691   4.416   1.630  15.587  0.0950  0.1955 -0.1561
  655MPD2    C1 9692   4.284   1.647  15.543  0.1739 -0.5098 -0.4464
  655MPD2    C2 9693   4.261   1.616  15.412  1.0513  0.0105 -0.3049
  655MPD2    C3 9694   4.364   1.578  15.324 -0.7548  0.0059  0.4429
  655MPD2    C4 9695   4.496   1.584  15.370  0.2665  0.3163 -0.2030
  655MPD2    C5 9696   4.518   1.620  15.497 -0.2799  0.4302 -0.1168
  655MPD2     H 9697   4.157   1.617  15.382  1.2165  1.1396 -0.8503
  655MPD2    H1 9698   4.576   1.547  15.307  0.0843  2.3233 -1.6041
  655MPD2    H2 9699   4.449   1.648  15.689  1.3208  1.7868 -0.8250
  655MPD2    H3 9700   4.621   1.623  15.530  0.2299 -1.1137 -1.5815
  655MPD2     N 9701   4.340   1.562  15.188 -0.6047 -0.5553  0.1209
  655MPD2    H5 9702   4.422   1.528  15.139  0.3613 -0.3744  1.6113
  655MPD2    N1 9703   4.175   1.703  15.619 -0.4641  0.1671  0.7160
  655MPD2    H7 9704   4.095   1.739  15.567  0.2729 -1.2263 -1.4096
  656TMC3    C1 9705   4.059   1.775  15.789  0.3254 -0.4675 -0.5541
  656TMC3    C2 9706   3.996   1.733  15.902 -0.4565 -0.7831 -0.8634
  656TMC3    C3 9707   3.883   1.804  15.933  0.0893 -0.0403  0.6706
  656TMC3    C4 9708   4.025   1.895  15.732 -0.2093  1.0853  0.4910
  656TMC3    C5 9709   3.914   1.960  15.767 -0.5456 -0.6487 -0.0516
  656TMC3    C6 9710   3.840   1.917  15.876 -0.0963  0.7825  0.1944
  656TMC3     C 9711   4.182   1.713  15.752 -0.3127  0.5360  0.0311
  656TMC3     O 9712   4.257   1.658  15.831  0.5203  1.1752  0.2565
  656TMC3     H 9713   4.013   1.637  15.951  0.0847  0.0037  0.5121
  656TMC3    H1 9714   4.088   1.930  15.650 -0.6764  0.8521  0.0346
  656TMC3    H2 9715   3.746   1.966  15.901  0.5372  1.5309  1.0965
  656TMC3    C7 9716   3.868   2.073  15.684  0.5642  0.6886 -0.7170
  656TMC3    C8 9717   3.805   1.753  16.037  0.5465  0.2553  0.2283
  656TMC3    O1 9718   3.930   2.086  15.579  0.2516 -0.1653 -0.1233
  656TMC3    O2 9719   3.801   1.629  16.051  0.1141  0.6726 -1.1818
  657TMC3    C1 9720   3.299   1.109  14.717 -0.3053  0.0168  0.5940
  657TMC3    C2 9721   3.170   1.166  14.710  0.5231  0.6032  0.9543
  657TMC3    C3 9722   3.113   1.159  14.585  0.4428  0.3333  0.4546
  657TMC3    C4 9723   3.360   1.049  14.607 -0.1622  0.6294 -0.3213
  657TMC3    C5 9724   3.294   1.048  14.490  0.5826 -0.6266 -0.0330
  657TMC3    C6 9725   3.172   1.109  14.475 -0.6832  0.3605  0.4468
  657TMC3     C 9726   3.357   1.085  14.848  0.2111 -0.5003 -0.1549
  657TMC3     O 9727   3.264   1.081  14.931  0.2524 -0.2682 -0.0237
  657TMC3     H 9728   3.126   1.204  14.801  2.1761  0.2234  1.9299
  657TMC3    H1 9729   3.452   0.993  14.618 -1.0428 -1.0061 -1.1885
  657TMC3    H2 9730   3.129   1.099  14.376 -0.9526 -0.1024  0.6069
  657TMC3    C7 9731   3.300   0.935  14.410  0.2963  0.1298  0.1840
  657TMC3    C8 9732   2.980   1.206  14.572  0.0565  0.2189 -0.4502
  657TMC3    O1 9733   3.200   0.884  14.365  0.6738 -0.1946 -0.1441
  657TMC3    O2 9734   2.959   1.309  14.637 -0.0618  0.8071 -0.1315
  658MPD2     C 9735   4.503   1.798  14.550  0.8290  0.4803  0.3444
  658MPD2    C1 9736   4.366   1.773  14.556  0.0671 -0.3079  0.4111
  658MPD2    C2 9737   4.295   1.830  14.456 -0.2121  0.0560 -0.6410
  658MPD2    C3 9738   4.354   1.903  14.349 -0.1158  0.0500  0.2265
  658MPD2    C4 9739   4.488   1.928  14.356 -0.4098  0.0730  0.6254
  658MPD2    C5 9740   4.567   1.874  14.452  0.2475 -0.7005 -0.4674
  658MPD2     H 9741   4.187   1.821  14.454 -0.2034 -0.3626  1.6165
  658MPD2    H1 9742   4.542   1.979  14.277 -0.4833  0.7343  1.0042
  658MPD2    H2 9743   4.569   1.746  14.619  0.3778 -2.0078 -1.0764
  658MPD2    H3 9744   4.675   1.873  14.458  0.1544 -0.3523  1.4247
  658MPD2     N 9745   4.267   1.957  14.248  0.1307 -0.2203 -0.2786
  658MPD2    H5 9746   4.167   1.946  14.260 -0.3575 -0.1851 -4.2543
  658MPD2    N1 9747   4.322   1.689  14.661 -0.1000  0.3212 -0.1608
  658MPD2    H7 9748   4.397   1.658  14.721 -0.4836  0.6733  0.4954
  659TMC3    C1 9749   4.203   1.532  14.780 -0.0016  0.0001  1.1412
  659TMC3    C2 9750   4.278   1.562  14.895  0.2868 -0.2396  0.1969
  659TMC3    C3 9751   4.246   1.485  14.998  0.2114 -0.0937 -0.1333
  659TMC3    C4 9752   4.103   1.446  14.765 -0.8072 -0.3393 -0.2983
  659TMC3    C5 9753   4.066   1.366  14.874  0.3966  0.5634 -0.0626
  659TMC3    C6 9754   4.146   1.385  14.985  0.2778 -1.1393 -0.3549
  659TMC3     C 9755   4.197   1.632  14.673  0.0242  0.5461 -0.1140
  659TMC3     O 9756   4.111   1.647  14.588 -0.6784  0.6362  0.4522
  659TMC3     H 9757   4.357   1.636  14.892  0.6734 -0.6379  0.5321
  659TMC3    H1 9758   4.064   1.431  14.665  1.3976  0.0675 -1.2120
  659TMC3    H2 9759   4.113   1.340  15.078  0.9392  1.7706  1.2861
  659TMC3    C7 9760   3.933   1.321  14.896  0.1272 -0.2648 -0.0566
  659TMC3    C8 9761   4.222   1.551  15.125  0.0642  0.0137  0.2067
  659TMC3    O1 9762   3.905   1.286  15.012  0.0995  0.5273  0.0428
  659TMC3    O2 9763   4.108   1.565  15.166  0.3776 -0.3037  0.0941
  660MPD2     C 9764   1.943   0.336  12.404 -0.3456  0.1291 -1.4360
  660MPD2    C1 9765   1.824   0.387  12.448 -0.5316 -0.3249 -0.0181
  660MPD2    C2 9766   1.786   0.380  12.580 -0.1470  0.2678  0.1842
  660MPD2    C3 9767   1.850   0.294  12.665 -0.2797 -0.2494 -0.0746
  660MPD2    C4 9768   1.974   0.237  12.622 -0.4236  1.0483 -0.1552
  660MPD2    C5 9769   2.024   0.268  12.497 -0.4466 -0.3031  0.5692
  660MPD2     H 9770   1.704   0.441  12.617 -0.3047 -0.5537  1.1914
  660MPD2    H1 9771   2.036   0.183  12.692 -1.0747  0.3632 -0.1122
  660MPD2    H2 9772   1.971   0.352  12.301  0.2549  0.5465 -1.2105
  660MPD2    H3 9773   2.120   0.226  12.467 -0.8714 -0.4919 -0.5194
  660MPD2     N 9774   1.824   0.284  12.804  0.9660 -0.0174  0.1104
  660MPD2    H5 9775   1.884   0.221  12.857  1.6959  0.4782 -0.1255
  660MPD2    N1 9776   1.748   0.451  12.340  0.0793 -0.4302  0.5042
  660MPD2    H7 9777   1.794   0.465  12.251  3.4758 -0.5697  2.2244
  661TMC3    C1 9778   1.615   0.581  12.220  0.1450  0.5014  0.6822
  661TMC3    C2 9779   1.720   0.591  12.129 -0.0755 -0.3763 -0.2542
  661TMC3    C3 9780   1.695   0.562  11.992  0.1719  0.5600 -0.8580
  661TMC3    C4 9781   1.496   0.535  12.182 -0.9120 -0.5507 -0.6671
  661TMC3    C5 9782   1.477   0.500  12.052  0.6388 -0.3687  0.4474
  661TMC3    C6 9783   1.572   0.512  11.949 -0.0135 -0.2398  0.0315
  661TMC3     C 9784   1.640   0.529  12.350  0.1007  0.1098 -0.1976
  661TMC3     O 9785   1.558   0.531  12.442 -0.9368  0.2711  0.2038
  661TMC3     H 9786   1.817   0.630  12.156 -1.2539  1.0858  1.8338
  661TMC3    H1 9787   1.418   0.499  12.249 -0.9157  1.9216  0.6678
  661TMC3    H2 9788   1.541   0.510  11.845  0.5357 -2.4457 -0.0740
  661TMC3    C7 9789   1.344   0.474  12.019 -0.2333 -0.0826  0.0454
  661TMC3    C8 9790   1.815   0.528  11.918  0.1200  0.3921  0.2200
  661TMC3    O1 9791   1.256   0.518  12.094 -0.2260 -0.5836  0.4656
  661TMC3    O2 9792   1.914   0.511  11.991  0.3841  0.4918  0.0664
  662MPD2     C 9793   2.439   0.467  17.359 -0.4974  0.3838  0.1862
  662MPD2    C1 9794   2.497   0.385  17.449  0.2943  0.1351 -0.1766
  662MPD2    C2 9795   2.537   0.435  17.573 -0.5921 -0.3680 -0.4243
  662MPD2    C3 9796   2.504   0.566  17.606  0.4027 -1.0562 -0.4725
  662MPD2    C4 9797   2.444   0.649  17.507  0.6181  0.0229 -0.4035
  662MPD2    C5 9798   2.411   0.599  17.387  0.0742 -0.0132 -0.7154
  662MPD2     H 9799   2.579   0.369  17.649 -0.7969 -1.2436 -1.0721
  662MPD2    H1 9800   2.425   0.755  17.521 -1.5177 -0.1580 -1.9368
  662MPD2    H2 9801   2.411   0.425  17.263  0.2620  0.1298  0.0775
  662MPD2    H3 9802   2.354   0.658  17.315 -1.2605  0.3335  0.6151
  662MPD2     N 9803   2.540   0.633   0.029  0.1586 -0.3443  0.1851
  662MPD2    H5 9804   2.488   0.719   0.046 -1.9652 -0.7140 -4.7112
  662MPD2    N1 9805   2.525   0.245  17.427 -0.2896  0.0468  0.1203
  662MPD2    H7 9806   2.582   0.208  17.503  0.7206  2.8456  0.7522
  663TMC3    C1 9807   2.502   0.025  17.363 -0.4421 -0.1229 -0.1383
  663TMC3    C2 9808   2.624   4.719  17.416  0.1007  0.1226 -0.0527
  663TMC3    C3 9809   2.637   4.638  17.530 -0.7251  0.4071  0.4955
  663TMC3    C4 9810   2.396   4.677  17.389  0.2891  0.2781  0.3763
  663TMC3    C5 9811   2.411   4.576  17.478  0.2896  0.1257  1.0346
  663TMC3    C6 9812   2.525   4.553  17.556  0.1227  0.1166  0.0335
  663TMC3     C 9813   2.476   0.158  17.327 -0.6788  0.2140  0.4832
  663TMC3     O 9814   2.402   0.185  17.237  0.6977  0.1710 -0.5822
  663TMC3     H 9815   2.702   0.070  17.419 -0.1481  0.3850 -0.0299
  663TMC3    H1 9816   2.300   4.692  17.341 -0.5291  0.6778  2.1302
  663TMC3    H2 9817   2.504   4.505  17.651  0.4372 -2.7959 -1.3731
  663TMC3    C7 9818   2.289   4.498  17.512 -0.0782 -0.4478  0.2764
  663TMC3    C8 9819   2.662   0.009  17.646  0.2331 -0.1816  0.3618
  663TMC3    O1 9820   2.178   4.552  17.499  0.2735 -0.4390  0.1902
  663TMC3    O2 9821   2.652   0.128  17.629  0.5667 -0.5463 -0.5385
  664MPD2     C 9822   0.661   3.065  17.579 -0.7225  0.7410  0.0796
  664MPD2    C1 9823   0.749   3.106  17.680  0.5010 -0.1462 -0.8114
  664MPD2    C2 9824   0.719   3.076   0.116 -0.7858 -0.1549  0.1910
  664MPD2    C3 9825   0.602   3.004   0.144 -0.0042 -0.4864  0.3454
  664MPD2    C4 9826   0.535   2.942   0.036  0.5020  0.6315 -0.2094
  664MPD2    C5 9827   0.555   2.987  17.605  0.1244 -0.5299  0.2557
  664MPD2     H 9828   0.779   3.109   0.200  1.3415 -0.5061 -1.1850
  664MPD2    H1 9829   0.450   2.875   0.048 -2.4086  3.7749 -3.1763
  664MPD2    H2 9830   0.683   3.091  17.476  0.6991 -0.8125 -0.0242
  664MPD2    H3 9831   0.487   2.951  17.528 -1.4085 -1.2131  1.9179
  664MPD2     N 9832   0.579   2.962   0.276  0.3644  1.0869  0.3158
  664MPD2    H5 9833   0.662   2.953   0.334  1.3828 -0.2576 -1.3294
  664MPD2    N1 9834   0.871   3.170  17.658  0.1407  0.6627  0.5105
  664MPD2    H7 9835   0.927   3.195   0.040  1.9518  0.8561 -0.8019
  665TMC3    C1 9836   0.464   2.829   0.440  0.3996 -1.0211  0.5283
  665TMC3    C2 9837   0.378   2.719   0.443  0.5729 -0.0576  0.5741
  665TMC3    C3 9838   0.405   2.633   0.543 -0.4234 -0.3149 -0.0656
  665TMC3    C4 9839   0.544   2.870   0.545  0.6078  0.1045  0.1028
  665TMC3    C5 9840   0.562   2.776   0.649 -0.1483 -0.2446  0.5085
  665TMC3    C6 9841   0.499   2.658   0.641 -0.3933  0.1390  0.8268
  665TMC3     C 9842   0.462   2.896   0.307 -0.5386  0.2668  0.0704
  665TMC3     O 9843   0.357   2.906   0.248 -0.1672 -0.1235  0.4155
  665TMC3     H 9844   0.317   2.700   0.356 -1.3306  0.7700  1.7203
  665TMC3    H1 9845   0.587   2.969   0.550  3.1000 -0.9201 -0.7463
  665TMC3    H2 9846   0.496   2.595   0.729  0.4135  0.3167  0.9806
  665TMC3    C7 9847   0.652   2.801   0.763  0.3658 -0.4912 -0.1692
  665TMC3    C8 9848   0.331   2.510   0.560 -0.0101 -0.4725 -0.8193
  665TMC3    O1 9849   0.671   2.718   0.847  0.1778 -0.0032  0.2903
  665TMC3    O2 9850   0.389   2.414   0.608  0.3674 -0.3968 -0.0801
  666TMC3    C1 9851   4.717   2.649  10.293  0.7579  0.3100  0.3808
  666TMC3    C2 9852   0.094   2.567  10.336  0.9055  0.0618  0.6187
  666TMC3    C3 9853   0.216   2.621  10.375 -0.8715 -0.3109 -0.1850
  666TMC3    C4 9854   0.011   2.782  10.303  0.5202 -0.6031  0.7706
  666TMC3    C5 9855   0.119   2.838  10.360  0.1393 -0.2480  0.0202
  666TMC3    C6 9856   0.229   2.759  10.383  0.2762  1.0314  0.0647
  666TMC3     C 9857   4.617   2.604  10.198  0.5827 -0.4831 -0.0390
  666TMC3     O 9858   4.567   2.690  10.125  0.5156 -0.0690 -0.2886
  666TMC3     H 9859   0.082   2.460  10.342 -1.8845  0.3555  0.3799
  666TMC3    H1 9860   4.667   2.847  10.249  0.9260 -1.7831 -1.1722
  666TMC3    H2 9861   0.301   2.809  10.447 -0.9868 -0.0077  2.2942
  666TMC3    C7 9862   0.132   2.982  10.338  0.6053 -0.3681 -0.5889
  666TMC3    C8 9863   0.287   2.549  10.483  0.6726 -0.4773 -0.7141
  666TMC3    O1 9864   0.024   3.037  10.339  0.5868  0.3992  0.2531
  666TMC3    O2 9865   0.224   2.454  10.531  0.4505  0.0132 -0.6576
  667MPD2     C 9866   1.341   2.991  14.800  0.7735  0.3963 -0.5905
  667MPD2    C1 9867   1.260   3.100  14.823 -0.0822  0.0015  0.0865
  667MPD2    C2 9868   1.147   3.116  14.744  0.7809  0.5373 -0.8942
  667MPD2    C3 9869   1.136   3.026  14.632 -0.3827  0.0459  0.9467
  667MPD2    C4 9870   1.222   2.923  14.615  0.3876 -0.7416 -0.1280
  667MPD2    C5 9871   1.325   2.905  14.695 -0.6873  0.1868  0.2969
  667MPD2     H 9872   1.074   3.193  14.767 -0.8803 -1.6982  1.1983
  667MPD2    H1 9873   1.219   2.857  14.529 -0.1282 -0.8893  0.0030
  667MPD2    H2 9874   1.436   2.979  14.850  1.2832  0.7318 -1.4756
  667MPD2    H3 9875   1.399   2.833  14.664  0.6570  2.2170 -1.2347
  667MPD2     N 9876   1.031   3.039  14.538 -0.6074 -0.3078 -0.5080
  667MPD2    H5 9877   1.020   2.967  14.468 -1.0219  1.4968 -2.3210
  667MPD2    N1 9878   1.281   3.185  14.926  0.1790  0.1206  0.3325
  667MPD2    H7 9879   1.200   3.236  14.959  0.9188  1.9343 -0.6343
  668TMC3    C1 9880   1.385   3.269  15.120 -0.2319  0.3316  0.6468
  668TMC3    C2 9881   1.503   3.316  15.173  0.4983  0.2480  0.0427
  668TMC3    C3 9882   1.503   3.364  15.302 -0.7746  0.3952  0.3287
  668TMC3    C4 9883   1.271   3.254  15.199  0.3232 -0.8401  0.5029
  668TMC3    C5 9884   1.280   3.295  15.333 -0.2507 -0.1609 -0.0012
  668TMC3    C6 9885   1.392   3.344  15.390  0.0273  0.6323  0.4998
  668TMC3     C 9886   1.392   3.181  15.005  0.9304  0.2097 -0.1988
  668TMC3     O 9887   1.505   3.139  14.978 -0.0509 -0.2888 -0.2339
  668TMC3     H 9888   1.598   3.305  15.121 -0.2051  0.4971 -1.2919
  668TMC3    H1 9889   1.179   3.208  15.166 -0.2802  0.5117  0.3147
  668TMC3    H2 9890   1.383   3.371  15.495 -1.6319  0.7138  0.3326
  668TMC3    C7 9891   1.172   3.267  15.426 -0.0089 -0.2045  0.6830
  668TMC3    C8 9892   1.627   3.366  15.364  0.3269  0.7191 -0.1968
  668TMC3    O1 9893   1.130   3.371  15.479  0.9069  0.3504  0.0242
  668TMC3    O2 9894   1.631   3.328  15.479  0.4851 -0.8237 -0.0673
  669TMC3    C1 9895   4.530   3.466  14.489 -0.3119 -0.5595 -0.1820
  669TMC3    C2 9896   4.406   3.462  14.431  0.2274 -0.4520 -0.1592
  669TMC3    C3 9897   4.377   3.524  14.309  0.2907  1.1461  0.0580
  669TMC3    C4 9898   4.637   3.519  14.418  0.2508  0.1409 -0.0620
  669TMC3    C5 9899   4.609   3.576  14.294  0.2866 -0.0675 -0.0939
  669TMC3    C6 9900   4.481   3.586  14.243  0.5351 -0.1461 -0.4263
  669TMC3     C 9901   4.554   3.369  14.599 -0.1929  0.0117  1.0090
  669TMC3     O 9902   4.482   3.275  14.614  1.1250  0.1732  0.2223
  669TMC3     H 9903   4.325   3.414  14.485 -0.4863  1.4338  0.4641
  669TMC3    H1 9904   0.016   3.519  14.451  0.7377  0.0258 -1.5776
  669TMC3    H2 9905   4.459   3.633  14.148  0.3699 -0.0399 -0.3352
  669TMC3    C7 9906   4.714   3.660  14.237  0.2170  0.5037  0.1002
  669TMC3    C8 9907   4.246   3.506  14.239  0.0308 -0.0091 -0.1773
  669TMC3    O1 9908   0.072   3.708  14.315 -0.4204 -0.2847  0.2836
  669TMC3    O2 9909   4.235   3.533  14.118  0.3376 -0.2030 -0.0029
  670MPD2     C 9910   2.346   1.167  13.388 -0.1150 -0.3968  0.4380
  670MPD2    C1 9911   2.425   1.197  13.499  0.6181 -0.0291  0.3720
  670MPD2    C2 9912   2.406   1.125  13.614  0.0178 -0.3329  0.7875
  670MPD2    C3 9913   2.314   1.023  13.628  0.2570  0.6674  0.7876
  670MPD2    C4 9914   2.227   0.998  13.516 -0.2504  0.0788  0.5806
  670MPD2    C5 9915   2.242   1.076  13.401 -0.2964 -0.2055  0.0826
  670MPD2     H 9916   2.484   1.129  13.689  0.3473 -0.2194  0.4403
  670MPD2    H1 9917   2.144   0.928  13.516  1.3111 -1.7699  2.2701
  670MPD2    H2 9918   2.352   1.214  13.291 -1.1375  0.1178  0.6317
  670MPD2    H3 9919   2.181   1.057  13.313  0.3115 -0.6631 -0.2409
  670MPD2     N 9920   2.328   0.940  13.744 -0.8000 -0.1655  0.1835
  670MPD2    H5 9921   2.404   0.968  13.805  0.5741  0.4254 -1.8089
  670MPD2    N1 9922   2.517   1.294  13.494 -0.0781 -0.6523  0.3265
  670MPD2    H7 9923   2.559   1.310  13.585  1.1737  1.3560 -0.6107
  671TMC3    C1 9924   2.300   0.753  13.880 -0.1815 -0.0282 -0.0797
  671TMC3    C2 9925   2.418   0.778  13.945  0.6651 -0.5386  0.9949
  671TMC3    C3 9926   2.461   0.686  14.045  0.4782 -0.3497 -0.0963
  671TMC3    C4 9927   2.233   0.632  13.900  0.4990  0.2706  0.3908
  671TMC3    C5 9928   2.282   0.544  13.991 -0.2764  1.2684 -0.7222
  671TMC3    C6 9929   2.399   0.565  14.062 -0.1742  0.1117 -0.1859
  671TMC3     C 9930   2.257   0.831  13.769 -0.2538  0.2172  0.5723
  671TMC3     O 9931   2.159   0.801  13.705 -0.4657  0.2558  0.2486
  671TMC3     H 9932   2.489   0.856  13.923  0.6368 -0.4706  1.1476
  671TMC3    H1 9933   2.130   0.624  13.867  0.7707 -0.8731 -0.1542
  671TMC3    H2 9934   2.426   0.492  14.137 -0.1928 -0.5007 -0.7699
  671TMC3    C7 9935   2.206   0.426  14.008  0.1551 -0.5751  0.2635
  671TMC3    C8 9936   2.603   0.698  14.075  0.0101  0.4967  0.5165
  671TMC3    O1 9937   2.131   0.411  13.912  0.6407  0.2821  0.2415
  671TMC3    O2 9938   2.651   0.809  14.076  0.6695  0.3072  0.2023
  672MPD2     C 9939   3.971   0.781   0.418 -0.5425 -0.3227  0.9762
  672MPD2    C1 9940   3.940   0.766   0.547 -0.7144  0.6099 -0.7989
  672MPD2    C2 9941   4.012   0.831   0.639  0.2940 -0.4487 -0.4806
  672MPD2    C3 9942   4.121   0.908   0.613  0.9015  0.0560  0.7738
  672MPD2    C4 9943   4.151   0.927   0.478  0.4249  0.6433  0.0765
  672MPD2    C5 9944   4.079   0.854   0.383 -0.4911  0.5510 -0.2043
  672MPD2     H 9945   4.001   0.805   0.743  0.2446  0.7081 -0.1937
  672MPD2    H1 9946   4.228   0.993   0.438 -0.6124  2.2901  0.7580
  672MPD2    H2 9947   3.920   0.725   0.340  1.6824 -2.0480  0.7733
  672MPD2    H3 9948   4.110   0.886   0.284 -0.5853  0.0758 -0.3849
  672MPD2     N 9949   4.182   0.969   0.721  1.0266 -0.1048 -0.6771
  672MPD2    H5 9950   4.144   0.970   0.815 -0.7872 -0.3596 -1.4075
  672MPD2    N1 9951   3.844   0.682   0.605  0.2415 -1.1282 -0.3194
  672MPD2    H7 9952   3.825   0.686   0.704 -1.1716 -0.9771 -0.6049
  673TMC3    C1 9953   3.665   0.522   0.596  0.4473  0.1284  0.2759
  673TMC3    C2 9954   3.661   0.384   0.591 -0.0662 -0.5964 -0.3828
  673TMC3    C3 9955   3.565   0.314   0.654  0.4487 -0.0210  0.4165
  673TMC3    C4 9956   3.596   0.594   0.690  0.3351  0.1531  0.3305
  673TMC3    C5 9957   3.507   0.521   0.764  0.8847 -0.2607 -0.4197
  673TMC3    C6 9958   3.488   0.387   0.744  0.1039  0.5325  0.1092
  673TMC3     C 9959   3.777   0.586   0.528  0.2814  0.5746 -0.3460
  673TMC3     O 9960   3.796   0.548   0.414 -0.1821  0.7546  0.3087
  673TMC3     H 9961   3.735   0.342   0.523  2.3485 -0.5579  2.2081
  673TMC3    H1 9962   3.614   0.701   0.692  3.0497 -0.3205  0.1882
  673TMC3    H2 9963   3.423   0.338   0.815 -1.1889  0.4122 -1.1522
  673TMC3    C7 9964   3.445   0.582   0.885  0.4201 -0.4879 -0.6345
  673TMC3    C8 9965   3.603   0.186   0.713 -0.0005  0.0522 -0.4282
  673TMC3    O1 9966   3.395   0.500   0.963  0.0114 -0.6729 -0.1953
  673TMC3    O2 9967   3.510   0.125   0.760  0.1115  0.4386  0.4843
  674MPD2     C 9968   3.502   0.691   0.381 -0.3947  0.1960 -0.0306
  674MPD2    C1 9969   3.431   0.578   0.385  0.1644 -0.6793 -0.2336
  674MPD2    C2 9970   3.322   0.566   0.471  0.3219 -0.1163 -0.6427
  674MPD2    C3 9971   3.270   0.674   0.545  0.7511  0.6513 -0.0169
  674MPD2    C4 9972   3.335   0.791   0.524  0.3672 -0.0741 -0.3354
  674MPD2    C5 9973   3.449   0.796   0.444 -0.1844 -0.5411  0.0933
  674MPD2     H 9974   3.265   0.476   0.491  0.5910 -0.2822 -0.6303
  674MPD2    H1 9975   3.310   0.883   0.575  1.2406 -0.5886  1.0175
  674MPD2    H2 9976   3.591   0.706   0.321  0.7543 -4.0159  0.6502
  674MPD2    H3 9977   3.509   0.884   0.426 -1.1877  0.4234  1.4088
  674MPD2     N 9978   3.168   0.653   0.640  0.4753 -0.1914  0.3944
  674MPD2    H5 9979   3.138   0.558   0.660 -2.5040  0.6718  0.0886
  674MPD2    N1 9980   3.487   0.474   0.301  0.3160 -0.1882  0.5268
  674MPD2    H7 9981   3.573   0.488   0.249  0.9462  2.5406  2.3045
  675TMC3    C1 9982   3.480   0.270   0.177 -0.5233  0.3405  1.0052
  675TMC3    C2 9983   3.390   0.192   0.109 -0.8523 -0.1818 -0.4478
  675TMC3    C3 9984   3.423   0.060   0.077 -0.0887  0.4243 -0.2476
  675TMC3    C4 9985   3.597   0.209   0.222  0.4160  0.4854 -0.2591
  675TMC3    C5 9986   3.623   0.075   0.189  0.3554 -0.6132  1.0520
  675TMC3    C6 9987   3.541   4.722   0.114 -0.1459 -0.1456 -0.0167
  675TMC3     C 9988   3.419   0.361   0.266  0.5834 -0.0172  0.4743
  675TMC3     O 9989   3.309   0.326   0.305  0.0521  0.2927 -0.0332
  675TMC3     H 9990   3.293   0.231   0.080 -1.8860 -2.0277  0.4940
  675TMC3    H1 9991   3.663   0.266   0.286 -0.7130  3.2980 -1.5996
  675TMC3    H2 9992   3.561   4.617   0.097  1.0198  0.2117 -0.9154
  675TMC3    C7 9993   3.695   0.002   0.287  0.2828 -1.0919 -0.1407
  675TMC3    C8 9994   3.310   4.694   0.090 -0.9902  0.6956 -0.2942
  675TMC3    O1 9995   3.630   4.639   0.346  0.0922  0.3942  0.2391
  675TMC3    O2 9996   3.280   4.620  17.695  0.0526  0.1886 -0.2746
  676MPD2     C 9997   0.510   4.207  10.768 -0.2546 -0.1963 -0.5963
  676MPD2    C1 9998   0.469   4.178  10.895  0.2548 -0.3122 -0.5641
  676MPD2    C2 9999   0.472   4.053  10.943  0.3068  0.0717 -0.7231
  676MPD2    C310000   0.537   3.954  10.872  0.5130 -0.4063 -0.4364
  676MPD2    C410001   0.584   3.982  10.744  0.6973  0.8505 -0.0665
  676MPD2    C510002   0.577   4.110  10.697  0.1190 -0.4453  0.3195
  676MPD2     H10003   0.430   4.031  11.041 -1.0896  0.1614 -1.3087
  676MPD2    H110004   0.643   3.910  10.689 -0.0053  0.6195 -0.5240
  676MPD2    H210005   0.516   4.310  10.736 -0.2788  0.4936  1.6037
  676MPD2    H310006   0.614   4.135  10.598  0.6255 -0.4228  0.5142
  676MPD2     N10007   0.544   3.828  10.924  0.0704  0.6139  0.2227
  676MPD2    H510008   0.591   3.759  10.866  0.1160 -0.5454  1.6399
  676MPD2    N110009   0.432   4.280  10.985  0.2508 -0.1314  0.2806
  676MPD2    H710010   0.412   4.250  11.080  1.3702 -1.8481 -0.0052
  677TMC3    C110011   0.400   4.488  11.086 -0.1477  0.0026  0.0842
  677TMC3    C210012   0.287   4.431  11.146 -0.0091 -0.8035 -0.2898
  677TMC3    C310013   0.209   4.507  11.233 -0.3720 -0.0389 -0.4646
  677TMC3    C410014   0.432   4.618  11.102  0.1763 -0.7298 -0.1061
  677TMC3    C510015   0.354   4.681  11.200 -0.0129  0.0151 -0.4016
  677TMC3    C610016   0.243   4.640  11.262  0.5136  0.8829 -0.0554
  677TMC3     C10017   0.452   4.411  10.971  0.2527  0.5122  0.3212
  677TMC3     O10018   0.510   4.479  10.888  0.4839 -0.4374 -0.2837
  677TMC3     H10019   0.253   4.331  11.123  0.9057 -1.7016  2.3350
  677TMC3    H110020   0.518   4.664  11.054  0.4261 -1.0080  0.0721
  677TMC3    H210021   0.184   4.693  11.336 -1.3767 -0.4143 -0.6332
  677TMC3    C710022   0.366   0.102  11.197  0.2086  0.3061  0.0127
  677TMC3    C810023   0.174   4.424  11.344  0.4724  0.5670  0.1477
  677TMC3    O110024   0.257   0.159  11.204 -0.1447  0.7311 -0.1874
  677TMC3    O210025   0.128   4.315  11.314  0.1674  0.3044  0.7447
  678MPD2     C10026   1.966   3.585   1.638  0.0408 -0.1188  0.8782
  678MPD2    C110027   2.011   3.615   1.513 -0.3942  0.2187 -1.4089
  678MPD2    C210028   1.937   3.722   1.454 -0.1168 -0.2177 -0.6497
  678MPD2    C310029   1.817   3.768   1.504 -0.3305 -0.1584 -0.1789
  678MPD2    C410030   1.781   3.733   1.629  0.0339 -0.1850  0.5478
  678MPD2    C510031   1.857   3.644   1.693  0.5715 -0.6283  0.1030
  678MPD2     H10032   1.972   3.767   1.362 -0.5383 -1.2705 -1.3283
  678MPD2    H110033   1.692   3.766   1.682  0.1612  0.1215  0.5713
  678MPD2    H210034   2.017   3.506   1.692  1.9157  0.1391 -0.5225
  678MPD2    H310035   1.835   3.615   1.795  1.7272 -0.3648  0.4214
  678MPD2     N10036   1.745   3.868   1.425 -0.3096  0.0811 -0.2035
  678MPD2    H510037   1.773   3.878   1.327  0.8468  0.4055  0.1594
  678MPD2    N110038   2.132   3.575   1.452  0.0742  0.3514  0.0660
  678MPD2    H710039   2.155   3.615   1.362  0.8302  0.4711  0.3110
  679TMC3    C110040   2.534   3.380   1.340  0.2182  0.0090 -0.2325
  679TMC3    C210041   2.426   3.371   1.420 -0.2682 -0.3919 -0.7242
  679TMC3    C310042   2.344   3.478   1.417 -0.3141 -0.1401 -0.8586
  679TMC3    C410043   2.558   3.480   1.254 -0.1217  0.6645 -0.2291
  679TMC3    C510044   2.473   3.590   1.254  0.1967 -0.1002 -0.3318
  679TMC3    C610045   2.364   3.589   1.338 -0.4817 -0.0248 -0.2533
  679TMC3     C10046   2.610   3.264   1.310 -0.4527 -0.3992  0.3161
  679TMC3     O10047   2.729   3.280   1.283 -0.0155  0.2586 -0.1390
  679TMC3     H10048   2.402   3.286   1.482  0.3201 -0.0685 -0.0565
  679TMC3    H110049   2.641   3.470   1.185  0.2739  1.0680  0.1752
  679TMC3    H210050   2.296   3.673   1.334 -1.8494 -1.2149 -1.9277
  679TMC3    C710051   2.484   3.698   1.153 -0.2788 -0.5737 -0.5217
  679TMC3    C810052   2.220   3.478   1.489 -0.1681 -0.2794  0.3334
  679TMC3    O110053   2.378   3.756   1.135 -0.2068 -0.3133  0.2683
  679TMC3    O210054   2.210   3.415   1.593  1.0509 -0.2936 -0.0010
  680MPD2     C10055   2.091   3.124  13.464 -0.2326  0.6241 -0.1182
  680MPD2    C110056   2.178   3.040  13.541  0.4674  0.1795  0.2239
  680MPD2    C210057   2.259   3.098  13.636  0.1671  0.4806 -0.1883
  680MPD2    C310058   2.263   3.236  13.657 -0.0573 -0.1163 -0.0156
  680MPD2    C410059   2.179   3.312  13.580 -0.7264 -0.1755  0.5602
  680MPD2    C510060   2.096   3.256  13.484 -0.0291 -0.0344 -0.4498
  680MPD2     H10061   2.319   3.033  13.699  0.4507 -0.2419 -1.1880
  680MPD2    H110062   2.178   3.418  13.601 -1.0570  0.0046 -0.4003
  680MPD2    H210063   2.023   3.083  13.390 -0.5062  0.4503  0.2275
  680MPD2    H310064   2.019   3.316  13.438 -1.0737  0.2697  1.6812
  680MPD2     N10065   2.341   3.306  13.754 -0.3867  0.7998  1.1383
  680MPD2    H510066   2.344   3.407  13.748  0.7982  0.5801 -2.0551
  680MPD2    N110067   2.175   2.897  13.525  0.3615 -0.4590  0.2639
  680MPD2    H710068   2.261   2.853  13.556  1.4559  1.1579 -0.4643
  681TMC3    C110069   2.098   2.684  13.458 -0.1662 -0.6886 -0.6906
  681TMC3    C210070   2.001   2.594  13.512 -0.1924  0.4516  0.4724
  681TMC3    C310071   2.044   2.472  13.564 -0.2726  0.4801  0.0127
  681TMC3    C410072   2.233   2.646  13.450 -0.4415 -0.7284 -0.3031
  681TMC3    C510073   2.274   2.528  13.507  0.5440  0.3650  0.5454
  681TMC3    C610074   2.178   2.440  13.561  0.2943 -0.6038  0.1301
  681TMC3     C10075   2.069   2.822  13.488  0.2886  0.1252 -0.0104
  681TMC3     O10076   1.960   2.864  13.479 -0.8195 -0.2025 -0.3201
  681TMC3     H10077   1.899   2.625  13.534 -0.0574 -0.1526  1.9395
  681TMC3    H110078   2.295   2.714  13.392 -1.5706 -0.2405 -0.9446
  681TMC3    H210079   2.214   2.345  13.598 -1.7100 -1.3049  0.2696
  681TMC3    C710080   2.397   2.471  13.462  0.6960 -0.1066  0.2882
  681TMC3    C810081   1.967   2.423  13.676  0.9393  0.1215  0.2908
  681TMC3    O110082   2.418   2.354  13.497 -0.0945 -0.2133 -0.0578
  681TMC3    O210083   1.843   2.426  13.678 -0.4587 -0.0696 -0.0414
  682MPD2     C10084   4.572   4.261  10.554  0.0772  0.5294  0.1989
  682MPD2    C110085   4.577   4.142  10.611 -0.9634 -0.2417  0.3178
  682MPD2    C210086   4.544   4.129  10.746 -1.0918 -0.2624 -1.3560
  682MPD2    C310087   4.508   4.236  10.821  0.0123 -0.3956  0.1922
  682MPD2    C410088   4.490   4.359  10.760  0.1187  0.0508  1.2581
  682MPD2    C510089   4.531   4.371  10.629  0.4234 -0.9470  0.4623
  682MPD2     H10090   4.560   4.035  10.797 -0.1673  1.0668  0.7805
  682MPD2    H110091   4.448   4.446  10.810 -0.8522 -0.2266  0.9122
  682MPD2    H210092   4.594   4.274  10.449 -0.2913  0.4669  0.1119
  682MPD2    H310093   4.512   4.461  10.572  0.0132 -0.0554  2.0198
  682MPD2     N10094   4.486   4.216  10.961 -0.2370 -0.2519 -0.2417
  682MPD2    H510095   4.508   4.121  10.991  1.3287  0.1944  0.0055
  682MPD2    N110096   4.598   4.015  10.548 -0.4522  0.3122 -0.5220
  682MPD2    H710097   4.584   3.938  10.613 -0.2761 -1.2782 -2.3746
  683TMC3    C110098   4.423   4.226  11.406  0.4388 -1.0224  0.4943
  683TMC3    C210099   4.380   4.095  11.404 -0.0504 -0.0639  0.6465
  683TMC3    C310100   4.349   4.038  11.282  0.1372  0.7804 -0.1885
  683TMC3    C410101   4.434   4.301  11.288 -0.1717 -0.1774 -0.3274
  683TMC3    C510102   4.394   4.245  11.176 -0.2218 -0.7487 -0.3104
  683TMC3    C610103   4.348   4.114  11.166  0.3765 -0.0648  0.1563
  683TMC3     C10104   4.439   4.302  11.531 -0.4425  0.1895  0.5763
  683TMC3     O10105   4.455   4.423  11.513  0.3365  0.3336 -0.4409
  683TMC3     H10106   4.351   4.044  11.495 -0.7497 -0.6666  0.0874
  683TMC3    H110107   4.464   4.404  11.277  1.8761 -0.6139  1.1144
  683TMC3    H210108   4.316   4.076  11.070 -0.7145  0.1890  0.4113
  683TMC3    C710109   4.444   4.308  11.058  0.5947 -0.5981 -0.1084
  683TMC3    C810110   4.364   3.900  11.252 -0.6876 -0.1913 -0.3605
  683TMC3    O110111   4.437   4.433  11.055  0.3638 -0.4360  0.2773
  683TMC3    O210112   4.365   3.882  11.131 -0.3719  0.5114  0.6423
  684MPD2     C10113   2.427   3.382  16.695  0.0311  0.3761  0.2148
  684MPD2    C110114   2.535   3.359  16.611  0.2516  0.0410 -0.0292
  684MPD2    C210115   2.631   3.459  16.598 -0.2416 -0.3931 -0.1224
  684MPD2    C310116   2.617   3.580  16.667 -0.4367  0.2615  0.5639
  684MPD2    C410117   2.501   3.599  16.741 -1.0094  0.3400 -0.9288
  684MPD2    C510118   2.408   3.506  16.759 -0.7210  0.4183  0.3819
  684MPD2     H10119   2.723   3.443  16.543 -2.0378 -0.7517 -3.0695
  684MPD2    H110120   2.490   3.693  16.794  0.6107 -0.8841  1.5672
  684MPD2    H210121   2.346   3.311  16.705  0.5186 -0.1898  0.1676
  684MPD2    H310122   2.315   3.532  16.809 -0.3388  2.2630  0.1182
  684MPD2     N10123   2.698   3.695  16.649 -0.7737 -0.1194  0.2755
  684MPD2    H510124   2.674   3.774  16.708 -0.9735 -1.0179  1.4200
  684MPD2    N110125   2.554   3.243  16.535 -0.0355 -0.2581 -0.1635
  684MPD2    H710126   2.645   3.233  16.491 -0.5075 -0.1004 -1.1866
  685TMC3    C110127   2.510   3.032  16.453  0.4813 -0.4002 -0.1140
  685TMC3    C210128   2.401   2.968  16.403 -0.0831  0.6780 -0.1864
  685TMC3    C310129   2.424   2.862  16.322  0.6746 -0.7088 -0.1945
  685TMC3    C410130   2.638   3.000  16.429 -0.3085 -1.0118  0.1446
  685TMC3    C510131   2.651   2.890  16.347  0.8996 -0.3282 -0.4728
  685TMC3    C610132   2.551   2.825  16.284 -0.6542  0.1962 -0.2117
  685TMC3     C10133   2.470   3.135  16.539 -0.2720  0.3158  0.0208
  685TMC3     O10134   2.359   3.135  16.588  0.3373 -0.4785 -0.2947
  685TMC3     H10135   2.297   2.992  16.421 -0.8587 -2.6263 -0.2280
  685TMC3    H110136   2.723   3.042  16.480 -0.5664  0.2162 -0.4271
  685TMC3    H210137   2.572   2.744  16.216 -1.0730  0.5290 -0.7451
  685TMC3    C710138   2.781   2.870  16.295  0.0689  0.2689 -0.0769
  685TMC3    C810139   2.324   2.783  16.261  0.3664  0.1546  0.3561
  685TMC3    O110140   2.787   2.823  16.182  0.2763  0.1177  0.5002
  685TMC3    O210141   2.346   2.667  16.224 -0.0631 -0.1207  0.0611
  686MPD2     C10142   4.008   3.117  15.369  0.3491 -0.1718  0.4395
  686MPD2    C110143   4.008   3.054  15.487  0.3675  0.0032  0.5077
  686MPD2    C210144   4.102   2.956  15.510 -0.2534 -0.0026  0.7157
  686MPD2    C310145   4.159   2.892  15.400 -0.0933 -0.2796  0.1273
  686MPD2    C410146   4.150   2.954  15.283  0.0339 -0.8012  0.5026
  686MPD2    C510147   4.085   3.074  15.270 -0.3207  1.2141  0.1099
  686MPD2     H10148   4.120   2.911  15.607 -0.9045 -1.4266  0.1657
  686MPD2    H110149   4.197   2.912  15.194  1.2236 -0.0377  0.7879
  686MPD2    H210150   3.939   3.200  15.359  2.1390  1.1886 -0.7420
  686MPD2    H310151   4.095   3.141  15.185  1.1105  1.6567  0.6261
  686MPD2     N10152   4.236   2.777  15.407 -0.5576  0.0650  0.5113
  686MPD2    H510153   4.297   2.759  15.329  1.8961  1.7217  2.0613
  686MPD2    N110154   3.914   3.097  15.581 -0.0346 -0.2622 -0.5169
  686MPD2    H710155   3.835   3.149  15.544  0.8975  1.1844 -0.4647
  687TMC3    C110156   4.158   2.672  15.612 -0.1438 -0.8585  1.0040
  687TMC3    C210157   4.025   2.667  15.569 -0.0405  1.1739 -0.0249
  687TMC3    C310158   3.940   2.592  15.640 -0.1294 -0.3330  0.5226
  687TMC3    C410159   4.189   2.640  15.735 -0.2039 -0.6361  0.0306
  687TMC3    C510160   4.101   2.578  15.814 -1.1048  0.3397  0.2242
  687TMC3    C610161   3.977   2.533  15.763  0.3889  0.0369  0.2892
  687TMC3     C10162   4.261   2.698  15.515 -0.1347 -0.2154  0.4778
  687TMC3     O10163   4.351   2.615  15.527 -0.0262  0.0555  0.3027
  687TMC3     H10164   3.994   2.707  15.473 -0.2734 -1.0584 -0.8766
  687TMC3    H110165   4.292   2.648  15.766 -1.0256  1.4710  2.2743
  687TMC3    H210166   3.895   2.495  15.822 -0.6953  1.9877  0.0703
  687TMC3    C710167   4.100   2.611  15.955 -0.2715 -1.0331 -0.0324
  687TMC3    C810168   3.794   2.607  15.615 -0.0076 -0.2133  1.0507
  687TMC3    O110169   4.027   2.547  16.028 -0.6558  0.0781 -0.2355
  687TMC3    O210170   3.708   2.537  15.672  0.2261 -0.0314  0.0731
  688MPD2     C10171   3.395   1.830  17.580 -0.1955  0.8198  0.0020
  688MPD2    C110172   3.395   1.691  17.560  0.1705 -0.2383 -0.2617
  688MPD2    C210173   3.433   1.640  17.439  0.9421 -0.4130 -0.2809
  688MPD2    C310174   3.495   1.721  17.344 -0.5608 -0.0309  0.7844
  688MPD2    C410175   3.483   1.856  17.364 -0.7367  0.1441 -0.0730
  688MPD2    C510176   3.444   1.909  17.480 -0.1616 -0.4080 -0.5222
  688MPD2     H10177   3.454   1.535  17.423 -1.1145 -1.3062  2.9962
  688MPD2    H110178   3.523   1.928  17.293 -1.1413  1.0392  0.6009
  688MPD2    H210179   3.352   1.884  17.663 -1.8663  0.7182 -0.7946
  688MPD2    H310180   3.449   2.016  17.497  1.5704 -0.3121 -1.6607
  688MPD2     N10181   3.551   1.668  17.221  0.0918 -0.7161 -0.4318
  688MPD2    H510182   3.585   1.734  17.152  1.9491  0.1992  1.3896
  688MPD2    N110183   3.361   1.600  17.666 -0.0742  0.1085  0.6537
  688MPD2    H710184   3.347   1.502  17.642  0.7206 -0.7826  3.8889
  689TMC3    C110185   3.388   1.535   0.193  0.6320  0.3243  0.1116
  689TMC3    C210186   3.375   1.570   0.323 -1.0635  0.1062  0.6331
  689TMC3    C310187   3.416   1.480   0.419  0.0213 -0.6254 -0.2883
  689TMC3    C410188   3.442   1.414   0.154  0.3529  0.0927 -0.3434
  689TMC3    C510189   3.474   1.329   0.255  0.0724  0.0647  0.3676
  689TMC3    C610190   3.462   1.360   0.388 -0.7124  0.3784 -0.3668
  689TMC3     C10191   3.377   1.645   0.100 -0.0560 -0.1445 -0.1964
  689TMC3     O10192   3.407   1.754   0.150  0.0869 -0.9177  0.1821
  689TMC3     H10193   3.338   1.667   0.358  0.5767  0.7394  0.5831
  689TMC3    H110194   3.457   1.377   0.053  0.8988  1.8911 -0.9321
  689TMC3    H210195   3.482   1.285   0.464  0.1873 -1.3214 -2.2872
  689TMC3    C710196   3.476   1.187   0.223  0.1535  0.0369  0.2078
  689TMC3    C810197   3.424   1.514   0.560  0.5995 -0.8056  0.6273
  689TMC3    O110198   3.528   1.107   0.300  0.5282  0.4136  0.4031
  689TMC3    O210199   3.465   1.423   0.631 -0.0668  0.5997 -0.4545
  690MPD2     C10200   0.862   4.092  15.745 -0.2166  0.3054  0.3083
  690MPD2    C110201   0.830   4.096  15.614 -0.5301 -0.9872 -1.2103
  690MPD2    C210202   0.900   4.181  15.528  1.0829  0.2106 -0.5074
  690MPD2    C310203   1.002   4.256  15.580  0.2452  0.4585 -0.3677
  690MPD2    C410204   1.032   4.245  15.717  0.1584  0.6088 -0.5250
  690MPD2    C510205   0.957   4.168  15.801 -0.8270 -1.0117 -0.3439
  690MPD2     H10206   0.875   4.177  15.423  1.3126 -0.2673 -0.5465
  690MPD2    H110207   1.108   4.307  15.765  0.4077 -0.3134  0.2819
  690MPD2    H210208   0.803   4.026  15.807 -1.4532 -0.8339 -2.0776
  690MPD2    H310209   0.964   4.162  15.909 -1.3160  0.0671 -0.2602
  690MPD2     N10210   1.081   4.332  15.489 -0.0990  0.1251 -0.0509
  690MPD2    H510211   1.063   4.328  15.390  0.0369 -1.0735 -0.0207
  690MPD2    N110212   0.726   4.025  15.562  0.1981  0.5152  0.2878
  690MPD2    H710213   0.727   3.995  15.465 -1.6047 -0.2792  0.5221
  691TMC3    C110214   0.551   3.871  15.568  0.0682  0.3047 -0.1711
  691TMC3    C210215   0.419   3.864  15.618 -0.1376  0.3201 -0.0684
  691TMC3    C310216   0.354   3.747  15.585  0.1880 -0.4414 -0.4161
  691TMC3    C410217   0.611   3.772  15.499  0.0218 -1.0383  0.3780
  691TMC3    C510218   0.538   3.660  15.476 -0.2083  0.1431  0.5156
  691TMC3    C610219   0.410   3.650  15.513 -0.2900 -0.0511  0.0723
  691TMC3     C10220   0.621   3.980  15.635  0.2995  0.0306  0.2627
  691TMC3     O10221   0.586   4.016  15.745 -0.0671 -0.3581 -0.7463
  691TMC3     H10222   0.386   3.943  15.685 -1.1926  0.2090 -0.4516
  691TMC3    H110223   0.716   3.767  15.473 -0.7121 -2.5650 -2.3109
  691TMC3    H210224   0.351   3.560  15.498 -1.9420  1.1554 -0.6674
  691TMC3    C710225   0.598   3.556  15.403  0.4812  0.8164 -0.0503
  691TMC3    C810226   0.210   3.726  15.619  0.5829 -1.3816  0.1186
  691TMC3    O110227   0.693   3.586  15.330  0.0355 -0.3497  0.1436
  691TMC3    O210228   0.156   3.631  15.575  0.0213 -0.4862 -0.4173
  692TMC3    C110229   2.461   0.282  16.112  0.9543 -0.6084 -0.2604
  692TMC3    C210230   2.594   0.302  16.144  0.1848  0.7656  0.0349
  692TMC3    C310231   2.675   0.205  16.203 -0.0391  0.5143 -0.8316
  692TMC3    C410232   2.404   0.156  16.137  0.8281  0.0211  0.0622
  692TMC3    C510233   2.482   0.063  16.202 -1.2553  0.5305 -0.4469
  692TMC3    C610234   2.609   0.085  16.244 -0.4010  0.0603 -0.0089
  692TMC3     C10235   2.373   0.392  16.063  0.6192  0.0362  0.3334
  692TMC3     O10236   2.265   0.346  16.025 -0.1155 -0.5163 -0.0358
  692TMC3     H10237   2.645   0.367  16.074 -0.8528  0.4796 -0.9887
  692TMC3    H110238   2.297   0.138  16.128  0.7666  1.3877 -1.9591
  692TMC3    H210239   2.678   0.009  16.278 -1.6282 -1.3050 -0.5654
  692TMC3    C710240   2.414   4.665  16.245  0.1080 -0.0097 -0.0585
  692TMC3    C810241   2.744   0.262  16.317 -0.7424 -0.0640 -0.1141
  692TMC3    O110242   2.294   4.673  16.255  0.3012  0.6510 -0.1849
  692TMC3    O210243   2.800   0.183  16.389  0.5012 -0.7464 -0.4465
  693MPD2     C10244   1.703   2.876  10.562 -0.3993  0.2180 -0.0021
  693MPD2    C110245   1.709   2.762  10.637  0.5180  0.0048 -0.4359
  693MPD2    C210246   1.800   2.661  10.608 -0.1937 -0.1458 -0.7473
  693MPD2    C310247   1.900   2.683  10.508  0.7036  0.7542  0.5221
  693MPD2    C410248   1.890   2.795  10.430 -0.2640 -0.4641 -0.0959
  693MPD2    C510249   1.797   2.894  10.461  0.3679  0.1217 -0.0288
  693MPD2     H10250   1.789   2.574  10.671  2.9284  1.3417  1.8243
  693MPD2    H110251   1.951   2.815  10.343  0.7439  0.0185  0.7107
  693MPD2    H210252   1.626   2.951  10.572  0.1401  0.8887 -0.8868
  693MPD2    H310253   1.797   2.980  10.395 -1.8719  0.0979 -0.0729
  693MPD2     N10254   2.005   2.589  10.493 -0.0376  0.0705  0.2396
  693MPD2    H510255   2.016   2.503  10.547  0.8494  0.0084 -0.0292
  693MPD2    N110256   1.624   2.733  10.746 -0.2331 -0.5880  0.5295
  693MPD2    H710257   1.644   2.651  10.802  0.0928  0.1632  1.5000
  694TMC3    C110258   1.413   2.729  10.852 -0.5120  0.2644  0.3709
  694TMC3    C210259   1.292   2.705  10.814  0.4654 -0.3900 -0.2542
  694TMC3    C310260   1.223   2.610  10.891  0.0114 -0.2463 -0.1629
  694TMC3    C410261   1.475   2.656  10.953 -0.1922  0.6220  0.2822
  694TMC3    C510262   1.401   2.567  11.027 -0.1736  0.7983  0.5034
  694TMC3    C610263   1.273   2.550  11.001 -0.1428  0.0264 -0.1922
  694TMC3     C10264   1.500   2.791  10.762  0.2229  0.3953 -0.5434
  694TMC3     O10265   1.452   2.887  10.700 -0.3304  0.0059  0.2304
  694TMC3     H10266   1.255   2.758  10.727 -1.1360 -1.4480 -0.2332
  694TMC3    H110267   1.580   2.668  10.975  0.1047  0.9209 -1.2939
  694TMC3    H210268   1.215   2.471  11.048  1.0020 -0.1374  0.9578
  694TMC3    C710269   1.450   2.557  11.162 -0.1114 -0.1794 -0.1636
  694TMC3    C810270   1.096   2.557  10.841 -0.7402 -0.8288 -0.1505
  694TMC3    O110271   1.547   2.620  11.189 -0.0003 -0.2282 -0.2639
  694TMC3    O210272   1.030   2.486  10.919  0.6067 -0.6338 -0.0322
  695MPD2     C10273   2.755   4.344  13.781  0.3841  0.0064  0.4770
  695MPD2    C110274   2.699   4.432  13.873 -0.7945  0.5071 -0.0866
  695MPD2    C210275   2.577   4.486  13.843  0.0118  0.5451  0.4928
  695MPD2    C310276   2.508   4.441  13.733  0.2733  0.5533  0.6142
  695MPD2    C410277   2.566   4.351  13.643  0.6826  0.3673 -0.4147
  695MPD2    C510278   2.684   4.298  13.673 -0.2154  0.0150 -0.2402
  695MPD2     H10279   2.532   4.550  13.918  0.3373  0.8948  0.3894
  695MPD2    H110280   2.522   4.318  13.550 -1.9499  1.3421  0.4801
  695MPD2    H210281   2.857   4.307  13.793  1.8826  3.6987 -0.9830
  695MPD2    H310282   2.726   4.225  13.604  0.4712 -0.2742  0.4797
  695MPD2     N10283   2.369   4.484  13.719  0.2138  0.6246 -0.6972
  695MPD2    H510284   2.319   4.528  13.796  1.4031  0.3871  0.2151
  695MPD2    N110285   2.767   4.492  13.974 -0.6063 -0.0566  0.7039
  695MPD2    H710286   2.739   4.589  13.985 -0.3974  0.0222  0.5433
  696TMC3    C110287   2.160   4.529  13.617 -0.2007 -0.0461  0.1852
  696TMC3    C210288   2.093   4.523  13.734  0.3464  0.2498  0.0976
  696TMC3    C310289   1.981   4.603  13.743 -0.7817 -0.9164  0.0079
  696TMC3    C410290   2.122   4.607  13.517  0.0128  0.3118  0.4740
  696TMC3    C510291   2.006   4.680  13.531  0.0075 -0.0247 -0.3362
  696TMC3    C610292   1.924   4.665  13.634  0.0523  0.6128  0.0068
  696TMC3     C10293   2.292   4.465  13.605 -0.3832  0.0786  0.3802
  696TMC3     O10294   2.333   4.443  13.490 -0.4938  0.5981 -0.9081
  696TMC3     H10295   2.128   4.456  13.811 -1.5087  1.4428  1.9850
  696TMC3    H110296   2.190   4.613  13.433 -0.2949  0.3048  0.2267
  696TMC3    H210297   1.838   0.005  13.640  0.0101  0.4323  1.2823
  696TMC3    C710298   2.023   0.085  13.466 -0.1900  0.1142  0.7893
  696TMC3    C810299   1.980   4.691  13.848 -0.5324 -0.5946  0.4102
  696TMC3    O110300   2.105   0.094  13.373  0.0493 -0.7094  0.2160
  696TMC3    O210301   1.950   0.082  13.819  0.5758 -0.0320  0.4332
  697MPD2     C10302   1.835   1.988  15.769  0.1716 -0.3491  0.0037
  697MPD2    C110303   1.888   1.932  15.654  0.2400  0.4921 -0.7128
  697MPD2    C210304   1.947   2.006  15.551 -0.3545 -0.5065  0.4484
  697MPD2    C310305   1.959   2.142  15.565  0.8530  0.2367  0.0259
  697MPD2    C410306   1.905   2.197  15.676 -0.8910 -0.4022 -0.0402
  697MPD2    C510307   1.850   2.119  15.778  0.0144 -0.4370  0.6139
  697MPD2     H10308   1.978   1.954  15.461 -0.0124  1.1168 -0.3694
  697MPD2    H110309   1.890   2.304  15.684  3.2517  0.1087  1.2177
  697MPD2    H210310   1.771   1.927  15.833 -0.6388 -1.4567 -1.8595
  697MPD2    H310311   1.801   2.171  15.860  1.8987  0.3602  1.2266
  697MPD2     N10312   2.043   2.213  15.471  0.6698  0.3032  0.2625
  697MPD2    H510313   2.069   2.164  15.386  0.8816  0.4728  0.2280
  697MPD2    N110314   1.881   1.794  15.629  0.1511  0.0280 -0.1264
  697MPD2    H710315   1.896   1.771  15.531  0.6421 -0.2122  0.0018
  698TMC3    C110316   2.183   2.385  15.381 -0.6975  0.0102 -0.5859
  698TMC3    C210317   2.287   2.460  15.428  0.2029 -0.9844  0.2509
  698TMC3    C310318   2.404   2.457  15.368  0.2760 -0.3118  0.0450
  698TMC3    C410319   2.196   2.323  15.261 -0.1698  0.0886  0.4716
  698TMC3    C510320   2.316   2.338  15.192 -0.1727  0.4143  0.0012
  698TMC3    C610321   2.430   2.395  15.248  0.6285  0.0648  0.4737
  698TMC3     C10322   2.079   2.347  15.483 -0.1136 -0.0753  0.0434
  698TMC3     O10323   2.044   2.432  15.559  0.1054  0.0124 -0.4953
  698TMC3     H10324   2.280   2.486  15.533 -0.9855  2.5445 -0.7276
  698TMC3    H110325   2.112   2.280  15.207 -0.2399  0.5099  0.2386
  698TMC3    H210326   2.530   2.388  15.206  0.9479 -0.9616  1.4266
  698TMC3    C710327   2.311   2.297  15.048  0.6680 -0.4634  0.1899
  698TMC3    C810328   2.495   2.561  15.419  0.4136  0.8365 -0.0603
  698TMC3    O110329   2.212   2.258  14.992  0.2478  0.0835  0.3784
  698TMC3    O210330   2.468   2.618  15.521 -0.0168  0.4532 -0.4033
  699TMC3    C110331   1.741   0.318  13.018  0.2469  0.0012  0.0254
  699TMC3    C210332   1.792   0.195  13.051  0.1505 -0.9417  0.7157
  699TMC3    C310333   1.775   0.155  13.180  0.4606 -0.1459 -0.0244
  699TMC3    C410334   1.696   0.407  13.110 -0.0845 -0.3588  0.5368
  699TMC3    C510335   1.688   0.360  13.243  0.0260 -0.2421  0.2938
  699TMC3    C610336   1.719   0.232  13.277  0.3416  0.2268  0.7628
  699TMC3     C10337   1.734   0.351  12.877  0.0484 -0.0098 -0.1293
  699TMC3     O10338   1.661   0.443  12.842 -0.2096 -0.0236  0.1998
  699TMC3     H10339   1.798   0.119  12.974  0.3602  0.3316 -0.5174
  699TMC3    H110340   1.671   0.509  13.080  0.6484 -1.3811 -3.5729
  699TMC3    H210341   1.721   0.199  13.380  0.3536  0.4230  0.8266
  699TMC3    C710342   1.652   0.446  13.355 -0.1375 -0.2995 -0.8336
  699TMC3    C810343   1.803   0.018  13.214  0.5629 -0.0996 -0.5859
  699TMC3    O110344   1.593   0.396  13.451  0.6675  0.1135  0.0762
  699TMC3    O210345   1.756   4.697  13.316 -0.0288 -0.2567 -0.6330
  700TMC3    C110346   1.150   2.295  17.199  0.5316  0.0709  0.3502
  700TMC3    C210347   1.206   2.174  17.212  0.7280 -0.6184 -0.0912
  700TMC3    C310348   1.274   2.154  17.327 -0.1252  0.2874  0.4530
  700TMC3    C410349   1.117   2.375  17.306  0.1662  0.1641  0.2410
  700TMC3    C510350   1.185   2.346  17.428 -0.5743 -0.5350 -0.0255
  700TMC3    C610351   1.260   2.236  17.430 -0.3994  0.5686 -0.5208
  700TMC3     C10352   1.172   2.354  17.069  0.5962 -0.1251  0.0760
  700TMC3     O10353   1.172   2.270  16.975 -0.0852 -0.1917  0.4815
  700TMC3     H10354   1.232   2.112  17.127 -2.0610 -1.1757 -0.5452
  700TMC3    H110355   1.060   2.466  17.293 -1.8001 -1.0404  0.2405
  700TMC3    H210356   1.311   2.214  17.523 -1.4949 -2.7547 -0.6887
  700TMC3    C710357   1.213   2.455  17.515  0.3967  0.5520 -0.4857
  700TMC3    C810358   1.324   2.027  17.348  0.7802 -0.4502 -0.0448
  700TMC3    O110359   1.326   2.476  17.557  0.3335 -0.5224 -0.1580
  700TMC3    O210360   1.437   2.019  17.399  0.1859 -0.1067  0.2124
  701TMC3    C110361   1.296   1.166  15.805 -0.4880 -0.3975  0.1348
  701TMC3    C210362   1.294   1.132  15.667  1.3971  0.8074 -0.2979
  701TMC3    C310363   1.332   1.226  15.581  0.4232  0.4460 -0.0655
  701TMC3    C410364   1.361   1.276  15.852  0.7261 -0.2347 -0.1026
  701TMC3    C510365   1.407   1.360  15.754  0.0244  0.1166 -0.2137
  701TMC3    C610366   1.386   1.345  15.616  0.4350  0.8362  0.1348
  701TMC3     C10367   1.221   1.089  15.899 -0.0681 -0.1273 -0.3164
  701TMC3     O10368   1.277   1.057  16.003  0.3116 -0.2098 -0.1227
  701TMC3     H10369   1.247   1.041  15.632  1.6086  0.4691  0.2920
  701TMC3    H110370   1.373   1.288  15.959 -3.7587 -0.6164  0.4503
  701TMC3    H210371   1.429   1.416  15.546  0.7208  0.7124  0.1895
  701TMC3    C710372   1.467   1.491  15.788  0.0806 -0.3055 -0.5539
  701TMC3    C810373   1.326   1.194  15.440 -0.0199  0.8363  0.1438
  701TMC3    O110374   1.491   1.566  15.695 -0.0686  0.3940 -0.6420
  701TMC3    O210375   1.414   1.240  15.374  0.0630  0.1597 -0.1037
  702MPD2     C10376   1.164   3.485  10.978 -0.0128 -0.3481 -0.3072
  702MPD2    C110377   1.061   3.574  10.936 -0.0405  0.1000 -0.0404
  702MPD2    C210378   1.093   3.674  10.847 -0.4627  0.0342  0.6656
  702MPD2    C310379   1.224   3.692  10.799 -0.0999  0.2179 -0.4747
  702MPD2    C410380   1.326   3.606  10.842 -0.0922 -0.8180  0.2082
  702MPD2    C510381   1.296   3.508  10.932 -0.0980 -0.1684  0.4680
  702MPD2     H10382   1.013   3.734  10.803 -1.8604 -2.9889 -0.9019
  702MPD2    H110383   1.423   3.612  10.794 -0.4159 -0.5438 -0.4142
  702MPD2    H210384   1.143   3.401  11.043 -0.2355 -0.6976 -0.8331
  702MPD2    H310385   1.367   3.437  10.974 -1.0229 -0.8424  0.8974
  702MPD2     N10386   1.258   3.781  10.698 -0.5754  0.2250 -0.1808
  702MPD2    H510387   1.355   3.797  10.671 -0.0838  2.7518  3.0458
  702MPD2    N110388   0.926   3.574  10.989  0.2833 -0.0279 -0.6309
  702MPD2    H710389   0.869   3.647  10.948  2.4556  2.2239  0.3853
  703TMC3    C110390   1.231   3.912  10.511 -0.0316 -0.5402 -0.1973
  703TMC3    C210391   1.149   3.995  10.441  1.0018  0.9902  0.5860
  703TMC3    C310392   1.200   4.035  10.321  0.2719 -0.2073  0.0410
  703TMC3    C410393   1.364   3.891  10.479 -0.1218  0.2491 -0.4354
  703TMC3    C510394   1.406   3.943  10.356 -0.7368 -0.1817 -0.2367
  703TMC3    C610395   1.322   4.014  10.275  0.2845 -0.4025 -0.0409
  703TMC3     C10396   1.168   3.846  10.618  0.0642  0.2056 -0.0002
  703TMC3     O10397   1.047   3.825  10.604 -0.4897  0.1358  0.8022
  703TMC3     H10398   1.047   4.022  10.465 -0.0936 -1.3572 -1.4840
  703TMC3    H110399   1.428   3.819  10.529 -1.8658  0.4432  2.0907
  703TMC3    H210400   1.357   4.054  10.180  0.7962 -0.1241  0.2662
  703TMC3    C710401   1.539   3.985  10.347 -0.4011 -0.7599  0.1119
  703TMC3    C810402   1.122   4.116  10.237  0.0307  0.5475  0.2887
  703TMC3    O110403   1.562   4.067  10.258  0.2555  0.1537 -0.0450
  703TMC3    O210404   1.176   4.216  10.191  0.5690 -0.0068  0.0731
  704TMC3    C110405   2.857   2.113  11.684 -0.5703 -0.1903  0.1374
  704TMC3    C210406   2.975   2.169  11.726 -0.5969  0.0888  0.1691
  704TMC3    C310407   3.040   2.110  11.831 -0.1212 -0.2489  0.8936
  704TMC3    C410408   2.803   1.998  11.740  0.1153  0.2082  0.3762
  704TMC3    C510409   2.869   1.947  11.854 -0.1509 -0.0695 -0.1407
  704TMC3    C610410   2.989   2.001  11.899  1.0490  0.0106 -0.0271
  704TMC3     C10411   2.810   2.143  11.553  0.4080 -0.1209 -0.0896
  704TMC3     O10412   2.707   2.090  11.513  0.3513 -0.1522  0.2434
  704TMC3     H10413   3.014   2.264  11.690  0.0727 -0.0522  0.5298
  704TMC3    H110414   2.721   1.937  11.703  0.6594 -0.0368 -0.4264
  704TMC3    H210415   3.037   1.958  11.985  0.8316  1.6788  0.9246
  704TMC3    C710416   2.850   1.817  11.913  0.0014 -0.2233  0.0543
  704TMC3    C810417   3.171   2.162  11.853 -0.0935  0.0469  0.1625
  704TMC3    O110418   2.953   1.750  11.941  0.4897 -0.8389 -0.4513
  704TMC3    O210419   3.200   2.280  11.823  0.4435  0.5411 -0.3104
  705MPD2     C10420   2.713   4.527  16.660  0.0566  0.2272 -0.9202
  705MPD2    C110421   2.733   4.651  16.604 -0.0392 -0.5259  0.5798
  705MPD2    C210422   2.640   0.023  16.620  0.0684  0.0306  0.4714
  705MPD2    C310423   2.542   4.716  16.711 -0.3140 -0.3659  0.3301
  705MPD2    C410424   2.520   4.591  16.760  0.1408  0.2147 -1.0367
  705MPD2    C510425   2.608   4.495  16.742  0.1710 -0.1858 -0.0927
  705MPD2     H10426   2.653   0.122  16.578 -0.5295 -0.3680 -0.6608
  705MPD2    H110427   2.435   4.556  16.818  0.7511  1.2539  0.4743
  705MPD2    H210428   2.791   4.453  16.645  0.4683  0.3647  0.4910
  705MPD2    H310429   2.582   4.392  16.765 -1.0110  0.0278 -0.4618
  705MPD2     N10430   2.441   0.085  16.742 -0.2720 -0.0024  0.3398
  705MPD2    H510431   2.365   0.065  16.806 -1.1610 -0.5278 -0.8672
  705MPD2    N110432   2.843   4.678  16.523  1.4499 -0.1091 -0.1008
  705MPD2    H710433   2.838   0.044  16.477  0.6898  0.2820  0.7698
  706TMC3    C110434   3.183   4.622  16.246 -0.0929  0.2381  0.0600
  706TMC3    C210435   3.194   0.029  16.213 -0.2489 -0.4793 -0.1374
  706TMC3    C310436   3.139   0.117  16.308 -0.2058  0.4341  0.5760
  706TMC3    C410437   3.123   4.579  16.359 -0.4076  0.2361  0.0386
  706TMC3    C510438   3.060   4.673  16.437 -0.0458 -0.3733 -0.2415
  706TMC3    C610439   3.072   0.084  16.423 -0.6809 -0.3675 -0.1836
  706TMC3     C10440   3.232   4.531  16.146  0.1003  0.8316  0.2798
  706TMC3     O10441   3.228   4.414  16.172  0.0910 -0.3989  0.3362
  706TMC3     H10442   3.266   0.067  16.142  0.2157 -1.2548 -0.0848
  706TMC3    H110443   3.093   4.474  16.354  0.5914  0.0371 -1.7949
  706TMC3    H210444   3.016   0.153  16.486 -1.6383  0.2912 -1.7419
  706TMC3    C710445   2.962   4.607  16.520  0.2721  0.5231  0.2225
  706TMC3    C810446   3.154   0.262  16.304 -0.3109 -0.1181 -0.2603
  706TMC3    O110447   2.990   4.500  16.577  0.2563  0.2015  0.2767
  706TMC3    O210448   3.127   0.324  16.403 -0.2070  0.0359 -0.3100
  707TMC3    C110449   3.912   2.011   1.270  0.0183 -0.3434 -0.1719
  707TMC3    C210450   3.986   1.888   1.278 -0.2435  0.2300 -0.2968
  707TMC3    C310451   4.005   1.820   1.397 -0.2150  1.1707  0.4737
  707TMC3    C410452   3.844   2.054   1.386  0.3575  0.6152  0.3745
  707TMC3    C510453   3.861   1.973   1.499 -0.0064 -0.2105  0.1065
  707TMC3    C610454   3.949   1.868   1.512 -0.1287  0.7052  0.0915
  707TMC3     C10455   3.972   2.100   1.179 -0.6933  0.1108  0.6823
  707TMC3     O10456   4.039   2.053   1.088 -0.3365 -0.4064 -0.3612
  707TMC3     H10457   4.026   1.848   1.185 -0.2411  0.9694 -0.6084
  707TMC3    H110458   3.783   2.143   1.386 -2.0419 -1.0094  0.1425
  707TMC3    H210459   3.957   1.809   1.603 -1.2790 -0.1683 -0.3730
  707TMC3    C710460   3.795   2.025   1.616  0.5901  0.8612 -0.7066
  707TMC3    C810461   4.117   1.721   1.406 -0.1805 -0.5195 -0.3443
  707TMC3    O110462   3.701   2.100   1.605  0.1779 -0.1803 -0.2857
  707TMC3    O210463   4.117   1.644   1.500  0.4073  0.5900  0.4964
  708MPD2     C10464   1.896   2.918  13.802 -0.1469  0.2589  0.5922
  708MPD2    C110465   1.831   3.034  13.807 -0.6365  0.7085  0.6541
  708MPD2    C210466   1.741   3.061  13.910  0.3220 -0.0192  0.0361
  708MPD2    C310467   1.718   2.969  14.011 -0.1953 -0.0999  0.5145
  708MPD2    C410468   1.785   2.843  14.005 -0.5876  0.6185 -0.5860
  708MPD2    C510469   1.870   2.822  13.901  0.5819  0.0049  0.2297
  708MPD2     H10470   1.692   3.157  13.922 -1.3135 -0.5045 -2.8114
  708MPD2    H110471   1.778   2.760  14.074 -1.6484  0.4706 -0.8673
  708MPD2    H210472   1.962   2.888  13.721 -0.7776 -1.5779  0.7585
  708MPD2    H310473   1.921   2.727  13.892 -2.1558 -1.4046 -0.3714
  708MPD2     N10474   1.623   3.003  14.104  1.2048  0.3548 -0.2246
  708MPD2    H510475   1.592   3.100  14.094  1.2801  0.1715 -2.1918
  708MPD2    N110476   1.836   3.117  13.691 -0.7544  0.4459  0.2066
  708MPD2    H710477   1.897   3.082  13.617 -2.0542 -1.5329  0.0754
  709TMC3    C110478   1.760   3.281  13.534  0.2575 -0.2146  0.0392
  709TMC3    C210479   1.707   3.193  13.442  0.2069  0.3412  0.1765
  709TMC3    C310480   1.608   3.240  13.354  0.4984  0.2156  0.5700
  709TMC3    C410481   1.707   3.402  13.544 -0.1919 -0.7551 -1.0480
  709TMC3    C510482   1.605   3.446  13.468  0.0427 -0.3921 -0.1071
  709TMC3    C610483   1.560   3.367  13.361 -0.3480 -0.4466  0.1666
  709TMC3     C10484   1.763   3.234  13.673 -0.1395 -0.5660 -0.1940
  709TMC3     O10485   1.695   3.298  13.749  0.5169 -0.1074  0.5483
  709TMC3     H10486   1.726   3.087  13.456 -1.5980  0.2025  1.5170
  709TMC3    H110487   1.760   3.477  13.603  0.0160 -1.6622 -0.0841
  709TMC3    H210488   1.466   3.399  13.318 -1.0308 -0.4217  1.6554
  709TMC3    C710489   1.494   3.505  13.544 -0.0814  1.1321  0.9743
  709TMC3    C810490   1.543   3.148  13.268  0.3356 -0.3476  0.2648
  709TMC3    O110491   1.416   3.571  13.477 -0.8082  0.1632  0.0162
  709TMC3    O210492   1.566   3.030  13.286  0.4715 -0.3465  0.8746
  710TMC3    C110493   2.174   4.360   0.696 -0.0639 -0.3461  0.3077
  710TMC3    C210494   2.257   4.449   0.633  0.3476  1.1656  1.2044
  710TMC3    C310495   2.388   4.410   0.611  0.0393  0.3028 -0.4953
  710TMC3    C410496   2.220   4.248   0.756 -0.5114  0.1362 -0.1949
  710TMC3    C510497   2.346   4.218   0.724 -0.1290  0.7189 -0.3240
  710TMC3    C610498   2.435   4.285   0.645  0.4536  0.4400 -0.4734
  710TMC3     C10499   2.039   4.399   0.742  0.2312 -0.4824  0.0759
  710TMC3     O10500   1.961   4.314   0.773  0.1499 -0.1926 -0.7105
  710TMC3     H10501   2.219   4.535   0.578  3.8651  0.3407 -2.4087
  710TMC3    H110502   2.166   4.189   0.829  1.4614 -0.8737  0.4241
  710TMC3    H210503   2.529   4.245   0.608  0.6988  0.9514 -0.3980
  710TMC3    C710504   2.396   4.108   0.794 -0.2058  0.3969  0.5978
  710TMC3    C810505   2.457   4.463   0.498 -0.0702 -0.3429 -0.1450
  710TMC3    O110506   2.320   4.023   0.827 -0.4124  0.1280  0.5526
  710TMC3    O210507   2.529   4.387   0.432 -0.7866  0.1036 -0.5671
  711TMC3    C110508   2.081   0.786  15.343 -0.4943 -0.7556  0.8497
  711TMC3    C210509   2.094   0.886  15.442  0.2809 -0.3409 -0.6194
  711TMC3    C310510   2.183   0.873  15.542 -0.3065  0.7016  1.0550
  711TMC3    C410511   2.148   0.669  15.362 -0.7128 -0.1526  0.1689
  711TMC3    C510512   2.240   0.661  15.468  0.5266 -0.1571  0.5424
  711TMC3    C610513   2.266   0.765  15.553 -0.4823 -0.4294  0.2891
  711TMC3     C10514   2.001   0.811  15.230 -0.6145 -0.1231  0.5942
  711TMC3     O10515   1.968   0.708  15.173 -0.1632  0.3430 -0.4146
  711TMC3     H10516   2.037   0.979  15.440 -1.8076 -1.6393 -1.2209
  711TMC3    H110517   2.127   0.577  15.309  0.2095 -0.9605  1.1897
  711TMC3    H210518   2.340   0.752  15.632  0.6485  0.9604 -0.5331
  711TMC3    C710519   2.320   0.539  15.501 -0.6788 -0.5741  0.3190
  711TMC3    C810520   2.187   0.972  15.643  0.5562 -0.4116 -0.2473
  711TMC3    O110521   2.363   0.532  15.621  0.3281 -0.4739 -0.3353
  711TMC3    O210522   2.080   1.027  15.663  0.3670  0.2129 -0.0567
  712MPD2     C10523   3.498   2.168  13.708 -0.2889 -0.3109  0.3548
  712MPD2    C110524   3.390   2.177  13.621 -0.9918  0.5019 -0.5408
  712MPD2    C210525   3.386   2.293  13.541 -0.2720  0.7363 -0.6789
  712MPD2    C310526   3.456   2.409  13.566  0.3702 -0.0857  0.0464
  712MPD2    C410527   3.560   2.395  13.655 -0.2337 -0.4201  0.7697
  712MPD2    C510528   3.584   2.279  13.727  0.2189  0.3559  0.2279
  712MPD2     H10529   3.314   2.296  13.460 -0.8141  0.1393 -0.2184
  712MPD2    H110530   3.614   2.484  13.686 -2.1942  0.7611  0.8025
  712MPD2    H210531   3.515   2.084  13.774  0.8234 -1.1747 -1.0422
  712MPD2    H310532   3.659   2.274  13.805 -0.4598 -2.1400  0.7068
  712MPD2     N10533   3.427   2.541  13.517  0.2496 -0.1029 -0.3457
  712MPD2    H510534   3.479   2.619  13.555 -0.3140 -0.5733  1.3598
  712MPD2    N110535   3.289   2.077  13.617  0.4890 -0.1232 -0.4524
  712MPD2    H710536   3.212   2.092  13.552 -0.1290  0.2390  0.3663
  713TMC3    C110537   3.294   2.716  13.428 -0.5080  0.5029  0.0599
  713TMC3    C210538   3.405   2.802  13.430 -0.9965  0.4341  0.4625
  713TMC3    C310539   3.384   2.934  13.481 -0.4690  0.0377 -0.1266
  713TMC3    C410540   3.172   2.764  13.475 -0.6928 -0.2983  0.4596
  713TMC3    C510541   3.157   2.890  13.518 -0.0767 -0.7373  0.4478
  713TMC3    C610542   3.262   2.980  13.522  0.1809 -0.1013  0.0614
  713TMC3     C10543   3.318   2.568  13.436 -0.7779 -0.0431  0.5907
  713TMC3     O10544   3.228   2.490  13.400  0.4477 -0.2500  0.2368
  713TMC3     H10545   3.504   2.765  13.402 -1.3920 -1.2408  1.2398
  713TMC3    H110546   3.083   2.702  13.470 -2.4972  2.2009  1.5137
  713TMC3    H210547   3.239   3.085  13.533  1.1847  0.0780  0.4305
  713TMC3    C710548   3.016   2.931  13.537 -0.3539 -0.3433 -0.2331
  713TMC3    C810549   3.491   3.032  13.468 -0.4661 -0.3850 -0.7934
  713TMC3    O110550   2.924   2.851  13.511 -0.0826  0.1497  0.2150
  713TMC3    O210551   3.459   3.150  13.469  0.0341  0.3607 -0.2126
  714MPD2     C10552   0.712   0.922   1.718 -0.4966 -0.0025  0.7265
  714MPD2    C110553   0.779   0.865   1.611 -0.3658 -0.1379  0.5096
  714MPD2    C210554   0.728   0.877   1.477 -0.5219  0.0731 -0.3281
  714MPD2    C310555   0.604   0.936   1.461 -0.1728 -0.8772  0.0532
  714MPD2    C410556   0.522   0.969   1.570  0.6961  0.0906 -0.2690
  714MPD2    C510557   0.585   0.975   1.692  0.9470  0.3512 -0.0814
  714MPD2     H10558   0.791   0.851   1.392 -1.5509  0.9104 -1.3369
  714MPD2    H110559   0.417   0.991   1.552  0.1809 -1.6787  0.5928
  714MPD2    H210560   0.742   0.927   1.822  1.1709 -0.8578  0.2762
  714MPD2    H310561   0.541   1.012   1.784  4.3425 -0.9537  2.0436
  714MPD2     N10562   0.549   0.931   1.329  0.2794 -0.0112 -0.4327
  714MPD2    H510563   0.609   0.905   1.252 -2.3148 -1.9896 -1.7679
  714MPD2    N110564   0.898   0.795   1.639 -0.4899 -0.8430 -0.0037
  714MPD2    H710565   0.928   0.810   1.734 -1.3444 -2.3144  0.4912
  715TMC3    C110566   1.077   0.647   1.613  0.0657 -0.2601  0.2915
  715TMC3    C210567   1.132   0.540   1.553  0.0948 -0.3157 -0.1515
  715TMC3    C310568   1.262   0.508   1.561  0.2685 -0.6871 -0.4023
  715TMC3    C410569   1.150   0.717   1.701  0.9055 -0.6133  0.1313
  715TMC3    C510570   1.281   0.682   1.718  0.1376 -0.3878 -0.0519
  715TMC3    C610571   1.339   0.584   1.642 -0.0079 -0.4442  0.0050
  715TMC3     C10572   0.949   0.686   1.562  0.0661  0.7289  0.2668
  715TMC3     O10573   0.916   0.650   1.450  0.0808  0.5350 -0.2878
  715TMC3     H10574   1.069   0.487   1.482  0.4477 -1.8837  0.7045
  715TMC3    H110575   1.111   0.813   1.734  2.2761 -0.2469  0.6795
  715TMC3    H210576   1.444   0.563   1.654 -0.0888 -0.5466  0.5425
  715TMC3    C710577   1.370   0.757   1.811 -0.3510 -0.2777 -0.2061
  715TMC3    C810578   1.312   0.394   1.489 -0.5478  0.8729  0.6474
  715TMC3    O110579   1.492   0.744   1.798  1.2924 -0.8992  0.6849
  715TMC3    O210580   1.225   0.318   1.450  0.5666 -0.1737  0.6976
  716MPD2     C10581   1.540   2.845   9.842  0.0655  0.2551 -0.7498
  716MPD2    C110582   1.422   2.902   9.881  0.1309 -0.5776 -0.5539
  716MPD2    C210583   1.323   2.823   9.941 -0.4028  0.4391  0.0744
  716MPD2    C310584   1.346   2.692   9.962 -0.4684 -0.4412  0.0497
  716MPD2    C410585   1.460   2.630   9.906 -0.4401  0.5604  0.3935
  716MPD2    C510586   1.558   2.708   9.851 -0.3240 -0.0012 -0.0659
  716MPD2     H10587   1.242   2.858  10.002 -0.6445 -0.8553  0.4991
  716MPD2    H110588   1.476   2.523   9.912 -1.8357  0.2658 -1.1051
  716MPD2    H210589   1.626   2.902   9.810  0.1053  0.1366 -0.8540
  716MPD2    H310590   1.653   2.667   9.819  0.2856  0.4019  1.2410
  716MPD2     N10591   1.243   2.627  10.029  0.5625  0.0141  0.0762
  716MPD2    H510592   1.163   2.685  10.052  0.6567 -0.2175  0.9926
  716MPD2    N110593   1.399   3.041   9.872  0.8621 -0.6898 -0.4426
  716MPD2    H710594   1.471   3.088   9.818  2.7797 -2.2143  0.7604
  717TMC3    C110595   1.115   2.451  10.126 -0.0308 -1.2704  0.1388
  717TMC3    C210596   1.006   2.487  10.048  1.1897  0.9237 -0.0720
  717TMC3    C310597   0.904   2.397  10.036 -0.7145  0.7640  0.5980
  717TMC3    C410598   1.114   2.329  10.187 -0.5270  0.4172  0.3703
  717TMC3    C510599   1.003   2.253  10.192  0.2236  0.4801 -0.1110
  717TMC3    C610600   0.894   2.281  10.108 -0.2916 -0.2769 -0.0942
  717TMC3     C10601   1.239   2.494  10.066  0.1144  0.8659 -0.5226
  717TMC3     O10602   1.330   2.409  10.064  0.7052 -0.3865  0.0361
  717TMC3     H10603   1.013   2.579   9.991  0.7120  2.4516  2.3597
  717TMC3    H110604   1.204   2.286  10.229 -0.7679 -1.9561 -1.5404
  717TMC3    H210605   0.810   2.213  10.101 -2.4600  2.3381  0.8270
  717TMC3    C710606   0.987   2.146  10.274  0.3727  0.3533 -0.2993
  717TMC3    C810607   0.798   2.433   9.945  0.1758  0.6747  0.1398
  717TMC3    O110608   0.928   2.048  10.231  0.4696 -0.3721  0.0901
  717TMC3    O210609   0.766   2.547   9.933 -0.7199  0.1207  0.1668
  718MPD2     C10610   4.290   1.645  12.219  0.5612  0.1726 -0.0591
  718MPD2    C110611   4.292   1.762  12.282 -0.2114 -0.7976 -0.0718
  718MPD2    C210612   4.186   1.820  12.334 -0.2513 -0.4432  0.1280
  718MPD2    C310613   4.060   1.763  12.330  0.1152  0.0321  0.4487
  718MPD2    C410614   4.045   1.641  12.256  0.1377 -0.8729 -0.3369
  718MPD2    C510615   4.165   1.583  12.207 -0.3849  0.6205  0.1966
  718MPD2     H10616   4.194   1.911  12.392 -0.9532 -1.1061  1.2700
  718MPD2    H110617   3.952   1.586  12.261  1.1297 -2.6224 -1.3285
  718MPD2    H210618   4.379   1.597  12.177 -0.8089 -0.3174 -2.4318
  718MPD2    H310619   4.169   1.490  12.152  0.5046  1.2420 -0.7891
  718MPD2     N10620   3.968   1.813  12.422  0.4515 -0.1739 -0.6495
  718MPD2    H510621   4.004   1.890  12.479 -3.3410  1.4121 -0.4126
  718MPD2    N110622   4.413   1.831  12.306 -0.4381 -0.1581 -0.0570
  718MPD2    H710623   4.410   1.919  12.356  0.4213 -0.5389  0.6757
  719TMC3    C110624   4.628   1.903  12.297 -0.1468  0.2717 -0.0447
  719TMC3    C210625   4.559   2.022  12.310  0.2000  0.0058  0.3128
  719TMC3    C310626   4.583   2.108  12.415  0.2845 -0.5226 -0.1825
  719TMC3    C410627   0.009   1.877  12.367  0.2565 -0.4399  1.2155
  719TMC3    C510628   0.043   1.967  12.461 -0.1178  0.2591 -0.4778
  719TMC3    C610629   4.690   2.074  12.499 -0.0068 -0.2780 -0.1482
  719TMC3     C10630   4.535   1.796  12.267  0.0460 -0.5263  0.4878
  719TMC3     O10631   4.578   1.688  12.238 -0.5646  0.3243 -0.0965
  719TMC3     H10632   4.478   2.045  12.241 -0.6581  2.4540  2.1141
  719TMC3    H110633   0.057   1.780  12.358  0.8096  0.1006 -1.8269
  719TMC3    H210634   0.003   2.146  12.571 -0.2971 -1.9619  1.6931
  719TMC3    C710635   0.177   1.967  12.496  0.1274 -0.4831  0.0174
  719TMC3    C810636   4.456   2.158  12.472  0.1510  0.0179 -0.3084
  719TMC3    O110637   0.259   1.933  12.410  0.0973 -0.0265 -0.3896
  719TMC3    O210638   4.357   2.152  12.406 -0.3483 -0.1043  0.2139
  720MPD2     C10639   3.011   3.858  14.076  0.3113 -0.4974 -0.9059
  720MPD2    C110640   3.095   3.946  14.012 -0.1128  0.3269 -0.0651
  720MPD2    C210641   3.226   3.939  14.051  0.3909  0.1053 -0.8612
  720MPD2    C310642   3.266   3.854  14.148 -0.1060 -0.2694  0.1798
  720MPD2    C410643   3.173   3.785  14.224  0.8734 -0.5514 -0.1923
  720MPD2    C510644   3.041   3.790  14.189 -0.2350 -0.5127 -0.8865
  720MPD2     H10645   3.305   3.989  13.997  0.9610  1.2898  1.0836
  720MPD2    H110646   3.191   3.717  14.306  1.0264 -0.4856 -0.1711
  720MPD2    H210647   2.911   3.853  14.035  0.1202 -0.6822 -0.4192
  720MPD2    H310648   2.969   3.724  14.234 -2.1890  1.3048 -1.3327
  720MPD2     N10649   3.399   3.857  14.176 -0.5547  0.3558 -0.5749
  720MPD2    H510650   3.454   3.900  14.102  0.6818 -0.0530  0.1128
  720MPD2    N110651   3.050   4.023  13.902 -0.1141 -0.2502  0.2660
  720MPD2    H710652   2.959   3.999  13.862 -0.7296  3.0897 -0.3121
  721TMC3    C110653   3.607   3.805  14.285 -0.2689  0.6970  0.2194
  721TMC3    C210654   3.671   3.784  14.403  0.6266 -0.0214  0.5127
  721TMC3    C310655   3.807   3.767  14.399  0.2386 -1.1753  0.2073
  721TMC3    C410656   3.671   3.780  14.162 -0.9155 -0.3347  0.5415
  721TMC3    C510657   3.804   3.759  14.162  0.1888 -0.8039  0.2780
  721TMC3    C610658   3.875   3.751  14.278 -0.1562 -0.2456 -0.4877
  721TMC3     C10659   3.461   3.799  14.285 -0.3632 -0.1353 -0.4294
  721TMC3     O10660   3.407   3.750  14.382  0.5435  0.9596  0.3836
  721TMC3     H10661   3.613   3.810  14.491 -1.3761  1.3569 -1.2092
  721TMC3    H110662   3.614   3.786  14.070  0.1070 -0.1449 -0.0760
  721TMC3    H210663   3.980   3.723  14.280  0.8231  3.5225 -0.3288
  721TMC3    C710664   3.876   3.761  14.039 -0.0069 -0.9784 -0.2462
  721TMC3    C810665   3.885   3.731  14.516  0.3424 -0.2007  0.5713
  721TMC3    O110666   3.813   3.747  13.936 -0.0888  0.4164 -0.4780
  721TMC3    O210667   4.006   3.716  14.503 -0.0243 -0.2065 -0.6745
  722MPD2     C10668   2.210   2.540  13.149 -0.1116  0.3437 -0.2520
  722MPD2    C110669   2.139   2.646  13.112 -1.1116 -0.3909  0.7025
  722MPD2    C210670   2.010   2.625  13.086  0.0779 -0.8714 -0.4168
  722MPD2    C310671   1.940   2.511  13.116 -0.1231 -0.4542 -0.1006
  722MPD2    C410672   2.016   2.398  13.160 -0.2490  0.2225  0.4581
  722MPD2    C510673   2.147   2.421  13.174 -0.0145  0.3714  0.2787
  722MPD2     H10674   1.962   2.717  13.054  0.4365 -0.4322  0.3109
  722MPD2    H110675   1.978   2.297  13.173 -1.9217  0.6019 -1.4524
  722MPD2    H210676   2.317   2.542  13.166 -0.1303  0.0302 -0.0985
  722MPD2    H310677   2.205   2.337  13.212 -1.5365 -0.5720  0.5070
  722MPD2     N10678   1.811   2.496  13.066  0.7149 -0.6247 -0.0807
  722MPD2    H510679   1.778   2.582  13.023 -0.4619 -1.4328 -0.7849
  722MPD2    N110680   2.193   2.777  13.105 -0.3282 -0.6517  0.1663
  722MPD2    H710681   2.129   2.849  13.073 -0.2784 -0.9147 -0.5082
  723TMC3    C110682   1.613   2.409  12.967  0.5916 -0.5994  0.4923
  723TMC3    C210683   1.517   2.312  12.971  0.0494  0.7695 -0.2422
  723TMC3    C310684   1.397   2.335  12.909  0.2374 -0.1073 -0.2490
  723TMC3    C410685   1.593   2.523  12.909  0.4128 -0.7722  0.1471
  723TMC3    C510686   1.473   2.546  12.850  0.5168 -0.3759  0.4134
  723TMC3    C610687   1.370   2.455  12.845 -0.9268  1.5931  0.4621
  723TMC3     C10688   1.731   2.385  13.050  0.2260  0.1792  0.7390
  723TMC3     O10689   1.760   2.272  13.084  0.3273  0.2625  0.4371
  723TMC3     H10690   1.546   2.218  13.015 -0.7488  1.1322  1.0286
  723TMC3    H110691   1.669   2.601  12.906 -0.0701 -0.3700 -1.3954
  723TMC3    H210692   1.269   2.475  12.811 -0.9607 -1.7177 -1.3568
  723TMC3    C710693   1.457   2.680  12.807  0.1024 -0.8100 -0.6908
  723TMC3    C810694   1.277   2.263  12.951 -0.5004  0.1934  0.5463
  723TMC3    O110695   1.516   2.772  12.861  0.0191 -0.2481 -0.3169
  723TMC3    O210696   1.176   2.330  12.952 -0.0976 -0.2229  0.1815
  724TMC3    C110697   2.647   1.086   9.616 -0.0211 -0.0746  0.0824
  724TMC3    C210698   2.685   1.047   9.737 -0.2396 -0.1299  0.4106
  724TMC3    C310699   2.731   0.913   9.753 -0.2469 -0.6022  0.4834
  724TMC3    C410700   2.613   0.991   9.518  0.5418 -0.5010 -0.2227
  724TMC3    C510701   2.646   0.857   9.542  0.3210 -0.1525 -0.2408
  724TMC3    C610702   2.712   0.816   9.655 -0.2735 -0.5523  0.0683
  724TMC3     C10703   2.610   1.224   9.595  0.0126 -0.4124 -0.0212
  724TMC3     O10704   2.621   1.307   9.689 -0.0252  0.3304 -0.6510
  724TMC3     H10705   2.702   1.124   9.811 -1.4209  0.6942 -0.1890
  724TMC3    H110706   2.560   1.019   9.428  0.2729 -1.5399 -0.3935
  724TMC3    H210707   2.743   0.714   9.669 -0.3883 -0.7639 -1.2272
  724TMC3    C710708   2.575   0.752   9.471  0.6086  0.0875 -1.0435
  724TMC3    C810709   2.862   0.902   9.819 -0.0389  0.1605  0.1448
  724TMC3    O110710   2.543   0.651   9.534  0.5911 -0.1326  0.4745
  724TMC3    O210711   2.919   0.798   9.789  0.0820 -0.3361  0.1110
  725TMC3    C110712   3.731   4.393  13.331  0.4028  0.0887  0.1818
  725TMC3    C210713   3.622   4.391  13.252 -0.3587  0.0799 -0.2514
  725TMC3    C310714   3.588   4.270  13.191  0.1254 -0.2208 -0.1214
  725TMC3    C410715   3.821   4.288  13.335 -0.1150 -0.6909 -0.0865
  725TMC3    C510716   3.778   4.169  13.272 -0.0326 -0.3249  0.5562
  725TMC3    C610717   3.661   4.158  13.205  0.5232  0.6199 -0.1342
  725TMC3     C10718   3.780   4.530  13.357 -0.5122 -0.1126  0.0477
  725TMC3     O10719   3.701   4.620  13.336  0.9654  0.4799 -0.0513
  725TMC3     H10720   3.560   4.478  13.236 -1.6750 -0.9086 -0.4890
  725TMC3    H110721   3.923   4.286  13.371 -0.8547  0.8491  2.0413
  725TMC3    H210722   3.636   4.061  13.163  0.7388 -0.6888  2.7327
  725TMC3    C710723   3.879   4.069  13.230  0.1850 -0.1637 -0.1205
  725TMC3    C810724   3.491   4.276  13.083  0.2931  0.4543  0.8365
  725TMC3    O110725   3.858   4.020  13.119  0.4259 -0.3105 -0.0381
  725TMC3    O210726   3.411   4.180  13.080  0.3308  0.1550 -0.5973
  726MPD2     C10727   1.761   0.541   9.634 -0.5011 -0.1336 -0.3392
  726MPD2    C110728   1.772   0.635   9.737 -0.0936  0.4774  0.8077
  726MPD2    C210729   1.700   0.607   9.852 -0.2726  0.2662  0.3779
  726MPD2    C310730   1.646   0.481   9.872  0.2549 -0.4337  0.3843
  726MPD2    C410731   1.648   0.397   9.767  0.4570  0.4606 -0.2459
  726MPD2    C510732   1.698   0.422   9.646  0.1074 -0.4634 -0.3087
  726MPD2     H10733   1.705   0.685   9.927 -4.4457  0.2804  0.6339
  726MPD2    H110734   1.595   0.303   9.759  2.1462 -0.2667 -3.0555
  726MPD2    H210735   1.781   0.570   9.531 -1.0015  1.1109 -0.0935
  726MPD2    H310736   1.680   0.346   9.571  0.3701 -0.9378  0.1066
  726MPD2     N10737   1.571   0.445   9.991 -0.1046  0.1216 -0.9760
  726MPD2    H510738   1.515   0.361   9.990  1.1326 -0.7307  1.7552
  726MPD2    N110739   1.832   0.761   9.730  0.7925  0.0372 -0.1458
  726MPD2    H710740   1.832   0.810   9.819 -0.4088  0.9905 -0.6767
  727TMC3    C110741   1.920   0.951   9.638 -0.6176  0.5258 -0.0332
  727TMC3    C210742   1.974   0.975   9.767  0.0961 -0.0553  0.0088
  727TMC3    C310743   1.982   1.099   9.812  0.2064 -0.2973  0.3997
  727TMC3    C410744   1.846   1.047   9.581  0.0552 -0.3377  0.1939
  727TMC3    C510745   1.847   1.171   9.637  0.3987  0.0487 -0.2500
  727TMC3    C610746   1.921   1.201   9.743  0.0870 -0.4153  0.2214
  727TMC3     C10747   1.864   0.819   9.613 -0.3448 -0.5364  0.3967
  727TMC3     O10748   1.835   0.795   9.498 -0.5703 -0.0759 -0.0975
  727TMC3     H10749   2.037   0.905   9.820 -0.9623  0.9612  2.5795
  727TMC3    H110750   1.784   1.013   9.498  1.2101 -0.0486 -0.7904
  727TMC3    H210751   1.924   1.306   9.769  0.2021 -0.8806  2.1349
  727TMC3    C710752   1.762   1.277   9.587 -0.4414  0.0221 -0.4747
  727TMC3    C810753   2.048   1.122   9.942  0.2991  0.0678 -0.3102
  727TMC3    O110754   1.733   1.378   9.652 -0.3525  0.2451  0.1402
  727TMC3    O210755   2.106   1.031  10.004 -0.3837  0.5278 -0.4400
  728TMC3    C110756   1.246   4.471  15.416  0.2308 -0.0018 -0.4170
  728TMC3    C210757   1.328   4.558  15.472 -0.3319 -0.3981  0.0164
  728TMC3    C310758   1.350   4.678  15.408 -0.1530 -0.2618 -0.4794
  728TMC3    C410759   1.171   4.510  15.303  0.0441  0.1997  0.5013
  728TMC3    C510760   1.188   4.629  15.244  0.2497 -0.1204 -0.3537
  728TMC3    C610761   1.282   4.711  15.297 -0.1343 -0.4840 -0.4154
  728TMC3     C10762   1.197   4.388  15.522  0.0020  0.4353  0.3304
  728TMC3     O10763   1.257   4.380  15.626  0.3574  0.2851 -0.3957
  728TMC3     H10764   1.389   4.545  15.561  1.6550 -0.3625 -1.3543
  728TMC3    H110765   1.094   4.448  15.259  1.0464 -0.8816  0.2475
  728TMC3    H210766   1.307   0.083  15.254 -2.4408 -0.8981 -2.6930
  728TMC3    C710767   1.099   4.668  15.137 -0.2132 -0.1948  0.3387
  728TMC3    C810768   1.457   0.050  15.441  0.1591  0.6797 -0.2319
  728TMC3    O110769   1.048   4.576  15.073 -0.1148  0.7842 -0.1203
  728TMC3    O210770   1.441   0.173  15.433  0.2666  0.0097  0.1548
  729MPD2     C10771   3.602   0.014  16.320 -0.0446 -0.1052  0.0112
  729MPD2    C110772   3.558   0.135  16.362  0.4056  0.4773  0.4357
  729MPD2    C210773   3.456   0.148  16.459  0.1358  0.0754 -0.4272
  729MPD2    C310774   3.418   0.029  16.524  0.0362 -0.4361  0.2451
  729MPD2    C410775   3.454   4.629  16.477  0.2527 -0.0660  0.0100
  729MPD2    C510776   3.541   4.626  16.374  0.3307 -0.0963  0.1284
  729MPD2     H10777   3.432   0.252  16.477 -0.9198 -0.0356 -1.1693
  729MPD2    H110778   3.413   4.540  16.524  4.3716 -2.4473 -0.9030
  729MPD2    H210779   3.671   0.004  16.237 -0.9344 -2.1993 -0.4839
  729MPD2    H310780   3.567   4.535  16.321 -0.4981 -1.7647  2.6265
  729MPD2     N10781   3.318   0.027  16.625  0.2225  0.0971 -0.0981
  729MPD2    H510782   3.278   4.663  16.652  0.9576 -0.2180 -0.0359
  729MPD2    N110783   3.607   0.243  16.288 -0.3002  0.1037 -0.1105
  729MPD2    H710784   3.692   0.225  16.235  0.0904  1.1327  0.1577
  730TMC3    C110785   3.181   0.100  16.809 -1.0113  0.5386  0.7425
  730TMC3    C210786   3.264   0.027  16.899 -0.1653  0.0456  0.3994
  730TMC3    C310787   3.287   0.089  17.020 -0.3079 -0.3329 -0.2680
  730TMC3    C410788   3.114   0.213  16.852  0.0511  0.5110  0.0212
  730TMC3    C510789   3.135   0.262  16.981 -0.2224 -0.4091  1.0529
  730TMC3    C610790   3.211   0.195  17.077  0.3044 -0.1659  0.4351
  730TMC3     C10791   3.268   0.133  16.694 -0.2639 -0.4490 -0.6647
  730TMC3     O10792   3.298   0.252  16.688  0.0511  0.0952  0.8834
  730TMC3     H10793   3.324   4.673  16.855 -0.8068 -0.2587  0.0634
  730TMC3    H110794   3.058   0.266  16.775 -1.3090  0.7580  1.1842
  730TMC3    H210795   3.236   0.231  17.176  1.3120 -0.0211  0.1274
  730TMC3    C710796   3.138   0.409  16.986 -0.2439  0.7871 -0.1009
  730TMC3    C810797   3.418   0.125  17.029  0.9150 -0.6315  0.0068
  730TMC3    O110798   3.102   0.471  16.885  0.0141 -0.4074 -0.0750
  730TMC3    O210799   3.443   0.196  17.126 -0.3669 -0.7140 -0.1631
  731MPD2     C10800   3.465   4.081  12.232  0.2178 -0.3701  0.3862
  731MPD2    C110801   3.380   4.021  12.138 -0.5185 -0.7709 -0.1538
  731MPD2    C210802   3.250   3.986  12.188 -1.3822  0.1389  0.2458
  731MPD2    C310803   3.203   4.025  12.309  0.7425  0.4009 -0.5285
  731MPD2    C410804   3.286   4.094  12.390 -0.6596 -0.3407  0.1227
  731MPD2    C510805   3.411   4.120  12.351  0.1879 -0.0353 -0.1243
  731MPD2     H10806   3.174   3.944  12.123  0.2506 -2.0346 -0.2508
  731MPD2    H110807   3.261   4.118  12.493 -2.2761 -1.5877  0.0184
  731MPD2    H210808   3.566   4.104  12.202 -0.2128  0.0059 -0.7890
  731MPD2    H310809   3.483   4.165  12.419 -1.0260  0.0749  1.0871
  731MPD2     N10810   3.075   3.987  12.346  0.1362  0.1543 -0.2466
  731MPD2    H510811   3.034   3.917  12.285 -0.0844  0.1188 -0.0575
  731MPD2    N110812   3.431   3.999  12.010 -0.2358  0.3250 -0.0616
  731MPD2    H710813   3.526   4.034  11.999 -0.1774  0.8089  2.0208
  732TMC3    C110814   3.479   3.865  11.828  0.0548 -0.6852 -0.5562
  732TMC3    C210815   3.429   3.831  11.709 -0.4486 -0.3417  0.0010
  732TMC3    C310816   3.496   3.732  11.640 -0.0648 -0.2033  0.1607
  732TMC3    C410817   3.590   3.805  11.891  0.0109  0.0328  0.1148
  732TMC3    C510818   3.658   3.706  11.820  0.8364  0.4161  0.1083
  732TMC3    C610819   3.612   3.679  11.688  0.0768 -0.6658 -0.0113
  732TMC3     C10820   3.373   3.915  11.914 -0.0798  0.3884  0.2860
  732TMC3     O10821   3.263   3.860  11.897 -0.3115 -0.2979  0.1478
  732TMC3     H10822   3.342   3.879  11.666 -0.0294  1.8288  1.5825
  732TMC3    H110823   3.622   3.836  11.990  2.3314 -2.6125  0.1950
  732TMC3    H210824   3.658   3.591  11.645  2.7187  0.6220  0.1441
  732TMC3    C710825   3.794   3.664  11.850 -0.2059  0.2300 -0.2716
  732TMC3    C810826   3.403   3.626  11.593  1.1662 -0.3165  0.1560
  732TMC3    O110827   3.876   3.647  11.762  0.0864  0.6501  0.0360
  732TMC3    O210828   3.440   3.526  11.534 -0.5238  0.5524 -0.2470
  733TMC3    C110829   3.588   1.951  12.647 -0.0727  0.5462 -0.1920
  733TMC3    C210830   3.644   1.864  12.560 -0.0052  0.2882 -0.3227
  733TMC3    C310831   3.781   1.852  12.552 -0.3336  1.0104  0.7349
  733TMC3    C410832   3.668   2.011  12.736 -0.0267  0.2569 -0.7838
  733TMC3    C510833   3.808   1.999  12.731 -0.2427 -0.8648 -0.1790
  733TMC3    C610834   3.863   1.919  12.636 -0.3379 -0.1716 -0.3718
  733TMC3     C10835   3.467   2.028  12.610  0.0131 -0.7798 -0.2076
  733TMC3     O10836   3.416   2.096  12.699 -0.4316 -0.1844 -0.1543
  733TMC3     H10837   3.585   1.816  12.483 -0.0101  1.1529 -0.8643
  733TMC3    H110838   3.621   2.069  12.815 -0.1006  0.1686 -0.7633
  733TMC3    H210839   3.970   1.900  12.643 -0.5929 -0.7707  2.0782
  733TMC3    C710840   3.893   2.100  12.796  0.0277  0.3061 -0.3001
  733TMC3    C810841   3.835   1.782  12.435  0.3386  0.1182 -0.6451
  733TMC3    O110842   3.867   2.124  12.912  0.1003  0.9654  0.1987
  733TMC3    O210843   3.764   1.717  12.358 -0.5856  0.1704  0.1336
  734MPD2     C10844   1.281   4.340  12.378  0.2621  0.1581 -0.1603
  734MPD2    C110845   1.247   4.240  12.288 -0.3488  0.0344 -0.1479
  734MPD2    C210846   1.253   4.279  12.158 -0.4546  0.3035 -0.5993
  734MPD2    C310847   1.288   4.406  12.119  0.5050  0.3473  0.1533
  734MPD2    C410848   1.320   4.500  12.210  0.2304  0.7504  0.1388
  734MPD2    C510849   1.329   4.469  12.340  0.4581 -0.0549 -0.2794
  734MPD2     H10850   1.221   4.219  12.074  1.1331 -0.4969 -0.6347
  734MPD2    H110851   1.353   4.601  12.187  0.2484  0.4778 -1.0729
  734MPD2    H210852   1.273   4.316  12.483 -0.9102 -1.0938 -0.5316
  734MPD2    H310853   1.364   4.540  12.414 -1.8567 -1.4180  2.1059
  734MPD2     N10854   1.285   4.437  11.977 -0.2764  0.4271 -0.1888
  734MPD2    H510855   1.280   4.359  11.913 -2.2387  2.1915 -2.2085
  734MPD2    N110856   1.222   4.107  12.329 -0.3033 -0.6980 -0.5981
  734MPD2    H710857   1.251   4.085  12.423  2.6070  0.2138 -1.3034
  735TMC3    C110858   1.165   3.885  12.294  0.4177 -0.6445  0.3789
  735TMC3    C210859   1.072   3.810  12.228  0.0382  0.6039  0.1435
  735TMC3    C310860   1.102   3.697  12.159 -0.4207  0.8283 -0.2094
  735TMC3    C410861   1.291   3.839  12.305  0.8303  0.1688 -0.7729
  735TMC3    C510862   1.321   3.721  12.241  0.0219  0.8854 -0.4898
  735TMC3    C610863   1.229   3.653  12.171  0.9329 -0.4686  0.7442
  735TMC3     C10864   1.149   4.020  12.250 -0.1730  0.5218 -0.0343
  735TMC3     O10865   1.084   4.042  12.149  0.6659 -0.0146 -0.5396
  735TMC3     H10866   0.971   3.847  12.222 -0.3161 -0.4911 -0.5522
  735TMC3    H110867   1.362   3.906  12.352 -1.3108  1.9640 -0.1242
  735TMC3    H210868   1.264   3.566  12.117 -0.4283 -0.2692 -0.4735
  735TMC3    C710869   1.465   3.695  12.224 -0.5272  0.1487 -0.1492
  735TMC3    C810870   1.071   3.697  12.026 -0.4820  0.0035 -0.2322
  735TMC3    O110871   1.546   3.784  12.254 -0.3294  0.8675  0.1728
  735TMC3    O210872   1.096   3.598  11.960  0.4426 -0.0591 -0.1343
  736MPD2     C10873   1.623   3.368  12.227 -0.2863  0.1348 -0.0175
  736MPD2    C110874   1.615   3.500  12.202 -0.0594 -0.2225 -1.4109
  736MPD2    C210875   1.734   3.569  12.170 -0.4954 -0.1932 -0.1249
  736MPD2    C310876   1.850   3.497  12.169  0.3832  0.7269  0.2975
  736MPD2    C410877   1.854   3.371  12.212 -0.1229  0.2388 -0.1001
  736MPD2    C510878   1.738   3.305  12.237  0.2598 -0.3867 -0.1242
  736MPD2     H10879   1.723   3.668  12.127  1.2356  0.8239  1.7780
  736MPD2    H110880   1.948   3.318  12.218 -0.4664 -0.2396  1.0853
  736MPD2    H210881   1.533   3.313  12.254  1.1752 -1.7447  1.0169
  736MPD2    H310882   1.744   3.200  12.264  0.2108 -0.9385 -2.2220
  736MPD2     N10883   1.977   3.546  12.127  0.4531 -0.2482 -0.1185
  736MPD2    H510884   2.059   3.488  12.141 -0.1904 -0.1569  4.0976
  736MPD2    N110885   1.484   3.562  12.203  0.3564 -0.2183 -0.1168
  736MPD2    H710886   1.403   3.504  12.221  0.4204 -0.2716  0.0047
  737TMC3    C110887   2.124   3.704  12.020  0.0134 -0.2877 -0.4219
  737TMC3    C210888   2.144   3.837  11.991  0.5444 -0.6303 -0.2341
  737TMC3    C310889   2.254   3.875  11.923  0.6334 -1.0593 -0.6722
  737TMC3    C410890   2.196   3.610  11.960  0.3991 -0.4368 -0.0475
  737TMC3    C510891   2.302   3.652  11.895  0.1081 -0.1493  0.0892
  737TMC3    C610892   2.335   3.782  11.868 -1.2779 -0.2038 -0.4897
  737TMC3     C10893   1.986   3.665  12.062 -1.0458 -0.1157 -0.6818
  737TMC3     O10894   1.903   3.753  12.037 -0.0957  0.4733  0.7141
  737TMC3     H10895   2.074   3.913  12.023  1.6958 -0.3839  1.7610
  737TMC3    H110896   2.178   3.504  11.979 -0.0171 -0.3573 -0.0094
  737TMC3    H210897   2.434   3.807  11.833 -0.7269 -1.8751 -0.1325
  737TMC3    C710898   2.407   3.553  11.865  0.8728 -0.7213 -0.2037
  737TMC3    C810899   2.244   4.004  11.852 -0.2538 -0.0259  0.7263
  737TMC3    O110900   2.389   3.445  11.920 -0.1361 -0.1829  0.4708
  737TMC3    O210901   2.240   4.108  11.913 -0.0290 -0.0373 -0.5284
  738MPD2     C10902   2.724   2.722  15.486  0.0269  0.3090 -0.6778
  738MPD2    C110903   2.691   2.692  15.360 -0.5139  0.0882 -0.6384
  738MPD2    C210904   2.753   2.760  15.252  0.5059 -0.5697 -0.1386
  738MPD2    C310905   2.831   2.875  15.278  0.3795 -0.1366  0.2361
  738MPD2    C410906   2.853   2.905  15.406  0.1824  0.2684  0.0527
  738MPD2    C510907   2.809   2.829  15.510  0.9812  0.2687  0.1264
  738MPD2     H10908   2.733   2.731  15.150  0.6164  2.5896 -1.0556
  738MPD2    H110909   2.913   2.992  15.431  1.8073 -0.9235  0.3005
  738MPD2    H210910   2.695   2.654  15.565  2.1780  1.2835  0.9364
  738MPD2    H310911   2.845   2.851  15.611  1.5305 -0.5195  0.0988
  738MPD2     N10912   2.895   2.962  15.182 -0.0588  0.4850  0.0248
  738MPD2    H510913   2.953   3.039  15.211  1.4885 -0.2848 -1.0331
  738MPD2    N110914   2.589   2.591  15.328 -0.4316  0.1479 -0.5256
  738MPD2    H710915   2.589   2.546  15.236  0.4131  0.8449 -0.8648
  739TMC3    C110916   2.967   3.034  14.959  0.4734  0.4061  0.0532
  739TMC3    C210917   2.954   3.037  14.826 -0.3476  0.2269  0.4765
  739TMC3    C310918   3.054   3.094  14.751  0.6487 -0.5653  0.3975
  739TMC3    C410919   3.084   3.072  15.019 -0.0077 -0.4883  0.0564
  739TMC3    C510920   3.187   3.114  14.935  0.0410 -1.1392 -0.5754
  739TMC3    C610921   3.177   3.128  14.801  0.2151  0.1088  0.2017
  739TMC3     C10922   2.879   2.948  15.047 -0.0130 -0.1875  0.3795
  739TMC3     O10923   2.797   2.877  14.986 -0.6042 -0.5113 -0.0729
  739TMC3     H10924   2.859   3.012  14.780  1.0992 -0.2131 -2.2679
  739TMC3    H110925   3.100   3.062  15.126  0.9391  1.2794  0.0825
  739TMC3    H210926   3.261   3.169  14.746  0.3582 -0.4353  0.0184
  739TMC3    C710927   3.322   3.105  14.995  0.1589  0.3342  0.2903
  739TMC3    C810928   3.026   3.130  14.609  0.4618  0.2033 -0.0106
  739TMC3    O110929   3.333   3.060  15.108 -0.4969  0.0289 -0.6157
  739TMC3    O210930   2.913   3.102  14.571 -0.2766 -0.1031  0.1016
  740TMC3    C110931   3.419   4.225  14.393 -0.2095 -0.2834  1.0564
  740TMC3    C210932   3.531   4.182  14.457  0.1818 -0.9707  0.4714
  740TMC3    C310933   3.636   4.131  14.391  0.2492 -0.1037 -0.3153
  740TMC3    C410934   3.423   4.242  14.257 -0.4050 -1.7187  0.1354
  740TMC3    C510935   3.526   4.184  14.197 -0.8377  0.2252  0.6214
  740TMC3    C610936   3.639   4.135  14.251  0.4013 -0.4338  0.4074
  740TMC3     C10937   3.355   4.339  14.455  0.9603  0.5482 -0.5549
  740TMC3     O10938   3.423   4.400  14.534 -0.2934  0.1355  0.0257
  740TMC3     H10939   3.523   4.172  14.565 -0.6030 -0.4727  0.4581
  740TMC3    H110940   3.333   4.276  14.205  0.3146 -0.6822 -0.4373
  740TMC3    H210941   3.722   4.102  14.189  0.9284 -0.3644  1.0776
  740TMC3    C710942   3.523   4.163  14.056 -0.3575 -0.1073 -0.5765
  740TMC3    C810943   3.759   4.106  14.452 -0.3856 -0.4451 -0.1334
  740TMC3    O110944   3.565   4.055  14.019 -0.4671 -0.2013 -0.2866
  740TMC3    O210945   3.854   4.140  14.390 -0.3568  0.5714  0.1407
  741TMC3    C110946   2.803   3.612  14.420  0.0566  0.1873  0.2636
  741TMC3    C210947   2.805   3.484  14.467  0.0580  0.2029  0.1586
  741TMC3    C310948   2.802   3.463  14.599 -0.1812 -0.1197  0.2086
  741TMC3    C410949   2.823   3.718  14.507 -0.2313 -0.4425  0.9518
  741TMC3    C510950   2.835   3.691  14.638  0.2274 -0.4513 -0.8680
  741TMC3    C610951   2.827   3.564  14.684 -0.5727  0.0345  0.2771
  741TMC3     C10952   2.673   3.640  14.345  0.1671  0.2025  0.4581
  741TMC3     O10953   2.647   3.742  14.285  0.1985 -0.2094 -0.0726
  741TMC3     H10954   2.806   3.402  14.397 -2.0270  0.2958 -0.0018
  741TMC3    H110955   2.813   3.818  14.466 -2.0584  0.4058  3.4553
  741TMC3    H210956   2.850   3.529  14.784 -0.0825  0.6070  0.3648
  741TMC3    C710957   2.868   3.789  14.741 -0.3847 -0.6129 -0.2573
  741TMC3    C810958   2.699   3.366  14.636 -0.5946 -0.3780 -0.8258
  741TMC3    O110959   2.871   3.740  14.851 -0.5517 -0.0677 -0.3778
  741TMC3    O210960   2.630   3.322  14.545  0.7788  0.9219  0.0439
  742TMC3    C110961   2.429   2.017  15.265  0.7677  0.1137 -0.2295
  742TMC3    C210962   2.364   1.960  15.156 -0.8139 -0.1727  0.4494
  742TMC3    C310963   2.434   1.916  15.042  0.0303  0.1101  0.2550
  742TMC3    C410964   2.563   2.042  15.263  0.1146 -0.1449  0.4505
  742TMC3    C510965   2.635   2.009  15.150 -0.3401  0.0350 -0.0534
  742TMC3    C610966   2.570   1.945  15.044  0.0132 -0.2292 -0.0414
  742TMC3     C10967   2.369   1.982  15.396 -0.9096  0.1669 -1.0882
  742TMC3     O10968   2.251   1.964  15.395 -0.3407 -0.4233  0.1694
  742TMC3     H10969   2.266   1.923  15.181 -0.8008 -0.6340 -0.1681
  742TMC3    H110970   2.609   2.097  15.344  0.4504  2.3684 -1.4570
  742TMC3    H210971   2.638   1.912  14.966 -2.5489 -0.4807 -2.1528
  742TMC3    C710972   2.776   1.975  15.174 -0.3944 -0.4073  0.2663
  742TMC3    C810973   2.364   1.887  14.916  0.0859 -0.0531  0.0927
  742TMC3    O110974   2.827   1.892  15.098  0.2901 -0.3518 -0.2495
  742TMC3    O210975   2.428   1.838  14.826 -0.2318 -0.5032 -0.3295
  743MPD2     C10976   0.609   1.603   1.247 -0.6090 -0.3738 -0.1940
  743MPD2    C110977   0.544   1.721   1.232 -0.3817  0.0118  0.8346
  743MPD2    C210978   0.589   1.829   1.298  0.0736 -0.5387  0.6068
  743MPD2    C310979   0.694   1.826   1.391 -0.4082  0.8061  0.8978
  743MPD2    C410980   0.756   1.698   1.402  0.5094  0.0179 -0.3981
  743MPD2    C510981   0.715   1.586   1.331 -0.2477  0.0686 -0.7735
  743MPD2     H10982   0.532   1.921   1.301 -1.1607 -1.3164  1.0824
  743MPD2    H110983   0.837   1.682   1.472  1.0288  1.6497 -0.6212
  743MPD2    H210984   0.577   1.516   1.192  0.7375 -1.3855  0.6245
  743MPD2    H310985   0.763   1.490   1.338 -0.2419  0.3213  2.4411
  743MPD2     N10986   0.718   1.936   1.472  0.2012 -0.0175  0.0623
  743MPD2    H510987   0.655   2.015   1.462 -2.5159 -2.2356 -0.3945
  743MPD2    N110988   0.443   1.736   1.139 -0.2137  0.9189  0.2018
  743MPD2    H710989   0.404   1.652   1.099 -1.0939  1.3608  0.1189
  744TMC3    C110990   0.279   1.837   0.998  0.0646  0.0117 -0.2573
  744TMC3    C210991   0.170   1.767   1.039  0.3069 -0.5727  0.1391
  744TMC3    C310992   0.056   1.790   0.970  0.4945  0.0853 -0.5899
  744TMC3    C410993   0.285   1.913   0.890  0.1050 -0.0348 -0.1031
  744TMC3    C510994   0.165   1.934   0.823  0.5511  0.2554 -0.3064
  744TMC3    C610995   0.051   1.872   0.862 -0.1172  0.3149 -0.7112
  744TMC3     C10996   0.387   1.851   1.091  0.3708 -0.1899 -0.2660
  744TMC3     O10997   0.435   1.962   1.089 -0.0862 -0.0264  0.2804
  744TMC3     H10998   0.182   1.716   1.134  3.0184  1.8542  1.1001
  744TMC3    H110999   0.377   1.961   0.859  0.1361 -0.3339 -0.4730
  744TMC3    H211000   4.685   1.903   0.811 -0.1757 -1.5361 -1.7535
  744TMC3    C711001   0.170   2.059   0.755  0.0108 -0.5738 -0.2140
  744TMC3    C811002   4.651   1.762   1.033  0.0419 -0.5711 -0.2262
  744TMC3    O111003   0.276   2.121   0.757  0.4715 -0.1631 -0.1534
  744TMC3    O211004   4.551   1.833   1.009 -0.1345  0.1188 -0.3651
  745TMC3    C111005   3.144   1.906  13.685 -0.6892 -0.3664  0.2638
  745TMC3    C211006   3.080   1.852  13.793  0.0519  0.8366  0.2166
  745TMC3    C311007   2.946   1.812  13.781 -0.4652  0.8043  0.2076
  745TMC3    C411008   3.096   1.903  13.560  0.2355  0.0044  0.0398
  745TMC3    C511009   2.964   1.865  13.545  0.7607 -1.0530 -0.1599
  745TMC3    C611010   2.893   1.816  13.655  0.3378 -0.1493  0.5030
  745TMC3     C11011   3.269   1.975  13.706 -0.3811  0.5120  0.3464
  745TMC3     O11012   3.321   1.948  13.811  0.7202  0.2106  0.3816
  745TMC3     H11013   3.125   1.840  13.891 -3.3451  1.5785  1.8730
  745TMC3    H111014   3.154   1.926  13.471  0.4062 -0.2065  0.0957
  745TMC3    H211015   2.786   1.799  13.645  0.2389 -0.3130  1.7976
  745TMC3    C711016   2.890   1.906  13.427 -0.3335 -0.1243 -0.7963
  745TMC3    C811017   2.858   1.804  13.899 -0.4463  0.4972 -0.3701
  745TMC3    O111018   2.963   1.977  13.355 -0.1717  0.0184  0.2414
  745TMC3    O211019   2.737   1.788  13.873 -0.3977  0.2812  0.0633
  746TMC3    C111020   0.544   3.665  11.090 -0.4266 -0.2699  0.4737
  746TMC3    C211021   0.679   3.646  11.068 -0.0962 -0.2685  0.2170
  746TMC3    C311022   0.722   3.521  11.098 -0.1463  0.2610  0.6742
  746TMC3    C411023   0.467   3.579  11.169 -0.0607 -0.7177 -0.2002
  746TMC3    C511024   0.522   3.456  11.197 -0.4247 -0.6739 -0.3228
  746TMC3    C611025   0.647   3.426  11.159 -0.3673 -0.8201  0.6921
  746TMC3     C11026   0.485   3.786  11.042 -0.6941  1.0281 -0.4512
  746TMC3     O11027   0.403   3.831  11.120 -0.5371  0.1836 -0.1973
  746TMC3     H11028   0.735   3.720  11.012 -1.0368  0.6317  0.4784
  746TMC3    H111029   0.362   3.601  11.186 -0.5021 -2.2100 -0.9826
  746TMC3    H211030   0.687   3.329  11.185  2.6843  0.0535 -0.8621
  746TMC3    C711031   0.428   3.356  11.190 -1.3191 -0.2310  0.5275
  746TMC3    C811032   0.863   3.477  11.063 -0.1949  0.8254 -0.7489
  746TMC3    O111033   0.329   3.372  11.118 -0.2021  0.3316 -0.1115
  746TMC3    O211034   0.897   3.362  11.083 -0.1957 -0.5702 -0.5898
  747TMC3    C111035   3.131   3.539  11.086  0.1201  0.4101  0.3760
  747TMC3    C211036   3.023   3.473  11.151  0.3453 -0.4709 -0.3330
  747TMC3    C311037   2.986   3.532  11.267 -0.4391 -0.0618  0.3485
  747TMC3    C411038   3.205   3.632  11.150 -0.0759 -0.3063  0.4777
  747TMC3    C511039   3.168   3.668  11.274  0.3696  0.4612  0.0222
  747TMC3    C611040   3.047   3.631  11.330  0.3553 -0.0152 -0.7518
  747TMC3     C11041   3.110   3.584  10.944  0.8609 -0.0071  0.9913
  747TMC3     O11042   3.145   3.693  10.910 -0.0947  0.1215 -0.6123
  747TMC3     H11043   2.960   3.401  11.101 -0.7924 -0.3217  0.8739
  747TMC3    H111044   3.289   3.675  11.095  1.3784 -2.2294  1.2024
  747TMC3    H211045   3.019   3.655  11.432  2.2243 -1.8887  0.1897
  747TMC3    C711046   3.233   3.781  11.324  0.5963 -0.3177  0.1318
  747TMC3    C811047   2.886   3.451  11.331 -0.0893  0.2524 -0.3064
  747TMC3    O111048   3.179   3.851  11.411  0.2998 -0.0203 -0.1460
  747TMC3    O211049   2.883   3.333  11.296  0.2896 -0.0300  0.0741
  748MPD2     C11050   3.903   4.205   0.952  0.1090  0.8717  0.2498
  748MPD2    C111051   3.994   4.107   0.966 -0.9485 -0.0241 -0.3810
  748MPD2    C211052   4.125   4.143   0.992 -0.3893 -0.3460 -0.1062
  748MPD2    C311053   4.167   4.280   0.994 -0.1806 -0.3331  1.0389
  748MPD2    C411054   4.069   4.374   0.990 -0.5416 -0.3277  0.0276
  748MPD2    C511055   3.939   4.340   0.967  0.3852 -0.3391  0.3141
  748MPD2     H11056   4.209   4.076   0.995 -0.9541 -1.0661 -0.3772
  748MPD2    H111057   4.093   4.478   1.006 -3.0912  0.1219  0.7746
  748MPD2    H211058   3.802   4.185   0.917  0.8849  1.1915 -2.1868
  748MPD2    H311059   3.859   4.411   0.950  2.1756  2.2704  2.6822
  748MPD2     N11060   4.300   4.304   1.033  0.0487 -0.3216 -0.3104
  748MPD2    H511061   4.367   4.230   1.048  1.4636  1.2415  1.0447
  748MPD2    N111062   3.955   3.972   0.957 -0.2905 -0.3126  0.2024
  748MPD2    H711063   3.864   3.957   0.916 -0.0748 -0.0411 -0.3745
  749TMC3    C111064   4.479   4.424   1.106 -0.8237 -0.1013  0.2088
  749TMC3    C211065   4.508   4.314   1.176 -0.2743 -0.0364  0.1926
  749TMC3    C311066   4.634   4.264   1.185 -0.1839  0.2053  0.5217
  749TMC3    C411067   4.571   4.493   1.043  0.7983 -0.0823 -0.7170
  749TMC3    C511068   4.699   4.443   1.052 -0.3641  0.9726 -0.0895
  749TMC3    C611069   0.005   4.332   1.122  0.4112  0.0506 -0.4821
  749TMC3     C11070   4.352   4.423   1.039 -0.4804  0.0207 -0.3076
  749TMC3     O11071   4.320   4.529   0.984 -1.0378  0.4690 -0.4018
  749TMC3     H11072   4.434   4.266   1.239 -0.7906  1.5406  0.7602
  749TMC3    H111073   4.546   4.588   0.996 -0.0098  0.0985  0.0790
  749TMC3    H211074   0.102   4.285   1.114  0.3672  0.1332 -1.4784
  749TMC3    C711075   0.094   4.529   1.029 -1.1168 -0.6418 -0.1874
  749TMC3    C811076   4.633   4.123   1.153 -0.1176  0.0548 -0.5309
  749TMC3    O111077   0.083   4.646   1.054  0.2643 -0.0681 -0.5792
  749TMC3    O211078   4.527   4.093   1.096 -0.0804 -0.5280 -0.0713
  750MPD2     C11079   0.850   0.867  11.053 -0.0957 -0.0582  0.2867
  750MPD2    C111080   0.721   0.825  11.015  0.6288 -0.0260  1.0704
  750MPD2    C211081   0.704   0.692  10.973 -0.4729 -0.8519 -0.9436
  750MPD2    C311082   0.809   0.602  10.951  0.3814  0.6995 -0.0245
  750MPD2    C411083   0.931   0.653  10.989  0.7090 -0.8420 -0.7178
  750MPD2    C511084   0.956   0.787  11.036 -0.1031 -0.5131  0.0156
  750MPD2     H11085   0.606   0.647  10.969  0.1136 -2.1521 -0.7039
  750MPD2    H111086   1.009   0.585  10.958  1.6286  0.0529 -0.3736
  750MPD2    H211087   0.868   0.965  11.097 -2.9117  0.0988  1.0686
  750MPD2    H311088   1.056   0.817  11.066 -1.5299  1.8816  2.4248
  750MPD2     N11089   0.781   0.466  10.907  0.1843  0.3719 -0.5243
  750MPD2    H511090   0.867   0.412  10.896  0.1911  0.1279  0.7432
  750MPD2    N111091   0.612   0.913  11.046 -0.0628  0.3478  0.1413
  750MPD2    H711092   0.637   1.004  11.083  0.8907 -0.2688  1.0067
  751TMC3    C111093   0.658   0.264  10.858  1.0170  0.6224  0.0465
  751TMC3    C211094   0.538   0.209  10.823 -0.1308  0.7602  0.0264
  751TMC3    C311095   0.534   0.076  10.797 -0.4713 -0.2108  0.3137
  751TMC3    C411096   0.763   0.186  10.875 -0.6478  0.8181 -0.0761
  751TMC3    C511097   0.762   0.059  10.830  0.3260  0.0958 -0.7255
  751TMC3    C611098   0.645   4.723  10.791  0.8757 -0.4763  0.0340
  751TMC3     C11099   0.659   0.409  10.882  0.2669 -0.3909  0.1675
  751TMC3     O11100   0.547   0.457  10.874  0.0473 -0.4093 -0.1586
  751TMC3     H11101   0.453   0.275  10.809 -0.2741  0.5931  0.1129
  751TMC3    H111102   0.856   0.228  10.913  0.6675 -0.6797 -1.6785
  751TMC3    H211103   0.627   4.624  10.753  1.2958 -0.3055 -0.6134
  751TMC3    C711104   0.869   4.687  10.860 -0.1497 -0.1246 -1.2589
  751TMC3    C811105   0.421   0.015  10.735 -0.0847  0.2075 -0.4166
  751TMC3    O111106   0.977   0.002  10.899  0.3854 -0.4602 -0.0490
  751TMC3    O211107   0.430   4.681  10.627 -0.0971 -0.4903  0.7888
  752TMC3    C111108   4.227   0.611  16.931 -0.3642  1.0243  0.0573
  752TMC3    C211109   4.155   0.507  16.965 -0.2792 -0.3359 -0.5412
  752TMC3    C311110   4.133   0.480  17.099 -0.2199  1.0247  1.3261
  752TMC3    C411111   4.279   0.695  17.016  0.1882 -1.0093 -0.1628
  752TMC3    C511112   4.254   0.682  17.150  0.6190  0.4650 -0.2464
  752TMC3    C611113   4.197   0.564  17.191  0.4296 -0.2880  0.1381
  752TMC3     C11114   4.273   0.619  16.792 -0.8050 -0.3787  0.4135
  752TMC3     O11115   4.395   0.640  16.784  0.1955 -0.0604 -1.0654
  752TMC3     H11116   4.126   0.432  16.892 -0.6900  0.6363 -1.3807
  752TMC3    H111117   4.333   0.782  16.981 -0.0438  0.2096  2.4989
  752TMC3    H211118   4.156   0.563  17.292 -3.5115 -2.2664 -1.4895
  752TMC3    C711119   4.350   0.750  17.238  0.1920  0.0959  0.3610
  752TMC3    C811120   4.053   0.356  17.129  0.1179  0.1775 -0.7065
  752TMC3    O111121   4.367   0.870  17.229 -0.0183 -0.0656  0.5478
  752TMC3    O211122   4.035   0.269  17.042 -0.5878  0.0701 -0.0544
  753TMC3    C111123   1.428   2.002  13.345  0.7818 -0.3446 -0.3418
  753TMC3    C211124   1.550   1.979  13.399 -1.1768  0.1573  0.3947
  753TMC3    C311125   1.626   1.869  13.369 -0.0679 -0.2897  0.1928
  753TMC3    C411126   1.364   1.905  13.279 -0.2379 -0.0450 -0.4115
  753TMC3    C511127   1.427   1.786  13.272 -0.0511  0.1539  0.0696
  753TMC3    C611128   1.562   1.766  13.307  0.7030 -0.0706  0.8344
  753TMC3     C11129   1.386   2.136  13.320 -0.1692  0.0971 -0.1025
  753TMC3     O11130   1.268   2.148  13.286  0.3142  0.0952 -0.0204
  753TMC3     H11131   1.591   2.065  13.451 -0.4871 -0.6534  1.1856
  753TMC3    H111132   1.264   1.920  13.241  0.0994 -0.6932 -1.5749
  753TMC3    H211133   1.617   1.676  13.283 -0.0065  0.2478 -1.9662
  753TMC3    C711134   1.347   1.672  13.235 -0.2273  1.7280  0.0266
  753TMC3    C811135   1.755   1.838  13.428  0.0551  0.9090 -0.0502
  753TMC3    O111136   1.410   1.572  13.206 -0.1329  0.6129 -0.3040
  753TMC3    O211137   1.809   1.740  13.375 -0.1030  0.1262  0.3394
  754MPD2     C11138   4.272   0.638  12.744  0.4024 -0.2881 -0.0472
  754MPD2    C111139   4.255   0.516  12.812 -0.2040  0.2395 -0.2134
  754MPD2    C211140   4.138   0.507  12.885 -0.0670  0.3888 -0.4478
  754MPD2    C311141   4.046   0.612  12.909  0.1406  0.2339 -0.1750
  754MPD2    C411142   4.078   0.732  12.854  0.0845 -0.0807 -0.1685
  754MPD2    C511143   4.194   0.742  12.781  0.1773  0.1063  0.2046
  754MPD2     H11144   4.109   0.416  12.937  0.9607  1.9729  2.9292
  754MPD2    H111145   4.016   0.821  12.865  0.4585  0.0391  0.9174
  754MPD2    H211146   4.358   0.656  12.681  0.1863  1.7180  0.2404
  754MPD2    H311147   4.226   0.842  12.755  1.6284 -0.1005  1.2211
  754MPD2     N11148   3.946   0.583  13.001 -0.6556  0.1935  0.4946
  754MPD2    H511149   3.949   0.492  13.046 -1.2443 -0.0018  0.1418
  754MPD2    N111150   4.347   0.412  12.801 -0.2433  0.2550 -0.1701
  754MPD2    H711151   4.426   0.422  12.738 -0.7452  1.4824 -0.6041
  755MPD2     C11152   4.302   0.885  13.859 -0.6506  0.6858  0.1540
  755MPD2    C111153   4.184   0.942  13.814 -0.8785  0.8879  0.5936
  755MPD2    C211154   4.118   0.893  13.707 -0.1006 -0.1555  0.2838
  755MPD2    C311155   4.162   0.780  13.641  0.0557  0.2773  0.5198
  755MPD2    C411156   4.280   0.722  13.684  0.7248  0.7478  0.0193
  755MPD2    C511157   4.347   0.779  13.786  0.1013  0.7868  0.5620
  755MPD2     H11158   4.029   0.948  13.679 -0.5704 -1.1134 -0.1163
  755MPD2    H111159   4.326   0.636  13.636  1.3308  1.1452 -0.1055
  755MPD2    H211160   4.357   0.912  13.949  0.8122  1.1435 -0.8846
  755MPD2    H311161   4.437   0.725  13.814  0.0238  0.6129  0.4743
  755MPD2     N11162   4.086   0.719  13.535  0.1019  0.1462 -0.5535
  755MPD2    H511163   4.113   0.625  13.506 -0.2517 -0.5499  1.3974
  755MPD2    N111164   4.120   1.045  13.889 -0.1396 -0.5137  0.3737
  755MPD2    H711165   4.024   1.065  13.863 -0.0671 -1.6010 -0.7096
  756MPD2     C11166   0.591   1.099   9.260  0.3432  0.1468 -0.0843
  756MPD2    C111167   0.648   1.052   9.372 -0.2629 -0.2775  0.0686
  756MPD2    C211168   0.648   0.912   9.397 -0.5660 -0.9869 -0.1776
  756MPD2    C311169   0.586   0.826   9.306 -0.9426 -0.7802  0.2570
  756MPD2    C411170   0.536   0.879   9.187 -0.2903 -0.6604 -0.1533
  756MPD2    C511171   0.529   1.015   9.168 -0.5931  0.4408 -0.7891
  756MPD2     H11172   0.687   0.873   9.489  0.3660 -1.0997 -0.6251
  756MPD2    H111173   0.500   0.817   9.105  1.4091 -1.1648 -0.5237
  756MPD2    H211174   0.593   1.204   9.236  0.4384 -0.0310 -0.8762
  756MPD2    H311175   0.490   1.054   9.075  2.3349  0.5091 -1.9931
  756MPD2     N11176   0.582   0.688   9.329 -0.3723 -0.4545 -0.1031
  756MPD2    H511177   0.624   0.665   9.419 -0.2606 -0.3474 -0.1281
  756MPD2    N111178   0.706   1.136   9.471 -0.1655 -0.2364  0.3844
  756MPD2    H711179   0.758   1.083   9.540 -0.1702 -1.9924 -0.9483
  757MPD2     C11180   0.727   4.349   9.201 -0.1016  0.3217 -0.3467
  757MPD2    C111181   0.603   4.353   9.267 -0.3540 -0.2727  0.0516
  757MPD2    C211182   0.551   4.486   9.283  0.1084  0.1974  0.1671
  757MPD2    C311183   0.607   4.601   9.228 -0.4977 -0.3480 -0.3215
  757MPD2    C411184   0.713   4.581   9.146  0.6209 -0.0069 -0.0400
  757MPD2    C511185   0.770   4.455   9.132  0.6181 -0.4749 -0.4468
  757MPD2     H11186   0.466   4.500   9.349 -0.3113 -3.0025  0.2844
  757MPD2    H111187   0.748   4.659   9.080 -3.0066  0.2294 -1.6819
  757MPD2    H211188   0.781   4.261   9.167  0.1327  0.6436 -0.8119
  757MPD2    H311189   0.864   4.445   9.078 -0.3711 -1.2352 -2.0321
  757MPD2     N11190   0.554   0.002   9.257 -0.3553  0.1632 -0.8629
  757MPD2    H511191   0.486   4.718   9.332  0.8624  1.0379  0.3296
  757MPD2    N111192   0.552   4.224   9.318 -0.0129 -0.2274 -0.1935
  757MPD2    H711193   0.610   4.141   9.311  0.4408  0.1764 -1.2932
  758MPD2     C11194   0.537   3.948  16.060 -0.1484  0.9467  0.4071
  758MPD2    C111195   0.577   3.973  16.190  0.4277 -0.1445  0.2279
  758MPD2    C211196   0.492   3.942  16.294  0.7996 -0.1840  0.1324
  758MPD2    C311197   0.363   3.907  16.263 -0.1072 -0.7402 -0.2568
  758MPD2    C411198   0.331   3.874  16.134 -0.1617 -0.3833  0.9353
  758MPD2    C511199   0.414   3.903  16.028  0.1012  0.6003 -0.1192
  758MPD2     H11200   0.515   3.969  16.397 -0.6838  1.8340 -0.0554
  758MPD2    H111201   0.230   3.846  16.108  0.9658 -3.7463  0.2016
  758MPD2    H211202   0.601   3.986  15.981 -0.4934  1.3790  0.3337
  758MPD2    H311203   0.387   3.887  15.924 -0.4302 -1.2632  0.3012
  758MPD2     N11204   0.261   3.896  16.359  0.6538 -0.2065 -0.5589
  758MPD2    H511205   0.168   3.868  16.331  0.6916  0.9410 -1.8655
  758MPD2    N111206   0.700   4.029  16.208  0.2421  0.1601 -0.2810
  758MPD2    H711207   0.746   4.054  16.121 -2.0861  0.2558 -1.4992
  759MPD2     C11208   4.143   2.547   9.886  0.0602  0.3095 -0.0571
  759MPD2    C111209   4.143   2.598  10.020 -0.0716  0.0538 -0.0675
  759MPD2    C211210   4.152   2.732  10.033  0.4361  0.1657 -0.7008
  759MPD2    C311211   4.164   2.815   9.923 -0.2869 -0.2626  0.4816
  759MPD2    C411212   4.168   2.767   9.795  0.4114 -0.1013 -0.4239
  759MPD2    C511213   4.158   2.630   9.780 -0.4144  0.2572  1.2080
  759MPD2     H11214   4.165   2.769  10.134  0.8821 -3.2035  0.4799
  759MPD2    H111215   4.177   2.832   9.709 -0.2004  2.2974  1.3178
  759MPD2    H211216   4.159   2.442   9.864 -0.2558 -0.0995  1.6571
  759MPD2    H311217   4.167   2.587   9.681 -0.9194 -1.5963  1.9658
  759MPD2     N11218   4.177   2.957   9.950 -0.5847 -0.0601  0.1953
  759MPD2    H511219   4.198   2.977  10.047 -1.4692 -0.0781  0.3921
  759MPD2    N111220   4.146   2.522  10.138 -0.3242  0.3417  0.5506
  759MPD2    H711221   4.157   2.579  10.221 -0.1803 -0.4201  1.0549
  760MPD2     C11222   3.247   0.694  11.985  0.1252  0.0572  0.5434
  760MPD2    C111223   3.385   0.723  12.016 -0.5069  0.1268  0.5484
  760MPD2    C211224   3.449   0.634  12.106 -0.7216 -0.3718  0.2831
  760MPD2    C311225   3.383   0.521  12.153 -0.5225  0.1689 -0.5254
  760MPD2    C411226   3.249   0.497  12.121 -0.6693 -0.3549 -0.0913
  760MPD2    C511227   3.187   0.581  12.036  0.4807  0.8269  0.0898
  760MPD2     H11228   3.554   0.649  12.130 -0.0736 -2.7024 -1.1186
  760MPD2    H111229   3.189   0.416  12.161 -1.1641  0.2832  0.4535
  760MPD2    H211230   3.186   0.762  11.926  1.5752  1.1380  0.3069
  760MPD2    H311231   3.085   0.566  12.002  1.2504 -0.1968 -1.7246
  760MPD2     N11232   3.445   0.420  12.236 -0.5218  0.3172  0.2243
  760MPD2    H511233   3.397   0.335  12.264  0.2363 -0.5585 -1.1321
  760MPD2    N111234   3.457   0.827  11.962 -0.0074  0.1414  0.0078
  760MPD2    H711235   3.547   0.839  12.008  1.3271  0.5245 -2.6797
  761MPD2     C11236   0.056   4.423  10.890 -0.5388  0.4655 -0.1555
  761MPD2    C111237   0.139   4.430  10.772 -0.3265  0.3035 -0.1846
  761MPD2    C211238   0.213   4.537  10.744 -0.0162  0.3110 -0.0497
  761MPD2    C311239   0.210   4.648  10.826 -0.5731 -0.8078  0.6535
  761MPD2    C411240   0.119   4.647  10.933  0.1388  0.2311  0.5904
  761MPD2    C511241   0.041   4.540  10.959  0.0454 -0.2475  0.1071
  761MPD2     H11242   0.291   4.516  10.672  1.5290  0.5153  1.5376
  761MPD2    H111243   0.109   0.003  11.007 -4.2821  0.1677  0.0660
  761MPD2    H211244   0.009   4.331  10.922  2.7651 -1.2574 -0.2837
  761MPD2    H311245   4.703   4.548  11.047  0.4879  1.4217  0.2662
  761MPD2     N11246   0.312   0.022  10.824 -0.2037 -0.4294  0.0624
  761MPD2    H511247   0.304   0.091  10.897 -0.0843  0.2318 -0.5497
  761MPD2    N111248   0.160   4.305  10.701 -0.1495 -0.8821  0.0309
  761MPD2    H711249   0.136   4.224  10.758  1.0549 -2.2650 -1.4184
  762MPD2     C11250   0.665   4.286  10.125 -0.5823  0.0651  0.9670
  762MPD2    C111251   0.644   4.167  10.188  0.2300  0.7783 -0.2259
  762MPD2    C211252   0.752   4.094  10.214 -0.0170  0.8621  0.1387
  762MPD2    C311253   0.884   4.140  10.183  0.0739  0.0474 -0.6755
  762MPD2    C411254   0.900   4.245  10.101  0.1858 -0.3657 -0.2381
  762MPD2    C511255   0.784   4.317  10.072  0.1391  0.3371  0.1658
  762MPD2     H11256   0.747   4.011  10.283 -0.2743 -1.4479 -2.6826
  762MPD2    H111257   1.000   4.279  10.074  1.0946 -0.7524  2.6366
  762MPD2    H211258   0.574   4.338  10.098 -1.7725 -2.5768 -0.0660
  762MPD2    H311259   0.800   4.402  10.007  0.1305 -0.4363 -0.8513
  762MPD2     N11260   0.996   4.077  10.245  0.1320  0.5276 -0.1572
  762MPD2    H511261   0.980   3.984  10.283 -1.3266  1.9090  2.6182
  762MPD2    N111262   0.512   4.129  10.231 -0.6278 -0.2340 -1.1324
  762MPD2    H711263   0.440   4.197  10.212 -0.2729  0.0883 -1.3261
  763MPD2     C11264   1.887   0.092  16.218 -1.1775  0.5388 -0.0964
  763MPD2    C111265   2.002   0.156  16.182 -0.3950 -0.4504  0.1826
  763MPD2    C211266   2.041   0.258  16.266 -0.4958 -0.4945 -0.0896
  763MPD2    C311267   1.977   0.299  16.379  0.4024  0.4013 -0.0441
  763MPD2    C411268   1.857   0.231  16.409  0.6490  0.5367  0.7588
  763MPD2    C511269   1.821   0.122  16.335  0.3456  0.3017  0.0235
  763MPD2     H11270   2.136   0.304  16.242 -1.4433  1.4932 -0.0585
  763MPD2    H111271   1.790   0.266  16.487 -1.1829 -1.0802 -0.1098
  763MPD2    H211272   1.851   0.021  16.145  0.8787 -0.3506 -0.2667
  763MPD2    H311273   1.724   0.073  16.340  0.8666 -0.6675  0.8104
  763MPD2     N11274   2.029   0.404  16.457 -0.0856  0.0652 -0.5831
  763MPD2    H511275   2.121   0.433  16.425  1.8662 -2.0156  3.0939
  763MPD2    N111276   2.068   0.137  16.061 -0.3901  0.6151  0.5999
  763MPD2    H711277   2.131   0.212  16.037 -1.2629  0.7065 -1.3704
  764MPD2     C11278   4.663   1.517  17.112  0.6238  0.9016 -0.5183
  764MPD2    C111279   4.594   1.401  17.093 -0.0018 -0.2190  0.0941
  764MPD2    C211280   4.557   1.324  17.204  1.2216 -0.0153 -0.3045
  764MPD2    C311281   4.609   1.355  17.326  0.1204  0.6484  0.2005
  764MPD2    C411282   4.699   1.461  17.339 -0.1564 -0.2472 -0.0221
  764MPD2    C511283   4.716   1.546  17.234  0.1180  1.0156  0.5713
  764MPD2     H11284   4.496   1.236  17.185  3.0203 -1.3956  0.2657
  764MPD2    H111285   0.029   1.501  17.425 -0.1956  1.2612 -0.6905
  764MPD2    H211286   4.690   1.582  17.030  1.0662 -1.5224 -2.2783
  764MPD2    H311287   0.048   1.638  17.238  0.6996  0.6858 -0.0473
  764MPD2     N11288   4.561   1.291  17.443 -0.2758  0.2379  0.3530
  764MPD2    H511289   4.477   1.234  17.436 -0.7982  1.2022 -1.3771
  764MPD2    N111290   4.529   1.364  16.977 -0.4190 -0.3835 -0.2713
  764MPD2    H711291   4.482   1.275  16.987 -0.0215 -0.1870  3.2448
  765MPD2     C11292   4.490   3.843  15.831  0.6483  0.1439  0.2878
  765MPD2    C111293   4.562   3.961  15.832 -0.0921 -0.3327  0.0214
  765MPD2    C211294   4.696   3.949  15.791 -0.1127  0.3171  0.6472
  765MPD2    C311295   0.024   3.834  15.735 -0.0753 -0.0019  0.1602
  765MPD2    C411296   4.659   3.726  15.718  0.1596  0.0745 -0.1846
  765MPD2    C511297   4.538   3.729  15.779  0.3882  0.2079 -0.3138
  765MPD2     H11298   0.033   4.039  15.797  1.1316 -0.4496 -0.5557
  765MPD2    H111299   4.685   3.634  15.668 -0.7823  0.0026 -0.5417
  765MPD2    H211300   4.392   3.843  15.876  1.2859 -0.3853  1.6965
  765MPD2    H311301   4.480   3.637  15.777 -0.3316  0.6116  2.5550
  765MPD2     N11302   0.153   3.831  15.684  0.1638 -1.0783 -0.2681
  765MPD2    H511303   0.212   3.909  15.711 -1.0715  0.0237 -0.7683
  765MPD2    N111304   4.496   4.078  15.856  0.1982  0.4578 -0.3943
  765MPD2    H711305   4.395   4.073  15.861  0.1506  0.3244 -1.5939
  766MPD2     C11306   4.236   4.041  15.332 -0.0970  0.0915 -0.4520
  766MPD2    C111307   4.298   4.160  15.350 -0.0096 -0.1819  0.6633
  766MPD2    C211308   4.374   4.216  15.250  0.2457  0.4410 -0.1017
  766MPD2    C311309   4.401   4.153  15.130 -0.6454  0.2989  0.5245
  766MPD2    C411310   4.343   4.033  15.110 -0.2441  0.4128  0.6611
  766MPD2    C511311   4.264   3.983  15.206  0.1813 -0.2111  0.5949
  766MPD2     H11312   4.420   4.313  15.264  2.6179 -0.2908 -2.9440
  766MPD2    H111313   4.356   3.973  15.021  2.2630 -0.6102  1.7147
  766MPD2    H211314   4.169   3.988  15.398 -1.0794 -1.9436 -3.0679
  766MPD2    H311315   4.206   3.895  15.180 -2.9130  1.3291  2.2177
  766MPD2     N11316   4.478   4.221  15.033 -0.2027 -0.9820 -0.4911
  766MPD2    H511317   4.479   4.182  14.939 -3.3010 -1.4866 -0.3170
  766MPD2    N111318   4.276   4.224  15.475 -0.2005  0.2732  0.3889
  766MPD2    H711319   4.244   4.172  15.556 -1.8412 -0.5111 -0.7586
  767MPD2     C11320   4.074   4.439  15.187  0.4078  0.5143  0.6137
  767MPD2    C111321   4.174   4.501  15.107 -0.0097  0.6622 -0.0810
  767MPD2    C211322   4.160   4.511  14.971  0.6353  0.0209  0.1779
  767MPD2    C311323   4.054   4.452  14.908 -0.4864 -0.3293  0.1212
  767MPD2    C411324   3.953   4.388  14.984  0.1533 -0.4100 -0.5276
  767MPD2    C511325   3.967   4.382  15.122  0.5695 -0.0883 -0.5444
  767MPD2     H11326   4.244   4.545  14.912  0.5733  1.8274  1.1258
  767MPD2    H111327   3.858   4.353  14.945  0.2557 -0.7641 -0.4583
  767MPD2    H211328   4.086   4.425  15.294  0.6874  0.6416  0.5987
  767MPD2    H311329   3.895   4.323  15.177  0.5284  1.4047  1.0166
  767MPD2     N11330   4.059   4.449  14.763  0.0551  0.3592 -0.4435
  767MPD2    H511331   4.146   4.465  14.715 -0.4877 -0.8949 -1.8506
  767MPD2    N111332   4.286   4.549  15.171 -0.2922  0.6981  0.0674
  767MPD2    H711333   4.303   4.518  15.266  2.0027  0.0907 -0.5370
  768MPD2     C11334   0.489   3.000  10.793  0.9926 -0.1458  0.3051
  768MPD2    C111335   0.420   2.922  10.876  0.5435  0.7890 -0.2811
  768MPD2    C211336   0.478   2.886  10.994 -0.2629 -0.1869 -0.1206
  768MPD2    C311337   0.607   2.928  11.029 -0.5547 -0.0525  0.3644
  768MPD2    C411338   0.680   2.992  10.937 -0.0195 -0.6716  0.1510
  768MPD2    C511339   0.621   3.030  10.825  0.4729 -0.1181  0.2006
  768MPD2     H11340   0.413   2.830  11.060  0.8391 -1.1608  0.1440
  768MPD2    H111341   0.783   3.018  10.956  0.3740 -1.0024 -1.4836
  768MPD2    H211342   0.458   3.042  10.698  1.2728  2.0049  1.1772
  768MPD2    H311343   0.672   3.090  10.750 -0.3947  0.8233  0.3623
  768MPD2     N11344   0.656   2.918  11.160  0.4283  0.8104  0.1244
  768MPD2    H511345   0.743   2.969  11.170  0.5044  0.3055  1.9852
  768MPD2    N111346   0.288   2.886  10.859  0.4263  0.8208  0.6732
  768MPD2    H711347   0.244   2.841  10.939 -0.6756 -0.1275 -0.4685
  769MPD2     C11348   1.046   1.075  15.022 -0.3749  0.6124  0.2385
  769MPD2    C111349   0.964   1.079  15.136  0.2518 -0.1726  0.4470
  769MPD2    C211350   1.018   1.120  15.254  0.0303 -0.8975  0.7491
  769MPD2    C311351   1.152   1.137  15.267  0.6306  0.4616  0.1974
  769MPD2    C411352   1.239   1.118  15.158  0.5228  0.2723  0.3347
  769MPD2    C511353   1.180   1.097  15.033  0.4672  0.1640  0.2382
  769MPD2     H11354   0.955   1.138  15.340 -0.0744  0.7180  0.3370
  769MPD2    H111355   1.346   1.128  15.172  0.5057  0.2324  0.4910
  769MPD2    H211356   1.018   1.042  14.923 -1.1976  2.1439 -0.0464
  769MPD2    H311357   1.243   1.103  14.945  0.2057 -0.4580  0.0105
  769MPD2     N11358   1.200   1.153  15.399  0.2868 -0.2907  0.2023
  769MPD2    H511359   1.124   1.156  15.466  2.0718  0.0805  2.2204
  769MPD2    N111360   0.824   1.065  15.112  0.6353 -0.1294  0.2427
  769MPD2    H711361   0.790   1.034  15.022 -0.0453 -0.8029  0.7284
  770MPD2     C11362   0.349   0.412  15.458  0.2699  0.1488 -0.3960
  770MPD2    C111363   0.470   0.443  15.406  1.0627 -0.3538  0.1681
  770MPD2    C211364   0.490   0.567  15.348 -0.2955  0.3201  0.2186
  770MPD2    C311365   0.383   0.655  15.335 -0.0739 -0.2162  0.1783
  770MPD2    C411366   0.255   0.620  15.376 -1.6399 -1.0000 -0.5005
  770MPD2    C511367   0.248   0.505  15.449  0.3405 -0.6189 -0.0858
  770MPD2     H11368   0.585   0.599  15.307 -0.9737  2.4092  0.2510
  770MPD2    H111369   0.171   0.686  15.358 -1.4792 -0.5065  0.5511
  770MPD2    H211370   0.332   0.326  15.521  0.6145 -0.8110 -1.6097
  770MPD2    H311371   0.158   0.477  15.503 -0.7344  2.3728 -0.3748
  770MPD2     N11372   0.412   0.777  15.267  0.0421 -0.0057 -0.5739
  770MPD2    H511373   0.509   0.801  15.249  0.2714 -0.4858  0.0445
  770MPD2    N111374   0.578   0.350  15.425 -0.0090  0.8148  0.5264
  770MPD2    H711375   0.554   0.257  15.458 -0.8359  1.7565  2.5808
  771MPD2     C11376   1.952   3.574  13.347  0.5504 -0.3264  0.3755
  771MPD2    C111377   1.858   3.671  13.346 -0.4670  0.5131  0.5736
  771MPD2    C211378   1.757   3.650  13.256 -0.2106  0.6876  0.5475
  771MPD2    C311379   1.757   3.550  13.152  0.1209 -0.7049  0.1763
  771MPD2    C411380   1.861   3.460  13.156  0.3392  0.0171  0.1307
  771MPD2    C511381   1.959   3.469  13.253  0.1665 -0.2427 -0.2947
  771MPD2     H11382   1.670   3.714  13.252  0.3502  1.2938 -1.8436
  771MPD2    H111383   1.873   3.382  13.082  1.2404 -0.5697  0.9099
  771MPD2    H211384   2.030   3.562  13.422  1.1992  2.6194  0.1549
  771MPD2    H311385   2.043   3.401  13.246 -0.9204 -1.6202  0.1009
  771MPD2     N11386   1.657   3.545  13.060 -0.1001  0.2220 -0.0335
  771MPD2    H511387   1.579   3.608  13.075 -2.1285 -2.0774 -0.9121
  771MPD2    N111388   1.854   3.784  13.420 -0.1431  0.2328  1.0627
  771MPD2    H711389   1.774   3.845  13.402  0.8858  1.5411  0.9248
  772MPD2     C11390   1.656   4.212  14.131  0.5305 -0.2060 -0.0062
  772MPD2    C111391   1.602   4.206  14.005  0.3604 -0.4473  0.1197
  772MPD2    C211392   1.484   4.274  13.973 -0.1217 -0.0776  0.1383
  772MPD2    C311393   1.406   4.326  14.071 -0.6492  0.3501 -0.1813
  772MPD2    C411394   1.463   4.329  14.195  0.8756  0.8307  0.0177
  772MPD2    C511395   1.588   4.286  14.226  0.2703 -0.1678 -0.0441
  772MPD2     H11396   1.449   4.289  13.871 -0.1981 -2.3207 -0.1635
  772MPD2    H111397   1.414   4.369  14.284  0.2804 -3.2912  1.5586
  772MPD2    H211398   1.755   4.173  14.152  1.3213  0.5917 -2.2806
  772MPD2    H311399   1.638   4.296  14.321 -0.6878 -2.8528  0.7264
  772MPD2     N11400   1.285   4.398  14.053  0.7283 -0.5378  0.6379
  772MPD2    H511401   1.239   4.439  14.134  0.1314  0.3745 -0.1686
  772MPD2    N111402   1.677   4.163  13.896 -0.3041  0.7060 -0.2783
  772MPD2    H711403   1.650   4.191  13.803  1.3313  0.7459 -0.7359
  773MPD2     C11404   0.919   0.393   0.553  0.3003 -0.0205  0.4772
  773MPD2    C111405   0.896   0.296   0.459  0.0319 -1.1273  0.1073
  773MPD2    C211406   0.968   0.174   0.471  0.2738  0.1408  0.3599
  773MPD2    C311407   1.076   0.158   0.556  0.3546 -0.3995  0.5142
  773MPD2    C411408   1.096   0.261   0.644 -0.1780  0.0414  0.2708
  773MPD2    C511409   1.021   0.371   0.643  0.2638  0.1802  0.5765
  773MPD2     H11410   0.946   0.091   0.405  0.4962 -0.6260  1.2588
  773MPD2    H111411   1.183   0.267   0.709 -0.0896 -3.6407  0.5241
  773MPD2    H211412   0.861   0.484   0.564 -0.5881 -0.3254 -1.7092
  773MPD2    H311413   1.040   0.446   0.718 -0.6508  0.7803  0.2042
  773MPD2     N11414   1.167   0.047   0.549 -0.3668 -0.2252 -0.6004
  773MPD2    H511415   1.145   4.693   0.489 -0.1242 -0.1453 -0.7957
  773MPD2    N111416   0.799   0.308   0.353 -0.1874  0.2508  0.3626
  773MPD2    H711417   0.773   0.226   0.298 -0.5601 -0.3185  1.3965
  774MPD2     C11418   4.269   4.304  13.363 -0.5655 -0.1952 -0.2857
  774MPD2    C111419   4.336   4.410  13.419 -0.4043 -0.1743  0.4209
  774MPD2    C211420   4.387   4.512  13.333 -0.2818  0.1958 -0.6954
  774MPD2    C311421   4.360   4.510  13.197  0.0427  0.3109 -0.8184
  774MPD2    C411422   4.291   4.401  13.143  0.3036 -0.0579  0.0984
  774MPD2    C511423   4.245   4.297  13.226  0.5065  0.2157 -0.3120
  774MPD2     H11424   4.448   4.595  13.365  3.8786 -2.5232 -1.5428
  774MPD2    H111425   4.263   4.386  13.040  0.7835  0.7639 -0.1538
  774MPD2    H211426   4.223   4.240  13.437 -2.2909  1.6304  0.2366
  774MPD2    H311427   4.185   4.213  13.192 -3.1183  3.3330 -1.6046
  774MPD2     N11428   4.418   4.610  13.116  0.0209  0.4586 -0.5766
  774MPD2    H511429   4.451   4.693  13.164  3.1063 -0.6135 -0.8191
  774MPD2    N111430   4.358   4.406  13.554 -1.0258  0.0594 -0.2690
  774MPD2    H711431   4.310   4.333  13.605  2.3698 -0.4354  2.1490
  775MPD2     C11432   1.683   0.756  15.936  0.4085 -0.5948  0.6870
  775MPD2    C111433   1.655   0.875  16.002  0.1666 -0.5447  0.4606
  775MPD2    C211434   1.710   0.993  15.952 -0.0847  0.0581  0.3080
  775MPD2    C311435   1.799   0.985  15.848  0.1237 -0.2688 -0.3437
  775MPD2    C411436   1.830   0.862  15.789 -0.2858  0.3705  0.7794
  775MPD2    C511437   1.773   0.751  15.824 -0.5538 -0.2692 -0.3650
  775MPD2     H11438   1.695   1.089  16.001 -1.9206 -0.3534  0.5448
  775MPD2    H111439   1.888   0.859  15.697 -0.6284  0.8792  0.5460
  775MPD2    H211440   1.639   0.662  15.969 -0.0122 -0.8447 -0.5771
  775MPD2    H311441   1.777   0.655  15.774  3.1844 -0.5529  0.4657
  775MPD2     N11442   1.856   1.105  15.787  0.1804 -0.4131  0.3507
  775MPD2    H511443   1.926   1.088  15.717 -0.9526 -1.4211 -0.5322
  775MPD2    N111444   1.568   0.862  16.111 -0.0308  0.0401  0.0739
  775MPD2    H711445   1.512   0.777  16.118 -1.3049  0.7648 -1.2444
  776MPD2     C11446   0.539   1.263  11.691 -0.1302 -0.2463  0.5134
  776MPD2    C111447   0.505   1.308  11.571  0.1729  0.3364  0.5045
  776MPD2    C211448   0.532   1.444  11.535 -0.0667  0.5359  0.1685
  776MPD2    C311449   0.606   1.522  11.623 -0.1801  0.5543 -0.1143
  776MPD2    C411450   0.645   1.472  11.742  0.2196 -0.5797 -0.1134
  776MPD2    C511451   0.613   1.346  11.773 -0.0949  0.5093  0.4713
  776MPD2     H11452   0.498   1.476  11.438 -2.4932 -1.8651  0.2509
  776MPD2    H111453   0.709   1.533  11.805  2.7294 -0.5317 -2.6933
  776MPD2    H211454   0.519   1.164  11.730 -3.0420 -0.4143 -1.4432
  776MPD2    H311455   0.648   1.305  11.867 -0.1197  3.4681  1.7624
  776MPD2     N11456   0.653   1.655  11.596  0.6472 -0.2418 -0.0359
  776MPD2    H511457   0.708   1.690  11.674  0.2331 -1.7553  0.9424
  776MPD2    N111458   0.458   1.217  11.478  0.3387 -0.2240  0.4652
  776MPD2    H711459   0.432   1.129  11.520 -0.6414  0.3246  1.0112
  777MPD2     C11460   0.903   3.107   1.074 -0.0162 -0.0758  0.4261
  777MPD2    C111461   0.815   3.184   1.001  0.2549 -0.1388  0.1555
  777MPD2    C211462   0.751   3.127   0.892 -0.7410 -0.1524 -0.0801
  777MPD2    C311463   0.772   2.994   0.866 -0.1764 -0.3953  0.2944
  777MPD2    C411464   0.864   2.920   0.937  0.2064  0.1787  0.0327
  777MPD2    C511465   0.931   2.976   1.044  0.1938 -0.7313 -1.0670
  777MPD2     H11466   0.678   3.183   0.835 -0.4269  2.1469  1.7623
  777MPD2    H111467   0.889   2.815   0.922 -0.6857 -0.1237  0.6912
  777MPD2    H211468   0.936   3.138   1.172  3.1232  0.8734 -0.9369
  777MPD2    H311469   1.000   2.922   1.108 -0.4720 -0.9558 -0.5345
  777MPD2     N11470   0.692   2.931   0.766 -0.5038  0.1489  0.7920
  777MPD2    H511471   0.652   2.992   0.695  0.1292  0.2744  0.5418
  777MPD2    N111472   0.794   3.322   1.036 -0.1829  0.1503 -0.4337
  777MPD2    H711473   0.849   3.346   1.117  0.5938 -1.4504 -0.4906
  778MPD2     C11474   1.885   3.444  15.465  0.1636 -0.6624  0.4152
  778MPD2    C111475   1.835   3.482  15.343 -0.4387  0.5698 -0.4580
  778MPD2    C211476   1.913   3.575  15.271  0.3194  0.2908  0.0131
  778MPD2    C311477   2.036   3.621  15.317  0.0542 -0.1307  0.1696
  778MPD2    C411478   2.087   3.573  15.432 -0.0176 -0.1420 -0.2454
  778MPD2    C511479   2.005   3.493  15.511  0.2471  0.2054 -0.5881
  778MPD2     H11480   1.870   3.596  15.174  0.4963 -1.5327 -0.4735
  778MPD2    H111481   2.184   3.606  15.469 -0.8281  1.7778  0.1374
  778MPD2    H211482   1.839   3.363  15.520 -2.1140  0.1128 -0.3413
  778MPD2    H311483   2.046   3.448  15.601  1.7003  1.0766 -0.8260
  778MPD2     N11484   2.104   3.711  15.238 -0.6164 -0.0332  0.1095
  778MPD2    H511485   2.075   3.718  15.141 -3.2605 -0.5710  0.8656
  778MPD2    N111486   1.717   3.435  15.295 -0.6016 -0.1710 -0.2927
  778MPD2    H711487   1.685   3.467  15.204  0.1308 -1.3659 -0.9669
  779MPD2     C11488   1.659   2.429  14.624 -0.1138 -0.2634  0.1533
  779MPD2    C111489   1.775   2.434  14.559  0.2431  0.3663  0.0264
  779MPD2    C211490   1.838   2.556  14.556 -0.5262  0.3180 -0.0781
  779MPD2    C311491   1.790   2.664  14.626 -0.1720 -0.3247  0.6196
  779MPD2    C411492   1.684   2.648  14.703 -0.0877  0.1299  0.0831
  779MPD2    C511493   1.619   2.525  14.707  0.5371  0.0648 -0.0773
  779MPD2     H11494   1.940   2.558  14.520 -0.2454  0.8688  0.7540
  779MPD2    H111495   1.643   2.725  14.767 -0.0818  1.5653 -1.6579
  779MPD2    H211496   1.612   2.331  14.621 -1.8417  0.5978 -0.9679
  779MPD2    H311497   1.524   2.525  14.760  0.4857  1.5229 -0.1765
  779MPD2     N11498   1.854   2.789  14.608 -0.1569 -0.5158 -0.3986
  779MPD2    H511499   1.938   2.796  14.551  0.3652  0.4325  0.4862
  779MPD2    N111500   1.843   2.325  14.503  0.4108  0.1218  0.0568
  779MPD2    H711501   1.944   2.331  14.491  0.4783  1.4073  1.1645
  780MPD2     C11502   1.503   2.476   1.198 -0.4356 -0.2697 -0.1368
  780MPD2    C111503   1.417   2.400   1.124 -0.0622 -1.3530 -0.2989
  780MPD2    C211504   1.399   2.439   0.994 -0.7778  0.4253 -0.0284
  780MPD2    C311505   1.459   2.545   0.930 -0.3881 -0.0182 -0.1788
  780MPD2    C411506   1.552   2.615   1.005  0.1640  0.2255 -0.0551
  780MPD2    C511507   1.566   2.580   1.137  0.3901 -0.4805  0.2501
  780MPD2     H11508   1.320   2.382   0.946  0.0772 -2.1737  1.6468
  780MPD2    H111509   1.617   2.693   0.967  1.6939 -1.2473 -0.4636
  780MPD2    H211510   1.527   2.469   1.303 -2.0751  1.2575  0.3503
  780MPD2    H311511   1.623   2.643   1.204 -0.4180 -0.3791  0.8507
  780MPD2     N11512   1.435   2.555   0.786 -0.3791 -0.4589  0.4461
  780MPD2    H511513   1.362   2.500   0.743  0.3668 -0.7030 -0.5109
  780MPD2    N111514   1.332   2.301   1.174 -0.1961  0.0946  0.2015
  780MPD2    H711515   1.266   2.259   1.109 -0.6886 -1.1710  1.5267
  781MPD2     C11516   2.999   4.151  11.997  0.5401 -0.1215  0.0237
  781MPD2    C111517   3.060   4.257  12.056 -0.4067  0.8680 -0.0438
  781MPD2    C211518   3.182   4.298  11.995 -0.1789  1.0804 -0.1365
  781MPD2    C311519   3.230   4.247  11.874 -0.2386  0.3217  0.1872
  781MPD2    C411520   3.149   4.155  11.813 -0.3285 -0.0853 -0.3672
  781MPD2    C511521   3.039   4.101  11.875 -0.1680  0.5100  0.0138
  781MPD2     H11522   3.244   4.372  12.045  0.3771  1.0665 -0.8022
  781MPD2    H111523   3.186   4.108  11.723  0.4991  0.4131 -0.2889
  781MPD2    H211524   2.907   4.102  12.028 -0.9261  2.0771 -0.8648
  781MPD2    H311525   2.993   4.015  11.828  0.6553  0.2202 -0.2620
  781MPD2     N11526   3.345   4.291  11.810  0.2880  0.4129  0.2079
  781MPD2    H511527   3.350   4.260  11.713  0.1894  1.5712 -0.1660
  781MPD2    N111528   3.012   4.306  12.176 -0.3086  0.2513  0.1512
  781MPD2    H711529   2.934   4.258  12.220 -1.4767  1.3808 -0.6989
  782MPD2     C11530   1.027   4.582  10.237  0.4067 -0.3334 -0.2205
  782MPD2    C111531   1.165   4.600  10.240 -0.3956  0.0725 -0.3603
  782MPD2    C211532   1.224   0.000  10.211  0.1272 -0.1755  0.5345
  782MPD2    C311533   1.141   0.113  10.206  0.3614  0.8527  0.5642
  782MPD2    C411534   1.000   0.098  10.217 -0.4169 -0.0700 -0.2861
  782MPD2    C511535   0.949   4.695  10.228  0.3282  0.6307  0.0204
  782MPD2     H11536   1.333   0.006  10.217  0.2924 -1.9493 -0.6763
  782MPD2    H111537   0.935   0.185  10.217 -1.2404 -0.6916  0.7790
  782MPD2    H211538   0.978   4.488  10.257  1.3062 -0.5102  1.1431
  782MPD2    H311539   0.842   4.685  10.247  0.2214  0.3314 -0.7298
  782MPD2     N11540   1.205   0.239  10.209  0.5455 -0.0405  0.4949
  782MPD2    H511541   1.305   0.244  10.197  0.5305 -4.0281 -1.0189
  782MPD2    N111542   1.237   4.485  10.288  0.3622 -0.5372  0.3047
  782MPD2    H711543   1.189   4.396  10.286 -0.7132  0.0152  1.2297
  783MPD2     C11544   0.808   4.330  10.898  0.4170 -0.5259  0.1863
  783MPD2    C111545   0.883   4.442  10.885  0.5810  0.5823 -0.2220
  783MPD2    C211546   1.012   4.441  10.849  0.1567  0.6916  0.4410
  783MPD2    C311547   1.069   4.319  10.820 -0.0632 -0.2281  0.2470
  783MPD2    C411548   0.994   4.201  10.833  0.0306 -0.2954  0.5099
  783MPD2    C511549   0.860   4.211  10.875 -0.2998 -0.2787 -0.3625
  783MPD2     H11550   1.076   4.529  10.845 -0.1319  0.9562  1.8193
  783MPD2    H111551   1.034   4.108  10.797 -0.7216 -0.2340 -0.4988
  783MPD2    H211552   0.706   4.334  10.934 -0.7463  0.0837 -3.1984
  783MPD2    H311553   0.791   4.130  10.895  1.4119 -1.5847  0.2045
  783MPD2     N11554   1.193   4.315  10.752 -0.3523 -0.1437  0.6293
  783MPD2    H511555   1.215   4.401  10.701 -3.3545  0.4781  0.3702
  783MPD2    N111556   0.812   4.563  10.881 -0.5084  0.0508  0.7448
  783MPD2    H711557   0.712   4.553  10.886 -0.2466 -3.4639 -1.2292
  784MPD2     C11558   3.903   4.699   1.089  0.3234 -0.8536 -0.3772
  784MPD2    C111559   3.968   0.077   1.028  0.2041 -0.0953  0.5311
  784MPD2    C211560   3.909   0.135   0.923 -0.4910  0.1735 -0.1799
  784MPD2    C311561   3.781   0.108   0.879  1.2989 -0.3733  0.4526
  784MPD2    C411562   3.716   4.721   0.934  0.0417  0.3103  0.3423
  784MPD2    C511563   3.774   4.666   1.047 -0.6360 -0.2485  0.1202
  784MPD2     H11564   3.958   0.224   0.886 -2.1059  2.3843  3.0304
  784MPD2    H111565   3.615   4.696   0.907 -0.1035  0.8132  0.4248
  784MPD2    H211566   3.951   4.643   1.168 -1.2890 -1.8176 -0.0792
  784MPD2    H311567   3.721   4.593   1.106 -1.3594 -0.3697 -0.6913
  784MPD2     N11568   3.726   0.192   0.776  0.1112  1.2017  0.1715
  784MPD2    H511569   3.798   0.257   0.747 -0.7787  1.6212 -1.1277
  784MPD2    N111570   4.101   0.113   1.064 -0.4811  0.5742 -0.1927
  784MPD2    H711571   4.135   0.186   1.002  0.3113  0.1247 -0.2976
  785MPD2     C11572   3.885   3.595  11.267  0.2086 -0.1178  0.2232
  785MPD2    C111573   3.920   3.621  11.138 -0.5400 -0.7272 -0.0805
  785MPD2    C211574   3.846   3.562  11.037  0.7131 -0.1665 -0.5566
  785MPD2    C311575   3.748   3.461  11.068 -0.1157  0.3182 -0.5267
  785MPD2    C411576   3.718   3.435  11.199 -0.0642 -0.2003 -0.9109
  785MPD2    C511577   3.784   3.507  11.295  0.1732 -0.4401  0.1209
  785MPD2     H11578   3.859   3.593  10.934 -0.2622 -0.7674 -0.8537
  785MPD2    H111579   3.657   3.353  11.235  0.1765 -0.2856 -0.6936
  785MPD2    H211580   3.920   3.650  11.354 -1.0670  0.4638  0.3639
  785MPD2    H311581   3.757   3.501  11.400 -0.4236 -1.2486 -0.0887
  785MPD2     N11582   3.670   3.410  10.962  0.5112 -0.2928  0.1352
  785MPD2    H511583   3.694   3.436  10.867  1.7850  1.3482  0.9009
  785MPD2    N111584   4.011   3.730  11.113 -1.2436 -0.1397 -0.5168
  785MPD2    H711585   4.044   3.786  11.191 -0.5238  1.7381 -2.1902
  786MPD2     C11586   1.930   1.916  14.640  0.0466  0.6166  0.9023
  786MPD2    C111587   2.045   1.847  14.610 -0.9876  0.0017  0.1483
  786MPD2    C211588   2.151   1.853  14.702 -0.0149 -0.1789  1.1221
  786MPD2    C311589   2.140   1.926  14.821  0.1466  0.3827 -0.4875
  786MPD2    C411590   2.022   1.995  14.848 -0.4183  0.0102  0.4827
  786MPD2    C511591   1.917   1.985  14.755  0.8471 -0.1238  1.2418
  786MPD2     H11592   2.237   1.795  14.672  0.6671  1.1973  0.4417
  786MPD2    H111593   2.018   2.049  14.942 -0.8024 -1.5589  1.3694
  786MPD2    H211594   1.843   1.906  14.576  2.3625 -0.9093 -2.0149
  786MPD2    H311595   1.824   2.036  14.779 -0.5849 -1.3522 -1.7335
  786MPD2     N11596   2.233   1.933  14.923 -0.2213 -0.6109 -0.0568
  786MPD2    H511597   2.204   1.976  15.010 -1.8625 -3.4303  0.7811
  786MPD2    N111598   2.070   1.769  14.491  0.3159 -0.2597  0.1111
  786MPD2    H711599   2.162   1.726  14.491 -0.1058 -1.1633 -0.0554
  787MPD2     C11600   2.111   1.224  14.695 -0.6679  0.6747 -0.4737
  787MPD2    C111601   2.143   1.208  14.563 -0.5299  0.1002  0.0157
  787MPD2    C211602   2.219   1.098  14.526 -0.7250 -0.0770 -0.6632
  787MPD2    C311603   2.270   1.000  14.617 -0.6268 -0.1445 -0.0976
  787MPD2    C411604   2.245   1.025  14.751  0.6509 -0.3650 -0.5288
  787MPD2    C511605   2.162   1.132  14.783 -0.3583  0.8313  0.8752
  787MPD2     H11606   2.243   1.079  14.422 -1.4644  1.2948 -1.0828
  787MPD2    H111607   2.271   0.957  14.831  2.0420  1.1030  0.2801
  787MPD2    H211608   2.047   1.306  14.727 -1.3834  0.4130 -1.2450
  787MPD2    H311609   2.142   1.154  14.887  4.0414  2.6289  1.3415
  787MPD2     N11610   2.340   0.889  14.573 -0.0355 -0.1671 -0.3927
  787MPD2    H511611   2.354   0.873  14.474  0.6867  0.3993 -0.3819
  787MPD2    N111612   2.093   1.302  14.477  0.1880  0.4291  1.0246
  787MPD2    H711613   2.025   1.370  14.512 -0.1861  0.2147  0.7143
  788MPD2     C11614   4.667   4.484   0.703 -0.2575  0.3032  1.1965
  788MPD2    C111615   4.588   4.379   0.659  0.0679  0.2626  0.2454
  788MPD2    C211616   4.488   4.409   0.562 -0.2037  0.1590  0.8028
  788MPD2    C311617   4.460   4.541   0.513  0.9337 -0.3091  0.1271
  788MPD2    C411618   4.544   4.639   0.555  0.6120  0.0138  0.6280
  788MPD2    C511619   4.647   4.611   0.647  0.2257 -0.4659 -0.2218
  788MPD2     H11620   4.431   4.323   0.531 -1.0702  1.1811 -0.4446
  788MPD2    H111621   4.530   0.019   0.531 -1.6779 -0.0638  1.6961
  788MPD2    H211622   0.020   4.468   0.777  0.5679  1.0356  0.5026
  788MPD2    H311623   4.697   4.695   0.695  1.7934 -1.3490 -0.2922
  788MPD2     N11624   4.364   4.571   0.416  0.3072  0.2134  0.2727
  788MPD2    H511625   4.358   4.664   0.378  1.1382 -0.6364 -1.9143
  788MPD2    N111626   4.582   4.249   0.715  0.1747  0.6399 -0.0430
  788MPD2    H711627   4.502   4.193   0.688  0.2265  1.3425 -1.6836
  789MPD2     C11628   4.571   4.063  16.213  0.4158 -0.2081 -0.2610
  789MPD2    C111629   4.485   3.963  16.261  0.4773  0.1914 -0.2502
  789MPD2    C211630   4.364   4.002  16.316  0.0081  0.4772  0.4641
  789MPD2    C311631   4.335   4.137  16.337 -0.1763 -0.4944 -0.3532
  789MPD2    C411632   4.424   4.231  16.292 -0.0883 -1.0058 -0.5068
  789MPD2    C511633   4.538   4.190  16.231 -0.5200 -0.5445  0.0016
  789MPD2     H11634   4.303   3.933  16.372 -0.4542  0.8754  0.4475
  789MPD2    H111635   4.418   4.337  16.316 -0.8005 -0.8882 -1.2073
  789MPD2    H211636   4.654   4.039  16.147  1.0282  3.8085 -0.9380
  789MPD2    H311637   4.614   4.260  16.200  0.5754 -1.4735  0.5941
  789MPD2     N11638   4.216   4.189  16.399 -0.5404 -0.2087 -0.0180
  789MPD2    H511639   4.227   4.289  16.417 -1.0399  0.0043 -0.9002
  789MPD2    N111640   4.511   3.823  16.234  0.2567  0.0797  0.1332
  789MPD2    H711641   4.449   3.746  16.253 -0.5996  1.4264  2.8663
  790MPD2     C11642   0.335   1.119  13.983  0.3983 -0.4686 -0.1036
  790MPD2    C111643   0.400   1.227  13.923 -0.6187 -0.5611  0.6200
  790MPD2    C211644   0.385   1.264  13.793 -0.4404  0.0582 -0.4302
  790MPD2    C311645   0.297   1.195  13.715  0.5048 -0.6146  0.0960
  790MPD2    C411646   0.226   1.091  13.774  0.1634  0.3856 -0.2696
  790MPD2    C511647   0.245   1.046  13.903  0.5981 -0.6923  0.7226
  790MPD2     H11648   0.451   1.339  13.750 -0.9711  1.0781  0.5100
  790MPD2    H111649   0.156   1.031  13.717 -0.5893  0.2037  0.8627
  790MPD2    H211650   0.354   1.091  14.086 -2.0646 -1.0923  0.1849
  790MPD2    H311651   0.190   0.960  13.941 -0.1133 -0.4777  0.1645
  790MPD2     N11652   0.280   1.246  13.585 -0.6608  0.0272 -0.2952
  790MPD2    H511653   0.332   1.332  13.572 -0.4435 -0.2046 -0.9365
  790MPD2    N111654   0.490   1.298  14.018  0.2836  0.2850 -0.0243
  790MPD2    H711655   0.508   1.257  14.109 -0.8674  0.4970  0.2906
  791MPD2     C11656   4.619   1.214  12.720  0.8259  0.3101 -0.4055
  791MPD2    C111657   4.574   1.231  12.854 -0.6225 -0.9693  0.2425
  791MPD2    C211658   4.434   1.223  12.873  0.5098  0.5229 -0.3551
  791MPD2    C311659   4.337   1.208  12.770 -0.2250 -0.2091 -0.2770
  791MPD2    C411660   4.387   1.196  12.642  0.4041 -0.6305  0.6110
  791MPD2    C511661   4.522   1.197  12.625 -0.2495 -0.1603  0.4203
  791MPD2     H11662   4.397   1.231  12.975  1.3394  1.3461 -0.1148
  791MPD2    H111663   4.323   1.197  12.554  0.5209 -0.4677  0.5281
  791MPD2    H211664   4.723   1.202  12.688  0.6479 -3.2100  0.3450
  791MPD2    H311665   4.561   1.186  12.524 -1.7660 -3.3634  0.2001
  791MPD2     N11666   4.201   1.183  12.804 -0.2227  0.4276 -0.0340
  791MPD2    H511667   4.169   1.178  12.900 -0.8698  1.0664 -0.2070
  791MPD2    N111668   4.681   1.235  12.946 -0.2127 -0.2863  0.4520
  791MPD2    H711669   0.049   1.219  12.906 -0.1421 -1.0613  0.9302
  792MPD2     C11670   1.136   0.983  11.395 -0.9999  0.0721  0.1668
  792MPD2    C111671   1.044   1.071  11.334 -0.3008  0.1747 -0.2205
  792MPD2    C211672   1.065   1.114  11.199  0.5165 -0.3717  0.9359
  792MPD2    C311673   1.172   1.080  11.129 -0.1471  0.3060 -0.1361
  792MPD2    C411674   1.265   1.008  11.192 -0.1925 -0.9960 -0.0771
  792MPD2    C511675   1.247   0.961  11.321 -0.3093 -0.0948  0.1532
  792MPD2     H11676   0.999   1.186  11.154 -0.8847 -2.1035  0.2072
  792MPD2    H111677   1.358   0.977  11.144 -0.2812  2.2357 -2.3176
  792MPD2    H211678   1.131   0.943  11.496  1.0504 -0.5055  0.0509
  792MPD2    H311679   1.328   0.909  11.371  1.2550 -0.1657 -2.4224
  792MPD2     N11680   1.192   1.116  10.991  0.3799  0.0576  0.3564
  792MPD2    H511681   1.287   1.109  10.955  0.3930 -1.4568  0.6919
  792MPD2    N111682   0.923   1.107  11.405 -0.2718 -0.3371  0.2322
  792MPD2    H711683   0.929   1.119  11.506 -0.5567 -1.4345  0.3787
  793MPD2     C11684   0.816   1.666  10.136  0.1561  0.1734  0.7925
  793MPD2    C111685   0.865   1.547  10.095  0.1221  0.5265  0.4508
  793MPD2    C211686   0.917   1.462  10.187 -1.2460  0.2314 -0.6570
  793MPD2    C311687   0.921   1.497  10.320 -0.4732  0.6143 -0.4465
  793MPD2    C411688   0.885   1.630  10.353 -0.1942 -0.3974 -0.6143
  793MPD2    C511689   0.837   1.710  10.264 -0.4001  0.2595  0.0308
  793MPD2     H11690   0.954   1.365  10.158  1.5161  0.4144  2.1937
  793MPD2    H111691   0.889   1.676  10.451  1.2673  0.9945 -1.3221
  793MPD2    H211692   0.780   1.736  10.062  0.4572 -0.5296 -0.0179
  793MPD2    H311693   0.820   1.811  10.297 -2.3769  0.4342 -1.4879
  793MPD2     N11694   0.982   1.415  10.411  0.3588 -0.3491  0.0871
  793MPD2    H511695   1.001   1.321  10.376 -0.3360 -1.0531  1.5920
  793MPD2    N111696   0.862   1.505   9.963  0.1597  0.2116  0.0211
  793MPD2    H711697   0.916   1.421   9.947 -2.8607 -1.3902 -1.6005
  794MPD2     C11698   0.636   0.717  17.322  0.3873  0.2091 -0.1114
  794MPD2    C111699   0.551   0.613  17.344 -0.0343 -0.8899 -0.0094
  794MPD2    C211700   0.474   0.577  17.233  0.5365  0.3298  0.7365
  794MPD2    C311701   0.483   0.627  17.102  0.0830 -0.3288 -0.4442
  794MPD2    C411702   0.583   0.725  17.086 -0.3471 -0.0781 -0.3040
  794MPD2    C511703   0.652   0.769  17.198  0.0918 -0.4774 -0.0869
  794MPD2     H11704   0.403   0.498  17.255 -0.9356  1.2680 -0.6753
  794MPD2    H111705   0.609   0.772  16.992 -2.9617  0.5751 -0.6986
  794MPD2    H211706   0.698   0.766  17.396 -1.2503  1.0484  0.7008
  794MPD2    H311707   0.728   0.846  17.190 -0.6078  0.1783 -0.4416
  794MPD2     N11708   0.418   0.581  16.987 -0.2256  0.0971  0.3808
  794MPD2    H511709   0.434   0.638  16.904  1.8514 -0.0642  0.6737
  794MPD2    N111710   0.542   0.547  17.471 -0.1165  0.2597  0.6394
  794MPD2    H711711   0.460   0.489  17.487  0.1807  0.0014  1.2087
  795MPD2     C11712   2.661   3.303  13.557 -0.4453 -0.2814  0.0395
  795MPD2    C111713   2.663   3.183  13.487 -0.0104  0.5968  0.2838
  795MPD2    C211714   2.769   3.097  13.518  0.2359 -0.3011 -0.0433
  795MPD2    C311715   2.878   3.135  13.592 -0.1530  0.2794 -0.2562
  795MPD2    C411716   2.868   3.254  13.656  0.5868 -0.2286  0.2879
  795MPD2    C511717   2.763   3.339  13.644  0.3400 -0.2266 -0.2749
  795MPD2     H11718   2.788   3.020  13.444  1.9656 -0.6455  0.7700
  795MPD2    H111719   2.950   3.290  13.718  1.1450 -1.4064  0.2337
  795MPD2    H211720   2.579   3.373  13.549 -1.0816 -1.1373 -0.8066
  795MPD2    H311721   2.765   3.433  13.696 -0.0759 -1.0448  1.2131
  795MPD2     N11722   3.000   3.059  13.593  0.7355  0.1282  0.2023
  795MPD2    H511723   3.079   3.097  13.644  0.3573  1.7504 -0.4280
  795MPD2    N111724   2.576   3.142  13.383 -0.2666  0.7161 -0.1280
  795MPD2    H711725   2.598   3.063  13.323  0.5615  1.3973 -0.7260
  796MPD2     C11726   2.431   4.244  16.558 -0.0901  0.5654  0.0891
  796MPD2    C111727   2.552   4.257  16.504 -0.1509 -0.3957  0.1987
  796MPD2    C211728   2.575   4.360  16.411  0.5122  0.2096  0.3408
  796MPD2    C311729   2.470   4.447  16.367 -0.4721  0.8678  0.3958
  796MPD2    C411730   2.343   4.421  16.419 -0.3482 -0.8181  0.2768
  796MPD2    C511731   2.325   4.326  16.519  0.8359 -0.3937  0.0460
  796MPD2     H11732   2.678   4.382  16.386  1.0551 -2.6857  0.0009
  796MPD2    H111733   2.251   4.474  16.398  1.1688  0.9437 -1.8651
  796MPD2    H211734   2.410   4.159  16.622 -0.0837  0.7695  0.3651
  796MPD2    H311735   2.232   4.303  16.569  1.2717  0.0091  1.0373
  796MPD2     N11736   2.500   4.561  16.285  0.5450  0.3823 -0.0568
  796MPD2    H511737   2.592   4.557  16.243 -0.0418 -1.0441 -1.2089
  796MPD2    N111738   2.655   4.159  16.536  0.1016  0.1948  0.8964
  796MPD2    H711739   2.622   4.083  16.594 -1.1450  0.3394  0.3698
  797MPD2     C11740   3.766   3.471  17.511  0.5937  0.3779  0.0627
  797MPD2    C111741   3.880   3.545  17.504  0.4551  0.1063 -0.6236
  797MPD2    C211742   3.869   3.676  17.469 -0.1130 -0.7455 -0.7135
  797MPD2    C311743   3.761   3.741  17.411  0.2304  0.1278  0.3176
  797MPD2    C411744   3.649   3.663  17.403  0.0756 -0.0710  0.4164
  797MPD2    C511745   3.653   3.535  17.452 -0.1498 -0.2471 -0.1557
  797MPD2     H11746   3.960   3.734  17.467  0.2412 -1.3100 -1.4005
  797MPD2    H111747   3.558   3.693  17.353 -0.9477 -1.1317  1.6296
  797MPD2    H211748   3.767   3.366  17.539  1.0814 -0.1662 -1.9647
  797MPD2    H311749   3.561   3.478  17.451  0.8668 -1.8933  1.4038
  797MPD2     N11750   3.767   3.878  17.383  0.1463  0.2134 -0.0133
  797MPD2    H511751   3.863   3.908  17.391  0.2389 -0.3728  1.0632
  797MPD2    N111752   4.005   3.500  17.551  0.0007 -0.4196  0.6820
  797MPD2    H711753   4.075   3.572  17.569  2.5359 -2.4347 -0.9777
  798MPD2     C11754   4.411   3.922  17.151 -0.5801 -0.7179  0.0739
  798MPD2    C111755   4.308   3.922  17.238 -0.5178  0.1568  0.6860
  798MPD2    C211756   4.309   3.825  17.340  0.5304 -0.1242 -1.0802
  798MPD2    C311757   4.413   3.731  17.351  0.4080 -0.3281  0.0228
  798MPD2    C411758   4.509   3.726  17.254 -0.0320 -0.6069 -0.4180
  798MPD2    C511759   4.507   3.826  17.156 -0.2317  0.7764 -0.1650
  798MPD2     H11760   4.227   3.823  17.412  0.6616  1.6991 -0.8905
  798MPD2    H111761   4.602   3.671  17.263  0.6946  0.8389  1.1051
  798MPD2    H211762   4.427   3.997  17.074  0.8379  1.0312  2.0901
  798MPD2    H311763   4.595   3.825  17.091  0.4204  0.7694  0.7201
  798MPD2     N11764   4.400   3.635  17.450  0.5336  0.6941 -0.0295
  798MPD2    H511765   4.314   3.637  17.503  0.1397 -0.8066 -0.6226
  798MPD2    N111766   4.202   4.014  17.223 -0.0604 -0.2070 -0.0596
  798MPD2    H711767   4.209   4.071  17.140 -1.1936  0.2423  0.1513
  799MPD2     C11768   1.993   0.781  14.743 -0.3821  0.4161  0.6940
  799MPD2    C111769   2.021   0.689  14.646  0.5031 -0.3720 -0.5269
  799MPD2    C211770   1.976   0.712  14.516 -0.0492 -0.3404  0.2687
  799MPD2    C311771   1.908   0.825  14.477  0.1959  0.1226 -0.3993
  799MPD2    C411772   1.902   0.930  14.565  0.0979  0.0988 -0.0861
  799MPD2    C511773   1.939   0.900  14.697  0.0765  0.6787 -0.4426
  799MPD2     H11774   2.013   0.646  14.438  2.1475  2.3342 -0.9288
  799MPD2    H111775   1.862   1.030  14.552  1.0996  0.5705  0.4280
  799MPD2    H211776   2.009   0.772  14.850 -0.3446 -0.1779  0.6414
  799MPD2    H311777   1.917   0.978  14.769 -0.7963 -1.4771  1.6597
  799MPD2     N11778   1.881   0.850  14.339 -0.3436 -0.4475  0.2833
  799MPD2    H511779   1.852   0.944  14.313 -0.8484 -0.5415  0.4957
  799MPD2    N111780   2.098   0.577  14.669  0.2802  0.1340  0.4426
  799MPD2    H711781   2.098   0.505  14.598  1.8517 -1.5033  2.0796
  800MPD2     C11782   2.759   1.967  14.379  0.4762 -0.6080  0.6137
  800MPD2    C111783   2.894   1.968  14.352  0.3739  0.1256  0.5823
  800MPD2    C211784   2.939   1.921  14.230 -0.4880 -0.1263 -0.0546
  800MPD2    C311785   2.857   1.884  14.133 -0.0197 -0.3120  0.1535
  800MPD2    C411786   2.722   1.881  14.154 -0.0093 -1.1300 -0.2137
  800MPD2    C511787   2.675   1.924  14.281  0.6915 -0.3971  0.0190
  800MPD2     H11788   3.044   1.910  14.205 -1.0288 -2.2778 -1.4593
  800MPD2    H111789   2.652   1.858  14.074 -0.7524  1.7204 -0.3761
  800MPD2    H211790   2.712   2.011  14.466 -1.3650  0.2896 -0.8452
  800MPD2    H311791   2.568   1.928  14.302  1.0174 -1.4884  1.8076
  800MPD2     N11792   2.915   1.831  14.019 -0.6872 -0.1231 -0.2795
  800MPD2    H511793   3.015   1.815  14.025 -1.0013 -1.4003  1.7261
  800MPD2    N111794   2.971   2.021  14.455 -0.2706  0.7152 -0.0633
  800MPD2    H711795   2.919   2.064  14.530 -0.5987 -0.9484  0.6731
  801MPD2     C11796   3.158   2.706  14.484 -0.0017  0.3062  0.2323
  801MPD2    C111797   3.072   2.596  14.497  0.4621  0.2351  0.4651
  801MPD2    C211798   2.941   2.611  14.476  0.2749 -0.0923  0.3909
  801MPD2    C311799   2.878   2.729  14.448  0.2687  0.4584 -0.4152
  801MPD2    C411800   2.964   2.844  14.435  0.0996 -0.1042 -0.8573
  801MPD2    C511801   3.096   2.824  14.444  0.1826  0.1758  0.0646
  801MPD2     H11802   2.890   2.518  14.499 -1.4234  0.8509  0.4167
  801MPD2    H111803   2.929   2.941  14.400 -0.8321  0.5711  1.9587
  801MPD2    H211804   3.264   2.705  14.505 -0.1312  2.0355  0.9586
  801MPD2    H311805   3.154   2.911  14.417 -0.5847  0.2289 -1.4283
  801MPD2     N11806   2.738   2.746  14.444 -0.3516 -0.2075 -0.6506
  801MPD2    H511807   2.694   2.829  14.481  0.8893  0.1294  0.0580
  801MPD2    N111808   3.116   2.469  14.538 -0.1729 -0.5486 -0.5310
  801MPD2    H711809   3.052   2.390  14.532  1.0347 -1.6960  1.6533
  802MPD2     C11810   2.201   3.604   0.269  0.7619 -1.2207  0.4511
  802MPD2    C111811   2.087   3.539   0.222  0.2296 -0.2169  0.0018
  802MPD2    C211812   2.103   3.408   0.182  0.3292 -0.5622  0.1942
  802MPD2    C311813   2.221   3.334   0.192 -0.0384  0.1959  0.5574
  802MPD2    C411814   2.329   3.397   0.251  0.1181  0.9213 -0.1799
  802MPD2    C511815   2.314   3.524   0.288 -0.2421 -0.6066  0.2838
  802MPD2     H11816   2.010   3.369   0.142 -0.1038 -0.3086  0.9421
  802MPD2    H111817   2.418   3.345   0.283 -1.4808 -2.1068 -0.6122
  802MPD2    H211818   2.196   3.703   0.314 -1.7757 -1.4801  0.7318
  802MPD2    H311819   2.400   3.574   0.333 -1.3591  1.4190  0.1573
  802MPD2     N11820   2.229   3.197   0.144  0.0763 -0.0967 -0.4254
  802MPD2    H511821   2.144   3.151   0.114  0.6408  0.1519 -2.3803
  802MPD2    N111822   1.959   3.598   0.220 -0.1919 -0.4003  0.3148
  802MPD2    H711823   1.883   3.531   0.222 -1.1822  0.6855 -0.8455
  803MPD2     C11824   3.418   1.298  11.591  0.1793 -0.2755  0.4006
  803MPD2    C111825   3.440   1.311  11.726 -0.3950  0.4302  0.1468
  803MPD2    C211826   3.353   1.260  11.822 -0.6988  0.0579 -0.2748
  803MPD2    C311827   3.226   1.216  11.786 -0.0912  0.1713 -0.3188
  803MPD2    C411828   3.197   1.215  11.651  0.2524 -0.0011 -0.8993
  803MPD2    C511829   3.292   1.247  11.557  0.4188  0.3998  0.5091
  803MPD2     H11830   3.379   1.273  11.926  1.1528 -1.3977 -0.5448
  803MPD2    H111831   3.099   1.186  11.613  0.3056 -2.3486  0.7476
  803MPD2    H211832   3.478   1.335  11.509 -0.2070 -1.5755 -0.4585
  803MPD2    H311833   3.259   1.249  11.454  0.5065  0.9586  0.4879
  803MPD2     N11834   3.125   1.170  11.882 -0.1995 -0.1122  0.0770
  803MPD2    H511835   3.037   1.144  11.839 -0.2110  2.2076 -1.3415
  803MPD2    N111836   3.563   1.368  11.778  0.2379 -0.2776 -0.0886
  803MPD2    H711837   3.562   1.390  11.878  0.4335  0.7415 -0.3067
  804MPD2     C11838   3.207   2.314  17.264 -0.4603  0.4824 -1.1920
  804MPD2    C111839   3.240   2.241  17.374  0.2416  0.0747 -0.1087
  804MPD2    C211840   3.331   2.299  17.461 -0.2284  0.2992  0.3246
  804MPD2    C311841   3.396   2.422  17.440 -0.7004  0.3524  0.9457
  804MPD2    C411842   3.361   2.493  17.320  0.2973 -0.0037 -0.5205
  804MPD2    C511843   3.271   2.435  17.238 -0.1801 -0.5522  0.0521
  804MPD2     H11844   3.358   2.243  17.550  3.9793 -1.5621 -2.0997
  804MPD2    H111845   3.414   2.579  17.281 -2.1149  1.9862  0.5318
  804MPD2    H211846   3.151   2.269  17.182 -2.7735  0.1853  0.5620
  804MPD2    H311847   3.264   2.487  17.143 -0.0034  2.1837  1.5240
  804MPD2     N11848   3.497   2.473  17.532 -0.0935 -0.4360  0.0528
  804MPD2    H511849   3.525   2.412  17.608  0.3707 -0.0718  0.1682
  804MPD2    N111850   3.182   2.118  17.406  0.2604 -0.2397  0.3423
  804MPD2    H711851   3.211   2.074  17.492 -0.0769  1.6381  1.3963
  805MPD2     C11852   2.245   1.188  15.832 -0.8220 -0.0031 -0.2963
  805MPD2    C111853   2.339   1.092  15.802 -0.2102  0.7523  0.3507
  805MPD2    C211854   2.454   1.088  15.869 -0.0168  0.5860 -0.0967
  805MPD2    C311855   2.477   1.166  15.979 -0.7856  0.1398 -0.2296
  805MPD2    C411856   2.391   1.278  16.001  0.5179 -0.0123 -0.3332
  805MPD2    C511857   2.281   1.290  15.917 -0.4983 -0.2942 -0.9324
  805MPD2     H11858   2.523   1.006  15.853  0.0195  0.1547  2.2512
  805MPD2    H111859   2.415   1.360  16.068  1.4983  0.5021 -1.3000
  805MPD2    H211860   2.160   1.197  15.766 -0.9023  0.1036 -0.1779
  805MPD2    H311861   2.226   1.382  15.907  2.6126  1.7752  1.1439
  805MPD2     N11862   2.591   1.134  16.061  0.0006  0.1723  0.3571
  805MPD2    H511863   2.630   1.044  16.036  2.4940  0.9426  1.5509
  805MPD2    N111864   2.308   0.996  15.702  0.6075 -0.5580  0.4668
  805MPD2    H711865   2.382   0.930  15.678  0.3942 -0.3063 -0.8652
  806MPD2     C11866   2.881   4.543   0.351 -0.5077 -0.0106 -0.8038
  806MPD2    C111867   2.938   4.656   0.415  0.4931 -0.7149 -0.6240
  806MPD2    C211868   3.048   4.716   0.357 -0.3711  0.5015 -0.1690
  806MPD2    C311869   3.111   4.664   0.241  0.2074 -0.3485 -0.3689
  806MPD2    C411870   3.051   4.553   0.178  0.7380 -0.2204 -0.0828
  806MPD2    C511871   2.936   4.495   0.233 -0.6885 -0.0271  0.2765
  806MPD2     H11872   3.101   0.072   0.405 -0.8011 -0.4027  1.7969
  806MPD2    H111873   3.096   4.502   0.094  0.2146 -1.8213  0.6238
  806MPD2    H211874   2.781   4.511   0.377  0.4516 -1.6370  0.8379
  806MPD2    H311875   2.893   4.413   0.176 -1.0042  0.5359 -0.2991
  806MPD2     N11876   3.235   0.001   0.195  0.0920 -0.0359 -0.2765
  806MPD2    H511877   3.277   0.073   0.254 -1.7868  0.6922  0.1796
  806MPD2    N111878   2.881   4.702   0.533  0.1776 -0.5389  0.0152
  806MPD2    H711879   2.803   4.648   0.570 -1.5555  0.7770 -1.6925
  807MPD2     C11880   2.350   4.514   1.004  0.4451 -0.1634  0.3323
  807MPD2    C111881   2.473   4.455   1.013  0.5122 -0.6981 -0.4260
  807MPD2    C211882   2.487   4.339   1.090 -0.6902  0.4638 -0.6235
  807MPD2    C311883   2.376   4.282   1.148 -0.2846 -0.1397  0.3352
  807MPD2    C411884   2.250   4.342   1.136 -0.2391  0.0548 -0.7201
  807MPD2    C511885   2.235   4.463   1.069 -0.5151 -0.0645 -0.7202
  807MPD2     H11886   2.581   4.286   1.096  0.0425  1.9576  1.0702
  807MPD2    H111887   2.168   4.302   1.194 -0.4893 -0.6234 -1.5410
  807MPD2    H211888   2.335   4.606   0.949 -0.4163  0.5089  1.6720
  807MPD2    H311889   2.139   4.514   1.072  0.9999  2.8978 -2.4897
  807MPD2     N11890   2.406   4.157   1.212  0.4166 -0.4287  0.4580
  807MPD2    H511891   2.504   4.132   1.222  0.3438 -0.7481  0.3555
  807MPD2    N111892   2.592   4.508   0.954  0.6611 -0.2353 -0.3406
  807MPD2    H711893   2.682   4.470   0.982  0.6080 -1.4403 -1.8317
  808MPD2     C11894   3.568   1.908   9.912  0.2554 -0.4582 -0.7689
  808MPD2    C111895   3.490   1.961  10.022 -0.0982  0.1568  0.4618
  808MPD2    C211896   3.513   2.092  10.057  0.2136 -0.1230 -0.5084
  808MPD2    C311897   3.589   2.175   9.974 -0.5421 -0.3814  0.7393
  808MPD2    C411898   3.646   2.121   9.862  0.0877  0.1593  0.1271
  808MPD2    C511899   3.634   1.995   9.836  0.4094 -0.2103  0.1706
  808MPD2     H11900   3.465   2.136  10.144  1.0898 -3.0211  1.4525
  808MPD2    H111901   3.694   2.191   9.795  0.0433 -1.4442 -1.5612
  808MPD2    H211902   3.577   1.803   9.889  0.2003 -0.5334 -0.4403
  808MPD2    H311903   3.689   1.959   9.749 -2.7201 -1.7267 -1.1946
  808MPD2     N11904   3.625   2.306  10.010 -0.2235 -0.3919  0.8555
  808MPD2    H511905   3.679   2.364   9.947  2.7562 -3.4022  0.6800
  808MPD2    N111906   3.413   1.875  10.107 -0.2696  0.0174  0.1901
  808MPD2    H711907   3.355   1.930  10.169  1.5984  0.8070  1.2378
  809MPD2     C11908   3.905   2.663   9.425  0.2970  0.1151 -0.9816
  809MPD2    C111909   3.860   2.548   9.483  0.1297  0.2251  0.1255
  809MPD2    C211910   3.838   2.551   9.616  0.9260  0.5168  0.4238
  809MPD2    C311911   3.849   2.666   9.696 -0.4567 -0.4385  0.0475
  809MPD2    C411912   3.884   2.784   9.629 -0.3822 -0.0668 -0.5967
  809MPD2    C511913   3.913   2.779   9.495  0.6467 -0.0890  0.0247
  809MPD2     H11914   3.807   2.458   9.662  4.2817 -1.5530 -1.5047
  809MPD2    H111915   3.890   2.881   9.676 -2.2472  0.2335 -0.9878
  809MPD2    H211916   3.937   2.658   9.322  2.6888  0.7496 -0.2740
  809MPD2    H311917   3.947   2.870   9.448 -0.5343  0.8997  1.0881
  809MPD2     N11918   3.826   2.644   9.835  0.5901  0.0039 -0.5352
  809MPD2    H511919   3.820   2.549   9.870  0.9078  0.3738  0.5123
  809MPD2    N111920   3.853   2.435   9.400  0.1887  0.6893  0.4985
  809MPD2    H711921   3.893   2.451   9.308  2.4490  0.5961  1.4636
  810MPD2     C11922   3.023   0.679  10.125 -0.2299 -0.1663 -0.6823
  810MPD2    C111923   2.899   0.658  10.167  0.5941 -0.3101  0.6090
  810MPD2    C211924   2.846   0.757  10.260 -0.0506  0.3343 -0.2439
  810MPD2    C311925   2.924   0.858  10.304  0.3863 -0.1956  0.5502
  810MPD2    C411926   3.054   0.872  10.266  0.8601 -0.2249  0.8822
  810MPD2    C511927   3.099   0.784  10.169 -0.2434  0.5901 -0.1108
  810MPD2     H11928   2.740   0.750  10.282 -0.1336  1.9107 -0.1385
  810MPD2    H111929   3.120   0.947  10.309  0.0120  0.2003  1.4638
  810MPD2    H211930   3.074   0.616  10.053  0.6399  0.6073 -0.7410
  810MPD2    H311931   3.205   0.790  10.146  0.1108  2.3664  2.0646
  810MPD2     N11932   2.879   0.960  10.389  0.1943 -0.2118 -0.0110
  810MPD2    H511933   2.942   1.035  10.416  0.5697  0.6600 -3.3445
  810MPD2    N111934   2.832   0.547  10.111  0.0723 -0.2310 -0.8118
  810MPD2    H711935   2.865   0.521  10.019  2.8719  1.6008 -0.3079
  811MPD2     C11936   2.260   0.859   9.626 -0.3586  0.4761  0.2024
  811MPD2    C111937   2.325   0.856   9.749  0.1777 -0.7036 -0.2611
  811MPD2    C211938   2.344   0.979   9.813 -0.5501 -0.2283 -0.1479
  811MPD2    C311939   2.317   1.095   9.754  0.3379  0.2813 -0.6294
  811MPD2    C411940   2.257   1.097   9.626  0.4746  0.8363 -0.0806
  811MPD2    C511941   2.231   0.979   9.565  0.0525 -0.8106  0.0941
  811MPD2     H11942   2.383   0.977   9.914  1.5878 -2.4114 -1.0205
  811MPD2    H111943   2.220   1.186   9.578 -1.9161 -1.1239 -1.8165
  811MPD2    H211944   2.237   0.772   9.565 -0.3923  0.7052 -0.1058
  811MPD2    H311945   2.172   0.983   9.474  0.4152  2.2744 -0.0018
  811MPD2     N11946   2.348   1.216   9.825  0.4110 -0.8149 -0.2243
  811MPD2    H511947   2.396   1.210   9.914 -0.8757 -1.4984  0.4162
  811MPD2    N111948   2.363   0.731   9.794  0.4806  0.1707 -0.2002
  811MPD2    H711949   2.319   0.651   9.751  0.6870  1.0643 -2.0819
  812MPD2     C11950   1.257   1.011  12.316  0.0746  0.8745 -0.3388
  812MPD2    C111951   1.147   1.062  12.379  0.5579  0.1935  0.8258
  812MPD2    C211952   1.088   0.983  12.474 -0.1585  0.1763 -0.2057
  812MPD2    C311953   1.138   0.856  12.504  0.0331 -0.4344  0.1785
  812MPD2    C411954   1.234   0.811  12.421  0.0544  0.1195 -0.7702
  812MPD2    C511955   1.303   0.890  12.335  0.8197 -0.2371 -0.4545
  812MPD2     H11956   1.002   1.027  12.523  2.0746  0.8631  3.0909
  812MPD2    H111957   1.273   0.711  12.434  1.3507  0.6419 -0.6790
  812MPD2    H211958   1.306   1.058  12.232 -1.0832  0.6144 -1.1612
  812MPD2    H311959   1.384   0.847  12.277  0.0226 -1.6600 -0.5008
  812MPD2     N11960   1.083   0.771  12.608  0.1203  0.3449  0.2001
  812MPD2    H511961   0.999   0.803  12.655  0.4670  2.9669 -0.9569
  812MPD2    N111962   1.126   1.196  12.344  0.1623  0.0185  0.5282
  812MPD2    H711963   1.184   1.238  12.272 -0.8586  1.3740  0.4875
  813MPD2     C11964   0.463   3.028  12.699 -0.0149 -0.2123  0.3704
  813MPD2    C111965   0.464   3.155  12.750  0.1403  0.2106 -0.1295
  813MPD2    C211966   0.347   3.200  12.814  0.2111  0.7609  1.3183
  813MPD2    C311967   0.232   3.125  12.818 -0.1341 -0.2968 -0.7264
  813MPD2    C411968   0.243   2.997  12.765 -0.5488 -0.1303 -0.1861
  813MPD2    C511969   0.358   2.949  12.706  0.3438  0.8828 -0.5877
  813MPD2     H11970   0.343   3.303  12.845 -1.6035  0.0225  3.5312
  813MPD2    H111971   0.163   2.925  12.758  0.1515 -0.7492 -1.7594
  813MPD2    H211972   0.552   2.981  12.658 -1.1065 -0.3827 -1.7899
  813MPD2    H311973   0.348   2.855  12.654 -0.8432  1.8079 -2.0139
  813MPD2     N11974   0.107   3.180  12.866  0.0682 -0.3389 -0.0179
  813MPD2    H511975   0.086   3.278  12.878 -1.7417 -0.5902 -1.1447
  813MPD2    N111976   0.582   3.228  12.745  0.2714  0.2473  0.2270
  813MPD2    H711977   0.667   3.182  12.717  0.3355  0.6244 -0.1995
  814MPD2     C11978   0.681   3.636  12.092  0.2590  0.2423 -0.1452
  814MPD2    C111979   0.632   3.750  12.032 -0.0785 -0.0971  0.4476
  814MPD2    C211980   0.606   3.862  12.104  0.8636 -0.0240 -0.4516
  814MPD2    C311981   0.645   3.869  12.243 -1.1795  0.3937  0.0490
  814MPD2    C411982   0.698   3.754  12.299  0.0045  0.2114  0.2659
  814MPD2    C511983   0.713   3.638  12.226  0.3918  0.2457  0.4935
  814MPD2     H11984   0.553   3.940  12.051 -0.5813  0.7341  2.1107
  814MPD2    H111985   0.727   3.747  12.403  0.3439 -0.5744  0.1207
  814MPD2    H211986   0.689   3.544  12.037  0.1573 -0.4810  1.0459
  814MPD2    H311987   0.765   3.557  12.275 -3.4957 -0.9732  2.6003
  814MPD2     N11988   0.631   3.985  12.317 -0.5060  0.1055 -0.0150
  814MPD2    H511989   0.675   3.979  12.409  0.2469  2.3048 -0.2356
  814MPD2    N111990   0.601   3.755  11.894  0.2812 -0.2939  0.1810
  814MPD2    H711991   0.546   3.834  11.865 -0.3718 -1.1675 -0.9623
  815MPD2     C11992   1.670   2.338  12.382  0.2008  0.0227  0.6450
  815MPD2    C111993   1.602   2.320  12.262 -0.0274  0.3790 -0.5264
  815MPD2    C211994   1.466   2.350  12.259 -0.6420  0.3654  0.1418
  815MPD2    C311995   1.396   2.393  12.371 -0.3621 -1.7473  0.6830
  815MPD2    C411996   1.470   2.421  12.487 -0.2246 -0.6368  0.6141
  815MPD2    C511997   1.600   2.396  12.484  0.9371  0.2230 -0.7765
  815MPD2     H11998   1.422   2.317  12.166 -0.9438  4.3167 -1.1072
  815MPD2    H111999   1.431   2.467  12.576  1.5491  0.5191  0.7835
  815MPD2    H212000   1.775   2.324  12.406 -0.9936 -3.1700  3.9333
  815MPD2    H312001   1.650   2.424  12.576  0.9091  0.7896 -0.9315
  815MPD2     N12002   1.256   2.394  12.380  0.5716 -0.1354 -0.0914
  815MPD2    H512003   1.203   2.373  12.296  0.1016 -1.7105  0.5897
  815MPD2    N112004   1.678   2.278  12.150  0.1207  0.5682 -1.0269
  815MPD2    H712005   1.769   2.238  12.167  0.6801  2.5075  0.5740
  816MPD2     C12006   1.191   1.679  17.305 -0.2304  0.1988 -0.3619
  816MPD2    C112007   1.285   1.780  17.304 -0.3021 -0.3529  0.2454
  816MPD2    C212008   1.413   1.748  17.285  0.0334 -0.3169 -0.2079
  816MPD2    C312009   1.448   1.613  17.286 -0.0578 -0.3124  0.0223
  816MPD2    C412010   1.359   1.509  17.301 -0.3828  0.6263  0.3194
  816MPD2    C512011   1.229   1.547  17.303 -0.0733  0.1978 -0.1429
  816MPD2     H12012   1.486   1.825  17.261  1.5491 -2.2105 -1.7150
  816MPD2    H112013   1.391   1.406  17.314 -0.0332  0.8288  1.0403
  816MPD2    H212014   1.086   1.705  17.300 -0.0468  1.2061  0.9952
  816MPD2    H312015   1.158   1.465  17.303 -0.4380  0.5157  0.8295
  816MPD2     N12016   1.588   1.590  17.282  0.5811  0.1639  0.1010
  816MPD2    H512017   1.658   1.663  17.270 -0.6703  1.3210 -0.1865
  816MPD2    N112018   1.241   1.912  17.319 -0.1615  0.4001  0.2533
  816MPD2    H712019   1.143   1.934  17.307  0.5895  3.2100 -0.5923
  817MPD2     C12020   1.227   3.349  10.263  1.1062  1.4326  0.3314
  817MPD2    C112021   1.359   3.317  10.241 -0.0185  0.1669 -0.6778
  817MPD2    C212022   1.450   3.411  10.191  0.7014  0.3427  0.1527
  817MPD2    C312023   1.393   3.536  10.161 -0.1164 -1.1545  0.2708
  817MPD2    C412024   1.258   3.568  10.177  0.0903  0.1343  0.0886
  817MPD2    C512025   1.175   3.471  10.229 -0.4948 -0.2501 -0.0270
  817MPD2     H12026   1.552   3.382  10.170 -0.4857 -3.2840 -0.7353
  817MPD2    H112027   1.215   3.665  10.156 -1.9617 -0.6155  0.8270
  817MPD2    H212028   1.157   3.279  10.307 -0.6492  2.6110 -0.5586
  817MPD2    H312029   1.069   3.493  10.234 -0.2817  0.1466  2.9695
  817MPD2     N12030   1.483   3.632  10.099 -0.1967 -0.3358  0.0537
  817MPD2    H512031   1.582   3.616  10.117  0.3945  2.0450 -1.0288
  817MPD2    N112032   1.413   3.191  10.258 -0.0411 -0.0649 -0.3251
  817MPD2    H712033   1.514   3.184  10.246  0.2060 -0.6801  1.9813
  818MPD2     C12034   0.359   3.416  10.222  0.6228 -0.5095  0.1397
  818MPD2    C112035   0.230   3.393  10.261 -0.9430  0.3827  0.8806
  818MPD2    C212036   0.197   3.266  10.295  0.0107 -0.1247 -0.7419
  818MPD2    C312037   0.289   3.163  10.290  0.2106 -0.0969 -0.3940
  818MPD2    C412038   0.422   3.188  10.261  0.2558  0.0572 -0.0631
  818MPD2    C512039   0.455   3.315  10.221 -0.1057  0.0181  0.5124
  818MPD2     H12040   0.096   3.245  10.326  0.4128 -0.6652  0.1921
  818MPD2    H112041   0.496   3.110  10.246  1.1695  0.5148  2.2035
  818MPD2    H212042   0.392   3.515  10.192 -0.1112  0.4516  2.4804
  818MPD2    H312043   0.556   3.335  10.187 -0.8822  1.7410 -0.7814
  818MPD2     N12044   0.255   3.026  10.310 -0.5624  0.0851 -0.1284
  818MPD2    H512045   0.335   2.964  10.305 -1.1688 -0.8093  1.3007
  818MPD2    N112046   0.122   3.490  10.264  0.0281 -0.6030 -0.0458
  818MPD2    H712047   0.031   3.457  10.293  0.2665 -2.2063 -1.1040
  819MPD2     C12048   3.109   0.440  15.634  0.2068 -0.2108 -0.2355
  819MPD2    C112049   3.141   0.333  15.714  0.4053  0.6588 -0.0487
  819MPD2    C212050   3.275   0.314  15.743 -0.6329 -0.0761  0.0259
  819MPD2    C312051   3.381   0.376  15.691  0.2034  0.8066  0.4251
  819MPD2    C412052   3.340   0.485  15.613  0.5164 -0.3331  0.4852
  819MPD2    C512053   3.209   0.512  15.581  0.2323  0.2163 -0.0925
  819MPD2     H12054   3.302   0.239  15.817 -2.7501 -1.8027 -0.9598
  819MPD2    H112055   3.413   0.548  15.563  0.7559  0.3227  1.6762
  819MPD2    H212056   3.007   0.474  15.622 -0.3812 -0.8419  2.8831
  819MPD2    H312057   3.169   0.588  15.514 -0.7566  0.1736  0.4557
  819MPD2     N12058   3.511   0.335  15.720 -0.5422  0.3641  0.3085
  819MPD2    H512059   3.513   0.255  15.783  0.7635  0.1876  0.0427
  819MPD2    N112060   3.035   0.263  15.777 -0.7226  0.1748  0.0815
  819MPD2    H712061   2.940   0.278  15.747 -0.9981 -1.2501  0.2375
  820MPD2     C12062   2.409   0.248  15.285 -0.0137 -0.4430 -0.6604
  820MPD2    C112063   2.411   0.328  15.400 -0.0229  0.7014  0.3097
  820MPD2    C212064   2.463   0.281  15.515 -0.4644 -0.1852 -0.1811
  820MPD2    C312065   2.518   0.154  15.521 -0.1459 -0.2221 -0.1182
  820MPD2    C412066   2.519   0.077  15.412 -0.0903  0.2106 -0.4317
  820MPD2    C512067   2.467   0.130  15.291  0.0899  0.1439 -0.3327
  820MPD2     H12068   2.472   0.346  15.601 -1.0094  1.1115 -1.1174
  820MPD2    H112069   2.557   4.701  15.397 -1.0347  0.0690 -1.9572
  820MPD2    H212070   2.384   0.290  15.188  0.8594  0.3899 -0.5234
  820MPD2    H312071   2.473   0.071  15.200  0.5317 -2.0647  1.1243
  820MPD2     N12072   2.585   0.098  15.634  0.1973 -0.0016  0.4389
  820MPD2    H512073   2.622   0.004  15.630  0.1786 -0.0624  1.6115
  820MPD2    N112074   2.339   0.449  15.394 -0.7385  0.3243  0.1340
  820MPD2    H712075   2.309   0.487  15.305 -0.3066  0.6402  0.1209
  821MPD2     C12076   2.588   1.771  13.252  0.2379 -0.4288  0.4931
  821MPD2    C112077   2.696   1.856  13.280 -0.2076  0.2693 -0.6914
  821MPD2    C212078   2.717   1.970  13.197 -0.7213  0.1853  0.4661
  821MPD2    C312079   2.644   1.982  13.083  0.5079  0.1089  0.1682
  821MPD2    C412080   2.537   1.900  13.063  0.6474  0.0010  0.8368
  821MPD2    C512081   2.514   1.798  13.147  0.0082  0.1942 -0.7247
  821MPD2     H12082   2.802   2.033  13.221 -0.7598  0.4567 -0.1144
  821MPD2    H112083   2.469   1.909  12.979 -1.6542  1.0286  2.8073
  821MPD2    H212084   2.561   1.685  13.311  2.6993 -0.8342  1.0199
  821MPD2    H312085   2.426   1.741  13.119  0.6031 -0.9122 -0.3481
  821MPD2     N12086   2.681   2.086  12.987  0.9211 -0.4689 -0.1881
  821MPD2    H512087   2.636   2.091  12.896 -1.3472 -0.6744  0.9194
  821MPD2    N112088   2.776   1.835  13.398 -0.3214  0.2184 -0.2565
  821MPD2    H712089   2.750   1.765  13.467 -0.7210  0.3116 -0.3098
  822MPD2     C12090   3.482   1.750  15.755 -0.5211  0.2847  0.1320
  822MPD2    C112091   3.472   1.690  15.883 -0.0914 -0.7313 -1.3789
  822MPD2    C212092   3.411   1.761  15.987  0.7568  0.2103 -0.6149
  822MPD2    C312093   3.359   1.884  15.972  0.7124 -0.5238 -0.1353
  822MPD2    C412094   3.374   1.945  15.847  0.0208  0.5950  0.0561
  822MPD2    C512095   3.430   1.881  15.742  1.0917  0.6018 -0.4563
  822MPD2     H12096   3.404   1.718  16.086 -0.0763  0.0902 -0.7244
  822MPD2    H112097   3.337   2.044  15.822 -0.3822  0.8279  1.5757
  822MPD2    H212098   3.535   1.701  15.675 -0.5824  1.3654 -0.5733
  822MPD2    H312099   3.424   1.919  15.641 -0.1011 -0.8956 -0.9419
  822MPD2     N12100   3.321   1.958  16.090  0.4043 -0.1631  0.2895
  822MPD2    H512101   3.332   1.902  16.174  1.4579 -0.2889  0.0585
  822MPD2    N112102   3.521   1.561  15.916 -0.6422 -0.1379 -0.0112
  822MPD2    H712103   3.502   1.534  16.012  0.5947 -0.9949 -0.0046
  823MPD2     C12104   3.274   1.969  16.910  0.7552  0.1064 -1.1915
  823MPD2    C112105   3.286   1.918  16.778  0.1345  0.5546  0.3155
  823MPD2    C212106   3.298   1.778  16.770  0.4704  0.6278 -0.1775
  823MPD2    C312107   3.308   1.692  16.875 -0.0826  0.6800  0.3028
  823MPD2    C412108   3.292   1.746  16.994  0.6185  0.1445  0.8921
  823MPD2    C512109   3.275   1.881  17.014 -0.2192 -0.2380 -0.1676
  823MPD2     H12110   3.301   1.736  16.670  1.8999 -1.2210  0.6412
  823MPD2    H112111   3.295   1.680  17.080  0.0844 -1.1221 -0.0614
  823MPD2    H212112   3.271   2.077  16.925  0.0145 -0.1697  0.5590
  823MPD2    H312113   3.255   1.906  17.117  3.2599  1.6944  0.0402
  823MPD2     N12114   3.304   1.551  16.863  0.3037  0.4564  0.3665
  823MPD2    H512115   3.278   1.513  16.953  1.2000  0.1805  0.5093
  823MPD2    N112116   3.264   2.010  16.673 -0.4316  0.5644 -0.1437
  823MPD2    H712117   3.253   2.106  16.703 -0.5145  0.3446  0.5355
  824MPD2     C12118   3.944   0.787  15.737 -0.0437  0.0389  0.3672
  824MPD2    C112119   3.999   0.898  15.799  0.0371  0.4997 -0.3174
  824MPD2    C212120   4.134   0.895  15.833  0.4786 -0.1803 -0.4484
  824MPD2    C312121   4.220   0.790  15.800  0.3305  0.0053 -0.1633
  824MPD2    C412122   4.161   0.687  15.732 -0.3892 -0.1839  0.6643
  824MPD2    C512123   4.025   0.687  15.707  0.3697 -0.1066  0.1355
  824MPD2     H12124   4.175   0.977  15.892 -0.5893  0.8822 -1.1769
  824MPD2    H112125   4.226   0.604  15.706 -0.1957  0.6699 -1.6362
  824MPD2    H212126   3.843   0.775  15.700 -0.3601 -0.0619  1.2722
  824MPD2    H312127   3.973   0.605  15.657  0.4018  0.0965 -0.2272
  824MPD2     N12128   4.364   0.799  15.820 -0.7740 -0.6238 -0.0685
  824MPD2    H512129   4.407   0.886  15.847 -1.1804 -0.5921  0.4764
  824MPD2    N112130   3.922   1.009  15.840 -0.1354  0.2296  0.4941
  824MPD2    H712131   3.964   1.069  15.911 -0.5555  0.5891  0.4357
  825MPD2     C12132   4.604   1.113  15.340 -0.9747 -0.3324  0.4459
  825MPD2    C112133   4.712   1.085  15.417 -0.7201  0.2084  0.0743
  825MPD2    C212134   0.103   1.165  15.390  0.3409  0.7157 -0.1864
  825MPD2    C312135   0.102   1.271  15.300  0.4305 -0.4639 -0.8835
  825MPD2    C412136   4.713   1.292  15.226  0.3756 -0.4609 -0.0149
  825MPD2    C512137   4.603   1.218  15.247  0.2042  0.1533 -0.9184
  825MPD2     H12138   0.193   1.137  15.443 -0.0491 -2.4575 -1.2531
  825MPD2    H112139   4.718   1.376  15.158  1.0922 -0.7695 -0.3526
  825MPD2    H212140   4.512   1.065  15.370 -1.3800  1.7054  2.4664
  825MPD2    H312141   4.516   1.253  15.193 -0.7237  0.0133  0.4843
  825MPD2     N12142   0.214   1.351  15.269 -0.3036  0.1556  0.2573
  825MPD2    H512143   0.202   1.402  15.182  0.3193  3.0289  1.8526
  825MPD2    N112144   4.702   0.986  15.516 -0.3684  0.4770  0.1155
  825MPD2    H712145   4.611   0.950  15.546 -0.1847  0.3513  0.5197
  826MPD2     C12146   4.365   1.383  13.861  0.1953 -0.2127  0.1696
  826MPD2    C112147   4.263   1.341  13.773 -0.1929  0.0474 -0.2481
  826MPD2    C212148   4.133   1.383  13.801  0.2095 -0.5566  0.4149
  826MPD2    C312149   4.109   1.471  13.911 -0.7215 -0.3243  0.0853
  826MPD2    C412150   4.215   1.505  13.997 -0.6858  0.4401 -0.4377
  826MPD2    C512151   4.342   1.460  13.977  0.6072  0.0942 -1.2045
  826MPD2     H12152   4.052   1.369  13.731  1.3778  1.0829 -1.2720
  826MPD2    H112153   4.203   1.564  14.088 -1.6978  0.5958 -0.6814
  826MPD2    H212154   4.468   1.355  13.838  1.8855  4.1752  2.4425
  826MPD2    H312155   4.417   1.499  14.045 -0.7106  0.7549 -0.1314
  826MPD2     N12156   3.975   1.517  13.943  0.2083 -0.3317  0.2425
  826MPD2    H512157   3.981   1.594  14.009 -0.0146 -0.7780  0.7785
  826MPD2    N112158   4.298   1.242  13.673  0.6435 -0.4556  0.7821
  826MPD2    H712159   4.399   1.231  13.673  0.6684 -0.2422  3.0929
  827MPD2     C12160   0.196   2.218  10.270  0.2655 -0.0214  0.3637
  827MPD2    C112161   0.209   2.100  10.348 -0.3286 -1.2892  0.3071
  827MPD2    C212162   0.189   1.975  10.292 -0.0447 -0.5473 -0.1505
  827MPD2    C312163   0.148   1.970  10.162  0.3182 -0.4327  0.6025
  827MPD2    C412164   0.129   2.080  10.086 -0.8568 -0.6234 -0.8023
  827MPD2    C512165   0.155   2.201  10.140 -0.2602  0.4031  0.3859
  827MPD2     H12166   0.218   1.889  10.352 -0.5971  0.1367  1.0954
  827MPD2    H112167   0.113   2.083   9.979  2.3903  0.7697 -1.2593
  827MPD2    H212168   0.214   2.316  10.312  0.1682 -0.7310  2.0684
  827MPD2    H312169   0.137   2.288  10.078 -1.3178 -0.7126 -0.8628
  827MPD2     N12170   0.125   1.837  10.116  0.2038  0.0454 -0.2508
  827MPD2    H512171   0.133   1.759  10.179  0.0544  0.4444  0.2614
  827MPD2    N112172   0.252   2.126  10.479  0.2047 -0.3400  0.1846
  827MPD2    H712173   0.272   2.225  10.491 -0.7219 -0.1836  0.4589
  828MPD2     C12174   3.422   2.437  12.320 -0.0683  0.0034 -0.4643
  828MPD2    C112175   3.377   2.545  12.245  0.2805 -0.1224 -0.0745
  828MPD2    C212176   3.464   2.597  12.153  0.1139 -0.1735 -0.6722
  828MPD2    C312177   3.592   2.547  12.132  0.9059 -0.3812 -0.0532
  828MPD2    C412178   3.636   2.443  12.214 -0.9764 -0.0934 -0.4016
  828MPD2    C512179   3.551   2.398  12.310  0.0640  0.0201 -0.4114
  828MPD2     H12180   3.438   2.677  12.085  0.9171  1.2673  0.6962
  828MPD2    H112181   3.734   2.399  12.200 -0.1794  1.3481  0.6443
  828MPD2    H212182   3.359   2.388  12.393  2.0321 -0.0136  1.3074
  828MPD2    H312183   3.583   2.308  12.361  0.6004  0.1565 -0.5070
  828MPD2     N12184   3.694   2.612  12.052  0.6761 -0.2278 -0.8355
  828MPD2    H512185   3.793   2.587  12.062  0.5711 -1.8796 -4.1646
  828MPD2    N112186   3.246   2.593  12.261  0.7232 -0.0585 -0.8669
  828MPD2    H712187   3.221   2.663  12.193 -0.9585 -0.4695 -0.7016
  829MPD2     C12188   2.736   2.561  11.533 -0.1297  0.3394  0.3055
  829MPD2    C112189   2.681   2.481  11.629  0.0885 -0.0928  0.2031
  829MPD2    C212190   2.726   2.484  11.764  0.2218 -0.2177 -0.4178
  829MPD2    C312191   2.810   2.589  11.794 -0.0943  0.8836  0.0713
  829MPD2    C412192   2.866   2.673  11.702 -0.3850  0.1110 -0.1646
  829MPD2    C512193   2.832   2.653  11.571 -0.3146 -0.0006 -0.2115
  829MPD2     H12194   2.683   2.415  11.835 -0.3138 -0.3269 -0.8434
  829MPD2    H112195   2.945   2.743  11.726  0.8144  0.3580 -4.9245
  829MPD2    H212196   2.707   2.548  11.429 -2.7308  0.1685  1.0447
  829MPD2    H312197   2.866   2.725  11.497  2.0115 -0.6141  0.2679
  829MPD2     N12198   2.855   2.609  11.920  0.5320  0.3749  0.5728
  829MPD2    H512199   2.924   2.681  11.941  1.1130 -0.1947  0.6271
  829MPD2    N112200   2.584   2.395  11.573  0.0094  0.8510 -0.8044
  829MPD2    H712201   2.566   2.400  11.474 -0.5015 -0.4950 -0.7693
  830MPD2     C12202   4.431   0.354  15.552  0.2080  0.0778 -0.2641
  830MPD2    C112203   4.310   0.407  15.527  0.1675 -1.2360  0.0667
  830MPD2    C212204   4.294   0.527  15.461  0.2816 -0.4192  0.2057
  830MPD2    C312205   4.403   0.585  15.401  0.0073  0.4587  0.3478
  830MPD2    C412206   4.532   0.549  15.443 -0.3250 -0.1203 -0.0208
  830MPD2    C512207   4.543   0.438  15.519  0.1924 -0.0354  0.3147
  830MPD2     H12208   4.196   0.572  15.450  0.6200  0.7976  2.1446
  830MPD2    H112209   4.619   0.601  15.405 -0.2027 -0.7387 -0.6029
  830MPD2    H212210   4.451   0.266  15.611 -1.7703 -0.9560 -1.1525
  830MPD2    H312211   4.643   0.408  15.549 -0.3364 -0.6607  1.4574
  830MPD2     N12212   4.378   0.684  15.304  0.2628 -0.0182 -0.4381
  830MPD2    H512213   4.456   0.738  15.267 -0.4157  1.0636 -0.2950
  830MPD2    N112214   4.204   0.338  15.579  0.1550  0.2123  0.1795
  830MPD2    H712215   4.222   0.251  15.628 -2.6043 -2.0744 -2.9032
  831MPD2     C12216   3.730   1.935  16.333  0.2039  0.2410 -0.5234
  831MPD2    C112217   3.711   1.834  16.242  0.1641  0.2377 -0.2455
  831MPD2    C212218   3.622   1.733  16.262  0.1419 -0.2916 -0.3650
  831MPD2    C312219   3.541   1.733  16.370  0.2026 -0.4225 -0.1505
  831MPD2    C412220   3.554   1.841  16.466  0.1446  0.9455 -0.0163
  831MPD2    C512221   3.644   1.946  16.439  0.5570  0.0651 -0.2236
  831MPD2     H12222   3.593   1.676  16.174 -0.7634  0.9314 -0.8558
  831MPD2    H112223   3.490   1.838  16.553  0.4625 -0.9633  0.1442
  831MPD2    H212224   3.807   2.010  16.319 -1.1389  1.4394 -1.5058
  831MPD2    H312225   3.659   2.032  16.504 -0.0405  1.4768 -1.9539
  831MPD2     N12226   3.420   1.667  16.380  0.0973  0.2210  0.2411
  831MPD2    H512227   3.354   1.705  16.447 -0.2012 -0.3286  0.2607
  831MPD2    N112228   3.786   1.850  16.123 -0.2440  0.0311  0.5198
  831MPD2    H712229   3.836   1.936  16.102  0.3816 -0.4907 -0.1496
  832MPD2     C12230   2.134   3.104  17.418  0.0621  0.0344  0.1686
  832MPD2    C112231   2.088   3.228  17.406 -0.9746  0.5741  0.2473
  832MPD2    C212232   1.972   3.246  17.324 -0.5210  0.0166 -0.5214
  832MPD2    C312233   1.916   3.145  17.252 -0.3743 -0.3632  0.4821
  832MPD2    C412234   1.980   3.023  17.250  0.5044  0.0293  1.1169
  832MPD2    C512235   2.079   3.008  17.344  0.1621 -0.1200  0.0232
  832MPD2     H12236   1.921   3.340  17.341 -2.3026 -1.2673  1.2380
  832MPD2    H112237   1.940   2.936  17.198  3.1066 -0.0771 -0.7054
  832MPD2    H212238   2.215   3.070  17.482 -0.0083 -0.1890  0.1414
  832MPD2    H312239   2.111   2.905  17.352 -1.0184 -0.4160  0.9637
  832MPD2     N12240   1.802   3.151  17.167 -0.5186 -0.2725 -0.2496
  832MPD2    H512241   1.772   3.071  17.112 -2.3190 -0.9010  1.6742
  832MPD2    N112242   2.163   3.323  17.480  0.1591  0.0726 -0.1729
  832MPD2    H712243   2.246   3.288  17.526 -0.6009 -2.1006 -0.4498
  833MPD2     C12244   3.944   0.309  12.691  0.2692 -0.3091 -0.3599
  833MPD2    C112245   3.974   0.421  12.608 -0.2837 -0.2598  0.0576
  833MPD2    C212246   4.080   0.400  12.516 -0.1749 -0.9554  0.6963
  833MPD2    C312247   4.156   0.282  12.506 -0.2949  0.5545 -0.5365
  833MPD2    C412248   4.130   0.182  12.594 -0.0327  0.5971  0.2420
  833MPD2    C512249   4.027   0.199  12.682 -0.7070  0.7616 -0.3684
  833MPD2     H12250   4.106   0.478  12.446  0.4971 -2.0325 -0.2466
  833MPD2    H112251   4.196   0.096  12.601 -2.4330 -1.4292 -1.9474
  833MPD2    H212252   3.861   0.310  12.761 -0.5309 -0.2670 -1.3187
  833MPD2    H312253   4.019   0.120  12.755 -2.9698  3.0873  1.8979
  833MPD2     N12254   4.266   0.258  12.420  0.0284  1.0931 -0.6806
  833MPD2    H512255   4.313   0.169  12.434  0.4811  1.2584 -1.1564
  833MPD2    N112256   3.888   0.536  12.612 -0.2100  0.5163 -0.0602
  833MPD2    H712257   3.805   0.532  12.671  1.2539  1.5138  2.0832
  834MPD2     C12258   4.365   4.178  11.868  0.2208 -0.9059  0.5283
  834MPD2    C112259   4.374   4.275  11.770  0.0896 -0.4304 -0.2289
  834MPD2    C212260   4.360   4.409  11.799 -0.4930  0.4109 -0.5577
  834MPD2    C312261   4.320   4.453  11.925 -0.7972 -0.2608 -0.8136
  834MPD2    C412262   4.310   4.350  12.023 -0.3423  0.0915 -0.0319
  834MPD2    C512263   4.325   4.210  11.997  0.2517  0.1088 -0.5978
  834MPD2     H12264   4.369   4.482  11.720  1.9874 -0.3062 -0.9321
  834MPD2    H112265   4.282   4.352  12.128  1.4475  0.4292  0.4258
  834MPD2    H212266   4.385   4.072  11.854  0.1137 -0.9264  0.5279
  834MPD2    H312267   4.337   4.135  12.074  1.0200  1.9128  1.0313
  834MPD2     N12268   4.305   4.592  11.952  0.2123  0.4656 -0.2363
  834MPD2    H512269   4.313   4.655  11.873 -1.7272  2.0873  0.8613
  834MPD2    N112270   4.406   4.228  11.639 -0.1339 -0.4333 -0.0491
  834MPD2    H712271   4.418   4.127  11.633  0.5598 -0.3513  0.0016
  835MPD2     C12272   3.905   1.797  11.383  0.4679  0.8880 -0.7235
  835MPD2    C112273   3.893   1.937  11.394 -0.5486 -0.7645 -0.3113
  835MPD2    C212274   3.934   2.008  11.503 -0.6286 -0.2442 -0.5989
  835MPD2    C312275   3.962   1.932  11.618 -0.0790 -0.4008 -0.3183
  835MPD2    C412276   3.961   1.797  11.611  1.4312  0.1916 -0.1103
  835MPD2    C512277   3.942   1.729  11.493 -0.3880 -0.4283  0.0830
  835MPD2     H12278   3.934   2.116  11.507  0.8657 -0.2017 -1.4067
  835MPD2    H112279   3.996   1.737  11.694  0.8962  1.0695  0.7585
  835MPD2    H212280   3.881   1.733  11.298 -3.6607 -0.4346  1.4175
  835MPD2    H312281   3.958   1.622  11.501  2.2764 -0.1633 -1.5027
  835MPD2     N12282   3.998   1.985  11.743  0.2133  0.2981  0.6074
  835MPD2    H512283   4.035   1.918  11.809 -0.5075  0.8774  1.5975
  835MPD2    N112284   3.863   2.009  11.274  0.2689 -0.0989 -0.1048
  835MPD2    H712285   3.844   2.108  11.289  0.8683  0.0149 -0.1205
  836MPD2     C12286   4.154   2.448  12.486 -0.7357  0.3622 -0.0367
  836MPD2    C112287   4.077   2.468  12.374 -0.0925  0.1842  0.5608
  836MPD2    C212288   3.972   2.556  12.384  1.0432 -0.2133 -0.4186
  836MPD2    C312289   3.941   2.624  12.505  0.3484  0.3000  0.2408
  836MPD2    C412290   4.020   2.606  12.616  0.5272  0.0528 -0.6850
  836MPD2    C512291   4.126   2.518  12.609  0.0072  0.3106  0.3701
  836MPD2     H12292   3.905   2.570  12.300 -0.5045 -0.3300  0.8077
  836MPD2    H112293   4.014   2.671  12.702 -0.3239 -0.1574 -0.5809
  836MPD2    H212294   4.230   2.371  12.483 -0.4519  0.6638 -0.5782
  836MPD2    H312295   4.179   2.493  12.700  1.9838 -1.2485 -1.1853
  836MPD2     N12296   3.839   2.725  12.528 -0.9957 -0.7071  0.0021
  836MPD2    H512297   3.832   2.764  12.621 -2.8652  0.7980 -0.7681
  836MPD2    N112298   4.117   2.406  12.255 -0.1542  0.0890  0.3572
  836MPD2    H712299   4.190   2.337  12.266 -1.7322 -1.9000 -1.5823
  837MPD2     C12300   2.899   1.677  10.056  0.5474 -0.0282  0.8561
  837MPD2    C112301   2.790   1.727  10.125  0.4126 -0.5359 -0.9058
  837MPD2    C212302   2.788   1.863  10.161 -0.3833 -0.3995  0.1969
  837MPD2    C312303   2.895   1.950  10.129  0.4069  0.0958 -0.1199
  837MPD2    C412304   3.009   1.895  10.073  0.1268 -0.3198 -0.2213
  837MPD2    C512305   3.006   1.767  10.031 -0.4726 -0.5665 -0.0400
  837MPD2     H12306   2.701   1.900  10.214  1.6366  1.0876  2.4570
  837MPD2    H112307   3.084   1.957  10.026  0.3502  0.4353  1.1125
  837MPD2    H212308   2.904   1.573  10.024  0.6866  0.5239 -0.9282
  837MPD2    H312309   3.090   1.728   9.973 -0.7454  0.4413 -1.0971
  837MPD2     N12310   2.870   2.085  10.161  0.6398  0.2588 -0.3867
  837MPD2    H512311   2.784   2.111  10.208  0.9958 -0.0341  0.4361
  837MPD2    N112312   2.672   1.654  10.136  0.3223  0.1611  0.4464
  837MPD2    H712313   2.603   1.688  10.203  0.4992  3.0147 -0.8541
  838MPD2     C12314   1.104   0.755  11.796 -0.2484  0.5477  0.0855
  838MPD2    C112315   1.013   0.702  11.707  0.8307  0.9024  0.8741
  838MPD2    C212316   0.883   0.666  11.747 -0.1596  0.1806 -0.3866
  838MPD2    C312317   0.850   0.668  11.881 -0.1606  0.2376  0.3022
  838MPD2    C412318   0.938   0.722  11.971  0.4253 -0.3882 -0.1428
  838MPD2    C512319   1.061   0.765  11.925  0.2484 -0.1521 -0.2218
  838MPD2     H12320   0.811   0.633  11.674  0.6631 -0.5941 -0.8505
  838MPD2    H112321   0.921   0.728  12.078 -3.6297  1.0705 -0.8658
  838MPD2    H212322   1.207   0.783  11.778  0.9711 -1.6042  3.6825
  838MPD2    H312323   1.132   0.802  11.999  0.7860  0.0236 -0.8214
  838MPD2     N12324   0.726   0.610  11.911  0.1947  0.3340 -0.7200
  838MPD2    H512325   0.669   0.586  11.831  1.5275 -0.2579 -1.4916
  838MPD2    N112326   1.051   0.684  11.577  0.3303  0.2848 -0.2914
  838MPD2    H712327   0.980   0.684  11.504 -1.4404  1.1431  1.4115
  839MPD2     C12328   0.442   0.386  11.258  0.6482  0.2955  0.0325
  839MPD2    C112329   0.528   0.285  11.221 -0.8864 -0.7197  0.1780
  839MPD2    C212330   0.660   0.308  11.214 -0.5473  0.1686 -0.1789
  839MPD2    C312331   0.713   0.433  11.250 -0.4343  0.6125  0.5393
  839MPD2    C412332   0.626   0.539  11.285 -0.4997 -0.4172 -0.6849
  839MPD2    C512333   0.496   0.508  11.283 -1.0512 -0.7967  0.2826
  839MPD2     H12334   0.718   0.220  11.192  2.0046  1.9147 -0.4141
  839MPD2    H112335   0.665   0.636  11.312  1.0539 -0.2974 -3.2816
  839MPD2    H212336   0.337   0.372  11.278  0.7293 -0.1780  0.1294
  839MPD2    H312337   0.424   0.586  11.306  2.3180  2.3191  0.1730
  839MPD2     N12338   0.851   0.449  11.268  0.3392  0.2370  0.3390
  839MPD2    H512339   0.884   0.542  11.290  1.1460  0.3161 -1.1917
  839MPD2    N112340   0.496   0.151  11.186  0.3367 -0.1010 -0.8646
  839MPD2    H712341   0.565   0.077  11.177 -1.4444 -1.7049 -1.3223
  840MPD2     C12342   0.793   2.419  10.444  0.3540  0.1959  0.0126
  840MPD2    C112343   0.785   2.380  10.578 -0.6708  0.1060 -1.1567
  840MPD2    C212344   0.894   2.422  10.657  0.2512  0.6600  0.3925
  840MPD2    C312345   0.982   2.520  10.620 -0.2017  0.2346 -0.3366
  840MPD2    C412346   0.981   2.557  10.489 -0.4323  0.1721 -0.0992
  840MPD2    C512347   0.892   2.504  10.405  0.6377  0.1120  0.2824
  840MPD2     H12348   0.898   2.384  10.758  1.5154 -1.3314 -0.4090
  840MPD2    H112349   1.048   2.633  10.449 -1.4057  0.7240 -0.6996
  840MPD2    H212350   0.726   2.372  10.373  0.3399 -0.1023  0.2265
  840MPD2    H312351   0.890   2.542  10.304  0.5665  1.8461  0.9373
  840MPD2     N12352   1.075   2.582  10.710 -1.2557  0.9596  0.1920
  840MPD2    H512353   1.139   2.651  10.672  1.0125 -1.4423 -0.2636
  840MPD2    N112354   0.683   2.288  10.626  0.6059  0.0273 -0.3237
  840MPD2    H712355   0.626   2.250  10.551 -1.2819  0.8717  0.6943
  841MPD2     C12356   0.152   2.621  14.557  0.4970 -0.1141  0.2413
  841MPD2    C112357   0.252   2.570  14.482 -0.5843  0.2324  0.0733
  841MPD2    C212358   0.362   2.644  14.455  0.2263  0.1764  0.0022
  841MPD2    C312359   0.371   2.779  14.485 -0.1734 -0.1033  0.2503
  841MPD2    C412360   0.272   2.836  14.561 -0.3483 -0.1557  0.2809
  841MPD2    C512361   0.166   2.754  14.595  0.1409 -0.0962  0.1268
  841MPD2     H12362   0.435   2.594  14.393  1.2407  0.8534  0.6531
  841MPD2    H112363   0.273   2.939  14.593 -4.1899 -0.3729  1.0588
  841MPD2    H212364   0.060   2.566  14.577 -0.8861  2.1930  0.2812
  841MPD2    H312365   0.091   2.806  14.653 -0.2843  2.0234 -2.3022
  841MPD2     N12366   0.483   2.858  14.434  0.3477  0.1275  0.3179
  841MPD2    H512367   0.537   2.806  14.366  0.8558 -1.7121  2.1294
  841MPD2    N112368   0.261   2.435  14.444 -0.4349 -0.6587  0.3484
  841MPD2    H712369   0.348   2.385  14.425  0.8595  0.7772  2.5582
  842MPD2     C12370   1.271   3.699  16.875  1.1208  0.1656 -0.1776
  842MPD2    C112371   1.221   3.576  16.887 -0.2915  0.1324 -0.5612
  842MPD2    C212372   1.230   3.506  17.001  0.1679 -0.1749  0.3130
  842MPD2    C312373   1.291   3.555  17.111 -0.0270 -0.4380  0.2025
  842MPD2    C412374   1.345   3.677  17.101  0.0215  0.7686  0.0286
  842MPD2    C512375   1.344   3.749  16.983 -0.5701 -0.0395 -0.5087
  842MPD2     H12376   1.205   3.401  17.014 -1.3092 -0.0039 -1.1448
  842MPD2    H112377   1.381   3.725  17.191 -0.7629 -0.6844  1.1316
  842MPD2    H212378   1.255   3.766  16.791 -3.6271 -1.0820 -0.2399
  842MPD2    H312379   1.377   3.852  16.983  2.6890 -1.0832 -2.5445
  842MPD2     N12380   1.295   3.492  17.238  0.2121  0.5734 -0.3212
  842MPD2    H512381   1.329   3.548  17.316  1.1399 -0.8687  0.3054
  842MPD2    N112382   1.163   3.524  16.775  0.2612 -0.1379  0.3181
  842MPD2    H712383   1.164   3.573  16.686  1.2919 -1.5325 -0.4435
  843MPD2     C12384   3.008   3.245   0.007  0.7744 -0.2127  0.9165
  843MPD2    C112385   3.101   3.200   0.096  0.1688  0.0212 -0.5220
  843MPD2    C212386   3.233   3.248   0.092 -0.4329 -0.0095 -0.4890
  843MPD2    C312387   3.259   3.357   0.012 -0.6556  0.2176 -0.0882
  843MPD2    C412388   3.162   3.408  17.630 -0.4747 -0.1998  0.2254
  843MPD2    C512389   3.041   3.349  17.618  0.1042 -0.0964 -0.8603
  843MPD2     H12390   3.317   3.200   0.140 -0.7882  0.7917  0.9510
  843MPD2    H112391   3.177   3.496  17.569 -2.1902  1.2347  1.8461
  843MPD2    H212392   2.914   3.191   0.001 -1.0251  2.6864  3.1011
  843MPD2    H312393   2.962   3.386  17.553  0.1418  3.0454  0.8742
  843MPD2     N12394   3.383   3.428   0.016  0.3880 -0.5091 -0.5155
  843MPD2    H512395   3.405   3.493  17.640  0.4715  0.1633  0.1041
  843MPD2    N112396   3.059   3.095   0.185  0.4529 -0.2506 -0.2597
  843MPD2    H712397   2.959   3.079   0.183  0.0454  2.1895  0.8160
  844MPD2     C12398   1.636   2.870  16.809 -0.7088 -0.7460 -0.1197
  844MPD2    C112399   1.756   2.806  16.844 -0.1250  0.6860  0.3690
  844MPD2    C212400   1.864   2.886  16.869 -0.6565 -0.1774  1.0305
  844MPD2    C312401   1.856   3.028  16.848  0.0014 -0.5357  0.4806
  844MPD2    C412402   1.738   3.082  16.798 -0.0864 -0.7440  0.1541
  844MPD2    C512403   1.630   3.005  16.780 -0.0393  0.4083 -0.2227
  844MPD2     H12404   1.956   2.844  16.909  0.5827  1.5777 -0.0315
  844MPD2    H112405   1.716   3.187  16.781  0.7587 -0.3135  1.6985
  844MPD2    H212406   1.547   2.817  16.779 -0.6068 -0.9682 -0.0341
  844MPD2    H312407   1.537   3.047  16.745  0.0486  0.4942 -0.3567
  844MPD2     N12408   1.965   3.111  16.888  0.4167 -0.3481 -0.3826
  844MPD2    H512409   2.055   3.064  16.898  0.6141  0.5303  1.9073
  844MPD2    N112410   1.768   2.665  16.856 -0.0507 -0.2149  0.1223
  844MPD2    H712411   1.842   2.633  16.917 -0.4520 -0.0308  0.7073
  845MPD2     C12412   2.321   4.051  17.319 -0.1736 -0.0244 -0.4177
  845MPD2    C112413   2.204   3.982  17.327  0.0888 -0.1586 -0.2407
  845MPD2    C212414   2.204   3.850  17.288  0.3497 -0.4519  0.6872
  845MPD2    C312415   2.312   3.789  17.233  0.0774  0.3239 -0.2916
  845MPD2    C412416   2.431   3.856  17.230  0.7084  0.7373  0.2103
  845MPD2    C512417   2.430   3.983  17.285  0.3330  0.1569 -0.0937
  845MPD2     H12418   2.112   3.793  17.288 -0.8123  1.4391 -1.2046
  845MPD2    H112419   2.524   3.810  17.199 -0.5710  0.7565 -3.7044
  845MPD2    H212420   2.335   4.152  17.356  2.0860  0.5431 -2.8570
  845MPD2    H312421   2.517   4.048  17.282  0.0206  0.6241  1.1684
  845MPD2     N12422   2.294   3.657  17.189  0.4108 -0.5239  0.1113
  845MPD2    H512423   2.373   3.596  17.171  1.1972  0.8081 -1.0013
  845MPD2    N112424   2.082   4.051  17.366 -0.1429  0.4197  0.2336
  845MPD2    H712425   2.080   4.153  17.369 -1.5671  0.4352 -1.1179
  846MPD2     C12426   3.450   4.310  13.563  0.2118 -0.2409 -0.4354
  846MPD2    C112427   3.421   4.419  13.644 -0.3287  0.1359  0.9062
  846MPD2    C212428   3.432   4.401  13.782 -0.4615  0.7816 -0.3198
  846MPD2    C312429   3.477   4.287  13.843 -0.2519  0.0777  0.3487
  846MPD2    C412430   3.508   4.174  13.762 -0.2172 -0.4531 -0.2260
  846MPD2    C512431   3.492   4.194  13.624 -0.0407  0.5511  0.1704
  846MPD2     H12432   3.400   4.488  13.838  1.0461  0.7458  0.5925
  846MPD2    H112433   3.549   4.080  13.797  2.6029  0.0757 -2.1184
  846MPD2    H212434   3.433   4.319  13.457 -1.7108  1.2794 -0.0122
  846MPD2    H312435   3.515   4.110  13.560  1.2868  0.2657  1.0226
  846MPD2     N12436   3.485   4.278  13.989  0.3892 -0.1085 -0.1218
  846MPD2    H512437   3.469   4.359  14.048 -0.1651  0.5851 -1.2210
  846MPD2    N112438   3.408   4.552  13.590  0.7264 -0.4319  0.0784
  846MPD2    H712439   3.399   4.626  13.659 -0.3003  0.7261 -1.2976
  847MPD2     C12440   3.427   0.436  15.248 -0.3165 -0.1853 -0.5411
  847MPD2    C112441   3.560   0.445  15.196  0.2437 -0.9404 -0.2117
  847MPD2    C212442   3.648   0.350  15.246 -0.2536 -0.0422 -0.0372
  847MPD2    C312443   3.607   0.251  15.332 -0.5398 -0.0971  0.0117
  847MPD2    C412444   3.480   0.244  15.380 -0.2617 -0.1399 -0.2620
  847MPD2    C512445   3.391   0.341  15.336  0.2017 -0.2159  0.6356
  847MPD2     H12446   3.752   0.348  15.216 -0.3980 -1.0838 -0.4818
  847MPD2    H112447   3.452   0.166  15.450 -0.0378  2.6171  2.9286
  847MPD2    H212448   3.352   0.510  15.222 -1.3826  0.0019  3.1204
  847MPD2    H312449   3.290   0.347  15.375  0.0276  1.4284 -0.0892
  847MPD2     N12450   3.700   0.145  15.350 -0.2755  0.9360 -0.4025
  847MPD2    H512451   3.790   0.157  15.304 -0.9233 -0.8879 -2.1502
  847MPD2    N112452   3.602   0.533  15.096 -0.7364 -0.2428  0.3645
  847MPD2    H712453   3.700   0.518  15.074 -1.1132 -0.9847 -0.8071
  848MPD2     C12454   1.483   3.454  16.499  0.2378  0.1332 -0.1928
  848MPD2    C112455   1.497   3.521  16.623  0.0540 -0.4150  0.1047
  848MPD2    C212456   1.524   3.660  16.624  0.0822  0.1557 -0.6253
  848MPD2    C312457   1.545   3.727  16.506  0.4673 -0.7962  0.1585
  848MPD2    C412458   1.535   3.652  16.388 -0.6070 -0.4989  0.1222
  848MPD2    C512459   1.508   3.514  16.385  0.6089 -0.0013  0.3159
  848MPD2     H12460   1.535   3.712  16.718  0.2008  1.4523 -1.3593
  848MPD2    H112461   1.545   3.708  16.296 -1.5558 -2.5510 -1.2430
  848MPD2    H212462   1.475   3.346  16.493 -1.3652  0.3046 -1.0610
  848MPD2    H312463   1.504   3.453  16.296 -1.3151  0.6173 -0.0223
  848MPD2     N12464   1.565   3.862  16.489 -0.0811 -0.2385  0.4274
  848MPD2    H512465   1.591   3.881  16.393 -0.2205 -0.9325  0.2487
  848MPD2    N112466   1.495   3.450  16.753  0.3253 -0.3384  0.1307
  848MPD2    H712467   1.529   3.511  16.827  1.6772 -0.7309 -0.1702
  849MPD2     C12468   1.257   3.502  13.724 -0.6989  0.1885  0.3651
  849MPD2    C112469   1.381   3.457  13.766 -0.3539  0.1025  1.0302
  849MPD2    C212470   1.390   3.379  13.875 -0.1145 -0.0138 -0.2930
  849MPD2    C312471   1.280   3.342  13.957  0.5487  0.1515 -0.0484
  849MPD2    C412472   1.163   3.406  13.920 -0.0659  0.0067  0.1926
  849MPD2    C512473   1.151   3.486  13.811 -0.4800  0.3830 -0.0107
  849MPD2     H12474   1.479   3.323  13.899  1.1912  1.7137 -1.1504
  849MPD2    H112475   1.076   3.393  13.983 -1.2347 -1.3518 -1.7159
  849MPD2    H212476   1.233   3.561  13.636 -0.3171  0.9269  0.7543
  849MPD2    H312477   1.055   3.531  13.788  0.3993  2.2733 -0.0209
  849MPD2     N12478   1.307   3.251  14.062 -0.5655  0.2805 -0.1599
  849MPD2    H512479   1.402   3.219  14.080 -0.6740  0.0850  0.0578
  849MPD2    N112480   1.495   3.468  13.679  0.1858 -0.2593  0.2763
  849MPD2    H712481   1.578   3.420  13.713  0.2295  0.4983  1.2469
  850MPD2     C12482   3.447   1.415  14.791  0.1607 -0.6764 -0.1138
  850MPD2    C112483   3.511   1.376  14.905 -0.1554 -0.0871  0.2654
  850MPD2    C212484   3.646   1.362  14.905 -0.2524  0.0413  0.0798
  850MPD2    C312485   3.717   1.377  14.791 -0.2179  0.9951 -0.2374
  850MPD2    C412486   3.653   1.431  14.679 -0.0400  0.4360 -0.2994
  850MPD2    C512487   3.517   1.441  14.679  0.3000 -0.2632 -0.1261
  850MPD2     H12488   3.689   1.327  14.998 -0.0101  0.4805  0.1305
  850MPD2    H112489   3.706   1.440  14.585 -0.4918 -0.2124 -0.6159
  850MPD2    H212490   3.339   1.417  14.780 -0.1848  1.7048  3.6320
  850MPD2    H312491   3.467   1.474  14.588  1.4386  2.5048  0.2622
  850MPD2     N12492   3.856   1.369  14.794 -0.4247 -0.3303 -0.1339
  850MPD2    H512493   3.901   1.388  14.705 -2.7971 -0.5762 -1.4057
  850MPD2    N112494   3.446   1.367  15.036 -0.1101  0.0231 -0.2090
  850MPD2    H712495   3.500   1.320  15.108  1.1039  3.0918  0.8920
  851MPD2     C12496   3.893   1.393  15.571  0.4354  0.1336  0.0932
  851MPD2    C112497   3.826   1.360  15.450 -0.0987  0.1738 -0.0088
  851MPD2    C212498   3.894   1.292  15.357 -0.0808  0.1149  0.2213
  851MPD2    C312499   4.028   1.266  15.379  0.0378 -0.0440 -0.5007
  851MPD2    C412500   4.098   1.302  15.493  0.0102 -0.3967  0.3791
  851MPD2    C512501   4.024   1.369  15.586  0.6420  0.9868 -0.5271
  851MPD2     H12502   3.843   1.260  15.267 -1.5083 -2.1472  1.8328
  851MPD2    H112503   4.204   1.286  15.509  0.3074  0.0335 -1.1173
  851MPD2    H212504   3.843   1.443  15.653  0.2526  0.5453 -0.2663
  851MPD2    H312505   4.072   1.402  15.678  0.0594  0.2085  0.0513
  851MPD2     N12506   4.084   1.184  15.276 -0.6207  0.1046  0.3124
  851MPD2    H512507   4.013   1.164  15.206 -0.8149  0.5550  0.3806
  851MPD2    N112508   3.688   1.397  15.442 -0.1924  0.5150 -0.5680
  851MPD2    H712509   3.653   1.442  15.526  1.4150  0.5882  0.0680
  852MPD2     C12510   3.614   3.198  10.211  0.0195 -0.0541 -0.3920
  852MPD2    C112511   3.650   3.315  10.273 -0.3403  0.0488 -0.3092
  852MPD2    C212512   3.744   3.399  10.211 -0.4761 -0.1746  0.5210
  852MPD2    C312513   3.802   3.363  10.091  0.3999 -0.6590 -0.1820
  852MPD2    C412514   3.771   3.244  10.036  0.3265 -0.0617 -0.1435
  852MPD2    C512515   3.669   3.161  10.095 -0.5103  0.3332  0.0562
  852MPD2     H12516   3.772   3.495  10.254  0.4450  0.1050 -0.7152
  852MPD2    H112517   3.835   3.217   9.953  0.9989 -2.0039  0.9981
  852MPD2    H212518   3.538   3.138  10.260  0.9455 -0.2947  0.7515
  852MPD2    H312519   3.655   3.058  10.066 -0.1384  0.1137  0.6419
  852MPD2     N12520   3.898   3.459  10.049 -0.5001  0.1686 -0.4842
  852MPD2    H512521   3.917   3.541  10.106  0.5591 -0.3606 -0.0878
  852MPD2    N112522   3.603   3.345  10.403 -0.1397  0.2556 -0.1891
  852MPD2    H712523   3.632   3.434  10.443 -1.8204  0.5463  0.3989
  853MPD2     C12524   4.678   4.346  11.898 -0.9722 -0.2717  0.5880
  853MPD2    C112525   4.687   4.226  11.964 -0.2640 -0.8410  0.5932
  853MPD2    C212526   4.700   4.102  11.891  0.2920 -0.3276 -0.1214
  853MPD2    C312527   4.711   4.113  11.750  0.3266 -0.0388  0.4688
  853MPD2    C412528   4.707   4.235  11.688 -0.2308 -0.1112  0.6156
  853MPD2    C512529   4.683   4.355  11.760 -0.2000 -0.6985  0.5567
  853MPD2     H12530   4.703   4.007  11.945  0.3834  0.8871  2.0323
  853MPD2    H112531   4.720   4.237  11.581  0.3746 -4.4071  0.5962
  853MPD2    H212532   4.657   4.441  11.947 -1.5149 -1.0379  1.8195
  853MPD2    H312533   4.671   4.447  11.704 -0.0580 -0.1870  1.3740
  853MPD2     N12534   0.007   4.000  11.670  0.7696  0.7811 -0.0486
  853MPD2    H512535   0.015   4.008  11.569  1.1636 -0.7876 -0.1427
  853MPD2    N112536   4.667   4.231  12.103 -0.2512 -0.2752  0.0763
  853MPD2    H712537   4.653   4.325  12.138 -0.3789 -0.9854  1.9216
  854MPD2     C12538   1.688   3.677  12.524 -0.4831 -0.1213  0.9228
  854MPD2    C112539   1.698   3.794  12.596 -0.7362  0.9299 -0.2295
  854MPD2    C212540   1.755   3.798  12.720 -0.4971  0.1681  0.3946
  854MPD2    C312541   1.826   3.685  12.756 -0.2152  0.0884 -0.5570
  854MPD2    C412542   1.814   3.565  12.680  0.5947 -0.3528  0.4998
  854MPD2    C512543   1.735   3.560  12.574 -0.6271  0.0591  0.1049
  854MPD2     H12544   1.768   3.887  12.781 -0.2931  0.1627  0.3593
  854MPD2    H112545   1.869   3.475  12.702 -1.3395 -1.5393  0.5390
  854MPD2    H212546   1.646   3.669  12.424  0.1974 -1.2991  0.7323
  854MPD2    H312547   1.700   3.468  12.529  0.5476 -0.7560  0.8742
  854MPD2     N12548   1.913   3.681  12.864 -0.0890  0.1267 -0.0031
  854MPD2    H512549   1.966   3.595  12.874 -0.7032 -0.4866 -2.1194
  854MPD2    N112550   1.661   3.906  12.521 -0.1594  0.0613  0.0303
  854MPD2    H712551   1.635   3.891  12.424 -1.5578 -1.3660  0.6450
  855MPD2     C12552   2.477   3.949  13.754  0.1030  0.2251 -0.1571
  855MPD2    C112553   2.473   3.822  13.706  0.2808 -0.6777 -0.2237
  855MPD2    C212554   2.400   3.799  13.591 -0.2699 -0.5404 -0.3062
  855MPD2    C312555   2.346   3.901  13.515  0.0205 -0.0045  0.2678
  855MPD2    C412556   2.356   4.031  13.559 -0.1595  0.4270  0.0324
  855MPD2    C512557   2.416   4.055  13.684 -0.3075 -0.3480 -0.3106
  855MPD2     H12558   2.414   3.702  13.545 -0.8243  0.2654 -2.1470
  855MPD2    H112559   2.319   4.112  13.497  1.5661 -0.8517 -2.6198
  855MPD2    H212560   2.516   3.974  13.852  0.2680 -0.1774 -0.1202
  855MPD2    H312561   2.402   4.152  13.730  3.4980 -1.1513  2.5524
  855MPD2     N12562   2.291   3.864  13.390 -0.3750 -0.3417  0.4201
  855MPD2    H512563   2.303   3.766  13.364  3.5208 -0.0094  1.0562
  855MPD2    N112564   2.519   3.707  13.772 -0.1701  0.2770  0.5651
  855MPD2    H712565   2.501   3.617  13.727  0.5103  1.1267 -1.4152
  856MPD2     C12566   4.345   0.001  13.975 -0.3609  0.4565 -1.2152
  856MPD2    C112567   4.425   0.109  14.009 -0.3277 -0.3858 -0.2236
  856MPD2    C212568   4.373   0.240  14.017 -0.0655 -0.0906 -0.1767
  856MPD2    C312569   4.238   0.264  14.007  0.1350 -0.1425  0.4914
  856MPD2    C412570   4.156   0.158  13.993 -0.3630  0.3427 -0.6862
  856MPD2    C512571   4.209   0.031  13.973  0.1333 -0.7331  0.0180
  856MPD2     H12572   4.450   0.315  14.029 -0.1929  0.3719 -2.3389
  856MPD2    H112573   4.050   0.164  13.971 -0.2242  2.4836 -0.7540
  856MPD2    H212574   4.389   4.628  13.956 -1.4705 -0.3004  0.0892
  856MPD2    H312575   4.131   4.681  13.959  0.9772 -1.7731  0.7794
  856MPD2     N12576   4.190   0.391  14.030  0.5074 -0.5931  0.4951
  856MPD2    H512577   4.091   0.411  14.031  0.6324  0.1045 -0.9360
  856MPD2    N112578   4.568   0.100  14.007  0.2060  0.0284  0.0580
  856MPD2    H712579   4.617   0.183  14.040  1.0209 -0.8529  1.0880
  857MPD2     C12580   0.996   1.831  12.949  0.1215 -0.1439  0.8217
  857MPD2    C112581   1.124   1.800  12.905  0.4252 -0.0299  0.2499
  857MPD2    C212582   1.219   1.899  12.901 -0.0296  0.2345  0.3474
  857MPD2    C312583   1.193   2.032  12.933  0.3442 -0.1835  0.5167
  857MPD2    C412584   1.060   2.063  12.970 -0.6487  0.3696  0.4370
  857MPD2    C512585   0.966   1.964  12.981 -0.3059 -0.0562  0.4835
  857MPD2     H12586   1.320   1.876  12.871  0.1716 -0.0194  1.2255
  857MPD2    H112587   1.029   2.157  13.013 -1.5484  0.0289  0.5411
  857MPD2    H212588   0.917   1.757  12.955 -0.3768  0.2217 -1.3025
  857MPD2    H312589   0.871   1.998  13.021  0.3896  0.8509  1.3679
  857MPD2     N12590   1.296   2.129  12.934 -0.4090 -0.0836 -0.7411
  857MPD2    H512591   1.393   2.108  12.910 -0.0883 -0.9069  1.3644
  857MPD2    N112592   1.134   1.664  12.867 -0.1193 -0.5601  0.4604
  857MPD2    H712593   1.053   1.608  12.892 -0.1566 -0.2803  0.9655
  858MPD2     C12594   1.734   0.894  17.033  0.1976  0.8315  0.3269
  858MPD2    C112595   1.869   0.888  17.040  0.1245 -0.1274  0.0527
  858MPD2    C212596   1.930   0.932  17.151 -0.3133  0.0616  0.6135
  858MPD2    C312597   1.866   0.997  17.250  0.0910 -0.3930 -0.3546
  858MPD2    C412598   1.727   1.014  17.245 -0.2150  0.0778  0.2092
  858MPD2    C512599   1.655   0.956  17.137 -0.1080  1.2220  0.1166
  858MPD2     H12600   2.038   0.923  17.148 -0.4348 -0.3492 -2.5163
  858MPD2    H112601   1.680   1.062  17.330 -1.0428 -0.6914  0.1890
  858MPD2    H212602   1.682   0.844  16.952 -1.4350  2.5366  0.3245
  858MPD2    H312603   1.546   0.956  17.135 -0.1381  0.6678  1.6312
  858MPD2     N12604   1.937   1.044  17.370  0.1419 -0.5149 -0.1247
  858MPD2    H512605   1.887   1.101  17.438 -0.8223 -0.8164 -0.5866
  858MPD2    N112606   1.934   0.821  16.930  0.0814 -0.2668  0.0247
  858MPD2    H712607   1.883   0.757  16.870 -1.5976  0.9741  0.1179
  859MPD2     C12608   0.701   3.317  14.878 -0.5204  0.4903  0.2897
  859MPD2    C112609   0.822   3.301  14.947 -0.2796  0.1007 -0.0435
  859MPD2    C212610   0.886   3.177  14.957  0.3475  0.1966  0.1951
  859MPD2    C312611   0.824   3.070  14.892 -0.2642 -0.5746  0.0107
  859MPD2    C412612   0.706   3.090  14.823 -0.2471  0.1586 -0.7901
  859MPD2    C512613   0.642   3.207  14.825 -0.2173  0.4392  0.5900
  859MPD2     H12614   0.983   3.169  15.003  0.3195  0.4756  0.3007
  859MPD2    H112615   0.676   3.005  14.763 -1.9403 -0.0697  0.3929
  859MPD2    H212616   0.650   3.412  14.864 -0.5782  0.4191  0.0256
  859MPD2    H312617   0.554   3.220  14.763 -1.1841 -1.8296  1.4771
  859MPD2     N12618   0.894   2.953  14.874  0.6073 -0.0740 -0.0075
  859MPD2    H512619   0.854   2.881  14.815  0.2741 -1.1552  1.5259
  859MPD2    N112620   0.876   3.423  15.002  0.3996 -0.0047  0.0306
  859MPD2    H712621   0.816   3.505  15.001 -2.0668 -1.8077  0.3385
  860MPD2     C12622   3.196   3.413  11.621 -0.0599 -0.0077  0.6650
  860MPD2    C112623   3.185   3.540  11.680  0.7423  0.2626 -0.0320
  860MPD2    C212624   3.086   3.567  11.768  0.0211  0.2005  0.1320
  860MPD2    C312625   2.993   3.470  11.798 -0.4507 -0.1978  0.3559
  860MPD2    C412626   2.996   3.353  11.726  0.7395  0.0149 -0.8033
  860MPD2    C512627   3.105   3.321  11.647 -0.3497 -0.9196  0.3776
  860MPD2     H12628   3.087   3.661  11.820  0.7481  0.9530 -1.2173
  860MPD2    H112629   2.917   3.278  11.730 -0.8906  1.7479 -0.5014
  860MPD2    H212630   3.286   3.384  11.569 -0.5856 -1.7882  0.7461
  860MPD2    H312631   3.099   3.228  11.592  0.4869 -1.9566  2.0420
  860MPD2     N12632   2.898   3.501  11.896 -0.3423 -0.3561 -0.5974
  860MPD2    H512633   2.885   3.598  11.922 -0.3647 -0.7861  0.9588
  860MPD2    N112634   3.283   3.636  11.664  0.1426 -0.3353  0.1444
  860MPD2    H712635   3.269   3.708  11.734 -2.0867 -0.6726  0.0503
  861MPD2     C12636   1.505   1.225  11.289  0.2441 -1.2189 -0.8633
  861MPD2    C112637   1.388   1.275  11.343 -0.5487 -0.0040 -0.9950
  861MPD2    C212638   1.320   1.370  11.269 -0.5127  0.0520 -0.3556
  861MPD2    C312639   1.366   1.401  11.141  0.9845 -0.2662 -0.3811
  861MPD2    C412640   1.485   1.350  11.093 -0.6214  0.3687 -0.2554
  861MPD2    C512641   1.552   1.256  11.165  0.8674 -0.1140 -0.2547
  861MPD2     H12642   1.227   1.410  11.309  0.0830  1.0161  0.0342
  861MPD2    H112643   1.520   1.365  10.992 -0.7325 -1.1830 -0.5246
  861MPD2    H212644   1.575   1.171  11.351 -2.4914 -3.9361 -0.1072
  861MPD2    H312645   1.646   1.224  11.121  1.3926  0.2506  0.6035
  861MPD2     N12646   1.309   1.493  11.053  0.2195  0.4295  0.5863
  861MPD2    H512647   1.364   1.526  10.974  1.3919 -0.4625  1.0418
  861MPD2    N112648   1.347   1.241  11.478  0.4347 -0.0266 -0.3950
  861MPD2    H712649   1.268   1.296  11.509  0.3100 -1.2095  1.3839
  862MPD2     C12650   1.195   1.677  10.349  0.3039 -0.6765  1.1183
  862MPD2    C112651   1.282   1.640  10.452 -0.5625 -0.4034  0.2480
  862MPD2    C212652   1.373   1.544  10.426 -0.0039  0.9535  0.1216
  862MPD2    C312653   1.366   1.466  10.309 -0.1495  0.0923  0.6856
  862MPD2    C412654   1.284   1.508  10.203 -0.3549 -1.2135  0.4618
  862MPD2    C512655   1.203   1.616  10.226  0.3410 -0.0635  1.0005
  862MPD2     H12656   1.441   1.509  10.503  0.8035  0.3873 -0.8394
  862MPD2    H112657   1.288   1.460  10.107  0.4081  0.5838 -0.4095
  862MPD2    H212658   1.128   1.759  10.367  0.2116 -0.3925 -0.6014
  862MPD2    H312659   1.145   1.645  10.140 -1.3737  2.2754  2.9341
  862MPD2     N12660   1.448   1.357  10.278  0.3706  0.4043  0.1106
  862MPD2    H512661   1.430   1.315  10.188  1.5746  0.5367 -0.1966
  862MPD2    N112662   1.272   1.703  10.577 -0.0405 -0.7843 -0.1987
  862MPD2    H712663   1.176   1.722  10.603  0.0440  1.5563 -1.5857
  863MPD2     C12664   0.614   4.082  16.736  0.4906  0.4558 -1.0070
  863MPD2    C112665   0.518   4.115  16.825  0.1045  0.6820 -0.4455
  863MPD2    C212666   0.555   4.166  16.943  0.0231  0.5843 -0.3193
  863MPD2    C312667   0.691   4.200  16.975  0.6818 -0.3413 -0.4812
  863MPD2    C412668   0.783   4.171  16.876  0.5704  0.1958  0.3655
  863MPD2    C512669   0.746   4.110  16.758  0.9386  0.1232  0.1481
  863MPD2     H12670   0.479   4.191  17.017  0.1397 -0.6015  0.1973
  863MPD2    H112671   0.888   4.190  16.893  0.7180  0.1984 -0.5102
  863MPD2    H212672   0.582   4.028  16.648 -3.2226  0.1533  0.5401
  863MPD2    H312673   0.821   4.078  16.687  0.3399 -0.6312 -0.1411
  863MPD2     N12674   0.713   4.260  17.096  0.0887 -0.4005  0.1158
  863MPD2    H512675   0.642   4.272  17.167  0.4448 -0.9897  0.5738
  863MPD2    N112676   0.388   4.079  16.790 -0.0585  0.1948 -0.7569
  863MPD2    H712677   0.383   4.017  16.710 -1.2717 -1.9336  0.9653
  864MPD2     C12678   0.888   0.893  17.513 -0.4219  0.0524  0.1420
  864MPD2    C112679   0.974   0.839  17.412 -0.7387  0.0852 -0.1019
  864MPD2    C212680   1.048   0.929  17.331 -0.0793 -0.0322  0.3795
  864MPD2    C312681   1.029   1.068  17.347 -0.4510 -0.4959  0.1559
  864MPD2    C412682   0.950   1.114  17.441 -0.9436  0.3109  0.3314
  864MPD2    C512683   0.874   1.034  17.522 -0.1794  0.4210  0.2745
  864MPD2     H12684   1.102   0.888  17.247 -2.0631 -1.1298 -0.3585
  864MPD2    H112685   0.932   1.220  17.450 -1.4731  0.1511  1.1713
  864MPD2    H212686   0.828   0.833  17.581 -2.5045 -1.1641 -2.7435
  864MPD2    H312687   0.812   1.079  17.599  0.0315 -1.3676  1.5088
  864MPD2     N12688   1.096   1.161  17.258  0.7485 -0.0092 -0.2583
  864MPD2    H512689   1.054   1.253  17.246 -1.2456 -0.9293 -0.3925
  864MPD2    N112690   0.962   0.700  17.386  0.4680  0.5908 -0.8796
  864MPD2    H712691   0.901   0.649  17.448 -0.9416  3.8335  0.4159
  865MPD2     C12692   1.277   1.450  16.447 -0.4106 -0.3769  0.2504
  865MPD2    C112693   1.257   1.357  16.544 -0.3390 -0.0642  0.0222
  865MPD2    C212694   1.201   1.397  16.669  0.3198 -0.0535  0.6520
  865MPD2    C312695   1.146   1.520  16.683  0.2938 -0.0377 -0.2593
  865MPD2    C412696   1.156   1.607  16.578 -0.3515 -0.4751  0.1780
  865MPD2    C512697   1.223   1.580  16.465  0.0824  0.6404 -0.1058
  865MPD2     H12698   1.182   1.318  16.741  0.3814 -0.1923  0.5187
  865MPD2    H112699   1.122   1.707  16.604 -0.5541  0.3662 -3.3013
  865MPD2    H212700   1.333   1.429  16.357  1.0183 -1.4545  1.3879
  865MPD2    H312701   1.226   1.657  16.388  1.3712  0.0368 -0.6719
  865MPD2     N12702   1.077   1.565  16.795  0.1142 -0.1885 -0.0587
  865MPD2    H512703   1.005   1.633  16.773 -2.8049 -3.1583  0.2854
  865MPD2    N112704   1.305   1.223  16.514 -0.2400 -0.4904 -0.5430
  865MPD2    H712705   1.345   1.212  16.422 -0.0067 -0.6494 -0.4205
  866MPD2     C12706   2.575   1.644  11.550  0.3961  0.3475 -0.0088
  866MPD2    C112707   2.529   1.573  11.441  0.6162  0.2015  0.3681
  866MPD2    C212708   2.402   1.597  11.385 -0.3136  0.8899 -0.8349
  866MPD2    C312709   2.315   1.686  11.444 -0.4635  0.7303  0.6490
  866MPD2    C412710   2.352   1.735  11.568 -0.2339  0.2353  0.0333
  866MPD2    C512711   2.478   1.715  11.617 -0.4409 -0.4731 -0.1088
  866MPD2     H12712   2.364   1.539  11.301  1.0086 -1.0976 -0.0566
  866MPD2    H112713   2.285   1.786  11.636  0.4190  2.9495 -1.3689
  866MPD2    H212714   2.666   1.616  11.602 -0.0211 -0.1482  0.4461
  866MPD2    H312715   2.506   1.766  11.708 -1.5251 -0.5905  0.2981
  866MPD2     N12716   2.185   1.713  11.398  0.2905  0.2514 -0.2093
  866MPD2    H512717   2.128   1.761  11.467 -1.4825  1.1299 -2.2626
  866MPD2    N112718   2.628   1.499  11.371 -0.2054 -0.0958  0.2657
  866MPD2    H712719   2.725   1.509  11.397 -0.6178  1.1466  1.3053
  867MPD2     C12720   0.005   0.768  16.274 -0.7448 -0.4449  0.1121
  867MPD2    C112721   4.724   0.770  16.409 -0.2280 -0.5502  0.0561
  867MPD2    C212722   4.640   0.865  16.470  0.2178 -0.3417  0.5761
  867MPD2    C312723   4.562   0.950  16.396 -0.7118 -0.2353 -0.7567
  867MPD2    C412724   4.568   0.944  16.261  0.3108 -0.1845  0.0035
  867MPD2    C512725   4.652   0.851  16.193 -0.4996  0.0218  0.6632
  867MPD2     H12726   4.621   0.861  16.577 -1.2667 -1.7616  0.2725
  867MPD2    H112727   4.500   1.008  16.207  2.7321  0.3097 -2.4466
  867MPD2    H212728   0.073   0.699  16.225 -1.3289 -1.5258  0.8154
  867MPD2    H312729   4.653   0.843  16.085 -0.1669  0.0058  0.6676
  867MPD2     N12730   4.480   1.055  16.442  0.1235 -0.3187 -0.3623
  867MPD2    H512731   4.419   1.107  16.379 -1.6170 -0.4171  1.2335
  867MPD2    N112732   0.067   0.675  16.481  0.0608 -0.8349  0.1111
  867MPD2    H712733   0.113   0.598  16.434  2.5861  1.4909 -1.2224
  868MPD2     C12734   1.713   0.808  13.389  0.1109  0.2454 -0.0528
  868MPD2    C112735   1.669   0.681  13.429  0.4170 -0.3214 -0.1367
  868MPD2    C212736   1.609   0.663  13.553 -0.1784 -0.0277  0.6810
  868MPD2    C312737   1.587   0.776  13.636 -0.5251  1.3454  0.0821
  868MPD2    C412738   1.628   0.898  13.589 -0.0176 -0.3482  1.5771
  868MPD2    C512739   1.686   0.916  13.469 -0.8924  0.7274  0.2843
  868MPD2     H12740   1.580   0.564  13.588 -1.7525  0.7373  1.5487
  868MPD2    H112741   1.619   0.983  13.656  1.6043 -0.0152  1.3779
  868MPD2    H212742   1.770   0.830  13.299 -2.7271  3.8085 -0.9724
  868MPD2    H312743   1.724   1.014  13.442 -1.7884  0.7246 -1.0160
  868MPD2     N12744   1.513   0.764  13.759 -0.0470 -0.3442  1.3107
  868MPD2    H512745   1.476   0.671  13.778  1.5975 -0.9729  1.4482
  868MPD2    N112746   1.692   0.574  13.336 -0.2632  0.0212 -0.0114
  868MPD2    H712747   1.731   0.597  13.245 -2.0848 -0.1869 -0.8378
  869MPD2     C12748   3.864   3.248   1.723  0.4868  0.2386 -0.3019
  869MPD2    C112749   3.784   3.152   1.781  0.5525 -0.0158 -0.2410
  869MPD2    C212750   3.660   3.127   1.720 -0.2711  0.3062  0.1382
  869MPD2    C312751   3.627   3.182   1.595  0.2327  0.4415 -0.0869
  869MPD2    C412752   3.713   3.269   1.534 -0.8821  0.0546 -0.0779
  869MPD2    C512753   3.832   3.300   1.597 -0.2910 -0.3069 -0.5021
  869MPD2     H12754   3.595   3.050   1.762  0.8056  0.0504  1.3079
  869MPD2    H112755   3.688   3.310   1.437  1.9109 -0.8460 -1.1567
  869MPD2    H212756   3.959   3.275   1.766  0.6464 -0.2113 -0.3722
  869MPD2    H312757   3.899   3.368   1.547  0.2908  0.0711  0.8040
  869MPD2     N12758   3.505   3.159   1.524 -0.8299 -0.1998 -0.2755
  869MPD2    H512759   3.510   3.190   1.427 -0.1884 -0.9131 -0.4705
  869MPD2    N112760   3.824   3.104   1.905 -0.1452 -0.0784 -0.0327
  869MPD2    H712761   3.903   3.149   1.951  0.4798 -0.0814 -1.0898
  870MPD2     C12762   2.734   2.351   2.086 -0.8233 -0.3736  0.3975
  870MPD2    C112763   2.721   2.219   2.041  0.7618  0.4090 -0.4745
  870MPD2    C212764   2.702   2.202   1.906 -0.0518  0.7578 -0.7450
  870MPD2    C312765   2.704   2.307   1.815 -0.4289  0.2495 -0.2732
  870MPD2    C412766   2.715   2.441   1.861 -0.1347 -0.4709 -0.9503
  870MPD2    C512767   2.724   2.462   2.001  0.5618  0.5317  1.0366
  870MPD2     H12768   2.715   2.102   1.866  2.2063  1.7712 -2.5620
  870MPD2    H112769   2.714   2.529   1.798  1.6243 -0.5427 -1.0854
  870MPD2    H212770   2.743   2.375   2.191 -1.0419  1.7896 -0.0598
  870MPD2    H312771   2.736   2.564   2.036  0.9414  0.2252  1.8063
  870MPD2     N12772   2.701   2.272   1.676 -0.2332  0.1316 -0.3905
  870MPD2    H512773   2.700   2.174   1.650  0.1933 -0.3790  1.5228
  870MPD2    N112774   2.728   2.113   2.134 -0.0343  0.2436  0.1598
  870MPD2    H712775   2.752   2.148   2.226  0.6481 -0.3655  0.2140
  871MPD2     C12776   3.290   1.183  16.170 -0.2737  0.4826 -0.7539
  871MPD2    C112777   3.292   1.094  16.275  0.0996  0.3650 -0.0931
  871MPD2    C212778   3.335   0.966  16.248 -0.8329 -0.3531 -0.8699
  871MPD2    C312779   3.391   0.932  16.127  0.3669  0.0049 -0.5210
  871MPD2    C412780   3.394   1.025  16.020  0.1282 -0.2962 -0.1432
  871MPD2    C512781   3.334   1.143  16.041 -0.3186  0.6003 -0.2881
  871MPD2     H12782   3.330   0.885  16.320 -0.8449 -1.2682 -1.9034
  871MPD2    H112783   3.441   1.000  15.926 -0.4335  1.3521 -0.8573
  871MPD2    H212784   3.253   1.283  16.187  0.0089  0.4521  0.0635
  871MPD2    H312785   3.330   1.215  15.960 -0.2196  0.5841 -0.3065
  871MPD2     N12786   3.457   0.807  16.122 -0.0428  0.0805  0.0180
  871MPD2    H512787   3.441   0.739  16.195 -1.6885  0.4034 -0.0592
  871MPD2    N112788   3.259   1.139  16.402 -0.8911  0.5595 -0.1693
  871MPD2    H712789   3.229   1.237  16.401  2.3242  1.5374  1.5781
  872MPD2     C12790   4.298   3.807  13.750 -0.1448 -0.7567 -0.2591
  872MPD2    C112791   4.304   3.892  13.858 -0.2560 -0.0442 -0.2963
  872MPD2    C212792   4.205   3.883  13.954 -0.4551  0.5770 -0.4247
  872MPD2    C312793   4.100   3.794  13.944  0.0365  0.6206 -0.5255
  872MPD2    C412794   4.090   3.710  13.832  0.7253  0.0222  0.0054
  872MPD2    C512795   4.184   3.723  13.732 -0.5496 -0.4300 -0.4272
  872MPD2     H12796   4.207   3.946  14.042  2.4239  0.2380 -0.2460
  872MPD2    H112797   4.011   3.637  13.815  1.7043 -1.3043  1.2130
  872MPD2    H212798   4.378   3.808  13.676  0.7415  3.4004  0.7624
  872MPD2    H312799   4.177   3.666  13.640 -0.0962  0.1712 -0.8401
  872MPD2     N12800   4.002   3.799  14.047 -0.5252 -0.2235 -0.5176
  872MPD2    H512801   4.026   3.844  14.134  0.4680 -0.7531 -0.5204
  872MPD2    N112802   4.395   4.001  13.866  0.3804 -0.2812  1.1087
  872MPD2    H712803   4.362   4.080  13.921  2.7949  2.2714 -1.1167
  873MPD2     C12804   1.078   3.681   0.903  0.4044 -0.3806 -0.2452
  873MPD2    C112805   1.187   3.664   0.986  0.0791 -0.2414 -0.2173
  873MPD2    C212806   1.234   3.538   1.004 -0.5822  0.1719  0.4070
  873MPD2    C312807   1.178   3.425   0.945  0.3598 -0.3436 -0.0563
  873MPD2    C412808   1.054   3.448   0.874  0.7299 -0.2497  0.3185
  873MPD2    C512809   1.011   3.577   0.847 -0.1507 -0.1107  0.0658
  873MPD2     H12810   1.321   3.519   1.067 -0.2927 -2.3432 -0.7164
  873MPD2    H112811   1.006   3.376   0.809  0.6472  0.4914 -0.4335
  873MPD2    H212812   1.041   3.778   0.872 -0.8249 -0.7479  0.1144
  873MPD2    H312813   0.928   3.600   0.782 -1.8609 -0.7112  2.0553
  873MPD2     N12814   1.215   3.293   0.958  0.1411  0.2257 -0.3067
  873MPD2    H512815   1.150   3.228   0.916  1.5216 -0.1682 -1.8346
  873MPD2    N112816   1.243   3.773   1.055 -0.0097  0.2897  0.4364
  873MPD2    H712817   1.196   3.862   1.045  1.4945  0.8327 -1.8494
  874MPD2     C12818   1.081   3.806  16.091  0.1459  0.1445  0.4524
  874MPD2    C112819   1.107   3.786  16.224 -0.2785  0.3416 -0.5175
  874MPD2    C212820   1.162   3.885  16.306  0.2535  0.0233 -0.1911
  874MPD2    C312821   1.202   4.000  16.250 -0.1447 -0.0116 -0.0896
  874MPD2    C412822   1.175   4.026  16.114 -0.4123 -0.1206  0.1544
  874MPD2    C512823   1.117   3.927  16.037  0.0823  0.1909 -0.7305
  874MPD2     H12824   1.199   3.877  16.407 -0.5735  1.4009  0.2282
  874MPD2    H112825   1.203   4.121  16.070  0.7404  0.3664  1.9538
  874MPD2    H212826   1.037   3.730  16.027 -0.5689  0.3478  0.7029
  874MPD2    H312827   1.107   3.942  15.930  1.2446  1.6453 -0.6393
  874MPD2     N12828   1.292   4.083  16.319 -0.0045  0.5160  0.2597
  874MPD2    H512829   1.332   4.037  16.400 -0.1067 -1.7917 -1.0117
  874MPD2    N112830   1.078   3.658  16.274 -0.0626 -0.7128 -0.6621
  874MPD2    H712831   1.032   3.598  16.206 -0.3389 -0.2826 -0.8491
  875MPD2     C12832   2.489   2.228  14.554 -0.9456 -0.1124 -0.1372
  875MPD2    C112833   2.369   2.198  14.618  0.0504  0.2228  0.1542
  875MPD2    C212834   2.354   2.211  14.757 -0.3783  0.2823 -0.5042
  875MPD2    C312835   2.448   2.278  14.839  1.2363 -0.1856 -0.2181
  875MPD2    C412836   2.558   2.323  14.766 -0.5784  0.0473 -0.1477
  875MPD2    C512837   2.577   2.286  14.634  0.4702  0.1009  0.9562
  875MPD2     H12838   2.263   2.171  14.803 -0.7029  0.2420 -1.1849
  875MPD2    H112839   2.646   2.366  14.812  0.4536 -2.4341  0.2123
  875MPD2    H212840   2.514   2.219  14.448 -0.5124  0.8066 -0.1225
  875MPD2    H312841   2.668   2.317  14.584 -1.1645 -1.2657 -2.8607
  875MPD2     N12842   2.431   2.312  14.977  0.0090 -0.1512  0.6152
  875MPD2    H512843   2.512   2.345  15.028  0.4049 -2.8453  1.7407
  875MPD2    N112844   2.256   2.167  14.539  0.3857  0.3040  0.9366
  875MPD2    H712845   2.172   2.149  14.593  0.1611  2.5590  1.3190
  876MPD2     C12846   1.216   3.995  15.557  0.8347  0.4232 -0.0455
  876MPD2    C112847   1.328   3.980  15.628 -0.0702  0.5595 -0.2861
  876MPD2    C212848   1.336   3.873  15.716 -0.0007  1.4087  0.2303
  876MPD2    C312849   1.239   3.775  15.735  0.2446 -0.2002 -0.3828
  876MPD2    C412850   1.125   3.799  15.657  0.5125  0.1781  0.3678
  876MPD2    C512851   1.117   3.903  15.571 -0.1193  0.3124  0.6661
  876MPD2     H12852   1.428   3.857  15.771  1.0914 -2.0272 -2.6163
  876MPD2    H112853   1.038   3.735  15.656  0.4908  0.2049  1.2329
  876MPD2    H212854   1.196   4.065  15.477  0.5721 -0.2936 -0.6092
  876MPD2    H312855   1.026   3.920  15.514  0.0441  0.2722  0.3899
  876MPD2     N12856   1.246   3.655  15.803  0.4568  0.0560 -0.1746
  876MPD2    H512857   1.174   3.593  15.767  0.6322 -0.0669 -0.3088
  876MPD2    N112858   1.438   4.072  15.613  0.1043 -0.1288  0.0032
  876MPD2    H712859   1.438   4.136  15.534 -0.3592 -1.2197 -0.8828
  877MPD2     C12860   1.494   4.489  15.072 -0.6154 -0.1020  1.1367
  877MPD2    C112861   1.552   4.362  15.082  0.2857  0.3794  0.4700
  877MPD2    C212862   1.572   4.286  14.969  0.6047 -0.6866 -0.3451
  877MPD2    C312863   1.537   4.333  14.843 -0.5224 -0.3989 -0.3976
  877MPD2    C412864   1.491   4.465  14.836  0.2218  0.3514 -0.2248
  877MPD2    C512865   1.459   4.540  14.949  0.9066  0.4442 -0.3777
  877MPD2     H12866   1.633   4.198  14.982  2.2308  0.2535 -1.6548
  877MPD2    H112867   1.476   4.511  14.739 -0.6448 -0.4524 -0.4738
  877MPD2    H212868   1.456   4.548  15.154 -2.0063  0.7558 -0.1020
  877MPD2    H312869   1.402   4.632  14.943  0.2612  0.0520 -0.2846
  877MPD2     N12870   1.540   4.249  14.723  0.0378  0.1168  0.0202
  877MPD2    H512871   1.502   4.294  14.641  3.6098  1.7812 -0.7310
  877MPD2    N112872   1.607   4.314  15.204  0.1110  0.4874  0.4593
  877MPD2    H712873   1.638   4.218  15.213  0.2861  0.6750  1.7719
  878MPD2     C12874   1.171   3.027  12.957 -0.7465  1.0377 -0.2020
  878MPD2    C112875   1.163   3.166  12.979 -0.1648  0.3369 -0.8544
  878MPD2    C212876   1.260   3.219  13.055 -0.4261 -0.7615  0.2545
  878MPD2    C312877   1.354   3.139  13.113  0.3955 -0.7444  0.3089
  878MPD2    C412878   1.364   3.005  13.096 -0.8839  0.0571 -0.2237
  878MPD2    C512879   1.269   2.951  13.014  0.8868 -0.0406  0.4959
  878MPD2     H12880   1.268   3.327  13.046  1.1382 -0.7834  1.4561
  878MPD2    H112881   1.451   2.942  13.111  0.6917  2.4068  0.4858
  878MPD2    H212882   1.098   2.976  12.894  1.6537 -1.4944 -0.9160
  878MPD2    H312883   1.279   2.849  12.978 -0.3256  0.4062 -1.1515
  878MPD2     N12884   1.450   3.208  13.188  0.4905  0.0684  0.0055
  878MPD2    H512885   1.443   3.310  13.186  1.1138  0.0933 -0.7565
  878MPD2    N112886   1.049   3.230  12.927  0.1493 -0.3525  0.2846
  878MPD2    H712887   0.992   3.177  12.861 -0.6192  0.5608  0.2262
  879MPD2     C12888   1.794   0.236  17.352  0.5231 -0.1736 -0.9351
  879MPD2    C112889   1.814   0.125  17.434  0.4759  0.2335 -0.0366
  879MPD2    C212890   1.705   0.037  17.443  1.0555 -0.2825 -0.4400
  879MPD2    C312891   1.586   0.068  17.388  0.2859  0.0888  0.1320
  879MPD2    C412892   1.567   0.183  17.311  0.5380  0.8418  0.3644
  879MPD2    C512893   1.676   0.257  17.283  0.2312  0.2046  0.2243
  879MPD2     H12894   1.717   4.666  17.495 -0.2005 -0.5078 -0.5746
  879MPD2    H112895   1.467   0.207  17.277  1.2120  1.5503 -1.1299
  879MPD2    H212896   1.868   0.313  17.333 -1.2953  1.9664  0.5090
  879MPD2    H312897   1.675   0.349  17.228 -0.8316 -0.6400 -1.1631
  879MPD2     N12898   1.473   4.709  17.397 -0.4277  0.6096 -0.3253
  879MPD2    H512899   1.399   0.007  17.332 -0.3755  2.6893  0.3350
  879MPD2    N112900   1.927   0.086  17.512  0.1043 -0.2684  0.5759
  879MPD2    H712901   1.916   0.001  17.565 -0.6777 -1.2696 -1.2104
  880MPD2     C12902   3.161   0.959   1.093 -0.0714 -0.4744 -0.5001
  880MPD2    C112903   3.207   1.000   0.974  0.2019  0.3286 -0.3106
  880MPD2    C212904   3.310   0.928   0.910  0.3029 -0.1103 -0.2606
  880MPD2    C312905   3.346   0.803   0.957 -0.2727 -0.5123 -0.3511
  880MPD2    C412906   3.300   0.761   1.076  0.1992  0.5889 -0.1207
  880MPD2    C512907   3.215   0.842   1.144 -0.1567  0.2482  0.3500
  880MPD2     H12908   3.344   0.963   0.813  0.5463 -0.7856 -0.4215
  880MPD2    H112909   3.332   0.668   1.122 -1.1257 -1.0601 -2.5890
  880MPD2    H212910   3.093   1.016   1.155 -0.0943 -0.8690 -0.1584
  880MPD2    H312911   3.172   0.803   1.236  0.2575  2.5526  1.5191
  880MPD2     N12912   3.424   0.718   0.872  0.1835 -0.5112  1.0873
  880MPD2    H512913   3.466   0.761   0.790 -1.0343 -0.3222  0.5632
  880MPD2    N112914   3.152   1.125   0.928 -0.1847 -0.0300  0.8100
  880MPD2    H712915   3.082   1.169   0.987 -2.5072 -2.0038 -0.4643
  881MPD2     C12916   3.090   1.962   0.284 -0.4017  0.6685  0.4255
  881MPD2    C112917   3.075   1.832   0.229  0.2792 -0.4879 -0.9205
  881MPD2    C212918   3.028   1.726   0.311 -0.0073 -0.5796  0.4539
  881MPD2    C312919   3.021   1.752   0.444 -0.6422  0.4565  0.9038
  881MPD2    C412920   3.046   1.875   0.496  1.4501 -0.3826 -0.3152
  881MPD2    C512921   3.075   1.982   0.417 -0.4460 -0.2737  0.4645
  881MPD2     H12922   3.003   1.630   0.267 -1.8104  0.0083  0.2212
  881MPD2    H112923   3.064   1.891   0.602 -0.3003 -1.0092  0.0730
  881MPD2    H212924   3.107   2.052   0.226  0.3816 -0.9154 -1.7969
  881MPD2    H312925   3.097   2.076   0.467 -2.0780 -0.1558  0.9615
  881MPD2     N12926   3.000   1.647   0.543 -0.3096  0.3937 -0.2082
  881MPD2    H512927   2.995   1.678   0.639  3.0071 -0.5105  0.2659
  881MPD2    N112928   3.078   1.836   0.087 -0.3309  0.6281  0.6013
  881MPD2    H712929   3.116   1.925   0.056 -0.4600  0.9550  1.3724
  882MPD2     C12930   1.297   3.906  13.934  0.3566  0.1252  1.2915
  882MPD2    C112931   1.281   3.974  14.053  0.7921 -0.0215  0.0822
  882MPD2    C212932   1.165   4.033  14.073 -0.5937  0.5126 -0.6790
  882MPD2    C312933   1.066   4.037  13.970  0.4071 -0.1918 -0.0893
  882MPD2    C412934   1.081   3.967  13.853 -0.8125 -0.0272  0.2522
  882MPD2    C512935   1.204   3.906  13.836 -0.2656  0.5716  0.1514
  882MPD2     H12936   1.139   4.082  14.166 -1.3861  0.2926 -0.7771
  882MPD2    H112937   1.009   3.967  13.772 -0.8176 -2.6006  0.2699
  882MPD2    H212938   1.389   3.852  13.912 -0.3061  0.4758 -2.4087
  882MPD2    H312939   1.217   3.853  13.743  1.7370 -0.5099  1.0687
  882MPD2     N12940   0.939   4.094  13.991  0.3243  0.0019 -0.3785
  882MPD2    H512941   0.884   4.092  13.906 -0.2292 -0.4473 -0.0074
  882MPD2    N112942   1.379   3.961  14.154 -0.6692  0.3268 -0.1418
  882MPD2    H712943   1.460   3.909  14.121 -0.0770  1.4312 -0.4236
  883MPD2     C12944   3.003   3.327  16.481  0.0364  0.0171 -0.3230
  883MPD2    C112945   3.058   3.269  16.373  0.3614  0.1830  0.2915
  883MPD2    C212946   3.192   3.236  16.362  0.3984 -0.2754 -0.0678
  883MPD2    C312947   3.275   3.258  16.469 -0.0286  0.6658  0.5754
  883MPD2    C412948   3.209   3.294  16.584 -0.2717 -0.5579  0.4051
  883MPD2    C512949   3.077   3.327  16.593 -0.4283  0.2390 -0.3652
  883MPD2     H12950   3.232   3.181  16.278  2.1709 -1.3609  1.4615
  883MPD2    H112951   3.268   3.291  16.676 -1.0061  0.5059  0.9214
  883MPD2    H212952   2.900   3.355  16.495  0.5972  0.3835  3.1060
  883MPD2    H312953   3.032   3.351  16.689 -2.6214  3.3073 -2.1372
  883MPD2     N12954   3.416   3.245  16.459 -0.6837  0.3011 -0.5372
  883MPD2    H512955   3.460   3.229  16.369  1.4724  1.0923  0.3777
  883MPD2    N112956   2.980   3.239  16.249 -0.3648 -0.5681 -0.3435
  883MPD2    H712957   3.033   3.197  16.173 -0.5929 -0.0304 -0.7987
  884MPD2     C12958   0.493   4.447  15.453  0.2792 -0.3145 -0.0560
  884MPD2    C112959   0.479   4.564  15.383  0.6212  0.2274 -0.1605
  884MPD2    C212960   0.354   4.624  15.375 -0.0138  0.6168  0.0584
  884MPD2    C312961   0.239   4.566  15.426 -0.4216 -0.2138 -0.3006
  884MPD2    C412962   0.255   4.438  15.487 -0.1789  0.1543  0.4371
  884MPD2    C512963   0.382   4.390  15.502 -0.0774 -0.4730 -0.6004
  884MPD2     H12964   0.344   4.709  15.309 -1.4791  0.3244 -0.0959
  884MPD2    H112965   0.178   4.369  15.522 -0.8376  0.9948  0.6433
  884MPD2    H212966   0.589   4.404  15.478  0.8142  1.5477  1.1268
  884MPD2    H312967   0.395   4.292  15.546 -2.2992 -0.7197 -0.4948
  884MPD2     N12968   0.109   4.628  15.415 -0.0335 -0.2494  0.2426
  884MPD2    H512969   0.105   4.713  15.360  4.0799 -0.1215  0.1894
  884MPD2    N112970   0.583   4.637  15.316  0.5860 -0.1575  0.2170
  884MPD2    H712971   0.553   4.722  15.270  1.8356  0.5160  0.6344
  885MPD2     C12972   3.163   4.107   0.170  0.7157  0.4256  0.6360
  885MPD2    C112973   3.268   4.194   0.153  0.3284 -0.4251  0.5384
  885MPD2    C212974   3.263   4.279   0.045  0.9470 -0.3051 -0.4481
  885MPD2    C312975   3.160   4.278  17.653 -0.1360  0.1153  0.2707
  885MPD2    C412976   3.060   4.188  17.668 -0.2899  0.2338  0.2279
  885MPD2    C512977   3.060   4.100   0.075  0.0423 -0.6694  0.0524
  885MPD2     H12978   3.342   4.352   0.028  0.0640  0.5817 -0.7436
  885MPD2    H112979   2.983   4.163  17.595  1.0293 -2.1938 -0.3243
  885MPD2    H212980   3.154   4.055   0.264  1.8757  0.6880  0.8895
  885MPD2    H312981   2.979   4.029   0.079 -1.7666  1.4436  1.3242
  885MPD2     N12982   3.162   4.368  17.542 -0.0470  0.2556  0.9495
  885MPD2    H512983   3.246   4.424  17.528  0.5146 -0.7310  0.3069
  885MPD2    N112984   3.374   4.201   0.246 -1.0585  0.3718  0.0670
  885MPD2    H712985   3.392   4.112   0.291  3.4737 -0.2846 -3.0286
  886MPD2     C12986   4.426   3.092  15.056 -0.5268 -0.8653 -0.1494
  886MPD2    C112987   4.538   3.127  15.123  0.2796 -0.1590  0.6103
  886MPD2    C212988   4.574   3.257  15.123  0.1769 -0.6850 -0.4226
  886MPD2    C312989   4.507   3.360  15.060 -0.6947 -0.1701  0.7963
  886MPD2    C412990   4.391   3.319  14.995 -0.0677  0.4278 -0.1606
  886MPD2    C512991   4.351   3.183  14.995 -0.5322  0.7879 -0.4318
  886MPD2     H12992   4.663   3.271  15.184 -1.5491  0.4532  1.8137
  886MPD2    H112993   4.327   3.394  14.950 -0.3288 -0.7999 -1.7904
  886MPD2    H212994   4.399   2.989  15.041  0.8185 -1.3406  0.7234
  886MPD2    H312995   4.262   3.159  14.939 -0.7789 -0.6310  0.5682
  886MPD2     N12996   4.540   3.496  15.066 -0.4668  0.1588 -0.5159
  886MPD2    H512997   4.480   3.561  15.015  1.2174  3.1412  1.2572
  886MPD2    N112998   4.616   3.043  15.208 -0.0410  0.4957  0.5761
  886MPD2    H712999   4.684   3.091  15.266 -1.1150  1.4888  1.0055
  887MPD2     C13000   0.526   3.078  15.217 -0.2498 -0.5059  0.3555
  887MPD2    C113001   0.446   3.104  15.328  0.1373  0.3493  0.2142
  887MPD2    C213002   0.463   3.222  15.401 -0.1874 -0.8065 -0.4438
  887MPD2    C313003   0.551   3.321  15.356 -0.0970 -0.6078  0.0090
  887MPD2    C413004   0.640   3.295  15.252 -0.3145  0.6450 -0.3453
  887MPD2    C513005   0.629   3.171  15.190 -0.2605 -0.1245 -0.9942
  887MPD2     H13006   0.417   3.243  15.497  0.2528 -0.4167 -0.3161
  887MPD2    H113007   0.704   3.376  15.218 -0.7937  0.8893 -0.6697
  887MPD2    H213008   0.529   2.983  15.166 -1.2921 -0.0899 -0.4788
  887MPD2    H313009   0.691   3.141  15.107 -0.3861  1.8787 -1.8159
  887MPD2     N13010   0.540   3.436  15.429 -0.2284 -0.4452  0.5646
  887MPD2    H513011   0.471   3.438  15.504 -1.8115  2.3947 -0.9733
  887MPD2    N113012   0.348   3.009  15.365  0.1716  0.5414  0.0483
  887MPD2    H713013   0.318   2.943  15.294  2.5447 -0.1625 -0.3059
  888MPD2     C13014   2.406   3.605  14.721 -0.8063 -0.2493  0.4466
  888MPD2    C113015   2.433   3.648  14.852  0.6530  0.0939  0.5564
  888MPD2    C213016   2.486   3.772  14.873  0.1786  0.4253 -0.5356
  888MPD2    C313017   2.512   3.855  14.768 -0.7344  0.3181  0.4030
  888MPD2    C413018   2.485   3.813  14.639  0.5199  0.3547 -0.2096
  888MPD2    C513019   2.424   3.692  14.619  0.1773  0.3493  0.0545
  888MPD2     H13020   2.520   3.810  14.969  0.9330  0.2454 -0.7340
  888MPD2    H113021   2.502   3.869  14.548 -1.0540  1.4309  0.1626
  888MPD2    H213022   2.337   3.526  14.695 -0.5056 -1.1040  2.1996
  888MPD2    H313023   2.388   3.667  14.520  1.5306  1.4414 -0.7079
  888MPD2     N13024   2.538   3.993  14.794  0.0278 -0.7117 -0.0828
  888MPD2    H513025   2.553   4.021  14.891 -1.3399 -1.1060  0.2307
  888MPD2    N113026   2.383   3.566  14.957  0.6190 -0.7127  0.5440
  888MPD2    H713027   2.415   3.600  15.047  0.3721 -0.2302  0.4476
  889MPD2     C13028   1.246   2.802  12.540  0.3608  0.5637  0.1162
  889MPD2    C113029   1.308   2.813  12.663 -0.3410 -0.5589  0.3001
  889MPD2    C213030   1.360   2.939  12.689 -0.3483 -0.0128  0.1410
  889MPD2    C313031   1.327   3.055  12.617  0.9663 -0.0884  0.9857
  889MPD2    C413032   1.242   3.042  12.510  0.0544 -0.7320 -0.5600
  889MPD2    C513033   1.204   2.919  12.480 -0.1198  0.1454 -0.3505
  889MPD2     H13034   1.402   2.942  12.789 -0.3392 -4.5071  0.2620
  889MPD2    H113035   1.204   3.122  12.448 -0.2107  0.2425  0.8668
  889MPD2    H213036   1.206   2.708  12.505  1.2926 -0.0229  0.6159
  889MPD2    H313037   1.151   2.903  12.386 -0.6682 -0.0190 -0.0126
  889MPD2     N13038   1.378   3.183  12.664  0.2255  0.3192 -0.4170
  889MPD2    H513039   1.423   3.182  12.755  0.6483  1.0101 -0.6220
  889MPD2    N113040   1.356   2.691  12.716 -0.4074  0.0535  0.0865
  889MPD2    H713041   1.319   2.606  12.675  1.5497 -1.1645  0.8395
  890MPD2     C13042   0.935   0.288  14.794  0.6128 -0.0463  0.0086
  890MPD2    C113043   1.043   0.341  14.869 -0.6585  0.6593  0.4538
  890MPD2    C213044   1.097   0.271  14.977 -0.2073  0.4646  0.1545
  890MPD2    C313045   1.053   0.141  14.996  0.3815  0.7998 -0.0453
  890MPD2    C413046   0.958   0.082  14.914 -0.8081  0.7961  0.5223
  890MPD2    C513047   0.894   0.160  14.817  0.0963  0.0884  1.0995
  890MPD2     H13048   1.168   0.318  15.043  0.4371 -0.4149  0.0777
  890MPD2    H113049   0.928   4.702  14.919  0.7641  0.3025 -0.2525
  890MPD2    H213050   0.883   0.346  14.719  0.0593 -0.2247  0.2525
  890MPD2    H313051   0.812   0.127  14.755 -0.4149  0.7771  1.4077
  890MPD2     N13052   1.106   0.075  15.107  0.6303 -0.7001 -0.6043
  890MPD2    H513053   1.160   0.136  15.168 -0.5667 -0.8938  0.6392
  890MPD2    N113054   1.083   0.476  14.831  0.5930  1.3858  0.1636
  890MPD2    H713055   1.027   0.525  14.761  1.5917  0.7768 -1.0499
  891MPD2     C13056   3.672   3.523  17.039 -0.4702  0.5961 -0.4625
  891MPD2    C113057   3.719   3.392  17.029  0.5146  0.4234 -0.5671
  891MPD2    C213058   3.848   3.369  17.063  1.0883  0.1851 -0.0752
  891MPD2    C313059   3.936   3.472  17.077 -0.1186  0.4563  0.3476
  891MPD2    C413060   3.892   3.600  17.075 -0.1064 -1.0465 -0.4075
  891MPD2    C513061   3.759   3.624  17.076  0.2577  0.5315  0.4874
  891MPD2     H13062   3.878   3.266  17.079  2.7993  0.6244 -0.5223
  891MPD2    H113063   3.960   3.682  17.095  1.6489 -3.1891  2.5063
  891MPD2    H213064   3.567   3.547  17.027 -0.5817 -0.2838 -1.2022
  891MPD2    H313065   3.713   3.720  17.095 -0.1092  0.0922  1.8701
  891MPD2     N13066   4.072   3.434  17.099  0.8224 -0.0556  0.2435
  891MPD2    H513067   4.086   3.337  17.127 -2.0740  0.1317  2.2808
  891MPD2    N113068   3.627   3.293  16.998 -0.3827 -0.5627  0.2903
  891MPD2    H713069   3.529   3.320  16.996 -0.2960 -0.2528  0.3227
  892MPD2     C13070   0.427   4.638  14.712  0.0265 -0.2129  0.2788
  892MPD2    C113071   0.338   4.558  14.641  0.3100 -0.0955  0.0227
  892MPD2    C213072   0.372   4.498  14.520 -0.2248 -0.1403 -0.1594
  892MPD2    C313073   0.494   4.508  14.466 -0.3779  0.2268 -0.1709
  892MPD2    C413074   0.590   4.587  14.533 -0.0589 -0.6055  0.6057
  892MPD2    C513075   0.554   4.644  14.657 -0.2656  0.1104  0.0169
  892MPD2     H13076   0.292   4.437  14.480  1.4639 -1.0518 -2.1236
  892MPD2    H113077   0.691   4.601  14.496 -0.2490  1.1789  0.7397
  892MPD2    H213078   0.401   4.688  14.805  2.2510 -0.4378  1.0127
  892MPD2    H313079   0.634   4.708  14.693 -0.6523  1.9392 -2.3525
  892MPD2     N13080   0.538   4.434  14.348 -0.3233  0.6201  0.2993
  892MPD2    H513081   0.615   4.475  14.296  3.5794 -2.9066  3.2475
  892MPD2    N113082   0.206   4.549  14.674 -0.7452  0.9940  0.1950
  892MPD2    H713083   0.140   4.513  14.605 -0.5551 -0.7754  0.9410
  893MPD2     C13084   3.051   2.110   1.363 -0.0087 -0.4285  0.9657
  893MPD2    C113085   3.026   2.228   1.430 -0.6367 -0.0311 -0.4388
  893MPD2    C213086   2.981   2.337   1.351  0.4097 -0.1038 -0.6178
  893MPD2    C313087   2.968   2.319   1.217  0.3439 -0.1543  0.2971
  893MPD2    C413088   3.012   2.208   1.157 -0.3061  0.2118  0.4846
  893MPD2    C513089   3.060   2.102   1.232  0.0753 -0.3891 -0.2022
  893MPD2     H13090   2.952   2.433   1.391  1.5453  0.8654 -2.1429
  893MPD2    H113091   3.006   2.196   1.049 -0.6556  3.9338  0.1162
  893MPD2    H213092   3.088   2.024   1.418  1.8773 -0.8219 -0.9055
  893MPD2    H313093   3.101   2.012   1.189 -1.7160 -0.8151 -1.0160
  893MPD2     N13094   2.926   2.422   1.129  0.6011  0.4812  0.0646
  893MPD2    H513095   2.922   2.386   1.035  0.9730  0.3146  0.1134
  893MPD2    N113096   3.039   2.221   1.570 -0.4132 -0.3486  0.1487
  893MPD2    H713097   3.043   2.128   1.608  2.2236 -0.1023  0.5247
  894MPD2     C13098   0.257   0.195   1.222 -0.1364 -0.1169  0.3111
  894MPD2    C113099   0.385   0.240   1.258 -0.0198  0.8036  0.2728
  894MPD2    C213100   0.433   0.361   1.210  0.6205  0.1310  0.2563
  894MPD2    C313101   0.356   0.433   1.118 -0.2020 -0.4105  0.9989
  894MPD2    C413102   0.241   0.377   1.069  0.0729  0.6286  0.9059
  894MPD2    C513103   0.187   0.264   1.126 -0.7605  0.3453  0.6050
  894MPD2     H13104   0.533   0.392   1.240  1.3508  2.7884 -4.7636
  894MPD2    H113105   0.177   0.425   0.996  2.6552  0.0675 -1.7187
  894MPD2    H213106   0.201   0.111   1.260  0.7884 -1.2272 -0.8149
  894MPD2    H313107   0.091   0.230   1.090 -0.7617  0.4279  0.5284
  894MPD2     N13108   0.410   0.554   1.070 -1.0548  0.5377 -0.1920
  894MPD2    H513109   0.501   0.581   1.106 -0.6127  0.7144 -1.4298
  894MPD2    N113110   0.473   0.161   1.337  0.7494  0.3155  0.0582
  894MPD2    H713111   0.566   0.199   1.351  0.6497  1.2715 -2.0047
  895MPD2     C13112   3.277   3.739  13.731 -0.5851 -0.0339  0.3015
  895MPD2    C113113   3.240   3.799  13.612  0.2401 -0.3858  0.4378
  895MPD2    C213114   3.336   3.865  13.540 -0.4731  0.0971  0.4215
  895MPD2    C313115   3.472   3.850  13.580  0.2666 -1.1248  0.0301
  895MPD2    C413116   3.501   3.801  13.706  0.3659 -0.4647 -0.3618
  895MPD2    C513117   3.397   3.751  13.782 -0.2113  0.0732  0.6658
  895MPD2     H13118   3.311   3.886  13.436  1.0766 -0.0062  0.0314
  895MPD2    H113119   3.602   3.781  13.741  0.4220  1.5937  0.6673
  895MPD2    H213120   3.209   3.680  13.792  0.3376  0.4185  1.7692
  895MPD2    H313121   3.416   3.705  13.878 -0.0165 -1.4302 -0.0922
  895MPD2     N13122   3.568   3.858  13.477  0.9269  0.3395  0.8281
  895MPD2    H513123   3.530   3.874  13.384  1.4908 -0.6021  0.4343
  895MPD2    N113124   3.110   3.789  13.569  0.3757 -0.3379 -0.2462
  895MPD2    H713125   3.070   3.854  13.502  1.2232  0.6598  0.2069
  896MPD2     C13126   1.828   1.326   2.003 -0.3644  0.3671 -0.0234
  896MPD2    C113127   1.858   1.238   1.900 -0.9295  0.5190 -0.0105
  896MPD2    C213128   1.759   1.200   1.815 -0.1173  0.5630  0.5333
  896MPD2    C313129   1.627   1.249   1.831 -0.0992 -0.5494 -0.6324
  896MPD2    C413130   1.604   1.328   1.943  0.5207  0.4596 -0.3653
  896MPD2    C513131   1.699   1.364   2.027  0.3911  0.0703  0.2218
  896MPD2     H13132   1.772   1.126   1.737 -2.2406  0.0223  0.7050
  896MPD2    H113133   1.507   1.374   1.962 -0.0536 -1.1864  0.6466
  896MPD2    H213134   1.906   1.361   2.070 -0.7299  1.6525 -0.2711
  896MPD2    H313135   1.675   1.426   2.112 -1.0851 -0.9119  0.5023
  896MPD2     N13136   1.516   1.188   1.752 -0.1758 -0.1201  0.3365
  896MPD2    H513137   1.542   1.105   1.701 -0.4901 -1.0100  1.6342
  896MPD2    N113138   1.992   1.197   1.877  0.1942 -1.0604  0.1907
  896MPD2    H713139   2.062   1.234   1.940  0.2857 -1.5634  0.3865
  897MPD2     C13140   3.082   2.407  10.423  0.2395  0.4942 -0.2534
  897MPD2    C113141   3.018   2.528  10.420 -0.0122  0.2306  0.0119
  897MPD2    C213142   2.888   2.535  10.456  0.2728 -0.3605  0.1522
  897MPD2    C313143   2.817   2.421  10.492  0.3822 -0.1114 -0.3865
  897MPD2    C413144   2.885   2.302  10.506  0.6891  0.1066  0.0957
  897MPD2    C513145   3.013   2.292  10.460  0.0064  0.3989 -0.3522
  897MPD2     H13146   2.830   2.623  10.432  0.1718 -0.0616  1.5073
  897MPD2    H113147   2.831   2.211  10.527 -1.0709  1.2153  0.3197
  897MPD2    H213148   3.186   2.397  10.396 -0.0146 -3.1242  0.1224
  897MPD2    H313149   3.061   2.195  10.462  1.1938  1.0265  1.7585
  897MPD2     N13150   2.676   2.407  10.510 -0.4219 -0.3150 -0.1826
  897MPD2    H513151   2.654   2.311  10.536  0.3954 -0.5579 -0.3741
  897MPD2    N113152   3.093   2.641  10.379 -0.0546  0.0095  0.2876
  897MPD2    H713153   3.190   2.618  10.359 -0.0246  0.7248 -0.3905
  898MPD2     C13154   4.557   3.646   0.349 -0.0394 -0.2021  0.2210
  898MPD2    C113155   4.636   3.594   0.249  0.2301  0.0756 -0.5117
  898MPD2    C213156   4.652   3.669   0.133  0.3887 -0.4776  0.1198
  898MPD2    C313157   4.586   3.791   0.115 -0.1544 -0.2988  0.9802
  898MPD2    C413158   4.514   3.847   0.217 -0.9873  0.1857  0.4592
  898MPD2    C513159   4.500   3.769   0.331 -0.0732 -0.9709 -0.6036
  898MPD2     H13160   4.707   3.610   0.061  1.8014  2.0398 -0.8376
  898MPD2    H113161   4.469   3.945   0.209 -0.1344  0.3225 -2.6691
  898MPD2    H213162   4.544   3.607   0.449 -2.7638  0.7662  0.2497
  898MPD2    H313163   4.443   3.796   0.420  1.2403  0.7798 -0.2797
  898MPD2     N13164   4.603   3.859  17.687 -0.6432 -0.5206 -0.0064
  898MPD2    H513165   4.651   3.803  17.617  2.1963 -0.2499  1.7094
  898MPD2    N113166   4.705   3.473   0.267  0.4967  0.1791  0.4789
  898MPD2    H713167   0.024   3.435   0.183  1.3595  1.5712  0.2971
  899MPD2     C13168   0.631   3.972  17.689 -0.1926 -0.3987  0.0492
  899MPD2    C113169   0.632   4.111   0.011  0.2318  0.3361  0.2146
  899MPD2    C213170   0.581   4.160   0.130  0.5925 -0.4308  0.5277
  899MPD2    C313171   0.546   4.074   0.231 -0.2273 -0.5821 -0.2701
  899MPD2    C413172   0.557   3.940   0.217  0.3417  0.2093 -0.2341
  899MPD2    C513173   0.597   3.887   0.094  0.7811  0.3779 -0.3419
  899MPD2     H13174   0.566   4.266   0.149  1.3112 -0.5402  1.6849
  899MPD2    H113175   0.540   3.870   0.298 -0.7975  1.9992  1.0620
  899MPD2    H213176   0.674   3.927  17.600 -3.2637 -0.6889 -1.3089
  899MPD2    H313177   0.589   3.782   0.068 -2.1963  1.3383 -3.3919
  899MPD2     N13178   0.496   4.126   0.350 -0.8051 -0.3425  0.0093
  899MPD2    H513179   0.481   4.226   0.355 -1.1758 -0.3599 -0.7587
  899MPD2    N113180   0.679   4.188  17.602 -0.2062 -0.1143  0.2108
  899MPD2    H713181   0.694   4.147  17.510  0.8356  2.2854 -0.6746
  900MPD2     C13182   0.407   1.173  12.749 -0.3190  0.3420 -0.6423
  900MPD2    C113183   0.395   1.054  12.679  0.3537 -0.6230  0.0946
  900MPD2    C213184   0.313   1.047  12.560 -0.4485  0.8483  0.2185
  900MPD2    C313185   0.250   1.164  12.523 -0.7504 -0.1110  0.9670
  900MPD2    C413186   0.268   1.281  12.594  0.5404 -0.3400  0.1213
  900MPD2    C513187   0.348   1.290  12.703 -0.5456  0.0283 -0.1455
  900MPD2     H13188   0.308   0.963  12.492  1.3465 -0.6361  1.8918
  900MPD2    H113189   0.238   1.375  12.548 -0.5482 -1.5539 -1.6513
  900MPD2    H213190   0.473   1.177  12.835  0.2628 -1.2378 -1.0158
  900MPD2    H313191   0.357   1.384  12.756  0.8188 -1.0556  1.5488
  900MPD2     N13192   0.168   1.156  12.406 -0.0235 -0.8091  0.4197
  900MPD2    H513193   0.158   1.065  12.362 -1.8670 -0.5925  0.4034
  900MPD2    N113194   0.456   0.941  12.734 -0.2378 -0.8133 -0.0768
  900MPD2    H713195   0.507   0.951  12.821 -2.9111  1.3630  1.2390
  901MPD2     C13196   0.306   0.144  13.225  0.5362  0.3403 -0.3338
  901MPD2    C113197   0.355   0.111  13.101 -0.9248 -0.8087 -0.4229
  901MPD2    C213198   0.432   0.211  13.041  0.5904 -0.0901 -0.2027
  901MPD2    C313199   0.445   0.340  13.098  0.3057  0.0830 -0.0686
  901MPD2    C413200   0.397   0.366  13.224  0.0867 -0.0313 -0.4672
  901MPD2    C513201   0.329   0.263  13.291 -0.1150  0.3804 -0.1092
  901MPD2     H13202   0.480   0.181  12.948 -0.5851 -3.3079  0.2443
  901MPD2    H113203   0.413   0.451  13.290 -1.4731  0.0539 -0.1913
  901MPD2    H213204   0.255   0.067  13.281 -4.0182  2.3296 -1.7309
  901MPD2    H313205   0.313   0.275  13.398  1.7117  0.6362  0.1370
  901MPD2     N13206   0.525   0.429  13.016 -0.2792 -0.0050 -0.2437
  901MPD2    H513207   0.560   0.400  12.925  1.2178  1.9512 -0.2852
  901MPD2    N113208   0.328   4.708  13.042  0.3056  0.2051  0.0395
  901MPD2    H713209   0.263   4.650  13.094  1.7882 -0.6436  0.9377
  902MPD2     C13210   4.172   3.927  13.408 -0.4001  0.1363 -0.3455
  902MPD2    C113211   4.075   3.945  13.305 -0.2094  0.0793 -0.6696
  902MPD2    C213212   4.079   3.857  13.198  0.2437  1.0954  0.4033
  902MPD2    C313213   4.173   3.757  13.184 -0.3237 -0.6876 -0.9690
  902MPD2    C413214   4.259   3.735  13.288  0.4142 -0.7101 -0.4313
  902MPD2    C513215   4.259   3.819  13.395 -1.0236  0.6779 -0.0711
  902MPD2     H13216   4.000   3.868  13.124 -0.1670  0.7653  0.7875
  902MPD2    H113217   4.330   3.656  13.267  0.8080 -0.4463 -0.0920
  902MPD2    H213218   4.182   3.990  13.496  0.3437  2.1357 -1.8461
  902MPD2    H313219   4.327   3.781  13.470  0.6927  1.4063 -1.2505
  902MPD2     N13220   4.175   3.678  13.064  0.1587  0.2704 -0.4426
  902MPD2    H513221   4.222   3.588  13.071 -1.3236 -0.4923 -0.4151
  902MPD2    N113222   3.973   4.040  13.324  0.4980 -0.8687 -0.5841
  902MPD2    H713223   3.977   4.091  13.412 -1.2952 -1.7519  0.0163
  903MPD2     C13224   4.132   3.456  12.167  0.6178  0.4283  1.0227
  903MPD2    C113225   4.040   3.520  12.243  0.1979  0.1585  0.1470
  903MPD2    C213226   3.932   3.593  12.186 -0.0312  0.0729 -0.7513
  903MPD2    C313227   3.922   3.581  12.047 -0.2305 -0.5774  0.6953
  903MPD2    C413228   4.025   3.520  11.971 -0.3712 -0.2065 -0.0172
  903MPD2    C513229   4.133   3.461  12.032 -0.0997 -1.0531  0.3695
  903MPD2     H13230   3.854   3.643  12.243  2.2716  0.9085  1.6799
  903MPD2    H113231   4.020   3.515  11.863  0.7940 -1.3329 -0.0241
  903MPD2    H213232   4.215   3.398  12.206  1.6915  0.7225 -0.8537
  903MPD2    H313233   4.202   3.404  11.969  1.7035  1.9309 -0.3665
  903MPD2     N13234   3.807   3.641  11.989 -0.2091  0.5686  0.1437
  903MPD2    H513235   3.731   3.675  12.048 -0.3959  0.6900 -0.1695
  903MPD2    N113236   4.055   3.517  12.384  0.6498 -0.3738  0.3419
  903MPD2    H713237   4.141   3.468  12.408  0.6112 -0.4466  0.3334
  904MPD2     C13238   3.316   2.918  14.098 -0.3482 -0.2251 -0.6647
  904MPD2    C113239   3.358   2.998  14.000  0.0235  0.1308 -0.2081
  904MPD2    C213240   3.491   2.986  13.960  0.3686 -0.4776  0.2120
  904MPD2    C313241   3.581   2.921  14.040  0.6104 -0.1888 -0.1403
  904MPD2    C413242   3.529   2.852  14.149  0.1934  0.2644  0.3326
  904MPD2    C513243   3.399   2.853  14.176 -0.0485  0.1459 -0.6646
  904MPD2     H13244   3.530   3.047  13.879 -0.7643 -2.1851 -1.6225
  904MPD2    H113245   3.596   2.808  14.222 -1.1196 -0.0977  1.3204
  904MPD2    H213246   3.212   2.923  14.130  0.1736  2.7640  0.6137
  904MPD2    H313247   3.377   2.798  14.266  1.5658  0.2037 -0.2222
  904MPD2     N13248   3.723   2.924  14.016 -0.1779  0.8879  0.4538
  904MPD2    H513249   3.759   2.996  13.954 -1.1136 -0.0595 -1.1879
  904MPD2    N113250   3.255   3.087  13.944 -0.1202 -0.4223  0.1531
  904MPD2    H713251   3.167   3.062  13.989 -0.5588 -1.0688 -1.0643
  905MPD2     C13252   3.245   3.548  13.317 -0.0728  0.1781  0.0871
  905MPD2    C113253   3.378   3.517  13.354  0.4758 -0.6565  0.1997
  905MPD2    C213254   3.480   3.546  13.264 -0.4490  0.4444 -1.1817
  905MPD2    C313255   3.459   3.605  13.143  0.2988  0.8856 -0.3796
  905MPD2    C413256   3.327   3.645  13.111 -0.7358 -0.4158  0.1451
  905MPD2    C513257   3.225   3.610  13.200 -0.0228  0.2964  0.7065
  905MPD2     H13258   3.577   3.512  13.298  0.7377  2.2282 -2.8064
  905MPD2    H113259   3.310   3.702  13.019 -0.8622 -0.3891  0.1844
  905MPD2    H213260   3.163   3.538  13.387  0.8475 -0.6573  1.0652
  905MPD2    H313261   3.123   3.639  13.179  0.4205 -0.3593 -2.4475
  905MPD2     N13262   3.564   3.629  13.054  0.0391  0.2942  0.7723
  905MPD2    H513263   3.530   3.651  12.961  0.0037 -0.3567  0.6308
  905MPD2    N113264   3.401   3.475  13.484  0.0074  0.5273 -0.7031
  905MPD2    H713265   3.322   3.459  13.545  1.1583 -0.1585  0.6076
  906MPD2     C13266   1.514   2.461  11.442  0.2249  0.3756 -0.6360
  906MPD2    C113267   1.388   2.457  11.381 -0.0322 -0.2450 -0.7875
  906MPD2    C213268   1.280   2.427  11.459 -0.0103  0.7760 -0.5061
  906MPD2    C313269   1.287   2.403  11.595 -0.5166 -0.1365 -0.1160
  906MPD2    C413270   1.414   2.384  11.644  0.2174 -0.5596 -0.2036
  906MPD2    C513271   1.525   2.407  11.572 -0.3688 -0.4238 -0.3770
  906MPD2     H13272   1.183   2.427  11.412  0.1990 -0.8613 -0.9074
  906MPD2    H113273   1.431   2.348  11.745 -1.0628 -0.8961 -0.1073
  906MPD2    H213274   1.605   2.482  11.387 -0.7984 -0.1612 -2.5512
  906MPD2    H313275   1.624   2.380  11.608 -1.0490 -0.1152  1.7008
  906MPD2     N13276   1.170   2.383  11.668  0.1988 -0.4448 -0.0916
  906MPD2    H513277   1.182   2.358  11.766  0.4980  1.5797  0.3769
  906MPD2    N113278   1.371   2.477  11.244 -0.0215 -0.0150 -0.3096
  906MPD2    H713279   1.281   2.447  11.207  0.0834 -0.0809 -0.5087
  907MPD2     C13280   1.019   1.515  15.538  0.1894 -0.2818  0.8367
  907MPD2    C113281   0.899   1.459  15.573  0.1678  0.0705  0.0247
  907MPD2    C213282   0.875   1.424  15.702  0.1225 -1.1698 -0.1359
  907MPD2    C313283   0.980   1.439  15.795  0.4608 -0.1772  0.4322
  907MPD2    C413284   1.100   1.503  15.759 -0.5737  0.7071 -0.1487
  907MPD2    C513285   1.118   1.543  15.627  0.0126 -0.2039  0.1501
  907MPD2     H13286   0.780   1.393  15.744  0.5128 -3.4778 -0.9307
  907MPD2    H113287   1.189   1.517  15.819 -0.4255  0.1891 -0.2435
  907MPD2    H213288   1.038   1.531  15.432  0.3751 -1.6074  0.6702
  907MPD2    H313289   1.212   1.594  15.608 -0.3462  0.6822  0.7597
  907MPD2     N13290   0.944   1.408  15.927 -0.5151 -0.0913  0.5008
  907MPD2    H513291   0.856   1.359  15.940 -0.6884  0.0284 -0.2146
  907MPD2    N113292   0.791   1.454  15.483  0.4246  0.4622  0.4964
  907MPD2    H713293   0.706   1.408  15.516 -0.2860  2.2520  1.1885
  908MPD2     C13294   3.492   2.568   9.623 -0.5084 -0.3837 -0.2040
  908MPD2    C113295   3.410   2.490   9.707  0.0796  0.3221 -0.6666
  908MPD2    C213296   3.352   2.557   9.813  0.3364 -0.1218 -0.3863
  908MPD2    C313297   3.374   2.692   9.839  0.8430 -0.1048 -0.0318
  908MPD2    C413298   3.448   2.769   9.748 -0.5030  0.6186 -0.1659
  908MPD2    C513299   3.510   2.700   9.642 -0.3840 -0.1672 -0.0509
  908MPD2     H13300   3.284   2.506   9.880 -0.1019  1.5236  0.4126
  908MPD2    H113301   3.458   2.877   9.747 -0.1380  0.5723 -1.1343
  908MPD2    H213302   3.525   2.519   9.531 -1.3622 -2.0248  0.3563
  908MPD2    H313303   3.558   2.761   9.566  0.8035 -1.0226  0.0300
  908MPD2     N13304   3.305   2.749   9.950 -0.0502  0.0444  0.4718
  908MPD2    H513305   3.258   2.676  10.002  0.5564 -0.0958  0.8205
  908MPD2    N113306   3.401   2.352   9.670  0.0350 -0.7766 -0.4255
  908MPD2    H713307   3.465   2.320   9.599 -1.5909 -0.9392 -1.8240
  909MPD2     C13308   2.928   0.238  11.920  0.8565  0.7304 -0.0279
  909MPD2    C113309   2.915   0.354  11.850 -0.4939  0.2985  0.3831
  909MPD2    C213310   2.807   0.432  11.883 -0.0080 -0.0256 -0.4695
  909MPD2    C313311   2.717   0.395  11.981 -0.4856  0.2979 -0.1808
  909MPD2    C413312   2.745   0.288  12.057 -0.9260 -0.0576  0.1230
  909MPD2    C513313   2.849   0.202  12.024  0.7685  0.7657  0.4988
  909MPD2     H13314   2.781   0.518  11.822 -2.4758  0.5583  1.4175
  909MPD2    H113315   2.693   0.255  12.147 -0.8478 -1.5293 -0.3716
  909MPD2    H213316   3.013   0.173  11.899  0.8252  1.0734 -1.2039
  909MPD2    H313317   2.886   0.120  12.083 -2.4435 -1.3635 -0.4637
  909MPD2     N13318   2.611   0.478  12.011 -0.4737  0.2980  0.6388
  909MPD2    H513319   2.589   0.555  11.948 -0.9325 -0.4658 -0.1385
  909MPD2    N113320   2.993   0.397  11.744 -0.2704  0.2130  0.7015
  909MPD2    H713321   2.982   0.492  11.711  0.1276  0.2230  0.5903
  910MPD2     C13322   0.748   2.245  15.117 -0.1362 -0.2088 -0.0985
  910MPD2    C113323   0.628   2.209  15.175 -0.1790  0.2753 -0.2405
  910MPD2    C213324   0.508   2.286  15.149  0.5943  0.1310  0.0085
  910MPD2    C313325   0.517   2.402  15.076  0.1238  0.0560  0.5006
  910MPD2    C413326   0.638   2.438  15.021 -0.1754  0.2159 -0.3336
  910MPD2    C513327   0.746   2.365  15.041  0.5772  0.1459  0.7550
  910MPD2     H13328   0.415   2.249  15.192  1.0302 -2.2131 -1.0855
  910MPD2    H113329   0.657   2.531  14.968 -0.6034 -0.0010 -0.8761
  910MPD2    H213330   0.842   2.191  15.117 -0.1289 -0.1972 -0.0001
  910MPD2    H313331   0.834   2.399  14.989 -0.2635  1.4658  0.1955
  910MPD2     N13332   0.411   2.485  15.044 -0.1256 -0.7583 -0.1371
  910MPD2    H513333   0.432   2.558  14.977  0.8926 -0.6326  0.3216
  910MPD2    N113334   0.623   2.105  15.263 -0.1529 -0.5619 -0.4069
  910MPD2    H713335   0.529   2.082  15.294  0.2094 -0.9100  0.4218
  911MPD2     C13336   2.016   2.655  16.543 -0.4163 -0.2117  0.1249
  911MPD2    C113337   2.063   2.776  16.584  0.2656 -0.0156 -0.9470
  911MPD2    C213338   1.986   2.891  16.570 -0.4470  0.1538 -0.2963
  911MPD2    C313339   1.863   2.876  16.509 -0.8407  0.5179  0.4716
  911MPD2    C413340   1.818   2.748  16.478  0.7240  0.0168 -0.0798
  911MPD2    C513341   1.894   2.640  16.487  0.2893 -0.5092 -0.3026
  911MPD2     H13342   2.026   2.988  16.596  1.6090 -0.5405 -0.8554
  911MPD2    H113343   1.717   2.732  16.440  1.2470  0.8235 -1.8330
  911MPD2    H213344   2.084   2.571  16.552 -0.5204 -0.1426  1.5471
  911MPD2    H313345   1.855   2.547  16.448 -1.9341 -0.5350  1.9821
  911MPD2     N13346   1.776   2.977  16.477 -0.1448  0.7045  0.0172
  911MPD2    H513347   1.682   2.958  16.442 -0.1866  0.1771  0.4219
  911MPD2    N113348   2.190   2.782  16.635 -0.3009 -0.0072 -0.7860
  911MPD2    H713349   2.241   2.694  16.627 -0.3627 -0.0799 -0.3937
  912MPD2     C13350   1.445   2.609  16.148  0.1727  0.3991  0.5217
  912MPD2    C113351   1.472   2.685  16.264  0.5656  0.0189  0.0231
  912MPD2    C213352   1.521   2.622  16.375  0.4570 -0.1533 -0.2324
  912MPD2    C313353   1.536   2.484  16.370  0.1490  0.1344 -0.2571
  912MPD2    C413354   1.491   2.408  16.260  0.4509 -0.1708  0.3965
  912MPD2    C513355   1.455   2.473  16.147  0.4200 -0.1595 -0.1212
  912MPD2     H13356   1.538   2.674  16.469 -1.4427 -2.5249  1.4470
  912MPD2    H113357   1.490   2.300  16.250  0.7893  0.0231 -1.5555
  912MPD2    H213358   1.410   2.662  16.061 -1.6024 -1.5792  0.0408
  912MPD2    H313359   1.416   2.413  16.065  0.1113 -2.0409  1.4061
  912MPD2     N13360   1.585   2.418  16.488  0.1942 -0.3260  0.2390
  912MPD2    H513361   1.597   2.477  16.570 -0.9686  1.5301 -0.9043
  912MPD2    N113362   1.460   2.826  16.263  0.1341  1.2727 -0.5138
  912MPD2    H713363   1.413   2.861  16.180  0.2693  2.3986 -0.1165
  913MPD2     C13364   2.789   3.204  10.322  0.0919  0.2353  0.0558
  913MPD2    C113365   2.807   3.333  10.372 -0.1345  0.0600 -0.2117
  913MPD2    C213366   2.850   3.434  10.286 -0.3295  0.0842 -0.3416
  913MPD2    C313367   2.898   3.413  10.162  0.1873  0.5895 -0.1354
  913MPD2    C413368   2.889   3.282  10.119 -0.2439  0.0006 -0.3928
  913MPD2    C513369   2.850   3.178  10.200 -0.9476  0.4042 -0.0764
  913MPD2     H13370   2.863   3.535  10.325  0.9496 -1.2208  2.5663
  913MPD2    H113371   2.903   3.257  10.015 -0.5240 -0.1604 -0.3914
  913MPD2    H213372   2.741   3.126  10.380 -0.3748  2.1069  2.1970
  913MPD2    H313373   2.851   3.075  10.167  1.6177  0.1503  0.8003
  913MPD2     N13374   2.952   3.519  10.077 -0.2853 -0.5357 -0.2139
  913MPD2    H513375   2.993   3.499   9.987 -2.6625  0.3987 -1.4926
  913MPD2    N113376   2.765   3.347  10.504 -0.0941 -0.0685 -0.5208
  913MPD2    H713377   2.742   3.263  10.557 -0.8799  1.1394  1.0573
  914MPD2     C13378   0.281   4.582  12.074 -0.8106  0.1691  0.4286
  914MPD2    C113379   0.317   4.692  12.156  0.2909  0.4016  0.7076
  914MPD2    C213380   0.336   4.665  12.291  0.1707  0.6084 -0.2163
  914MPD2    C313381   0.319   4.532  12.338 -0.0269 -0.3514 -0.1382
  914MPD2    C413382   0.268   4.428  12.261 -0.3272  0.1333 -0.4448
  914MPD2    C513383   0.257   4.457  12.135 -0.3771  0.5512 -0.2204
  914MPD2     H13384   0.355   0.023  12.360 -0.5556 -0.3317  1.1216
  914MPD2    H113385   0.249   4.324  12.287  0.3003  0.2105  0.2991
  914MPD2    H213386   0.282   4.584  11.965  1.2596  0.2619  0.4521
  914MPD2    H313387   0.234   4.380  12.062 -2.2688 -1.2247  2.2236
  914MPD2     N13388   0.342   4.517  12.473  0.3577  0.5230 -0.8432
  914MPD2    H513389   0.381   4.598  12.521 -1.5623 -0.0196  1.6178
  914MPD2    N113390   0.329   0.096  12.103  0.3100 -0.4260  0.4944
  914MPD2    H713391   0.299   0.109  12.007  5.1912 -2.3889 -1.2895
  915MPD2     C13392   3.457   4.438  15.700  0.2510 -0.2547 -0.9117
  915MPD2    C113393   3.367   4.542  15.683  0.3491 -0.3977  0.1548
  915MPD2    C213394   3.303   4.590  15.795  0.2568  0.5866 -0.1261
  915MPD2    C313395   3.322   4.531  15.917 -0.5246  0.2649  0.4897
  915MPD2    C413396   3.402   4.420  15.928 -0.0192  0.0820  1.2337
  915MPD2    C513397   3.476   4.381  15.825  0.5665 -0.0447 -0.0411
  915MPD2     H13398   3.238   4.676  15.789  0.6630  0.8211 -1.2066
  915MPD2    H113399   3.433   4.374  16.021  3.6704  2.5750  1.2175
  915MPD2    H213400   3.514   4.399  15.617  1.9619 -0.3716  0.3170
  915MPD2    H313401   3.545   4.298  15.836 -1.1078 -1.5639 -1.1020
  915MPD2     N13402   3.262   4.597  16.029 -0.2175 -0.7459 -0.3513
  915MPD2    H513403   3.230   4.693  16.020  2.6271  0.2673  0.4496
  915MPD2    N113404   3.334   4.579  15.548 -0.8259 -0.0224  0.6488
  915MPD2    H713405   3.396   4.541  15.477 -1.9658  0.9891 -0.8723
  916MPD2     C13406   1.623   3.080  15.784  0.4077 -0.3276 -0.1174
  916MPD2    C113407   1.487   3.051  15.768  0.1175 -0.8473 -0.0850
  916MPD2    C213408   1.453   2.914  15.762 -0.0525  0.3280 -0.4816
  916MPD2    C313409   1.546   2.813  15.769  0.0209  0.4125 -0.2231
  916MPD2    C413410   1.675   2.850  15.794  0.2483  0.7602  0.1417
  916MPD2    C513411   1.711   2.980  15.796 -0.1593  0.2756 -0.5207
  916MPD2     H13412   1.353   2.878  15.740 -0.2419  0.1712  0.6113
  916MPD2    H113413   1.760   2.783  15.808 -1.0990 -0.8120  0.8017
  916MPD2    H213414   1.649   3.185  15.777 -1.3005 -0.0427 -2.1553
  916MPD2    H313415   1.814   3.012  15.811  1.2529 -2.5515 -4.2906
  916MPD2     N13416   1.499   2.679  15.761  0.5038  0.3865 -0.3078
  916MPD2    H513417   1.400   2.667  15.742  0.6754 -1.6274  0.0714
  916MPD2    N113418   1.392   3.156  15.769  0.1093 -0.0787  0.0067
  916MPD2    H713419   1.430   3.250  15.779  1.5160 -0.7951  1.5522
  917MPD2     C13420   1.253   0.149  10.775 -0.7551  0.1174 -0.3217
  917MPD2    C113421   1.323   0.116  10.888 -0.7081 -0.4449  0.0049
  917MPD2    C213422   1.454   0.149  10.896  0.1677 -0.5458 -0.5275
  917MPD2    C313423   1.515   0.227  10.793 -0.1802  0.7784 -0.3210
  917MPD2    C413424   1.448   0.258  10.684  0.0412  0.4581  0.5024
  917MPD2    C513425   1.314   0.221  10.681 -0.1806 -0.6291 -0.1174
  917MPD2     H13426   1.506   0.129  10.989  0.1538 -1.7536 -0.7797
  917MPD2    H113427   1.499   0.310  10.604 -0.4957 -2.3086 -1.6497
  917MPD2    H213428   1.148   0.126  10.759 -0.9394 -0.5399  1.7830
  917MPD2    H313429   1.250   0.254  10.600  2.6130  0.7576 -1.7765
  917MPD2     N13430   1.647   0.277  10.801  0.1542  0.7316 -0.0117
  917MPD2    H513431   1.672   0.321  10.713 -0.9575 -0.7227 -1.0647
  917MPD2    N113432   1.252   0.042  10.981 -0.5737  0.3280  1.1065
  917MPD2    H713433   1.159   0.012  10.955 -0.0684  0.2005 -0.5005
  918MPD2     C13434   1.075   0.389  11.913  0.0367 -0.5180  0.5605
  918MPD2    C113435   1.199   0.353  11.857 -0.1659 -0.0630  0.2922
  918MPD2    C213436   1.203   0.269  11.744  0.3378 -0.1263 -0.0445
  918MPD2    C313437   1.089   0.223  11.683 -0.4288 -0.5278  0.4431
  918MPD2    C413438   0.971   0.254  11.740  0.0462  0.3177  0.2300
  918MPD2    C513439   0.966   0.338  11.851  0.1447  0.0095  0.7343
  918MPD2     H13440   1.297   0.247  11.694 -0.6463  0.3298 -2.0946
  918MPD2    H113441   0.878   0.201  11.720  0.4990  0.0522 -1.1665
  918MPD2    H213442   1.066   0.449  12.003  1.4212  0.2359  0.1931
  918MPD2    H313443   0.872   0.384  11.879  0.6956  0.4800  1.8029
  918MPD2     N13444   1.101   0.131  11.572  0.0085 -0.0195 -0.0320
  918MPD2    H513445   1.195   0.112  11.540 -0.4569 -0.5047 -1.1148
  918MPD2    N113446   1.329   0.387  11.912  0.1531  0.0574  0.5064
  918MPD2    H713447   1.410   0.352  11.862  0.8722 -0.0250  1.7215
  919MPD2     C13448   2.213   4.214  11.647  0.1820  0.0013 -0.2033
  919MPD2    C113449   2.256   4.083  11.617  0.5009  0.5835  0.3021
  919MPD2    C213450   2.305   4.066  11.487 -0.1983 -0.3938  0.4302
  919MPD2    C313451   2.328   4.166  11.398  0.1104 -0.4889  0.5246
  919MPD2    C413452   2.280   4.293  11.435  0.1313 -0.2300  0.1966
  919MPD2    C513453   2.223   4.313  11.555 -0.1654 -0.1086 -0.2216
  919MPD2     H13454   2.334   3.965  11.461 -0.0755  0.1466 -1.5038
  919MPD2    H113455   2.297   4.375  11.366  1.5494 -0.3737  0.3635
  919MPD2    H213456   2.162   4.246  11.738 -0.1452 -0.0928 -0.3511
  919MPD2    H313457   2.170   4.406  11.572 -0.5452 -0.1338 -1.2604
  919MPD2     N13458   2.364   4.140  11.266 -0.2852  1.0605 -0.1563
  919MPD2    H513459   2.342   4.207  11.193 -1.4587  0.0790 -0.7071
  919MPD2    N113460   2.250   3.981  11.716 -0.6481  0.2690  0.2074
  919MPD2    H713461   2.255   3.890  11.671  1.4157  0.1968  0.5849
  920MPD2     C13462   2.715   4.316  10.325 -0.2050 -0.0972  0.4109
  920MPD2    C113463   2.586   4.315  10.369  0.1693 -0.0622 -0.4571
  920MPD2    C213464   2.559   4.263  10.494 -0.3185  0.1135  0.3479
  920MPD2    C313465   2.664   4.214  10.578 -0.5180 -0.7143  1.1128
  920MPD2    C413466   2.787   4.206  10.522 -0.8434  0.5462 -0.2195
  920MPD2    C513467   2.810   4.261  10.399  0.1606 -0.3459 -0.4642
  920MPD2     H13468   2.456   4.261  10.528 -0.2097 -2.1539  0.5989
  920MPD2    H113469   2.858   4.150  10.581 -0.6545  2.7037  1.6158
  920MPD2    H213470   2.738   4.347  10.224 -0.4492  0.8380  0.6376
  920MPD2    H313471   2.912   4.268  10.362  0.1843 -1.3942 -0.5986
  920MPD2     N13472   2.641   4.154  10.708 -0.0599 -0.6041  0.8892
  920MPD2    H513473   2.716   4.092  10.737  1.9393  1.4164  0.1017
  920MPD2    N113474   2.471   4.335  10.286 -0.1386 -0.2381 -0.0538
  920MPD2    H713475   2.384   4.354  10.334  0.4442  0.5677  0.6716
  921MPD2     C13476   2.989   3.336  16.967 -0.5163 -0.3733 -0.2988
  921MPD2    C113477   3.013   3.204  16.994 -0.1134  1.1325 -0.5135
  921MPD2    C213478   2.903   3.114  17.000 -0.8804 -0.5588  0.5387
  921MPD2    C313479   2.774   3.162  16.976 -0.2662 -0.1157  0.2586
  921MPD2    C413480   2.757   3.297  16.941 -0.4955 -0.0943 -0.2364
  921MPD2    C513481   2.866   3.375  16.939 -0.6714  0.2351  0.1072
  921MPD2     H13482   2.912   3.006  17.012  0.4670 -0.4821  0.2228
  921MPD2    H113483   2.663   3.345  16.917 -1.5774 -1.9789  0.2275
  921MPD2    H213484   3.061   3.417  16.963 -0.1522 -0.6524  0.8713
  921MPD2    H313485   2.848   3.479  16.915  2.0425  0.4006 -1.1322
  921MPD2     N13486   2.661   3.070  16.956  0.2009  0.1171 -0.1456
  921MPD2    H513487   2.580   3.112  16.910  0.5714  2.2354  1.1140
  921MPD2    N113488   3.146   3.167  17.013  0.6215 -0.5700 -0.4026
  921MPD2    H713489   3.216   3.237  16.993  0.0993 -0.0121 -0.2715
  922MPD2     C13490   3.839   0.295  16.779 -0.0419 -0.8354 -0.5359
  922MPD2    C113491   3.756   0.352  16.870  0.2830 -0.2957 -0.0534
  922MPD2    C213492   3.650   0.287  16.919  0.6410  0.1496 -0.2060
  922MPD2    C313493   3.615   0.157  16.880 -0.6373 -0.3901 -0.4580
  922MPD2    C413494   3.694   0.103  16.778  0.3147 -0.0724 -0.0770
  922MPD2    C513495   3.810   0.163  16.732  0.9588 -0.3189 -0.0420
  922MPD2     H13496   3.582   0.339  16.987  0.0811 -0.3821 -0.3538
  922MPD2    H113497   3.657   0.013  16.729 -4.5916  1.7415  0.3131
  922MPD2    H213498   3.919   0.354  16.734 -1.1486  2.9529  2.4414
  922MPD2    H313499   3.858   0.110  16.651  0.7280 -1.1943  0.3909
  922MPD2     N13500   3.502   0.088  16.929 -0.1796  0.6484  0.1194
  922MPD2    H513501   3.477   0.006  16.875 -1.2157  0.3290  1.0913
  922MPD2    N113502   3.785   0.475  16.932  0.4289  0.2534  0.3068
  922MPD2    H713503   3.738   0.504  17.017 -0.3134 -2.5160  0.8684
  923MPD2     C13504   0.527   2.304   9.530 -0.0447  0.7105  0.4536
  923MPD2    C113505   0.514   2.416   9.612 -0.2694  0.2575  0.3213
  923MPD2    C213506   0.605   2.438   9.711  0.1574  0.0846 -0.1220
  923MPD2    C313507   0.687   2.328   9.754  0.1279 -0.1062 -0.6075
  923MPD2    C413508   0.683   2.205   9.689 -0.2235 -0.3118  0.6345
  923MPD2    C513509   0.620   2.204   9.564 -0.0119 -0.5393  0.2102
  923MPD2     H13510   0.598   2.532   9.763 -0.2603  1.1577 -2.1034
  923MPD2    H113511   0.735   2.113   9.716  3.9402  2.0880  0.7762
  923MPD2    H213512   0.465   2.290   9.442  0.4472 -0.0152  0.2166
  923MPD2    H313513   0.617   2.119   9.498  0.7431 -4.3957  5.0938
  923MPD2     N13514   0.771   2.322   9.872 -0.2850 -0.1903 -0.2772
  923MPD2    H513515   0.819   2.234   9.888 -1.6286 -1.3868 -2.9416
  923MPD2    N113516   0.407   2.506   9.580  0.2019  0.2522 -0.4602
  923MPD2    H713517   0.354   2.476   9.499 -2.7422  2.0974  0.7511
  924MPD2     C13518   0.255   0.985  16.087  0.1094  0.6942  0.3051
  924MPD2    C113519   0.273   1.055  16.194  0.7015 -0.6317 -0.2981
  924MPD2    C213520   0.397   1.089  16.231 -0.0011 -0.8340  0.0736
  924MPD2    C313521   0.500   1.060  16.148 -0.1469 -0.5104 -0.0455
  924MPD2    C413522   0.476   0.985  16.030 -0.8754  0.1362 -0.2465
  924MPD2    C513523   0.355   0.940  16.004 -0.0035  0.0702 -0.2992
  924MPD2     H13524   0.420   1.138  16.324  0.0022  1.1236 -0.9488
  924MPD2    H113525   0.560   0.956  15.968  0.2015 -1.1426  1.7863
  924MPD2    H213526   0.155   0.969  16.047  0.4032 -2.3051  0.7997
  924MPD2    H313527   0.337   0.886  15.912  0.0710  1.5804 -1.1931
  924MPD2     N13528   0.638   1.102  16.158  0.1825 -0.0857  0.2551
  924MPD2    H513529   0.703   1.094  16.081  0.7866  0.5135  0.7029
  924MPD2    N113530   0.165   1.099  16.271 -0.1871 -0.0390  0.2096
  924MPD2    H713531   0.068   1.082  16.244 -0.1339 -0.8682  0.5310
  925MPD2     C13532   3.982   3.683  14.794 -0.2238 -0.1404 -0.3268
  925MPD2    C113533   3.856   3.662  14.751  0.0340 -0.1232 -0.1949
  925MPD2    C213534   3.774   3.599  14.838 -0.6235 -0.3681  0.6066
  925MPD2    C313535   3.805   3.562  14.966  0.4457  0.0868  0.5039
  925MPD2    C413536   3.935   3.580  15.003 -0.6367 -0.0042  0.7674
  925MPD2    C513537   4.023   3.630  14.915 -0.0667  0.2174 -0.8070
  925MPD2     H13538   3.670   3.609  14.806  0.1294  1.7902 -1.1888
  925MPD2    H113539   3.985   3.546  15.093 -0.0403 -0.2641  0.3323
  925MPD2    H213540   4.063   3.730  14.741  0.6874 -2.7351 -1.2384
  925MPD2    H313541   4.130   3.625  14.937  0.2150 -1.1827 -2.4627
  925MPD2     N13542   3.718   3.511  15.058 -0.2612  0.4435  0.3733
  925MPD2    H513543   3.743   3.489  15.154  0.6500  4.0190  0.9858
  925MPD2    N113544   3.808   3.697  14.628 -0.1120 -0.5196 -0.0662
  925MPD2    H713545   3.710   3.697  14.602 -0.2543 -1.0843  0.4653
  926MPD2     C13546   2.693   2.437  13.374  0.1115 -0.0876 -0.5520
  926MPD2    C113547   2.622   2.554  13.374 -0.6725  0.6533  0.6157
  926MPD2    C213548   2.676   2.672  13.318 -0.6564  0.6926  0.4693
  926MPD2    C313549   2.806   2.665  13.270  0.5303  0.4898  0.0113
  926MPD2    C413550   2.884   2.549  13.285 -0.0104  0.0952  0.3457
  926MPD2    C513551   2.823   2.437  13.336  0.3243  0.5584  0.1171
  926MPD2     H13552   2.618   2.764  13.320  0.3444  1.3820 -1.8002
  926MPD2    H113553   2.986   2.548  13.248 -0.6660 -0.5507 -1.4879
  926MPD2    H213554   2.652   2.348  13.421  0.2839  0.6589  1.0233
  926MPD2    H313555   2.881   2.346  13.350  0.3510  0.7413  1.1648
  926MPD2     N13556   2.873   2.772  13.210  0.2765  0.4036  0.3788
  926MPD2    H513557   2.959   2.758  13.158  0.1443 -0.7464  0.4618
  926MPD2    N113558   2.484   2.568  13.411  0.4567  0.1672  0.2984
  926MPD2    H713559   2.445   2.659  13.388  0.4646 -0.0963 -0.7639
  927MPD2     C13560   2.529   0.094   0.439  0.6495 -0.3998 -0.2653
  927MPD2    C113561   2.531   4.682   0.414 -0.2079 -0.5933  0.1155
  927MPD2    C213562   2.584   4.636   0.296  0.6691 -0.7193 -0.0822
  927MPD2    C313563   2.638   4.720   0.193  1.2850  0.2231  0.7586
  927MPD2    C413564   2.645   0.130   0.230  0.9341  0.3027 -0.0033
  927MPD2    C513565   2.602   0.170   0.351 -0.1518 -0.3508 -0.6528
  927MPD2     H13566   2.579   4.532   0.266 -1.2442 -0.0496 -2.0009
  927MPD2    H113567   2.680   0.204   0.158 -1.2277  1.1659 -0.1483
  927MPD2    H213568   2.482   0.141   0.524 -0.4409 -0.2589 -0.9461
  927MPD2    H313569   2.604   0.277   0.365 -2.5468 -0.6234  1.8587
  927MPD2     N13570   2.664   4.667   0.069  0.5430 -0.4307 -0.0764
  927MPD2    H513571   2.656   4.566   0.066 -1.4968 -0.2850  0.1779
  927MPD2    N113572   2.450   4.601   0.502  0.1161  0.1600 -0.6606
  927MPD2    H713573   2.393   4.645   0.573 -0.1887 -3.0978  1.0856
  928MPD2     C13574   4.619   2.258   0.600 -0.5062  0.8614  0.8969
  928MPD2    C113575   0.023   2.225   0.632 -0.6488 -0.8570  0.2953
  928MPD2    C213576   0.128   2.307   0.596 -0.1943 -0.1172  0.0333
  928MPD2    C313577   0.098   2.432   0.538  0.5870  0.2190  0.4574
  928MPD2    C413578   4.697   2.458   0.500 -0.2465 -0.6915 -0.7845
  928MPD2    C513579   4.599   2.377   0.536 -0.6798 -0.2716  0.1133
  928MPD2     H13580   0.229   2.269   0.605  0.2258  0.7834 -0.9343
  928MPD2    H113581   4.668   2.545   0.442 -0.0882  0.3999  0.7658
  928MPD2    H213582   4.537   2.194   0.630  0.4151 -0.8234 -0.1920
  928MPD2    H313583   4.500   2.414   0.511 -1.2016  0.3253  3.0744
  928MPD2     N13584   0.199   2.527   0.518  0.3067  0.0327 -0.0745
  928MPD2    H513585   0.184   2.619   0.477 -1.0071  0.4744  1.4052
  928MPD2    N113586   0.046   2.100   0.696  0.2326  0.2525  0.2695
  928MPD2    H713587   4.691   2.037   0.692 -1.0030  1.7103  1.7292
  929MPD2     C13588   0.593   2.622  10.876 -0.4598 -0.0400 -0.3426
  929MPD2    C113589   0.468   2.569  10.868  0.3953  0.2495  0.5245
  929MPD2    C213590   0.407   2.559  10.744  0.4175  0.4635  0.3397
  929MPD2    C313591   0.474   2.599  10.635 -0.7572 -0.1335 -0.5024
  929MPD2    C413592   0.602   2.645  10.635 -0.2001  0.2586 -0.1451
  929MPD2    C513593   0.662   2.648  10.759 -0.1381 -0.7912  0.0724
  929MPD2     H13594   0.304   2.527  10.732  0.3452  1.1780 -1.0363
  929MPD2    H113595   0.667   2.674  10.553  0.0360  0.1389  0.0011
  929MPD2    H213596   0.644   2.626  10.971 -1.9242 -1.3590  0.5153
  929MPD2    H313597   0.762   2.684  10.778 -0.5250 -0.3396  1.2643
  929MPD2     N13598   0.409   2.606  10.512 -0.1659 -0.1017  0.1374
  929MPD2    H513599   0.457   2.668  10.448 -0.0974  0.5215  0.7901
  929MPD2    N113600   0.396   2.538  10.988 -0.2129 -0.7781  0.4314
  929MPD2    H713601   0.436   2.557  11.080  1.9637 -1.1783 -0.4191
  930MPD2     C13602   2.174   0.172  14.273  0.6652  0.5644 -1.0315
  930MPD2    C113603   2.173   0.223  14.145 -0.7832  0.1938  0.2526
  930MPD2    C213604   2.126   0.135  14.039 -0.9416 -0.3833  0.1382
  930MPD2    C313605   2.074   0.009  14.063 -0.3338 -0.4954  0.0312
  930MPD2    C413606   2.076   4.689  14.190 -0.3311 -0.1178  0.5413
  930MPD2    C513607   2.116   0.044  14.297  0.0163 -0.4195 -0.5707
  930MPD2     H13608   2.149   0.165  13.938  0.1162 -1.2647  0.1298
  930MPD2    H113609   2.038   4.590  14.212  0.2785 -0.3060  0.7497
  930MPD2    H213610   2.223   0.222  14.356 -1.0857 -1.1133  1.0345
  930MPD2    H313611   2.117   0.001  14.397  0.7220  4.2000  1.3725
  930MPD2     N13612   2.037   4.648  13.964 -0.7374  1.2568  0.0115
  930MPD2    H513613   2.021   4.551  13.989  0.7646  1.0254  0.0762
  930MPD2    N113614   2.227   0.350  14.119 -0.0330  0.1369 -0.0796
  930MPD2    H713615   2.268   0.388  14.203  2.3957 -0.6378 -0.9149
  931MPD2     C13616   2.736   4.070   0.908 -0.4630  0.0979 -0.3758
  931MPD2    C113617   2.605   4.035   0.901  0.3930 -0.2267 -0.1028
  931MPD2    C213618   2.561   3.935   0.984  0.1991 -0.8624 -0.7676
  931MPD2    C313619   2.649   3.854   1.053  0.4395 -0.5647 -0.4798
  931MPD2    C413620   2.781   3.877   1.033  0.3403 -0.9178 -0.3879
  931MPD2    C513621   2.826   3.986   0.971  0.3070 -0.9614  0.0430
  931MPD2     H13622   2.457   3.905   0.969  0.1598 -0.0127 -2.2755
  931MPD2    H113623   2.852   3.807   1.075 -1.5261 -1.4478  1.9220
  931MPD2    H213624   2.775   4.152   0.850 -0.1322 -0.0472 -0.3597
  931MPD2    H313625   2.931   4.014   0.981  0.8794 -2.2833 -2.3280
  931MPD2     N13626   2.614   3.747   1.138  0.4140  0.2608 -0.6130
  931MPD2    H513627   2.680   3.672   1.159 -1.8247 -1.6791 -0.4276
  931MPD2    N113628   2.532   4.119   0.816  0.2015 -0.3173 -0.0165
  931MPD2    H713629   2.583   4.201   0.785  2.4475 -1.6360  0.1930
  932MPD2     C13630   4.439   3.616  11.235  0.3000 -1.0911 -0.2931
  932MPD2    C113631   4.435   3.687  11.356  0.3938  0.2712 -0.9286
  932MPD2    C213632   4.470   3.625  11.477 -0.1452 -0.5916 -0.6882
  932MPD2    C313633   4.513   3.499  11.475  0.0840 -0.0803  0.1188
  932MPD2    C413634   4.530   3.433  11.356 -0.2865 -0.6093  0.9652
  932MPD2    C513635   4.491   3.492  11.236 -0.0701  0.1704 -0.0067
  932MPD2     H13636   4.469   3.684  11.568 -0.0204 -1.8053  0.0930
  932MPD2    H113637   4.555   3.328  11.358  0.2845 -0.4898  0.1811
  932MPD2    H213638   4.413   3.645  11.134 -0.2119  1.6201  0.6188
  932MPD2    H313639   4.500   3.438  11.142 -0.7528 -0.8707  0.5363
  932MPD2     N13640   4.563   3.432  11.593  0.0786 -0.5827 -0.9215
  932MPD2    H513641   4.607   3.343  11.573  1.1437  0.1591 -1.8642
  932MPD2    N113642   4.389   3.820  11.363 -0.1771  0.6909 -0.1545
  932MPD2    H713643   4.378   3.864  11.454  0.9184 -3.4044  1.9706
  933MPD2     C13644   4.555   1.494   1.273 -0.2846 -0.4889  0.0089
  933MPD2    C113645   4.543   1.603   1.188 -0.5570  0.2435  0.2379
  933MPD2    C213646   4.429   1.680   1.203  0.6506 -0.1346 -0.7411
  933MPD2    C313647   4.320   1.648   1.282  0.4578  0.1983 -0.0502
  933MPD2    C413648   4.331   1.526   1.351 -0.0126  0.4423  0.3031
  933MPD2    C513649   4.444   1.456   1.341 -0.3063  0.8918  0.1988
  933MPD2     H13650   4.412   1.769   1.143  0.1950 -0.3430 -0.9167
  933MPD2    H113651   4.263   1.489   1.427  1.5817 -1.3493  0.8416
  933MPD2    H213652   4.649   1.440   1.269 -0.1501 -0.2354 -0.2998
  933MPD2    H313653   4.444   1.361   1.393  4.1597  1.1949  0.8128
  933MPD2     N13654   4.206   1.731   1.298  0.0080 -0.3043  0.1953
  933MPD2    H513655   4.195   1.808   1.233  1.7462  0.7680  1.1828
  933MPD2    N113656   4.655   1.650   1.114  0.2737 -0.1372  0.7217
  933MPD2    H713657   0.012   1.590   1.112  1.9853  2.2815 -1.5977
  934MPD2     C13658   1.450   1.068   2.204 -0.4471  0.1580  0.0652
  934MPD2    C113659   1.537   1.007   2.118 -0.0647  0.0837 -0.1728
  934MPD2    C213660   1.487   0.922   2.021 -0.0039 -0.7046  0.0445
  934MPD2    C313661   1.347   0.904   2.012 -0.4483 -0.5302 -0.5578
  934MPD2    C413662   1.265   0.960   2.097 -0.3812  0.7666 -0.0589
  934MPD2    C513663   1.314   1.044   2.194 -0.2054 -0.6488 -0.2637
  934MPD2     H13664   1.564   0.876   1.960  2.3644  0.6015  2.0101
  934MPD2    H113665   1.161   0.930   2.104 -0.3676  1.4232  3.0539
  934MPD2    H213666   1.476   1.136   2.284 -0.2304 -0.7511  0.7687
  934MPD2    H313667   1.256   1.094   2.271  0.4979  0.0091 -0.1592
  934MPD2     N13668   1.296   0.818   1.908 -0.0724  0.2048 -0.4933
  934MPD2    H513669   1.201   0.784   1.916  0.5755 -1.3418  0.5776
  934MPD2    N113670   1.678   1.017   2.133 -0.0788 -0.0664 -0.1471
  934MPD2    H713671   1.721   0.969   2.055  1.8794 -0.4288  1.1511
  935MPD2     C13672   1.684   0.087   1.308  0.4954 -0.0398 -0.4198
  935MPD2    C113673   1.550   0.072   1.301 -0.1051  0.3593 -0.5419
  935MPD2    C213674   1.466   0.172   1.349  0.7020 -0.2423  1.0166
  935MPD2    C313675   1.526   0.290   1.419 -0.1342  0.0629  0.1757
  935MPD2    C413676   1.670   0.298   1.421  0.4287 -0.1632 -0.2306
  935MPD2    C513677   1.742   0.201   1.363 -1.1431  0.4521 -0.0907
  935MPD2     H13678   1.358   0.168   1.342  0.7365 -1.3580  1.2316
  935MPD2    H113679   1.725   0.380   1.466  0.8145 -0.6736  0.2272
  935MPD2    H213680   1.747   0.019   1.252  0.1379 -0.2831 -0.5213
  935MPD2    H313681   1.850   0.204   1.356 -1.2216 -1.0456 -2.1318
  935MPD2     N13682   1.448   0.390   1.481  0.0388 -0.1380  0.3071
  935MPD2    H513683   1.503   0.470   1.511  0.9153  0.3357 -2.5113
  935MPD2    N113684   1.498   4.681   1.235  0.0853  0.0111  0.7610
  935MPD2    H713685   1.407   4.701   1.196  0.5145  0.1898 -0.1370
  936MPD2     C13686   4.156   2.234  12.885 -0.1417  0.0663  0.2151
  936MPD2    C113687   4.143   2.167  12.767  0.0724 -0.2880 -0.3183
  936MPD2    C213688   4.239   2.162  12.670 -0.1249  0.2494 -0.1871
  936MPD2    C313689   4.362   2.226  12.691 -0.3022  0.0558 -0.2833
  936MPD2    C413690   4.380   2.294  12.813 -0.1074  0.8240 -0.5790
  936MPD2    C513691   4.270   2.299  12.903 -0.3634  0.3070 -0.4923
  936MPD2     H13692   4.221   2.096  12.585  0.8006 -1.5721  1.0265
  936MPD2    H113693   4.482   2.320  12.840  0.0395  0.6036 -0.9214
  936MPD2    H213694   4.081   2.238  12.963 -2.6452  0.6934 -2.2432
  936MPD2    H313695   4.288   2.353  12.996 -0.8384 -0.0736 -0.1850
  936MPD2     N13696   4.466   2.207  12.601 -0.0038  0.0812 -0.5288
  936MPD2    H513697   4.560   2.234  12.626  0.2382 -0.5851 -0.7145
  936MPD2    N113698   4.022   2.106  12.733  0.5503  0.5458  0.3467
  936MPD2    H713699   4.016   2.087  12.634  0.7468  2.5234 -0.0537
  937MPD2     C13700   2.585   3.351  11.734 -0.1475  0.1174  0.0951
  937MPD2    C113701   2.591   3.488  11.722 -0.6331 -0.3742  0.2783
  937MPD2    C213702   2.665   3.534  11.610 -0.5727 -0.4361  0.1497
  937MPD2    C313703   2.743   3.454  11.530 -0.1546 -0.4499 -0.1433
  937MPD2    C413704   2.742   3.317  11.550  0.4084 -0.3087 -0.2114
  937MPD2    C513705   2.660   3.270  11.652  0.1451  0.3668  0.1465
  937MPD2     H13706   2.667   3.638  11.580  2.6178  0.0223  2.0035
  937MPD2    H113707   2.802   3.248  11.492  0.5018 -1.2578  1.0108
  937MPD2    H213708   2.521   3.303  11.808  0.2815  0.2380  0.5415
  937MPD2    H313709   2.657   3.162  11.666 -0.4032 -0.0224 -2.9245
  937MPD2     N13710   2.825   3.520  11.431 -0.4384 -0.1484 -0.7541
  937MPD2    H513711   2.840   3.620  11.430 -1.8919  0.0979  0.9075
  937MPD2    N113712   2.498   3.582  11.771  0.1867  0.3823 -0.3980
  937MPD2    H713713   2.497   3.667  11.715  0.7724  0.2132 -0.6717
  938MPD2     C13714   0.608   4.609   1.034 -0.8008  0.0743  0.7058
  938MPD2    C113715   0.507   4.695   1.001  0.1677  0.3521  0.6434
  938MPD2    C213716   0.370   4.651   1.006 -0.1595  0.0310 -0.2085
  938MPD2    C313717   0.343   4.521   1.024 -1.1072  0.2729  0.1297
  938MPD2    C413718   0.448   4.430   1.049 -1.1567  0.4974 -0.2918
  938MPD2    C513719   0.578   4.478   1.060  0.0746 -0.0312  0.0445
  938MPD2     H13720   0.291   0.000   0.993  0.1477  0.3885 -0.0413
  938MPD2    H113721   0.433   4.323   1.055  0.5641  0.2920  0.3422
  938MPD2    H213722   0.713   4.635   1.045 -0.4683 -0.5993 -0.7986
  938MPD2    H313723   0.660   4.408   1.073 -1.3434 -2.0818 -1.8984
  938MPD2     N13724   0.211   4.463   1.017  0.0556  0.2744  0.5600
  938MPD2    H513725   0.208   4.362   1.014 -1.3682  0.2757  1.5561
  938MPD2    N113726   0.527   0.114   0.984 -0.3684  0.0839  0.0700
  938MPD2    H713727   0.441   0.162   0.958  0.4783  0.7673 -1.4726
  939MPD2     C13728   1.950   1.096   1.218 -0.6370 -0.4949 -1.0136
  939MPD2    C113729   2.039   1.173   1.291  0.5055 -0.2656  0.4790
  939MPD2    C213730   2.178   1.169   1.253 -0.0974 -0.4791 -0.1561
  939MPD2    C313731   2.221   1.092   1.143  0.5801 -0.1745  0.7705
  939MPD2    C413732   2.127   1.010   1.079  0.1061 -0.5205  0.2412
  939MPD2    C513733   2.000   1.001   1.131  0.2412  0.1211 -0.2502
  939MPD2     H13734   2.248   1.216   1.321 -2.3245  1.5996  0.7049
  939MPD2    H113735   2.152   0.938   1.003  1.7736  1.2909 -0.9460
  939MPD2    H213736   1.845   1.085   1.245 -0.8653 -1.0588 -2.1521
  939MPD2    H313737   1.933   0.929   1.086  0.2064 -0.1396  0.2193
  939MPD2     N13738   2.353   1.118   1.093  0.0341 -0.1421 -0.6602
  939MPD2    H513739   2.403   1.186   1.149  1.2405 -1.6540  0.1165
  939MPD2    N113740   1.984   1.264   1.384  0.2536 -0.8981  0.2152
  939MPD2    H713741   1.883   1.268   1.390  0.1777 -0.9501 -1.0579
  940MPD2     C13742   4.373   1.583  13.012  0.1525 -0.0069  0.7431
  940MPD2    C113743   4.467   1.637  13.095  0.9007  0.5545  0.0244
  940MPD2    C213744   4.596   1.666  13.044 -0.3238 -0.2176  0.3528
  940MPD2    C313745   4.634   1.625  12.919 -0.3042 -0.3663 -0.0073
  940MPD2    C413746   4.539   1.563  12.841 -0.7704 -0.2922  0.0740
  940MPD2    C513747   4.415   1.545  12.889  0.1035  0.0306 -0.2442
  940MPD2     H13748   4.671   1.714  13.105 -0.2400  1.0207 -0.7232
  940MPD2    H113749   4.558   1.516  12.745  0.6928 -1.2565  0.8419
  940MPD2    H213750   4.269   1.567  13.036 -0.6460  0.8946 -2.0574
  940MPD2    H313751   4.347   1.487  12.829  0.1195 -0.3475  0.1053
  940MPD2     N13752   0.037   1.648  12.857 -0.8418 -0.1272 -0.4944
  940MPD2    H513753   0.047   1.613  12.762  0.8851  0.7170 -0.6180
  940MPD2    N113754   4.442   1.671  13.232 -0.6585 -0.3343 -0.3817
  940MPD2    H713755   4.515   1.729  13.271 -1.8445  0.9847 -0.1444
  941MPD2     C13756   0.201   0.820   9.253  0.0046 -0.3018 -0.1876
  941MPD2    C113757   0.208   0.787   9.388  0.3450 -0.5500  0.3591
  941MPD2    C213758   0.177   0.659   9.424 -0.7723 -0.3046  0.4630
  941MPD2    C313759   0.138   0.558   9.334  0.3317 -0.1560 -0.1677
  941MPD2    C413760   0.162   0.593   9.205  0.0047  1.1267  0.1139
  941MPD2    C513761   0.187   0.722   9.160  0.2063  0.5660  0.3985
  941MPD2     H13762   0.201   0.636   9.527  4.0590 -0.4582 -0.6965
  941MPD2    H113763   0.154   0.511   9.134  0.6068  0.9528  0.2469
  941MPD2    H213764   0.237   0.917   9.223 -0.4237 -0.5132 -1.4264
  941MPD2    H313765   0.205   0.748   9.057  0.4501  1.2179  0.6007
  941MPD2     N13766   0.107   0.424   9.380  0.0532 -0.2885  0.2441
  941MPD2    H513767   0.086   0.361   9.303  3.0341 -0.4998 -0.3864
  941MPD2    N113768   0.258   0.876   9.483 -0.0649 -0.1903 -0.3097
  941MPD2    H713769   0.278   0.830   9.571 -1.5480 -0.3123 -0.0327
  942MPD2     C13770   4.146   3.531   9.418  0.0346 -0.4317 -0.1622
  942MPD2    C113771   4.243   3.488   9.336  0.4015 -0.2184 -0.3470
  942MPD2    C213772   4.301   3.363   9.360  0.1601  0.5409  0.4752
  942MPD2    C313773   4.253   3.286   9.462 -0.3359 -0.5390 -0.5203
  942MPD2    C413774   4.139   3.323   9.532  0.3651  0.2863  0.2918
  942MPD2    C513775   4.086   3.443   9.506  0.2677  0.0771  0.3497
  942MPD2     H13776   4.384   3.341   9.294 -0.1693  1.7250 -0.3411
  942MPD2    H113777   4.094   3.269   9.614  0.3799 -0.4847 -0.2080
  942MPD2    H213778   4.101   3.629   9.411  2.0379  0.6287  1.6498
  942MPD2    H313779   3.999   3.460   9.569 -1.5180  0.1834 -2.1326
  942MPD2     N13780   4.305   3.159   9.485 -0.6747  0.2146  0.5927
  942MPD2    H513781   4.267   3.095   9.554  1.4745 -0.8007  0.8542
  942MPD2    N113782   4.299   3.572   9.244  0.1497 -0.1339 -0.3970
  942MPD2    H713783   4.384   3.538   9.200  0.0773 -1.9344  0.8703
  943MPD2     C13784   2.136   4.654  10.134  0.4516 -0.3785  0.1395
  943MPD2    C113785   2.228   4.719  10.060  0.2301  1.1831  0.3379
  943MPD2    C213786   2.199   0.044   9.935 -0.9288 -0.2413  0.0064
  943MPD2    C313787   2.069   0.039   9.890 -0.0081 -0.9554  0.2398
  943MPD2    C413788   1.973   4.709   9.973  0.1827 -0.2251 -0.2021
  943MPD2    C513789   2.009   4.654  10.093  0.0093 -0.2718 -0.7434
  943MPD2     H13790   2.276   0.088   9.872 -0.4121  0.1602  0.9125
  943MPD2    H113791   1.868   4.712   9.945  0.0972  0.9996  0.2433
  943MPD2    H213792   2.146   4.608  10.232 -1.6686  2.5505  1.7031
  943MPD2    H313793   1.931   4.611  10.155 -0.6692  1.9740 -0.0165
  943MPD2     N13794   2.026   0.097   9.770 -0.2812 -0.9105 -0.7772
  943MPD2    H513795   1.925   0.097   9.754 -0.0241 -0.7837 -2.3531
  943MPD2    N113796   2.357   0.008  10.124 -0.6450 -0.0894  0.2134
  943MPD2    H713797   2.373   4.693  10.217 -0.8899  1.2861  0.8377
  944MPD2     C13798   3.040   0.458  11.075  0.3624 -0.0059 -0.0109
  944MPD2    C113799   3.050   0.328  11.113 -0.6912 -0.1904  0.1810
  944MPD2    C213800   2.972   0.289  11.221  0.9448 -0.7442  0.1834
  944MPD2    C313801   2.889   0.379  11.293 -0.4126 -0.4139  0.8451
  944MPD2    C413802   2.888   0.507  11.255 -0.6017 -0.4075  0.4707
  944MPD2    C513803   2.960   0.542  11.146  0.0555  0.2989 -0.2412
  944MPD2     H13804   2.978   0.188  11.259 -1.5231 -0.2793  1.8037
  944MPD2    H113805   2.832   0.589  11.299 -0.7307  0.3013 -1.0207
  944MPD2    H213806   3.079   0.500  10.983 -0.9449 -1.0495 -1.0386
  944MPD2    H313807   2.939   0.645  11.119 -0.3085  0.3321  0.1774
  944MPD2     N13808   2.814   0.329  11.400 -0.3159 -0.8410 -0.1155
  944MPD2    H513809   2.831   0.230  11.414  0.6024 -0.7449 -0.5640
  944MPD2    N113810   3.128   0.242  11.040  0.1039  0.1458  0.5374
  944MPD2    H713811   3.178   0.281  10.961 -1.1560  2.0530  0.6973
    1TCq1    O113812   0.562   0.948  14.307 -0.1761  0.0710  0.0857
    1TCq1    C113813   0.578   1.076  14.342 -0.3685 -0.0021 -0.2689
    1TCq1    O213814   0.570   1.168  14.261 -0.4300  0.2572  0.1916
    1TCq1    C213815   0.651   1.089  14.471 -0.0317 -0.2545 -0.2526
    1TCq1    C313816   0.631   0.999  14.563  0.4012  0.0887  0.1178
    1TCq1    C413817   0.690   1.015  14.691  0.1654 -0.0223  0.2059
    1TCq1    C513818   0.778   1.118  14.711  0.1574  0.3849  0.0363
    1TCq1    C613819   0.788   1.211  14.610  0.6887 -0.2360  0.4791
    1TCq1    C713820   0.726   1.202  14.492  0.2698  0.2140  0.3315
    1TCq1    C813821   0.900   1.295  14.634 -0.7742 -0.6881 -0.3353
    1TCq1    O413822   0.990   1.246  14.702 -0.2946 -0.2416  0.4204
    1TCq1    C913823   0.678   0.918  14.793  0.2497  0.3043  0.3526
    1TCq1    O513824   0.738   0.934  14.898 -0.1762 -0.1093 -0.2861
    1TCq1    O613825   0.628   0.810  14.758  0.4771 -0.1929  0.0595
    1TCq1    H113826   0.615   0.881  14.354 -1.2754 -0.6453  0.3037
    1TCq1    H213827   0.576   0.908  14.539 -0.5472  0.6037  0.3110
    1TCq1    H313828   0.839   1.129  14.800  0.8027  1.2836 -0.5144
    1TCq1    H413829   0.738   1.273  14.410  0.2497  0.5535  0.6233
    2MPD2     C13830   1.187   1.709  14.682  0.1249  0.2925 -0.5300
    2MPD2    C113831   1.055   1.750  14.650 -0.1674  0.3739 -0.4391
    2MPD2    C213832   0.963   1.649  14.609 -0.7318 -0.5133  0.3227
    2MPD2    C313833   0.997   1.516  14.610 -0.0848 -0.4738  0.0667
    2MPD2    C413834   1.136   1.475  14.632  0.3073 -0.3276  0.4179
    2MPD2    C513835   1.223   1.576  14.671 -0.0780  0.1865  0.5970
    2MPD2     H13836   0.860   1.674  14.586 -0.6626  0.2911  0.8497
    2MPD2    H113837   1.178   1.375  14.637 -1.1199 -0.9726 -0.4687
    2MPD2    H213838   1.250   1.787  14.721  1.3699  0.0869 -2.1235
    2MPD2    H313839   1.321   1.537  14.695 -0.2613  1.2578  3.0384
    2MPD2     N13840   0.891   1.424  14.595  0.1529 -0.0316  0.0572
    2MPD2    H513841   0.800   1.456  14.566  1.1524  1.7893 -1.0294
    2MPD2    N113842   1.020   1.887  14.656  0.2329  0.2092 -0.1336
    2MPD2    H713843   1.091   1.949  14.692  0.8388 -0.1019 -0.7763
    3TMC2    C113844   0.927   2.090  14.669 -1.3001 -0.6115 -0.1881
    3TMC2    C213845   0.814   2.157  14.686 -0.0097 -1.1237 -0.7109
    3TMC2    C313846   0.792   2.269  14.613  0.7210 -0.1061 -0.0709
    3TMC2    C413847   1.021   2.139  14.584  0.1652  1.0549 -0.0511
    3TMC2    C513848   0.999   2.249  14.509 -0.6903  0.1345  0.2658
    3TMC2    C613849   0.886   2.325  14.534  0.0686 -0.1956 -0.1057
    3TMC2     C13850   0.901   1.947  14.644 -0.3988 -0.3941  0.4460
    3TMC2     O13851   0.795   1.898  14.629  0.5405  0.2846  0.7740
    3TMC2     H13852   0.733   2.119  14.747  0.7574 -0.9552  0.4157
    3TMC2    H113853   1.115   2.090  14.560  0.3782  0.4336  2.0320
    3TMC2    H213854   0.863   2.418  14.485  0.5817 -0.4013 -0.7344
    3TMC2    C713855   1.076   2.275  14.386 -0.7423 -0.9884 -0.9684
    3TMC2    C813856   0.707   2.363  14.682  1.3744  0.2311  0.5935
    3TMC2    O113857   1.176   2.210  14.357 -0.2038  0.5815  0.7914
    3TMC2    O213858   0.736   2.482  14.680 -0.4208  0.0087  0.1595
    3TMC2    O513859   0.586   2.311  14.693  0.7575  0.0063  0.6765
    3TMC2    H513860   0.564   2.230  14.643  1.0812  2.4617 -3.4890
    4MPD2     C13861   4.642   2.974  13.548 -0.2303  0.3370 -0.5233
    4MPD2    C113862   4.707   2.902  13.447  0.3800  0.3678  0.7916
    4MPD2    C213863   0.110   2.861  13.466 -0.2973 -0.1814  0.3271
    4MPD2    C313864   0.175   2.889  13.587  0.3254  0.6423  0.3167
    4MPD2    C413865   0.110   2.955  13.692 -0.5982 -0.0637 -0.6918
    4MPD2    C513866   4.710   2.996  13.666  0.2475 -0.4093  0.3139
    4MPD2     H13867   0.170   2.810  13.391 -0.5771 -2.1239  1.4347
    4MPD2    H113868   0.160   2.979  13.785 -1.7974 -0.9930  0.1927
    4MPD2    H213869   4.540   3.011  13.541  0.0411  0.8882 -1.6108
    4MPD2    H313870   4.657   3.045  13.747  0.3631  0.1307  0.0598
    4MPD2     N13871   0.307   2.841  13.597  0.8061  0.2257 -0.2521
    4MPD2    H513872   0.349   2.787  13.523 -1.1790 -0.4651 -0.8680
    4MPD2    N113873   4.632   2.874  13.327 -0.2685 -0.3196  0.4526
    4MPD2    H713874   4.543   2.924  13.331  0.5025  1.2918 -2.1662
    5TCq2    C113875   0.387   2.853  13.708  0.6009  0.3422 -0.0089
    5TCq2    O213876   0.364   2.906  13.816 -0.2638 -0.0567 -0.4799
    5TCq2    C213877   0.512   2.777  13.689 -0.3663  0.3701 -0.1230
    5TCq2    C313878   0.564   2.754  13.565  0.2829 -0.2803  0.4536
    5TCq2    C413879   0.677   2.674  13.552  0.3787  0.0437  0.0203
    5TCq2    C513880   0.736   2.617  13.652 -0.2273  0.3543  0.0399
    5TCq2    C613881   0.679   2.633  13.779  0.3200 -0.0946 -0.5552
    5TCq2    C713882   0.565   2.708  13.800 -0.1237 -0.0470 -0.6322
    5TCq2    C813883   0.742   2.569  13.890  0.3357  0.1435  1.2433
    5TCq2    O413884   0.680   2.559  13.999  0.0948  0.6070 -0.0778
    5TCq2    C913885   0.729   2.649  13.418  0.8400 -0.7698 -0.6770
    5TCq2    O513886   0.843   2.603  13.412  0.2891  0.0148 -0.2723
    5TCq2    O613887   0.662   2.688  13.315 -0.3273 -0.1122  1.1386
    5TCq2    H213888   0.536   2.823  13.487 -1.5211  0.0868  1.4375
    5TCq2    H313889   0.813   2.543  13.635 -1.0847 -0.7100  0.8375
    5TCq2    H413890   0.526   2.728  13.899 -1.4117  2.5492 -1.6689
    6MPD1     C13891   4.011   3.261  11.463  0.5784  0.0725 -0.5595
    6MPD1    C113892   4.137   3.215  11.473 -0.2227 -0.1285 -0.6320
    6MPD1    C213893   4.190   3.187  11.598 -0.4229 -0.2633  0.1339
    6MPD1    C313894   4.122   3.197  11.712 -0.4903 -0.2694  0.1431
    6MPD1    C413895   3.993   3.244  11.702  0.4148 -0.1622 -0.1638
    6MPD1    C513896   3.942   3.271  11.577 -0.5476  0.1841 -0.0055
    6MPD1     H13897   4.292   3.149  11.601 -0.0725  0.7264  0.6511
    6MPD1    H113898   3.938   3.258  11.794  1.6888  1.1739  0.3888
    6MPD1    H213899   3.960   3.275  11.369 -0.9286  3.5180  0.7503
    6MPD1    H313900   3.840   3.307  11.585 -0.1308  2.2276 -3.8906
    6MPD1     N13901   4.173   3.155  11.839 -0.2176 -0.5483  0.1409
    6MPD1    H513902   4.108   3.182  11.912 -1.3693 -0.0116 -1.0790
    6MPD1    N113903   4.195   3.178  11.349 -0.0483 -0.1256  0.0528
    6MPD1    H613904   4.295   3.160  11.355 -0.1898 -0.9855 -0.3519
    6MPD1    H713905   4.156   3.231  11.272 -1.0633  1.0423  1.3601
    7MPD2     C13906   4.039   3.089  12.622 -0.2066  0.9178 -0.8039
    7MPD2    C113907   4.149   3.019  12.587 -0.1424  0.8285 -0.1320
    7MPD2    C213908   4.210   2.931  12.672 -0.2987  0.3988 -0.6804
    7MPD2    C313909   4.170   2.918  12.799 -0.2935  0.1999  0.1185
    7MPD2    C413910   4.060   2.993  12.838 -0.7040  0.2130 -0.0822
    7MPD2    C513911   4.002   3.079  12.753  0.2404 -0.0561  0.0603
    7MPD2     H13912   4.298   2.878  12.638  1.3112  0.9437  2.6378
    7MPD2    H113913   4.013   2.971  12.933 -0.6234  0.9277  0.1197
    7MPD2    H213914   3.983   3.157  12.558  0.2501  0.5847 -1.5480
    7MPD2    H313915   3.918   3.136  12.790  0.1833  1.2582 -2.0770
    7MPD2     N13916   4.244   2.821  12.876  0.7131  0.1394 -0.3212
    7MPD2    H513917   4.313   2.768  12.824 -0.1451 -0.8077 -0.4965
    7MPD2    N113918   4.199   3.015  12.455 -0.1841  0.5059  0.7465
    7MPD2    H713919   4.269   2.945  12.432  1.8579  1.9315  2.7128
    8TMC3    C113920   4.351   2.718  13.062 -0.4336 -0.0485  0.2075
    8TMC3    C213921   4.440   2.773  13.148  0.2392 -0.4672  0.0702
    8TMC3    C313922   4.575   2.759  13.120 -0.0167 -0.5016 -0.6855
    8TMC3    C413923   4.384   2.635  12.961  0.3772 -0.7291 -0.4807
    8TMC3    C513924   4.516   2.624  12.930 -0.3764  0.3082  0.3112
    8TMC3    C613925   4.610   2.690  13.006  0.0303 -0.4546  0.3285
    8TMC3     C13926   4.243   2.810  13.012 -0.0145  0.6538  0.0401
    8TMC3     O13927   4.189   2.884  13.089 -0.0778  0.4038  0.5652
    8TMC3     H13928   4.399   2.845  13.219  1.2189  1.3566 -1.2279
    8TMC3    H113929   4.311   2.589  12.896  0.4494  0.0462 -1.1215
    8TMC3    H213930   4.717   2.691  12.986 -0.3875 -0.7965 -1.8877
    8TMC3    C713931   4.537   2.600  12.786 -0.0691  0.8562 -0.7489
    8TMC3    C813932   4.672   2.782  13.232 -0.6938 -0.6995  0.3235
    8TMC3    O113933   4.439   2.630  12.719  0.5084 -0.1474 -0.0719
    8TMC3    O213934   0.050   2.719  13.227 -0.3025 -0.0477  0.3184
    9TMC3    C113935   4.314   3.058  12.007  0.4996  0.1430 -0.7852
    9TMC3    C213936   4.432   2.994  12.029  0.1331 -0.1959  0.7907
    9TMC3    C313937   4.458   2.964  12.155  0.4218 -0.9690  0.8901
    9TMC3    C413938   4.234   3.105  12.107  0.3101  0.2966  0.6162
    9TMC3    C513939   4.258   3.065  12.235 -0.5038  0.1554 -0.2869
    9TMC3    C613940   4.371   2.995  12.260 -0.0593 -0.3675  0.1926
    9TMC3     C13941   4.291   3.080  11.865  0.4014 -0.3000  0.1784
    9TMC3     O13942   4.369   3.032  11.784 -0.3128  0.0624  0.0366
    9TMC3     H13943   4.496   2.960  11.947  0.0941 -0.6292  0.9412
    9TMC3    H113944   4.143   3.162  12.092  1.0518  2.2368  3.3744
    9TMC3    H213945   4.407   2.992  12.362 -0.8261 -0.5627  0.4580
    9TMC3    C713946   4.169   3.098  12.347 -0.3829  0.2351  0.0690
    9TMC3    C813947   4.583   2.893  12.197 -0.5289 -0.4327  0.2898
    9TMC3    O113948   4.099   3.196  12.343  0.2165 -0.6633  0.2472
    9TMC3    O213949   4.688   2.913  12.134  0.0101 -0.7401  0.2367
   10MPD2     C13950   0.124   2.688  12.601 -0.5392 -0.5625  0.0956
   10MPD2    C113951   4.709   2.659  12.617  1.2846 -0.1520 -1.0434
   10MPD2    C213952   4.625   2.697  12.512  0.2240  0.1010 -0.0634
   10MPD2    C313953   4.667   2.767  12.400 -0.6353  0.4048  0.3877
   10MPD2    C413954   0.078   2.801  12.392  0.0528  0.2216  0.3341
   10MPD2    C513955   0.166   2.761  12.492 -0.2991 -0.0548  0.3432
   10MPD2     H13956   4.521   2.667  12.517  0.4116 -0.4287  0.6439
   10MPD2    H113957   0.123   2.853  12.308  3.1923  1.2095  2.6071
   10MPD2    H213958   0.205   2.649  12.661  0.0492 -2.3260 -1.8618
   10MPD2    H313959   0.272   2.776  12.477 -0.4904  2.4842  1.4628
   10MPD2     N13960   4.566   2.817  12.310  0.1153 -0.0723 -0.1041
   10MPD2    H513961   4.473   2.790  12.342  0.5952 -3.0384 -1.1590
   10MPD2    N113962   4.665   2.612  12.743  0.2000  0.9364  0.2565
   10MPD2    H713963   0.017   2.591  12.807 -0.5548 -0.3709  0.7287
   11MPD2     C13964   1.156   2.357  14.111  0.1966 -0.4147  0.1793
   11MPD2    C113965   1.034   2.382  14.165  0.4269 -0.1821  0.3770
   11MPD2    C213966   0.936   2.434  14.080  0.0354 -0.0247  0.3016
   11MPD2    C313967   0.961   2.470  13.948  0.0259  0.0088 -0.3819
   11MPD2    C413968   1.092   2.464  13.904 -0.5121  0.9248 -0.4273
   11MPD2    C513969   1.188   2.407  13.983 -0.8036 -0.3142 -0.1724
   11MPD2     H13970   0.841   2.445  14.131 -0.8788 -0.2583 -1.3518
   11MPD2    H113971   1.120   2.484  13.801  0.2322  1.2936 -0.1491
   11MPD2    H213972   1.234   2.309  14.169  0.3677 -1.1304 -0.6582
   11MPD2    H313973   1.289   2.397  13.945 -0.7220 -0.5583  0.1145
   11MPD2     N13974   0.875   2.538  13.860 -0.5470 -0.2003 -0.0443
   11MPD2    H513975   0.912   2.558  13.768 -2.8863 -0.7091 -1.0799
   11MPD2    N113976   0.999   2.351  14.297  0.2133  0.4399  0.0031
   11MPD2    H713977   0.906   2.379  14.327  0.2196 -1.2685  1.6894
    1MPD1     C13978   3.118   2.361   0.239  0.3739  0.5874 -0.2401
    1MPD1    C113979   3.082   2.375   0.109 -0.4055 -0.0192 -0.3587
    1MPD1    C213980   3.138   2.483   0.044  0.2621 -0.2715 -0.0568
    1MPD1    C313981   3.211   2.575   0.111  0.3741  0.1580  0.2444
    1MPD1    C413982   3.219   2.565   0.247 -0.0471 -0.1407 -0.4875
    1MPD1    C513983   3.186   2.456   0.310  0.2500  0.3815 -0.8426
    1MPD1     H13984   3.120   2.482  17.636  0.0232 -1.0870 -0.0124
    1MPD1    H113985   3.257   2.647   0.307  1.2641 -1.6487  0.7434
    1MPD1    H213986   3.093   2.276   0.301  1.4172 -0.5223 -1.3621
    1MPD1    H313987   3.212   2.436   0.414 -1.1112 -0.3666 -0.6373
    1MPD1     N13988   3.248   2.701   0.061  0.1140  0.7096 -0.2903
    1MPD1    H513989   3.302   2.759   0.124 -0.1797 -0.0664  0.6850
    1MPD1    N113990   3.023   2.268   0.043  0.0018 -0.1534  0.9357
    1MPD1    H613991   2.947   2.223   0.094 -0.0639 -0.6300  0.4241
    1MPD1    H713992   2.991   2.295  17.648 -0.6789 -1.8619  0.6598
    2MPD1     C13993   3.984   3.026   0.341 -0.0020 -0.2373 -0.3254
    2MPD1    C113994   3.887   2.930   0.371  0.2448 -0.3244 -1.0268
    2MPD1    C213995   3.771   2.926   0.301  0.4058  0.4130  0.5055
    2MPD1    C313996   3.750   3.003   0.186  0.2637 -0.0981  0.3765
    2MPD1    C413997   3.857   3.089   0.151  1.1295 -0.2872  0.8054
    2MPD1    C513998   3.967   3.103   0.227  0.0568 -0.3294  0.7507
    2MPD1     H13999   3.688   2.859   0.320  1.1495 -0.2114  1.5832
    2MPD1    H114000   3.848   3.157   0.067  2.0793 -1.5212 -0.3159
    2MPD1    H214001   4.065   3.052   0.408 -0.5047  0.9996 -0.1948
    2MPD1    H314002   4.037   3.182   0.201 -0.0270  0.2395  2.2373
    2MPD1     N14003   3.632   2.974   0.109  0.1085  0.1495 -0.4257
    2MPD1    H514004   3.562   2.910   0.145 -0.0353 -0.6040 -2.0469
    2MPD1    N114005   3.898   2.856   0.485  0.6712 -0.7151  0.6355
    2MPD1    H614006   3.996   2.834   0.503  0.9195 -0.0609  0.0523
    2MPD1    H714007   3.848   2.770   0.465 -0.0991  0.1587 -1.1549
    3TMC3    C114008   3.467   3.008  17.640 -0.7720  0.6787  0.1725
    3TMC3    C214009   3.417   3.092  17.545 -0.1895 -0.3025 -0.3905
    3TMC3    C314010   3.293   3.059  17.495  0.2464 -0.1964  0.1685
    3TMC3    C414011   3.410   2.894  17.674 -0.2543  0.2844  0.3755
    3TMC3    C514012   3.279   2.874  17.632  0.3015  0.3155 -0.4764
    3TMC3    C614013   3.220   2.952  17.539  0.1531 -0.5688  0.4934
    3TMC3     C14014   3.593   3.049   0.006  0.0334 -0.0511 -0.1025
    3TMC3     O14015   3.651   3.138  17.641 -0.1357 -0.0777  1.1017
    3TMC3     H14016   3.455   3.191  17.524  0.8265 -0.3875  1.0203
    3TMC3    H114017   3.468   2.816   0.022  1.2811  1.7593  0.9244
    3TMC3    H214018   3.128   2.923  17.490  1.5428 -1.7828 -1.3513
    3TMC3    C714019   3.209   2.751  17.645  0.7856  0.2336 -0.3946
    3TMC3    C814020   3.222   3.141  17.405  0.6338  0.0236 -0.6675
    3TMC3    O114021   3.130   2.709  17.567  0.2675 -0.1367  0.5091
    3TMC3    O214022   3.103   3.123  17.389 -0.2699 -0.0235 -0.3147
    4MPD1     C14023   3.162   3.615  17.218  0.0073  0.3392  0.3729
    4MPD1    C114024   3.297   3.585  17.207  0.1591 -0.8734 -0.4443
    4MPD1    C214025   3.340   3.457  17.239 -0.0882  0.2524 -0.8323
    4MPD1    C314026   3.251   3.363  17.293 -0.1399  0.6870 -0.2079
    4MPD1    C414027   3.113   3.401  17.301 -0.0256 -0.2894 -0.2384
    4MPD1    C514028   3.068   3.526  17.263  0.1871  0.5737  0.3919
    4MPD1     H14029   3.444   3.430  17.230 -0.2343  0.0351 -1.8677
    4MPD1    H114030   3.050   3.325  17.344 -0.6670  0.5883  0.3918
    4MPD1    H214031   3.125   3.717  17.209 -1.3440  0.1028  3.1396
    4MPD1    H314032   2.967   3.564  17.274  1.2095  2.8135  1.9151
    4MPD1     N14033   3.298   3.236  17.342  0.0650 -0.0953  0.2858
    4MPD1    H514034   3.397   3.219  17.333  0.0361  0.2704 -0.7566
    4MPD1    N114035   3.382   3.681  17.149 -0.2975  0.3584  1.3209
    4MPD1    H614036   3.479   3.653  17.165  0.1415  0.8520 -0.4554
    4MPD1    H714037   3.363   3.773  17.187  0.9370  0.4284  1.7769
    1TCq1    O114038   0.242   2.246  12.291  0.9406 -0.2915 -0.5683
    1TCq1    C114039   0.358   2.301  12.336 -0.2782 -0.4642 -0.5812
    1TCq1    O214040   0.472   2.265  12.312  0.1224 -0.1020  0.5995
    1TCq1    C214041   0.330   2.442  12.358 -0.2232 -0.1203  0.1367
    1TCq1    C314042   0.287   2.496  12.241  0.0327 -0.7073 -0.2843
    1TCq1    C414043   0.344   2.618  12.198 -0.5215 -1.0873 -0.3357
    1TCq1    C514044   0.437   2.685  12.272 -0.2260 -0.3720  0.1578
    1TCq1    C614045   0.485   2.618  12.383  0.2165  0.3359  0.2114
    1TCq1    C714046   0.432   2.497  12.423 -0.0888 -0.3198  0.0681
    1TCq1    C814047   0.602   2.670  12.456 -0.1195  0.3621 -0.0426
    1TCq1    O414048   0.689   2.713  12.378  0.3480  0.4732 -0.0820
    1TCq1    C914049   0.272   2.699  12.105 -0.2158 -0.4850 -0.3784
    1TCq1    O514050   0.320   2.811  12.073 -0.3547 -0.3877  0.1975
    1TCq1    O614051   0.160   2.660  12.075 -0.2577  0.4748  0.3787
    1TCq1    H114052   0.171   2.307  12.320  0.3915 -0.8099 -0.8175
    1TCq1    H214053   0.197   2.461  12.192 -0.2332 -1.1071  0.4953
    1TCq1    H314054   0.474   2.784  12.246 -0.1331 -0.0716  1.4262
    1TCq1    H414055   0.482   2.446  12.504  0.2395  1.0198  0.6964
    2MPD1     C14056   0.983   2.599  12.815 -0.5936  0.6426 -0.4721
    2MPD1    C114057   0.877   2.515  12.846  0.1552 -0.0917 -0.1616
    2MPD1    C214058   0.762   2.526  12.767 -0.8421  0.4535 -0.4219
    2MPD1    C314059   0.740   2.621  12.664  0.0346  0.1144 -0.2781
    2MPD1    C414060   0.837   2.716  12.653  0.4788 -0.0262 -0.0107
    2MPD1    C514061   0.958   2.705  12.727 -0.2615 -0.5672  0.1253
    2MPD1     H14062   0.680   2.455  12.773 -1.5033  1.1775 -0.9149
    2MPD1    H114063   0.814   2.806  12.597 -0.2186 -0.8960 -1.1260
    2MPD1    H214064   1.084   2.588  12.853 -0.6084 -2.5902 -1.3302
    2MPD1    H314065   1.032   2.783  12.712 -0.5984 -0.3921 -0.6224
    2MPD1     N14066   0.621   2.609  12.579 -0.5747 -0.5202 -0.3657
    2MPD1    H514067   0.545   2.550  12.611 -0.9187  1.2650  2.1591
    2MPD1    N114068   0.892   2.408  12.926 -0.2336  0.0207  0.0008
    2MPD1    H614069   0.894   2.326  12.865  0.5757  0.0368  0.0046
    2MPD1    H714070   0.986   2.406  12.966  0.1567  0.5644 -0.9048
    1TCq1    O114071   2.314   2.752   1.806 -0.5550 -0.2192  0.1278
    1TCq1    C114072   2.273   2.651   1.882 -0.0923  0.0235 -0.2067
    1TCq1    O214073   2.199   2.659   1.982 -0.7264  0.3032 -0.1161
    1TCq1    C214074   2.326   2.524   1.832  0.7108  0.2863 -1.1614
    1TCq1    C314075   2.341   2.505   1.698 -0.1184 -0.1241  0.3892
    1TCq1    C414076   2.373   2.383   1.648 -1.0261 -0.3720  0.6251
    1TCq1    C514077   2.359   2.282   1.740 -0.2080 -0.8926  0.1078
    1TCq1    C614078   2.355   2.304   1.879 -0.5204 -0.1466  0.8228
    1TCq1    C714079   2.333   2.431   1.927 -0.0239  0.1360 -0.4182
    1TCq1    C814080   2.367   2.195   1.967  0.6647  0.2523 -0.6433
    1TCq1    O414081   2.325   2.089   1.931  0.3537 -0.1653 -0.1391
    1TCq1    C914082   2.347   2.346   1.506  0.1962  0.2529 -0.4886
    1TCq1    O514083   2.350   2.443   1.421 -0.1549 -0.2905 -0.0577
    1TCq1    O614084   2.341   2.226   1.478  0.0368  0.2355  0.0742
    1TCq1    H114085   2.375   2.710   1.742 -0.7394  0.1593 -0.2960
    1TCq1    H214086   2.308   2.579   1.625  0.5213 -1.4195 -1.1981
    1TCq1    H314087   2.355   2.180   1.705  1.6112 -0.9118 -0.0431
    1TCq1    H414088   2.312   2.456   2.030 -1.2485 -1.9051 -0.1765
    2MPD1     C14089   2.477   2.016   2.447  0.0819  0.5005 -0.2758
    2MPD1    C114090   2.515   2.148   2.436 -0.2643 -0.0127  0.5160
    2MPD1    C214091   2.494   2.218   2.316  1.1421  0.0179 -0.0971
    2MPD1    C314092   2.432   2.156   2.202  0.2159  0.3517 -0.1418
    2MPD1    C414093   2.402   2.021   2.216  0.0301  0.3519 -0.1261
    2MPD1    C514094   2.427   1.953   2.335  0.5202 -0.0171 -0.2551
    2MPD1     H14095   2.536   2.317   2.309 -2.7785  1.8403  1.8794
    2MPD1    H114096   2.365   1.960   2.134  3.5859 -1.3636 -0.4551
    2MPD1    H214097   2.483   1.960   2.539 -0.7837 -1.0003 -1.1250
    2MPD1    H314098   2.415   1.845   2.344  0.1901  0.1054  0.8234
    2MPD1     N14099   2.412   2.237   2.088  0.4607  0.3857  0.3224
    2MPD1    H514100   2.451   2.331   2.095 -0.0220  0.4874  1.5700
    2MPD1    N114101   2.581   2.212   2.541 -0.0856  1.0531  0.4397
    2MPD1    H614102   2.567   2.313   2.541 -1.6505  0.8397 -1.8212
    2MPD1    H714103   2.532   2.184   2.626  1.0386  1.6133  1.2815
    1MPD1     C14104   1.176   2.762  11.799 -0.4221  0.2804 -0.5910
    1MPD1    C114105   1.138   2.892  11.845  0.3981  0.6453 -0.0080
    1MPD1    C214106   1.231   2.989  11.858 -0.3905 -0.7464  0.0775
    1MPD1    C314107   1.361   2.980  11.809  0.8807  0.1150 -0.4665
    1MPD1    C414108   1.396   2.861  11.759 -0.0932 -0.4340 -0.4311
    1MPD1    C514109   1.305   2.748  11.758  0.9437  0.4198  0.3604
    1MPD1     H14110   1.198   3.081  11.905  1.5292  0.3090 -0.6426
    1MPD1    H114111   1.498   2.839  11.728  0.3066 -0.6497  1.0369
    1MPD1    H214112   1.114   2.673  11.797  0.6919 -0.4573 -2.3514
    1MPD1    H314113   1.332   2.651  11.718 -0.6723 -0.6967  1.9750
    1MPD1     N14114   1.441   3.090  11.831 -0.2053 -0.2865  1.0940
    1MPD1    H514115   1.403   3.175  11.871 -3.3528 -0.9123 -0.5548
    1MPD1    N114116   1.018   2.891  11.921 -0.1438  0.0594 -0.1853
    1MPD1    H614117   0.970   2.981  11.928  0.4553  0.3551  0.0786
    1MPD1    H714118   0.954   2.821  11.884  0.5717 -0.7155  0.0590
    2MPD1     C14119   1.163   2.745  11.372 -0.1857  0.5933  0.3841
    2MPD1    C114120   1.067   2.729  11.278 -0.8343 -0.5212  0.9483
    2MPD1    C214121   1.068   2.811  11.167  0.3736 -0.5913 -0.3934
    2MPD1    C314122   1.155   2.915  11.160 -1.1699 -0.5043  0.1922
    2MPD1    C414123   1.249   2.935  11.261 -0.0941 -0.0032  0.0184
    2MPD1    C514124   1.256   2.849  11.366  0.0781  0.4147  0.0680
    2MPD1     H14125   0.999   2.791  11.086  2.6029  1.2090 -2.7424
    2MPD1    H114126   1.320   3.016  11.271 -0.5190  0.5406 -1.2593
    2MPD1    H214127   1.173   2.674  11.453  2.6698  0.6290  0.0715
    2MPD1    H314128   1.326   2.859  11.448  0.5067  1.3602 -0.4047
    2MPD1     N14129   1.170   2.998  11.048  0.3117 -0.1017  0.2489
    2MPD1    H514130   1.234   3.077  11.048  1.6551 -1.2026  2.0534
    2MPD1    N114131   0.988   2.618  11.294  0.4513 -0.7421  0.0271
    2MPD1    H614132   0.988   2.561  11.379  0.9217 -1.5631 -0.5216
    2MPD1    H714133   0.893   2.617  11.257  0.0931  0.2073  0.9288
    3MPD1     C14134   0.454   3.489  10.637 -0.4167  0.2436 -0.0367
    3MPD1    C114135   0.473   3.441  10.763 -0.2388 -0.2466 -0.4450
    3MPD1    C214136   0.601   3.384  10.786  0.6945  0.3288 -0.3658
    3MPD1    C314137   0.699   3.377  10.690 -0.1262  0.3613  0.4662
    3MPD1    C414138   0.671   3.434  10.571 -0.0745 -0.2940  0.1579
    3MPD1    C514139   0.558   3.500  10.549  0.4255 -0.3500  0.5211
    3MPD1     H14140   0.622   3.346  10.885  1.5785  0.1742 -0.6165
    3MPD1    H114141   0.749   3.434  10.495  1.5623  0.0041  1.8435
    3MPD1    H214142   0.362   3.541  10.612  0.9964  1.8259 -1.8947
    3MPD1    H314143   0.529   3.542  10.453 -0.2005  0.3993  1.0448
    3MPD1     N14144   0.831   3.337  10.732 -0.5693  0.1878  0.1319
    3MPD1    H514145   0.842   3.302  10.826  0.5122  3.6820  1.2792
    3MPD1    N114146   0.385   3.473  10.864 -0.1058 -0.4449  0.4851
    3MPD1    H614147   0.374   3.411  10.944  0.7455  1.0859  1.8055
    3MPD1    H714148   0.296   3.501  10.825  0.1479 -0.0280  0.2024
    4MPD2     C14149   1.283   3.597  11.474 -0.3367  0.0656  0.0785
    4MPD2    C114150   1.414   3.618  11.517 -0.0011 -0.8213  0.0498
    4MPD2    C214151   1.502   3.687  11.436 -0.1563  0.6253 -0.5799
    4MPD2    C314152   1.463   3.726  11.302  0.0912  0.4287 -0.0544
    4MPD2    C414153   1.337   3.689  11.267  0.7333 -0.3523  0.4500
    4MPD2    C514154   1.251   3.633  11.349 -0.5274  1.0630  0.3671
    4MPD2     H14155   1.606   3.700  11.463  0.0623 -1.1002 -0.6331
    4MPD2    H114156   1.289   3.697  11.169  0.1382 -0.9058  0.6953
    4MPD2    H214157   1.211   3.546  11.536  0.9610 -1.1536  0.5958
    4MPD2    H314158   1.150   3.605  11.319 -0.5367  2.8169 -1.2007
    4MPD2     N14159   1.554   3.784  11.209  0.4461 -0.2448  0.5222
    4MPD2    H514160   1.527   3.789  11.112  0.5300  2.4255  0.6347
    4MPD2    N114161   1.450   3.554  11.636 -0.2742  0.0770  0.1882
    4MPD2    H714162   1.378   3.510  11.692 -0.6156  0.6812  0.2248
    5TMC3    C114163   1.582   3.462  11.809 -0.1114  1.0469  0.8493
    5TMC3    C214164   1.532   3.338  11.797  0.5203 -0.4644  0.3731
    5TMC3    C314165   1.622   3.234  11.817  0.4871  0.3431 -0.4903
    5TMC3    C414166   1.712   3.483  11.850 -0.1713 -0.4034  0.0954
    5TMC3    C514167   1.795   3.376  11.867  0.5300  0.3749 -1.3016
    5TMC3    C614168   1.749   3.250  11.845 -0.1378 -0.1040 -0.4396
    5TMC3     C14169   1.573   3.546  11.693  1.0298  0.2208 -0.2409
    5TMC3     O14170   1.669   3.611  11.668 -0.2129 -0.5736 -0.3040
    5TMC3     H14171   1.432   3.325  11.758  0.7425 -3.7679  0.9130
    5TMC3    H114172   1.743   3.581  11.884 -0.3439 -0.7100  1.1127
    5TMC3    H214173   1.810   3.161  11.858  0.0926 -0.0179 -0.9396
    5TMC3    C714174   1.929   3.395  11.812 -0.5610 -0.5694  0.0478
    5TMC3    C814175   1.575   3.102  11.797 -1.1307 -0.1852 -0.9811
    5TMC3    O114176   2.015   3.306  11.831 -0.0269  0.8685  0.8831
    5TMC3    O214177   1.650   3.010  11.763  0.1598  0.4936 -0.9961
    6TMC3    C114178   1.136   3.086  10.844  1.0301  0.3371 -0.5874
    6TMC3    C214179   1.029   3.157  10.811  0.1136  0.0920 -0.0973
    6TMC3    C314180   1.048   3.245  10.707  1.6570  0.1855  0.3493
    6TMC3    C414181   1.265   3.097  10.800  0.0204 -0.4811 -0.3457
    6TMC3    C514182   1.282   3.190  10.703  0.2558  0.3194  0.0775
    6TMC3    C614183   1.176   3.261  10.649  0.3350  0.6268 -0.0741
    6TMC3     C14184   1.108   2.981  10.927 -0.3617  0.3711 -0.2856
    6TMC3     O14185   1.018   2.907  10.890  0.3516 -0.0129 -0.6768
    6TMC3     H14186   0.927   3.142  10.847 -0.2697 -2.0540 -2.0230
    6TMC3    H114187   1.345   3.031  10.834  0.1285 -1.9845 -3.5782
    6TMC3    H214188   1.190   3.345  10.582  0.6803 -1.2286 -2.2796
    6TMC3    C714189   1.414   3.246  10.683  1.1144 -0.1508 -0.2731
    6TMC3    C814190   0.947   3.339  10.659  0.2407 -0.2561 -0.0993
    6TMC3    O114191   1.416   3.359  10.637  0.3884 -0.3874 -0.6904
    6TMC3    O214192   0.976   3.390  10.549 -0.3229  0.3876 -0.2280
    7MPD2     C14193   2.196   3.573  11.418  0.0246 -0.7294  0.0371
    7MPD2    C114194   2.069   3.627  11.413  0.4374  0.0386  0.6111
    7MPD2    C214195   1.989   3.611  11.525 -0.2394  0.1042 -0.2982
    7MPD2    C314196   2.027   3.525  11.625  0.2400  1.3164  0.7445
    7MPD2    C414197   2.149   3.461  11.622 -0.0405 -0.4240  0.0846
    7MPD2    C514198   2.241   3.509  11.529  0.0805 -0.1938 -0.0572
    7MPD2     H14199   1.894   3.659  11.546  1.9635  3.1613  2.6367
    7MPD2    H114200   2.188   3.403  11.705  0.9401 -1.2978 -0.9752
    7MPD2    H214201   2.249   3.568  11.324  0.9303 -2.0052  0.6107
    7MPD2    H314202   2.336   3.457  11.541 -0.9099 -2.0704 -0.3284
    7MPD2     N14203   1.928   3.487  11.712  0.0100  0.4995  0.6432
    7MPD2    H514204   1.835   3.521  11.689 -0.0464 -0.3972 -0.4421
    7MPD2    N114205   2.012   3.698  11.307  0.8111 -0.1234  0.2713
    7MPD2    H714206   1.922   3.742  11.323 -1.0256 -3.7150 -0.4073
    8TMC3    C114207   1.984   3.798  11.099  0.3386 -1.0676 -0.3981
    8TMC3    C214208   1.948   3.722  10.988  0.1512 -0.5918 -0.3427
    8TMC3    C314209   1.823   3.732  10.942 -0.4276  0.5179  0.9110
    8TMC3    C414210   1.890   3.873  11.169 -0.4283 -0.0946  0.6740
    8TMC3    C514211   1.761   3.862  11.124  0.0883  0.3185  0.3647
    8TMC3    C614212   1.724   3.797  11.006  0.8317  0.4217 -0.1772
    8TMC3     C14213   2.072   3.729  11.189 -0.0930 -0.3909 -0.2577
    8TMC3     O14214   2.186   3.696  11.157 -0.2389 -0.1486  0.0334
    8TMC3     H14215   2.023   3.663  10.936 -0.2850 -0.2371 -1.3576
    8TMC3    H114216   1.924   3.940  11.248 -0.9170 -1.0907  1.7303
    8TMC3    H214217   1.619   3.792  10.982  0.0261  2.5084  2.9380
    8TMC3    C714218   1.680   3.825  11.236  0.7104  0.2600  0.1108
    8TMC3    C814219   1.770   3.614  10.876 -0.1102  0.3470 -0.3432
    8TMC3    O114220   1.742   3.844  11.343 -0.7261  0.0021 -0.0987
    8TMC3    O214221   1.669   3.640  10.814 -0.2615  0.5220 -0.5429
    9MPD2     C14222   1.864   3.262  10.904 -0.3571 -0.7511 -0.3655
    9MPD2    C114223   1.782   3.369  10.874 -0.0182 -0.0009  0.5451
    9MPD2    C214224   1.662   3.350  10.802 -0.5897  0.8954 -0.1601
    9MPD2    C314225   1.636   3.212  10.775 -0.4319 -0.4145 -0.4895
    9MPD2    C414226   1.721   3.109  10.818 -0.7271 -0.1864  0.3375
    9MPD2    C514227   1.829   3.136  10.891 -0.2575 -0.3134  0.3897
    9MPD2     H14228   1.583   3.424  10.791  1.2907  2.9381  0.1032
    9MPD2    H114229   1.696   3.004  10.808  1.3608 -0.5006 -1.3685
    9MPD2    H214230   1.958   3.280  10.956  0.4011 -2.5524 -1.1342
    9MPD2    H314231   1.894   3.054  10.918 -0.9302 -1.2745 -0.9141
    9MPD2     N14232   1.516   3.165  10.720  0.1310 -0.1188 -0.6926
    9MPD2    H514233   1.492   3.067  10.715  1.7392 -0.6224  1.4923
    9MPD2    N114234   1.829   3.497  10.918  0.0394 -0.0964 -0.3972
    9MPD2    H714235   1.907   3.499  10.982 -1.0286 -0.1424  0.9073
    1MPD1     C14236   2.455   1.439   0.929  0.1495 -0.3863 -0.1546
    1MPD1    C114237   2.561   1.527   0.955  0.3572  0.6794  0.0882
    1MPD1    C214238   2.595   1.605   0.848 -0.1515 -0.2643 -0.2801
    1MPD1    C314239   2.548   1.587   0.721 -0.3158 -0.3807  0.1751
    1MPD1    C414240   2.453   1.487   0.697  0.3614  1.0367 -0.0817
    1MPD1    C514241   2.400   1.418   0.802  0.7140 -0.1581 -0.3446
    1MPD1     H14242   2.662   1.689   0.864  0.3491 -0.6384 -0.4241
    1MPD1    H114243   2.405   1.481   0.600 -0.2919 -2.4203  0.4643
    1MPD1    H214244   2.401   1.388   1.007 -0.8030  1.4233  0.3833
    1MPD1    H314245   2.311   1.360   0.779 -0.6859  1.5109  0.8407
    1MPD1     N14246   2.594   1.654   0.602  0.2404 -0.3721  0.0068
    1MPD1    H514247   2.550   1.628   0.514  1.7060 -0.5602 -0.6783
    1MPD1    N114248   2.601   1.563   1.085 -0.1268  0.1485 -0.1400
    1MPD1    H614249   2.588   1.491   1.156  1.7113 -0.0929 -0.0435
    1MPD1    H714250   2.695   1.603   1.082  0.2190 -0.5224  1.6919
    2MPD1     C14251   2.635   1.563  17.318 -0.2205 -0.3861 -0.2958
    2MPD1    C114252   2.614   1.703  17.332 -0.6680 -0.1281  0.3037
    2MPD1    C214253   2.633   1.759  17.460 -0.8109  0.2650 -0.6356
    2MPD1    C314254   2.666   1.682  17.573 -0.4227 -0.0961 -0.3090
    2MPD1    C414255   2.693   1.549  17.554 -0.0519  0.2727 -0.4901
    2MPD1    C514256   2.679   1.496  17.429 -0.1135  0.6929  0.2794
    2MPD1     H14257   2.613   1.864  17.478 -1.6487 -0.0331  0.2174
    2MPD1    H114258   2.717   1.474  17.628 -0.8665 -1.3458 -1.8652
    2MPD1    H214259   2.628   1.514  17.222  1.3701  0.0486 -0.6363
    2MPD1    H314260   2.699   1.390  17.415 -0.2804  0.2476  3.3759
    2MPD1     N14261   2.682   1.746   0.002 -0.3577  0.2152 -0.0162
    2MPD1    H514262   2.651   1.843   0.002  1.4242  0.7824  1.7260
    2MPD1    N114263   2.562   1.782  17.233  0.3175 -0.0754 -0.4173
    2MPD1    H614264   2.578   1.738  17.142 -1.1778  0.1387 -0.7806
    2MPD1    H714265   2.609   1.872  17.227 -1.4817  0.7910 -1.5478
    3TCq2    C114266   2.712   1.679   0.121  0.1360 -0.7847 -0.5147
    3TCq2    O214267   2.735   1.557   0.147  0.1169  0.0418  0.2664
    3TCq2    C214268   2.712   1.769   0.232 -0.0345 -0.3338  0.0407
    3TCq2    C314269   2.739   1.903   0.212  0.2742  0.0306  0.0236
    3TCq2    C414270   2.744   1.987   0.318  0.0901  0.0296 -0.3578
    3TCq2    C514271   2.726   1.944   0.443  0.2795  0.5302 -0.1927
    3TCq2    C614272   2.708   1.811   0.463  0.1512 -0.6485  0.2361
    3TCq2    C714273   2.684   1.722   0.359 -0.0040  0.0949  0.9807
    3TCq2    C814274   2.684   1.763   0.599 -0.4474 -0.4931 -0.0557
    3TCq2    O414275   2.738   1.827   0.688 -0.0282 -0.5597 -0.0716
    3TCq2    C914276   2.773   2.129   0.290 -0.3860  0.4816 -0.2536
    3TCq2    O514277   2.760   2.208   0.383  0.2918 -0.0685  0.1485
    3TCq2    O614278   2.810   2.168   0.179 -0.3844  0.3318  0.0404
    3TCq2    H214279   2.770   1.942   0.116  0.3944  1.1123  0.4974
    3TCq2    H314280   2.729   2.010   0.529 -0.8139  0.5829 -0.1976
    3TCq2    H414281   2.680   1.614   0.367 -0.3004 -0.1808 -2.7116
    1TCq1    O114282   3.033   1.443  12.572 -0.7229 -0.2124  0.1970
    1TCq1    C114283   3.145   1.384  12.516 -1.1340  1.1038 -0.2464
    1TCq1    O214284   3.163   1.378  12.394 -0.0949  0.2687 -0.1912
    1TCq1    C214285   3.246   1.387  12.615 -0.5455 -0.1820  0.8572
    1TCq1    C314286   3.216   1.377  12.747 -0.0513  0.3492  0.2250
    1TCq1    C414287   3.314   1.400  12.847  0.8985 -0.5724  1.0346
    1TCq1    C514288   3.441   1.425  12.805 -0.0511  0.2070 -0.0318
    1TCq1    C614289   3.466   1.437  12.674  0.1022 -0.2432  0.1449
    1TCq1    C714290   3.372   1.419  12.574  0.3328 -0.0933  0.4637
    1TCq1    C814291   3.606   1.449  12.633 -0.3196 -0.0573 -0.3001
    1TCq1    O414292   3.627   1.426  12.518  0.1582  0.3917  0.0556
    1TCq1    C914293   3.267   1.377  12.979  0.5351 -1.0288 -0.4606
    1TCq1    O514294   3.152   1.430  12.998  0.0183 -0.1442 -0.0107
    1TCq1    O614295   3.360   1.362  13.062  0.0785  0.0236  0.3760
    1TCq1    H114296   3.042   1.469  12.666  2.1206 -2.4874  0.5439
    1TCq1    H214297   3.116   1.348  12.777  0.2698 -1.0652 -0.0269
    1TCq1    H314298   3.518   1.433  12.880 -0.1124  0.6585 -0.0188
    1TCq1    H414299   3.401   1.432  12.471  1.1205  0.8002  0.7959
    2MPD2     C14300   3.895   1.489  12.594  0.2989 -0.6990 -1.1634
    2MPD2    C114301   3.831   1.532  12.711  0.5938  1.2265 -0.1485
    2MPD2    C214302   3.892   1.609  12.807  0.3873  0.5591  0.7831
    2MPD2    C314303   4.024   1.645  12.795  0.3948  1.0716  0.4223
    2MPD2    C414304   4.090   1.600  12.676 -0.3327  0.4100 -0.0531
    2MPD2    C514305   4.027   1.528  12.578  0.0984  0.6820 -0.1942
    2MPD2     H14306   3.827   1.641  12.887  0.0777  0.9759  0.3649
    2MPD2    H114307   4.194   1.622  12.654  0.0435 -1.5925 -0.2732
    2MPD2    H214308   3.860   1.414  12.524 -2.4976 -0.3969 -0.0875
    2MPD2    H314309   4.077   1.500  12.487 -0.6373  0.7689 -0.6305
    2MPD2     N14310   4.073   1.738  12.893  0.1448  0.3818 -0.3045
    2MPD2    H514311   4.019   1.746  12.978  1.6042  0.1830  0.6288
    2MPD2    N114312   3.690   1.507  12.724  0.0945 -0.0338  0.3043
    2MPD2    H714313   3.648   1.527  12.814  1.0166  0.5168  0.6085
    3TCq1    O114314   4.137   2.014  13.409  0.2359  0.1500  0.1446
    3TCq1    C114315   4.065   2.027  13.293  0.6509 -0.2276 -0.2558
    3TCq1    O214316   3.947   2.024  13.278  0.0526  0.2440  0.2877
    3TCq1    C214317   4.160   2.000  13.188 -0.7014 -0.1064 -0.3341
    3TCq1    C314318   4.284   2.047  13.196  0.1266 -0.1737  0.3249
    3TCq1    C414319   4.378   2.013  13.100  0.7683 -0.1844  0.2988
    3TCq1    C514320   4.344   1.943  12.988  0.4988 -0.7835  0.3272
    3TCq1    C614321   4.218   1.890  12.988 -0.0577  0.2840  0.0563
    3TCq1    C714322   4.120   1.920  13.081 -0.2166  0.0124  0.0372
    3TCq1    C814323   4.186   1.811  12.875 -0.2527 -0.4303  0.1200
    3TCq1    O414324   4.269   1.808  12.785  0.2556 -0.0498 -0.0538
    3TCq1    C914325   4.510   2.063  13.124 -0.4658  0.1069 -0.4018
    3TCq1    O514326   4.605   2.060  13.035 -0.0629  0.2859  0.0607
    3TCq1    O614327   4.534   2.085  13.244 -0.1540  0.0945  0.0563
    3TCq1    H114328   4.230   1.986  13.398  0.3515  0.9006 -0.8477
    3TCq1    H214329   4.306   2.127  13.266 -0.1991 -0.3553  0.6333
    3TCq1    H314330   4.408   1.920  12.903 -0.5590  2.7349 -1.4193
    3TCq1    H414331   4.014   1.902  13.069  0.3023 -0.9652 -3.2275
    1MPD2     C14332   3.940   2.662  15.124 -0.2689  0.2013  0.1193
    1MPD2    C114333   3.818   2.603  15.117 -0.2042 -0.3315  0.8381
    1MPD2    C214334   3.812   2.466  15.140 -0.0274 -0.2298  0.0438
    1MPD2    C314335   3.923   2.386  15.156 -0.5150  0.2879  0.4761
    1MPD2    C414336   4.044   2.446  15.158  0.0790 -0.1592  0.2981
    1MPD2    C514337   4.053   2.583  15.148 -0.2038 -0.3557 -0.1440
    1MPD2     H14338   3.714   2.418  15.144 -0.8698  1.2808 -2.4935
    1MPD2    H114339   4.134   2.390  15.185  0.8165  0.5065 -0.7997
    1MPD2    H214340   3.953   2.769  15.113  0.4133  0.1905  0.8094
    1MPD2    H314341   4.149   2.632  15.161 -0.8535  0.8429  0.2083
    1MPD2     N14342   3.903   2.246  15.172  0.3783  0.0389  0.3867
    1MPD2    H514343   3.808   2.212  15.161  0.5140  0.0553 -0.7900
    1MPD2    N114344   3.703   2.678  15.097  0.4111  0.0049  0.0093
    1MPD2    H714345   3.727   2.775  15.079  0.3170 -0.0197 -0.2562
    2TMC3    C114346   3.471   2.723  15.051  0.1841  0.0970 -0.1710
    2TMC3    C214347   3.345   2.674  15.082 -0.4076 -0.2317 -1.0354
    2TMC3    C314348   3.252   2.664  14.982  0.1155 -0.0605 -0.4450
    2TMC3    C414349   3.495   2.771  14.923 -0.6756 -0.7902  0.7100
    2TMC3    C514350   3.399   2.776  14.830  0.0983  0.9998  0.6876
    2TMC3    C614351   3.279   2.719  14.859 -0.0631  0.5002 -0.0434
    2TMC3     C14352   3.571   2.636  15.109  0.1538  0.3986 -0.1459
    2TMC3     O14353   3.518   2.530  15.140 -0.4744  0.3075  0.4403
    2TMC3     H14354   3.312   2.647  15.181  0.6023  1.5403 -0.2103
    2TMC3    H114355   3.595   2.804  14.895 -0.7534 -1.1510 -0.0085
    2TMC3    H214356   3.204   2.713  14.780  0.0252 -1.3220  0.0063
    2TMC3    C714357   3.405   2.863  14.711 -0.0120  0.6067 -0.0951
    2TMC3    C814358   3.184   2.538  14.985 -0.1805  0.0305  0.3067
    2TMC3    O114359   3.297   2.897  14.666 -0.2212 -0.0410 -0.1195
    2TMC3    O214360   3.068   2.533  14.939  0.9521  0.2469 -0.0631
    3TCq1    O114361   4.375   3.268  14.064  0.7462  0.1349 -0.8227
    3TCq1    C114362   4.432   3.194  14.165  0.0667  0.2469  0.4076
    3TCq1    O214363   4.551   3.185  14.193 -0.8306 -0.0897  0.3342
    3TCq1    C214364   4.338   3.108  14.231  0.0183 -0.5456  0.5982
    3TCq1    C314365   4.377   2.999  14.304  0.5646 -0.0593 -0.3662
    3TCq1    C414366   4.290   2.923  14.375  0.5610  0.7677  0.6161
    3TCq1    C514367   4.159   2.941  14.376 -0.0965 -0.5732  0.2099
    3TCq1    C614368   4.116   3.059  14.312  0.3023  0.3690 -0.2559
    3TCq1    C714369   4.208   3.142  14.246  0.3756  0.7554  0.2952
    3TCq1    C814370   3.976   3.092  14.299 -0.0661 -0.4175 -0.2035
    3TCq1    O414371   3.935   3.133  14.192 -0.3413 -0.0432 -0.4070
    3TCq1    C914372   4.343   2.806  14.432  0.0352  1.0083 -0.3099
    3TCq1    O514373   4.462   2.778  14.402 -0.1738 -0.1218  0.7918
    3TCq1    O614374   4.253   2.727  14.467  0.1056 -0.2394 -0.5345
    3TCq1    H114375   4.300   3.211  14.036  1.0251 -1.2466  1.2595
    3TCq1    H214376   4.480   2.969  14.290  0.5988  0.3502 -0.9533
    3TCq1    H314377   4.088   2.875  14.425 -0.0537 -0.6681  0.1434
    3TCq1    H414378   4.170   3.229  14.193 -0.4119  0.0621 -0.2820
    4MPD2     C14379   3.683   3.107  14.338  0.4454  0.0769  0.2610
    4MPD2    C114380   3.769   3.043  14.432 -0.1706 -0.2190  0.1131
    4MPD2    C214381   3.717   2.978  14.542  0.9294  0.0725  0.0547
    4MPD2    C314382   3.582   2.973  14.568 -0.1283 -0.0219  0.2246
    4MPD2    C414383   3.498   3.037  14.479 -0.2785 -0.8583  0.2998
    4MPD2    C514384   3.546   3.100  14.370  0.3892  0.9154  0.2402
    4MPD2     H14385   3.785   2.933  14.614  1.8981  0.9736 -0.2909
    4MPD2    H114386   3.392   3.029  14.500 -0.5005 -0.2014 -0.5984
    4MPD2    H214387   3.718   3.162  14.251 -0.5997 -2.0661 -1.5075
    4MPD2    H314388   3.485   3.148  14.294 -1.7724  0.5854  1.7785
    4MPD2     N14389   3.535   2.897  14.673  0.1581  0.1540  0.1632
    4MPD2    H514390   3.610   2.856  14.727 -1.1203 -1.3734  0.7806
    4MPD2    N114391   3.909   3.049  14.413 -0.1268 -0.3379 -0.4337
    4MPD2    H714392   3.967   3.008  14.485 -0.2233  0.0594 -0.1294
    5TMC2    C114393   3.712   1.959  15.145 -0.1650 -0.8059 -0.4808
    5TMC2    C214394   3.703   1.882  15.261 -0.4648  0.5545  0.8581
    5TMC2    C314395   3.815   1.875  15.341 -0.1374  0.1647 -0.1553
    5TMC2    C414396   3.831   2.013  15.114 -0.2086  0.2956  0.4234
    5TMC2    C514397   3.938   2.017  15.199 -0.9767  0.0180 -0.4619
    5TMC2    C614398   3.931   1.943  15.305 -0.1951  0.3172 -0.1722
    5TMC2     C14399   3.599   2.049  15.113  0.1961  0.3195 -0.4854
    5TMC2     O14400   3.644   2.163  15.104 -0.2869 -0.0360  0.0827
    5TMC2     H14401   3.612   1.825  15.274  0.6299 -1.4027 -0.0812
    5TMC2    H114402   3.850   2.069  15.023 -0.9964 -3.0015 -1.7822
    5TMC2    H214403   4.019   1.946  15.368  1.0986  0.5358 -1.9757
    5TMC2    C714404   3.994   2.152  15.221 -0.0856 -0.0943  0.3669
    5TMC2    C814405   3.815   1.794  15.457  0.2127 -0.2167  0.5154
    5TMC2    O114406   4.112   2.167  15.260 -0.1774  0.1810 -0.0323
    5TMC2    O214407   3.918   1.754  15.512  0.3891 -0.1372 -0.3945
    5TMC2    O514408   3.688   1.777  15.501 -0.2611 -0.1740 -0.4774
    5TMC2    H514409   3.619   1.820  15.448  0.3547  0.1267 -1.0322
    6MPD2     C14410   3.144   2.235  14.991 -0.2105  0.2155  0.1483
    6MPD2    C114411   3.258   2.298  15.028 -0.5608 -0.0693  0.0070
    6MPD2    C214412   3.365   2.221  15.055  0.3578 -0.0625 -0.4459
    6MPD2    C314413   3.359   2.080  15.070 -0.2875  0.2162  0.0098
    6MPD2    C414414   3.240   2.019  15.041 -0.1794 -0.5397 -0.3751
    6MPD2    C514415   3.131   2.096  15.013 -0.2520  0.1041  0.0667
    6MPD2     H14416   3.450   2.279  15.091 -0.7769  1.5321 -0.3379
    6MPD2    H114417   3.226   1.912  15.053 -0.6866 -0.3851  0.3684
    6MPD2    H214418   3.054   2.286  14.957  0.8635  0.9633 -1.5550
    6MPD2    H314419   3.034   2.049  14.998  0.4293 -1.3522  0.2219
    6MPD2     N14420   3.471   1.997  15.105 -0.8046  0.1003  0.0995
    6MPD2    H514421   3.451   1.898  15.116 -3.2563  0.3139 -2.3028
    6MPD2    N114422   3.272   2.443  15.033  0.2832 -0.4022 -1.1764
    6MPD2    H714423   3.363   2.476  15.064  0.0035 -1.2714  0.5727
  945NH4     N114424   0.483   2.487   3.065  0.4510  0.0406 -0.3381
  945NH4     H214425   0.502   2.395   3.019 -1.9157 -1.1953  1.1449
  945NH4     H314426   0.577   2.527   3.081 -0.2075  1.9946 -1.3091
  945NH4     H414427   0.427   2.471   3.151  1.0418 -2.0886 -0.3352
  945NH4     H514428   0.435   2.554   3.001  1.1105 -1.2039 -2.1677
  946SOD     NA14429   2.001   1.781   2.124 -0.0352 -0.0421  0.1309
  947SOD     NA14430   0.385   3.105  13.948  0.0237  0.3748  0.2413
  948SOD     NA14431   2.725   2.377   0.218 -0.2198  0.4108  0.2754
  949SOD     NA14432   0.588   3.882  17.201  0.0268 -0.1895  0.3463
  950SOD     NA14433   2.889   2.085   2.866 -0.2085 -0.1551 -0.3411
  951SOD     NA14434   4.193   0.924   9.884  0.5149  0.1854 -0.1717
  952SOD     NA14435   0.738   0.054  16.847 -0.4425 -0.5422 -0.1857
  953SOD     NA14436   3.526   1.417  13.200 -0.0509 -0.1869  0.6457
  954SOD     NA14437   2.956   1.331  13.030 -0.1990 -0.1786  0.1682
  955SOD     NA14438   4.142   1.002  11.681  0.1773  0.7605 -0.7356
  956SOD     NA14439   1.182   0.004  13.017  0.2884  0.1038  0.2813
  957SOD     NA14440   3.842   4.602  10.929 -0.3598  0.3146 -0.4290
  958SOD     NA14441   2.619   3.920  14.159  0.2916 -0.2484  0.1549
  959SOD     NA14442   0.231   2.070   2.347 -0.2435  0.1015 -0.2625
  960SOD     NA14443   4.723   2.559  11.967 -0.0352  0.5488  0.4755
  961SOD     NA14444   1.380   0.385   2.443  0.0867 -0.0429 -0.2046
  962SOD     NA14445   2.098   1.685  16.491 -0.6653 -0.0207 -0.2681
  963SOD     NA14446   3.331   0.339   1.134  0.2280 -0.0875 -0.1456
  964SOD     NA14447   4.025   1.902   7.315 -0.3341 -0.1875 -0.3221
  965SOD     NA14448   4.429   3.253  10.467  0.0536  0.2194  0.2322
  966SOD     NA14449   2.174   3.144  10.136  0.2015  0.5927 -0.3052
  967SOD     NA14450   3.026   1.609  10.730  0.0955 -0.2574  0.0239
  968SOD     NA14451   0.097   2.834  11.956  0.2572 -0.2085  0.0339
  969SOD     NA14452   1.695   0.145  13.921  0.9900 -0.2793  0.1804
  970SOD     NA14453   3.104   3.336   1.904  0.3078  0.3051 -0.0878
  971SOD     NA14454   3.825   0.862   8.648 -0.1511 -0.0055  0.1011
  972SOD     NA14455   0.495   1.443  14.718 -0.2181  0.0237 -0.1271
  973SOD     NA14456   2.425   0.023  10.772  0.1213 -0.0819 -0.4092
  974SOD     NA14457   3.310   4.119   9.408  0.0254 -0.3032  0.0133
  975SOD     NA14458   0.206   0.622  10.069  0.3209 -0.5426  0.2748
  976SOD     NA14459   4.449   2.428  15.400  0.1678  0.1262 -0.1907
  977SOD     NA14460   1.272   2.356  15.291 -0.4822 -0.1711  0.1998
  978SOD     NA14461   2.224   3.900   9.067 -0.1874  0.2383 -0.2588
  979SOD     NA14462   4.360   0.025   9.222  0.1842  0.2470 -0.5690
  980SOD     NA14463   1.434   2.158  14.425  0.4804 -0.0809  0.2665
  981SOD     NA14464   2.431   0.374  10.802  0.0061  0.4949 -0.0829
  982SOD     NA14465   3.696   4.402  11.152 -0.1172 -0.2732  0.2654
  983SOD     NA14466   3.555   3.801   8.301 -0.1539  0.0070 -0.3176
  984SOD     NA14467   2.520   2.260   0.808 -0.5736  0.1235  0.1781
  985SOD     NA14468   3.821   1.644  11.054 -0.0650 -0.2721  0.1134
  986SOD     NA14469   3.541   1.481   9.844 -0.3174  0.0623 -0.1314
  987SOD     NA14470   4.528   2.434  14.407 -0.1532  0.1145 -0.1921
  988SOD     NA14471   0.626   1.767  14.638  0.7040  0.4089 -0.0986
  989SOD     NA14472   3.139   0.997  15.084 -0.5694  0.0539  0.0645
  990SOD     NA14473   4.384   1.679  11.742 -0.3332  0.1163 -0.2813
  991SOD     NA14474   3.074   1.045   0.517  0.2023  0.0723 -0.6989
  992SOD     NA14475   0.843   0.615  15.180  0.0386 -0.1046 -0.0508
  993SOD     NA14476   4.025   2.339  14.573 -0.0352 -0.0984  0.5020
  994SOD     NA14477   0.908   2.436  13.304  0.3486  0.0494  0.0357
  995SOD     NA14478   1.860   2.825   1.630  0.2918 -0.4173 -0.1396
  996SOD     NA14479   4.562   0.852  11.760  0.3090 -0.4902  0.0024
  997SOD     NA14480   3.413   1.462   2.457  0.4803 -0.1326 -0.1225
  998SOD     NA14481   0.143   0.841  11.796 -0.5737 -0.2646 -0.5257
  999SOD     NA14482   0.346   3.039  12.065  0.0351  0.5582 -0.3182
 1000SOD     NA14483   2.935   1.827  11.038 -0.4846  0.3202  0.1137
 1001SOD     NA14484   3.105   1.653  12.991 -0.5005 -0.1659 -0.3261
 1002SOD     NA14485   1.707   4.094  16.074 -0.2026  0.5439  0.0178
 1003SOD     NA14486   3.345   0.766   9.044 -0.7794  0.5477 -0.2517
 1004SOD     NA14487   4.275   2.537  14.571  0.5382  0.0738 -0.0650
 1005SOD     NA14488   2.234   2.365  16.068  0.2889 -0.2294 -0.1031
 1006SOD     NA14489   3.945   3.997  12.900  0.7988 -0.3083 -0.1804
 1007SOD     NA14490   3.862   3.832   2.306  0.7145 -0.4748  0.1041
 1008SOD     NA14491   1.045   3.903   9.767  0.0772  0.0863 -0.2782
 1009SOD     NA14492   0.814   2.136  10.993  0.2356 -0.1505  0.2172
 1010SOD     NA14493   1.588   0.761   0.941 -0.2368  0.0094  0.1895
 1011SOL     OW14494   0.361   2.934   1.748  0.0034 -0.1034  0.3413
 1011SOL    HW114495   0.431   2.999   1.754 -0.2087 -0.2234  4.0491
 1011SOL    HW214496   0.286   2.988   1.721 -0.4700 -1.6163 -1.3356
 1012SOL     OW14497   1.659   2.571  14.301 -0.2153  0.0334  0.2985
 1012SOL    HW114498   1.669   2.666  14.298  0.4572 -0.0578 -0.0984
 1012SOL    HW214499   1.694   2.556  14.389 -0.0627 -1.6261 -0.0592
 1013SOL     OW14500   0.100   3.642   4.115  0.1953  0.1147  0.0201
 1013SOL    HW114501   0.108   3.731   4.080 -0.0184  0.2183  0.2393
 1013SOL    HW214502   0.164   3.652   4.185 -1.1355 -1.9982  1.5202
 1014SOL     OW14503   0.365   2.461  16.540  0.0299 -0.3036  0.2873
 1014SOL    HW114504   0.418   2.470  16.461 -0.6831 -0.5445 -0.2195
 1014SOL    HW214505   0.354   2.550  16.575  1.2689  0.4300 -1.1912
 1015SOL     OW14506   2.471   1.576   6.074  0.3801  0.0730 -0.0858
 1015SOL    HW114507   2.506   1.487   6.065 -1.6146 -0.9301  1.8145
 1015SOL    HW214508   2.383   1.564   6.112 -0.5980  3.5047 -1.3174
 1016SOL     OW14509   0.366   2.304   7.567  0.0460 -0.5484  0.3474
 1016SOL    HW114510   0.456   2.276   7.553  0.3213  1.4217 -2.0122
 1016SOL    HW214511   0.363   2.299   7.662  1.4567 -0.9567  0.3604
 1017SOL     OW14512   3.531   2.211   6.372  0.2761 -0.0757 -0.4281
 1017SOL    HW114513   3.503   2.297   6.406  1.0110  0.1952 -0.5185
 1017SOL    HW214514   3.528   2.221   6.276  0.0308  0.2418 -0.3901
 1018SOL     OW14515   0.806   2.850   5.081 -0.6048 -0.2956  0.1666
 1018SOL    HW114516   0.711   2.862   5.081 -0.7084 -1.1609  0.1126
 1018SOL    HW214517   0.818   2.914   5.151  0.3093 -0.1007 -0.1694
 1019SOL     OW14518   1.387   3.402   8.076  0.6871  0.2821 -0.3186
 1019SOL    HW114519   1.369   3.441   8.162  0.6613 -1.3196  0.4095
 1019SOL    HW214520   1.448   3.474   8.059  3.4072 -1.7810  0.5258
 1020SOL     OW14521   3.470   0.816   4.849  0.0125 -0.5625 -0.4777
 1020SOL    HW114522   3.516   0.733   4.846 -0.6845 -0.8870 -2.0370
 1020SOL    HW214523   3.532   0.889   4.841 -4.5434  3.4417  0.4211
 1021SOL     OW14524   3.090   4.570  13.063  0.0797 -0.0002  0.2036
 1021SOL    HW114525   3.077   4.563  12.969 -1.2762  0.8956  0.3342
 1021SOL    HW214526   3.001   4.604  13.075  0.2460  0.4041  0.2762
 1022SOL     OW14527   1.230   3.691   6.419 -0.0782 -1.1504  0.0215
 1022SOL    HW114528   1.325   3.696   6.406 -0.6557  1.1219 -3.4785
 1022SOL    HW214529   1.228   3.617   6.480  0.5297 -1.9933 -0.9788
 1023SOL     OW14530   4.245   1.540   1.717 -0.8161  0.3772  0.0666
 1023SOL    HW114531   4.199   1.560   1.635  0.3012 -0.7178 -0.8336
 1023SOL    HW214532   4.236   1.624   1.763  1.5664 -0.5052  2.1134
 1024SOL     OW14533   0.490   0.327   4.970  0.1804  0.0879  0.3002
 1024SOL    HW114534   0.539   0.364   4.897 -1.2057  3.5955  1.1492
 1024SOL    HW214535   0.537   0.350   5.051  0.9020  0.5122 -0.2372
 1025SOL     OW14536   1.554   2.151   3.945 -0.9686  0.2849  0.1103
 1025SOL    HW114537   1.469   2.109   3.954  0.5229 -2.6895  0.1205
 1025SOL    HW214538   1.600   2.104   4.014  0.8034 -2.0393 -2.6624
 1026SOL     OW14539   2.375   1.979   6.130  0.1190  0.1629  0.3749
 1026SOL    HW114540   2.329   1.897   6.116 -1.1686  0.4765  2.7595
 1026SOL    HW214541   2.303   2.040   6.112  0.8699  1.0239  0.2386
 1027SOL     OW14542   3.410   2.323   8.756  0.0969 -0.3853 -0.5947
 1027SOL    HW114543   3.349   2.263   8.800  0.8503 -0.2571  0.6409
 1027SOL    HW214544   3.407   2.277   8.673 -1.5087  0.8642 -1.2326
 1028SOL     OW14545   0.616   4.457  11.309  0.4770 -0.0019 -0.0091
 1028SOL    HW114546   0.704   4.423  11.297 -0.9380 -3.7224  0.3633
 1028SOL    HW214547   0.570   4.374  11.298  1.6342 -0.7586  0.8974
 1029SOL     OW14548   4.163   4.225   1.426 -0.3523 -0.2816  0.5440
 1029SOL    HW114549   4.137   4.133   1.437  2.5829 -0.9936  1.5529
 1029SOL    HW214550   4.258   4.215   1.433 -0.1712  0.4728 -0.9740
 1030SOL     OW14551   0.762   0.931  12.383  0.6385  0.4764  0.1104
 1030SOL    HW114552   0.680   0.918  12.335  1.2505  0.3032 -0.9066
 1030SOL    HW214553   0.805   0.845  12.378  1.8191  1.1298 -1.0572
 1031SOL     OW14554   3.823   3.844   8.704 -0.1137 -0.1675 -0.3049
 1031SOL    HW114555   3.778   3.775   8.752  1.5525  0.3545  2.0609
 1031SOL    HW214556   3.822   3.807   8.616 -0.3111  0.8796 -0.7360
 1032SOL     OW14557   3.091   4.440   8.885 -0.3300  0.4859 -0.2343
 1032SOL    HW114558   3.068   4.469   8.973 -1.8953 -0.6833 -0.2575
 1032SOL    HW214559   3.063   4.512   8.829  0.2505 -0.2219 -1.4424
 1033SOL     OW14560   3.094   4.522   3.424  0.8768  0.6425  0.2498
 1033SOL    HW114561   3.057   4.457   3.485  2.3241 -0.3310  0.0851
 1033SOL    HW214562   3.033   4.533   3.351  0.5168 -0.5008  0.3701
 1034SOL     OW14563   0.981   0.054   7.721 -0.1483 -0.5527 -0.0661
 1034SOL    HW114564   1.032   0.135   7.716 -1.6484  0.3445 -0.9659
 1034SOL    HW214565   0.986   0.038   7.815  0.1586 -0.9576 -0.1511
 1035SOL     OW14566   1.136   1.964   7.308  0.1403 -0.4737  0.0930
 1035SOL    HW114567   1.220   1.961   7.261 -0.4334  1.9727 -1.0829
 1035SOL    HW214568   1.170   1.981   7.396  0.4054  0.5411 -0.2081
 1036SOL     OW14569   0.808   3.935  17.213 -0.0780 -0.2920 -0.0522
 1036SOL    HW114570   0.869   3.869  17.248  0.4583  1.0096  1.4879
 1036SOL    HW214571   0.867   3.985  17.157  1.7812 -4.3951 -1.7914
 1037SOL     OW14572   0.917   1.127   9.166  0.1123  0.6052  0.1897
 1037SOL    HW114573   0.863   1.064   9.119 -1.1175  1.5934  0.2887
 1037SOL    HW214574   0.945   1.080   9.244 -0.6645 -0.1504  0.0008
 1038SOL     OW14575   1.032   0.926   3.835  0.3143  0.1988  0.2667
 1038SOL    HW114576   1.009   1.018   3.847 -0.5739 -0.0072  0.1099
 1038SOL    HW214577   1.127   0.919   3.842  0.1149 -0.0822  2.6876
 1039SOL     OW14578   0.062   1.244   4.218  0.2398  0.2467 -0.5541
 1039SOL    HW114579   0.010   1.302   4.163  0.6503 -1.0004 -2.2389
 1039SOL    HW214580   0.131   1.304   4.248 -1.0102  1.4273 -0.0478
 1040SOL     OW14581   3.427   4.546   8.146 -0.0025 -0.2987 -0.6709
 1040SOL    HW114582   3.511   4.507   8.121  0.2017  0.1959 -0.7505
 1040SOL    HW214583   3.445   4.555   8.240  2.1332  1.5078 -1.2481
 1041SOL     OW14584   1.705   4.577   6.179 -0.1797  0.3534  0.4322
 1041SOL    HW114585   1.658   4.504   6.139  0.3010  0.2857 -0.0247
 1041SOL    HW214586   1.635   4.641   6.192 -0.5399  0.8428 -3.7428
 1042SOL     OW14587   4.289   3.440   6.325  0.5228 -0.3472  0.2583
 1042SOL    HW114588   4.346   3.478   6.258  2.4656 -0.5525  1.8190
 1042SOL    HW214589   4.218   3.415   6.264 -0.0948 -2.6595  1.9120
 1043SOL     OW14590   0.278   3.813   3.017  0.6780  0.3525 -0.3157
 1043SOL    HW114591   0.198   3.865   3.006  0.2926 -0.4658 -1.4536
 1043SOL    HW214592   0.283   3.815   3.112 -0.1272 -2.0816 -0.2109
 1044SOL     OW14593   2.498   3.910   6.872 -0.4705 -0.2250  0.2574
 1044SOL    HW114594   2.462   3.822   6.879 -1.1309 -0.3026 -4.1135
 1044SOL    HW214595   2.586   3.902   6.909  0.4627  2.2448 -1.3711
 1045SOL     OW14596   0.531   3.132   3.083  0.2106 -0.5673 -0.0995
 1045SOL    HW114597   0.453   3.187   3.072  0.4283 -0.0612  0.9646
 1045SOL    HW214598   0.574   3.152   3.000 -1.2781 -1.5213 -1.1119
 1046SOL     OW14599   4.030   0.077   8.843 -0.0858 -0.4401 -0.4928
 1046SOL    HW114600   4.122   0.055   8.828 -0.1207 -1.7576  1.2308
 1046SOL    HW214601   3.989   0.054   8.760 -3.3193  1.3870  0.5919
 1047SOL     OW14602   2.514   4.649   6.766  0.1648  0.8659 -0.2065
 1047SOL    HW114603   2.427   4.642   6.728  0.9541 -1.1914 -1.5989
 1047SOL    HW214604   2.543   4.560   6.748  0.9942  1.3863 -1.4000
 1048SOL     OW14605   3.516   0.935   1.926 -0.1533  0.1052  0.2305
 1048SOL    HW114606   3.476   1.016   1.894  0.7131  1.2334  1.9877
 1048SOL    HW214607   3.446   0.902   1.981  0.8680 -0.1447  1.3846
 1049SOL     OW14608   1.026   4.465   4.873  0.2760  0.4178 -0.1162
 1049SOL    HW114609   1.027   4.560   4.886 -1.8510  0.4714 -0.3184
 1049SOL    HW214610   0.935   4.453   4.845 -0.1935  1.2627  1.0669
 1050SOL     OW14611   4.590   2.830   4.403  0.2027 -0.2816 -0.1920
 1050SOL    HW114612   4.616   2.806   4.492  2.8774  3.0733 -0.0395
 1050SOL    HW214613   4.597   2.748   4.355 -0.7691 -0.1591 -0.5396
 1051SOL     OW14614   2.771   1.070  15.819 -0.0358  0.2378  0.2340
 1051SOL    HW114615   2.847   1.062  15.761  0.5504  4.1930  0.4686
 1051SOL    HW214616   2.738   1.155  15.789  1.9680  1.1268  0.5092
 1052SOL     OW14617   4.494   3.959   6.906  0.9858  0.5763  0.0437
 1052SOL    HW114618   4.463   3.923   6.989  1.9644 -1.2183 -0.3745
 1052SOL    HW214619   4.588   3.953   6.925  0.9870  2.5937  0.6800
 1053SOL     OW14620   2.960   3.056   6.374 -0.0001  0.1228  0.3249
 1053SOL    HW114621   2.919   3.021   6.295  0.9522  1.1978 -0.6414
 1053SOL    HW214622   3.028   3.114   6.340  0.7952  0.7772  2.9769
 1054SOL     OW14623   2.354   0.192   4.851  0.0295  0.0179  0.3246
 1054SOL    HW114624   2.388   0.102   4.847 -3.2691 -1.2030 -0.9811
 1054SOL    HW214625   2.414   0.226   4.786 -0.8651 -1.2717 -1.1687
 1055SOL     OW14626   3.087   4.276   6.739 -0.6296 -0.7117  0.1372
 1055SOL    HW114627   3.031   4.349   6.762  1.6649  0.5225  1.8056
 1055SOL    HW214628   3.042   4.234   6.665  0.1033 -3.4797  1.2426
 1056SOL     OW14629   3.346   0.890   8.581 -0.2219  0.8017  0.0274
 1056SOL    HW114630   3.327   0.968   8.632  2.4099  2.0700 -0.9424
 1056SOL    HW214631   3.297   0.915   8.503  0.0097 -0.5097 -0.5438
 1057SOL     OW14632   0.838   2.370  17.459 -0.4083 -0.3041 -0.8660
 1057SOL    HW114633   0.745   2.391  17.468  0.2537  2.0887  0.4066
 1057SOL    HW214634   0.834   2.311  17.384 -0.3392  1.2346 -2.0803
 1058SOL     OW14635   2.217   1.513   2.461 -0.3696  0.4394  0.1458
 1058SOL    HW114636   2.264   1.482   2.384  1.2092  2.8061  0.1529
 1058SOL    HW214637   2.205   1.432   2.511 -1.2471 -0.3247 -1.3014
 1059SOL     OW14638   2.135   1.183  16.275  0.8656 -0.1731  0.3924
 1059SOL    HW114639   2.108   1.273  16.255 -0.0377 -0.2939  1.0465
 1059SOL    HW214640   2.208   1.171  16.216 -0.1044 -0.0290 -0.8328
 1060SOL     OW14641   0.350   3.353  15.693 -0.5428  0.0822  0.0212
 1060SOL    HW114642   0.300   3.367  15.773 -2.5027  1.6964 -1.5199
 1060SOL    HW214643   0.296   3.289  15.646 -0.9676  0.7585 -0.4076
 1061SOL     OW14644   2.498   0.409  12.669 -0.0198 -0.4671  0.2170
 1061SOL    HW114645   2.528   0.389  12.580  0.0349  1.7795 -0.2624
 1061SOL    HW214646   2.403   0.420  12.656 -0.3771 -2.6382  0.9534
 1062SOL     OW14647   4.401   4.233   2.098  0.1000 -0.2102 -0.6709
 1062SOL    HW114648   4.469   4.166   2.094  0.3559 -0.0040  0.3279
 1062SOL    HW214649   4.329   4.172   2.115  0.5611 -0.5439  0.0816
 1063SOL     OW14650   2.301   1.050   2.881 -0.7389 -0.0373  1.1060
 1063SOL    HW114651   2.219   1.081   2.843 -0.4101 -2.3514 -1.4938
 1063SOL    HW214652   2.343   0.995   2.815 -1.4693  0.1529  0.4775
 1064SOL     OW14653   0.465   3.818   2.561 -0.5479 -0.3989  0.4048
 1064SOL    HW114654   0.471   3.893   2.502  2.5719  0.3404  1.6236
 1064SOL    HW214655   0.428   3.855   2.642  1.0500 -0.2697  1.0687
 1065SOL     OW14656   3.199   3.060   8.246 -0.7649 -0.0181  0.1366
 1065SOL    HW114657   3.181   2.994   8.312  2.2950 -0.1161  0.8651
 1065SOL    HW214658   3.173   3.138   8.294 -0.4795 -0.7965  1.5423
 1066SOL     OW14659   3.495   2.083  11.625 -0.3068  0.2783  0.3738
 1066SOL    HW114660   3.509   2.087  11.719  1.5616  1.8095  0.0308
 1066SOL    HW214661   3.514   2.173  11.601  1.4996 -1.0296 -3.2356
 1067SOL     OW14662   3.895   2.588   7.879 -0.5413 -0.0908  0.0953
 1067SOL    HW114663   3.987   2.564   7.895 -0.3451  0.4469 -0.2178
 1067SOL    HW214664   3.852   2.522   7.933  3.2558 -2.0852  0.7224
 1068SOL     OW14665   3.278   1.747   3.915  0.2746 -0.3572 -0.0933
 1068SOL    HW114666   3.293   1.767   4.007 -1.2522  0.2277  0.0319
 1068SOL    HW214667   3.232   1.664   3.913 -0.3034 -0.0636  1.2286
 1069SOL     OW14668   2.015   0.979   0.387  0.0869 -0.0495  0.6264
 1069SOL    HW114669   1.928   0.946   0.364 -0.4714  1.9743 -0.1813
 1069SOL    HW214670   1.998   1.059   0.437 -2.9419 -1.8615  2.4484
 1070SOL     OW14671   2.541   1.705  11.021 -0.0671  0.3553  0.1392
 1070SOL    HW114672   2.587   1.734  11.099  1.0480  2.4161 -1.2680
 1070SOL    HW214673   2.606   1.643  10.989 -0.6086 -1.5737  2.8277
 1071SOL     OW14674   1.968   3.741   3.542 -0.0362  0.0039 -0.3770
 1071SOL    HW114675   1.894   3.748   3.482 -1.3351  1.1529  1.3747
 1071SOL    HW214676   2.036   3.719   3.479 -1.2935 -0.2794 -1.6280
 1072SOL     OW14677   4.721   0.275  17.595  0.6413  0.3562  0.3479
 1072SOL    HW114678   0.011   0.270  17.501  0.1146  3.0852  0.1266
 1072SOL    HW214679   0.087   0.253  17.620  1.0522  1.3447 -0.2421
 1073SOL     OW14680   2.878   0.689   6.028 -0.0027  0.1945 -0.7106
 1073SOL    HW114681   2.952   0.680   6.089 -0.2606 -1.9558 -0.6935
 1073SOL    HW214682   2.921   0.657   5.949 -1.2703  0.4933 -1.5079
 1074SOL     OW14683   1.041   3.449  12.499 -0.1168  0.4795  0.0523
 1074SOL    HW114684   1.120   3.396  12.508 -1.0935 -0.1123  5.1092
 1074SOL    HW214685   1.001   3.427  12.415 -0.3442  0.7616  0.0861
 1075SOL     OW14686   2.668   2.949   2.942  0.0716 -0.5537  0.0487
 1075SOL    HW114687   2.622   2.969   3.023  1.4856  1.3346  0.3935
 1075SOL    HW214688   2.627   3.019   2.890 -1.9375 -1.8183 -0.0814
 1076SOL     OW14689   2.854   0.791   1.759 -0.2548 -0.4632 -0.5101
 1076SOL    HW114690   2.771   0.815   1.800  0.4438  0.7264  0.1992
 1076SOL    HW214691   2.841   0.699   1.734  1.2990 -0.9092  0.3647
 1077SOL     OW14692   4.610   0.670   3.178  0.0590 -0.2585  0.1670
 1077SOL    HW114693   4.541   0.610   3.207 -0.5745 -0.8250 -2.4735
 1077SOL    HW214694   4.551   0.745   3.184 -0.0593 -0.5703  2.9393
 1078SOL     OW14695   2.462   3.351  10.472  0.1313 -0.5746  0.4546
 1078SOL    HW114696   2.455   3.257  10.457  2.2013 -0.1868 -2.8596
 1078SOL    HW214697   2.477   3.386  10.385 -3.5470 -1.4090 -0.5097
 1079SOL     OW14698   2.144   1.743   5.837 -0.0013 -0.0197 -0.7256
 1079SOL    HW114699   2.149   1.751   5.932  3.9613 -1.6368 -0.7913
 1079SOL    HW214700   2.229   1.781   5.817 -1.2384  2.7329 -0.7103
 1080SOL     OW14701   1.765   1.888  17.193  0.8317 -0.0934  0.0672
 1080SOL    HW114702   1.798   1.973  17.163 -3.3145  1.6395  0.3021
 1080SOL    HW214703   1.815   1.873  17.273 -2.1149  0.1993  1.9725
 1081SOL     OW14704   1.174   1.646   7.149 -0.1633  0.0023  0.5189
 1081SOL    HW114705   1.102   1.620   7.092 -1.4842  2.9368  0.8632
 1081SOL    HW214706   1.239   1.689   7.094 -1.2916  1.3050  0.2219
 1082SOL     OW14707   1.571   0.242   7.827  0.2851 -0.4376  0.2670
 1082SOL    HW114708   1.611   0.235   7.913  0.6478 -0.3435  0.1071
 1082SOL    HW214709   1.656   0.252   7.785 -0.3590 -0.5874 -1.0879
 1083SOL     OW14710   0.868   0.911  10.018  0.6260 -0.1443 -0.1788
 1083SOL    HW114711   0.789   0.894  10.068  0.5473  0.3364 -0.1405
 1083SOL    HW214712   0.894   0.985  10.073 -1.7440  1.2754 -0.9731
 1084SOL     OW14713   3.902   3.548   8.419  0.4456  0.6272  0.5508
 1084SOL    HW114714   3.905   3.522   8.511 -0.4927  1.6691  0.8856
 1084SOL    HW214715   3.945   3.473   8.378 -1.4620  0.6335 -1.4296
 1085SOL     OW14716   2.871   4.207   1.831  0.0249 -0.1020  0.4832
 1085SOL    HW114717   2.841   4.122   1.862 -2.7805  0.9230  0.5809
 1085SOL    HW214718   2.963   4.205   1.858  0.1916  1.0648  0.0055
 1086SOL     OW14719   2.095   2.852   4.677  0.0274  0.4741  0.5232
 1086SOL    HW114720   2.002   2.835   4.691 -0.4779  1.1070 -2.0467
 1086SOL    HW214721   2.127   2.789   4.612 -0.9857  0.5756 -0.0720
 1087SOL     OW14722   1.095   1.657   6.476 -0.3841 -0.0295 -0.0160
 1087SOL    HW114723   1.006   1.676   6.505 -1.2664 -1.5191 -1.7181
 1087SOL    HW214724   1.102   1.564   6.499  1.0341  0.1056  0.1112
 1088SOL     OW14725   3.011   1.955   4.491  0.3252 -0.4229 -0.2698
 1088SOL    HW114726   2.932   1.926   4.444 -1.6645  1.4304  1.9452
 1088SOL    HW214727   2.992   1.929   4.582  1.7980 -1.1713 -0.1762
 1089SOL     OW14728   1.858   3.534   7.907  0.2891  0.0799  0.0686
 1089SOL    HW114729   1.912   3.601   7.866 -0.8442  2.2365  2.0989
 1089SOL    HW214730   1.871   3.462   7.845 -3.3857 -0.2999 -0.2558
 1090SOL     OW14731   3.651   3.539  16.224 -0.0484 -0.3207  0.0189
 1090SOL    HW114732   3.733   3.530  16.272  0.6087  0.8274 -0.8596
 1090SOL    HW214733   3.687   3.510  16.140 -0.6556  1.9257 -1.0378
 1091SOL     OW14734   0.856   0.891   0.797 -0.2187  0.1274 -0.3847
 1091SOL    HW114735   0.867   0.828   0.867 -0.0731  0.4251 -0.1379
 1091SOL    HW214736   0.920   0.857   0.735  0.3271 -0.3993  0.4664
 1092SOL     OW14737   3.816   0.647   8.778  0.4092 -0.2958 -0.2788
 1092SOL    HW114738   3.736   0.595   8.775 -0.0421  0.4353 -0.9220
 1092SOL    HW214739   3.826   0.667   8.871 -1.7988  0.0182 -0.1066
 1093SOL     OW14740   1.782   3.632  17.130 -0.4491 -0.7166  0.1828
 1093SOL    HW114741   1.869   3.672  17.130 -0.3394 -0.9544 -0.2143
 1093SOL    HW214742   1.784   3.547  17.175  3.6482 -0.3812  0.6829
 1094SOL     OW14743   0.954   3.278   4.568  0.2792  0.2554  0.2842
 1094SOL    HW114744   0.908   3.293   4.651 -0.0772 -0.3309  0.1935
 1094SOL    HW214745   0.888   3.297   4.500  1.3340  1.2590 -0.4590
 1095SOL     OW14746   2.069   1.967   4.355 -0.2546  0.4847  0.6041
 1095SOL    HW114747   2.079   2.059   4.331  0.4498  0.0613 -0.7194
 1095SOL    HW214748   2.061   1.930   4.267 -0.6855 -1.7395  1.5728
 1096SOL     OW14749   0.950   1.760   7.257  0.1304 -0.2866 -0.1689
 1096SOL    HW114750   0.948   1.855   7.246 -3.2230 -0.2582  0.5045
 1096SOL    HW214751   1.041   1.748   7.232  0.3463 -2.1976  1.5042
 1097SOL     OW14752   3.899   0.574   0.878  0.3191 -0.2568 -0.3276
 1097SOL    HW114753   3.978   0.567   0.931 -0.5474 -0.3669  0.9437
 1097SOL    HW214754   3.828   0.560   0.941 -1.0223  1.0479 -1.5621
 1098SOL     OW14755   4.673   0.752   8.887 -0.0446  0.2660 -0.5216
 1098SOL    HW114756   4.707   0.841   8.897  0.8692 -0.1041 -0.3074
 1098SOL    HW214757   4.698   0.730   8.977  0.2808  0.1644 -0.6392
 1099SOL     OW14758   1.765   0.884   0.325  0.0488 -0.8973 -0.2885
 1099SOL    HW114759   1.743   0.814   0.386  0.6052 -1.7883 -1.1057
 1099SOL    HW214760   1.780   0.844   0.239 -1.3883  0.6205 -1.2540
 1100SOL     OW14761   3.409   2.879   2.050  0.0010  0.0157  0.0168
 1100SOL    HW114762   3.375   2.827   1.978 -0.3474 -0.8820  0.8300
 1100SOL    HW214763   3.493   2.894   2.007 -0.6160  0.2614 -1.0821
 1101SOL     OW14764   2.642   0.290   8.867 -0.9025  0.7178 -0.5293
 1101SOL    HW114765   2.575   0.229   8.835  1.1817 -0.1551 -3.1923
 1101SOL    HW214766   2.618   0.376   8.832  0.4050  1.9623  1.6089
 1102SOL     OW14767   3.851   1.194   9.609 -0.7907 -0.1060  0.6482
 1102SOL    HW114768   3.845   1.277   9.563  4.3255 -0.3028 -0.3322
 1102SOL    HW214769   3.927   1.162   9.561 -0.5149 -0.6873  1.4592
 1103SOL     OW14770   1.240   1.873  14.391 -0.1496  0.0002 -0.1695
 1103SOL    HW114771   1.323   1.895  14.434 -0.1599  1.0373 -0.6840
 1103SOL    HW214772   1.185   1.840  14.463  1.1836  1.7758  1.6641
 1104SOL     OW14773   0.718   3.505   5.623  0.0818  0.2453 -0.4761
 1104SOL    HW114774   0.706   3.532   5.715  0.5727  0.0351 -0.3489
 1104SOL    HW214775   0.693   3.581   5.571  0.1885 -0.1961 -1.1625
 1105SOL     OW14776   1.413   0.169   4.670 -0.0998 -0.0766 -0.8435
 1105SOL    HW114777   1.433   0.079   4.694  0.1539  0.5738  1.4059
 1105SOL    HW214778   1.322   0.159   4.644 -0.0315  1.9095 -1.8863
 1106SOL     OW14779   4.278   0.150   8.531 -0.6208  0.5015  0.0786
 1106SOL    HW114780   4.223   0.100   8.470  1.7571  0.1540 -1.7785
 1106SOL    HW214781   4.362   0.135   8.488 -1.0185 -0.1461 -0.4716
 1107SOL     OW14782   2.963   1.763   3.420 -0.3196 -0.2211  0.3490
 1107SOL    HW114783   2.974   1.696   3.353  2.1420 -0.4935  1.0346
 1107SOL    HW214784   2.868   1.763   3.410 -0.3198 -0.7773  0.3441
 1108SOL     OW14785   3.839   1.794   3.079 -0.3452 -0.1867 -0.3591
 1108SOL    HW114786   3.928   1.813   3.048 -0.4289  0.0176 -0.4759
 1108SOL    HW214787   3.806   1.883   3.077 -2.0220 -0.8382 -1.5672
 1109SOL     OW14788   4.624   0.329  10.396  0.2427 -0.3817 -0.3932
 1109SOL    HW114789   4.694   0.368  10.345  0.3214  0.8976  0.6933
 1109SOL    HW214790   4.603   0.390  10.467 -2.6394 -0.9761 -0.7304
 1110SOL     OW14791   2.189   2.757   2.809  0.3997 -0.7659  0.0164
 1110SOL    HW114792   2.180   2.709   2.891 -0.1622 -3.3988 -1.5549
 1110SOL    HW214793   2.242   2.825   2.850  0.5822 -0.5661 -0.5571
 1111SOL     OW14794   1.806   2.584   1.507 -0.1015  0.2090  0.3259
 1111SOL    HW114795   1.796   2.632   1.425 -0.9170 -1.6700 -0.6681
 1111SOL    HW214796   1.745   2.512   1.489  0.3466 -0.6664  2.3281
 1112SOL     OW14797   0.923   1.058  12.171 -0.2159  0.1119 -0.0981
 1112SOL    HW114798   1.005   1.040  12.219 -0.7270  2.2585  1.6033
 1112SOL    HW214799   0.857   1.031  12.235 -0.1905 -0.6861 -0.4052
 1113SOL     OW14800   4.432   1.183   9.356  0.3036  0.2558 -0.0601
 1113SOL    HW114801   4.515   1.172   9.403 -0.1613  0.0861  0.7307
 1113SOL    HW214802   4.461   1.154   9.270 -3.9272  0.2372 -1.4615
 1114SOL     OW14803   0.754   1.670   0.108  0.3200  0.1197  0.0534
 1114SOL    HW114804   0.777   1.715   0.189  1.0257  1.3085 -0.8081
 1114SOL    HW214805   0.674   1.720   0.088  0.2220 -0.2506 -0.4822
 1115SOL     OW14806   0.443   3.587   4.505  0.6138  0.4332 -0.1647
 1115SOL    HW114807   0.537   3.604   4.506  0.7182 -0.1503  0.0939
 1115SOL    HW214808   0.425   3.586   4.600  0.6859  0.5678 -0.1499
 1116SOL     OW14809   3.484   4.249   5.702 -0.2372 -0.1397  0.5740
 1116SOL    HW114810   3.392   4.230   5.686 -0.0960 -0.9736  0.7447
 1116SOL    HW214811   3.520   4.163   5.682  1.2588  0.8263 -0.9315
 1117SOL     OW14812   3.455   1.982   8.828 -0.0061 -0.1174 -0.3790
 1117SOL    HW114813   3.490   1.904   8.870  1.8946  0.3715 -1.0650
 1117SOL    HW214814   3.499   2.052   8.876  1.0630  0.1647 -1.7586
 1118SOL     OW14815   3.341   4.215  16.299 -0.1530  0.5023  0.4459
 1118SOL    HW114816   3.310   4.298  16.262 -0.0028 -0.0375 -0.8922
 1118SOL    HW214817   3.341   4.159  16.221 -0.5780  1.1241 -0.0081
 1119SOL     OW14818   4.002   1.829   2.835 -0.4684  0.2292 -0.0736
 1119SOL    HW114819   4.054   1.893   2.788 -1.4506 -1.6168 -3.6772
 1119SOL    HW214820   3.996   1.765   2.764 -4.0443 -0.3536  0.7616
 1120SOL     OW14821   0.669   0.180  14.063 -0.3585 -0.3951 -0.1913
 1120SOL    HW114822   0.583   0.220  14.056  0.3712  0.9174 -1.5434
 1120SOL    HW214823   0.674   0.175  14.159  3.0120  1.6891 -0.2710
 1121SOL     OW14824   2.575   2.876  10.348  0.1060 -0.1326  0.1507
 1121SOL    HW114825   2.524   2.850  10.270 -0.6071 -1.8160  1.1596
 1121SOL    HW214826   2.577   2.785  10.380 -1.6424  0.1883  1.1875
 1122SOL     OW14827   3.262   0.117   0.696 -0.3783  0.3522  0.9596
 1122SOL    HW114828   3.303   0.091   0.614  0.3712  0.4010  1.3156
 1122SOL    HW214829   3.347   0.120   0.740 -1.3636  1.4550  2.8112
 1123SOL     OW14830   4.118   2.667   4.249 -0.2585  0.5898 -0.1562
 1123SOL    HW114831   4.103   2.693   4.158  0.2380  0.3180 -0.3137
 1123SOL    HW214832   4.035   2.630   4.280  0.2006  0.1253  0.5236
 1124SOL     OW14833   0.508   1.748   9.994  0.1390  0.4222 -0.0496
 1124SOL    HW114834   0.596   1.745   9.957 -0.6519  0.0747 -1.9383
 1124SOL    HW214835   0.518   1.653  10.004  0.7659  0.4870 -0.1070
 1125SOL     OW14836   2.358   3.938  12.840 -0.5898 -0.3326 -0.1854
 1125SOL    HW114837   2.307   4.010  12.878 -1.8807 -0.4338 -1.6945
 1125SOL    HW214838   2.435   3.938  12.897 -0.0141 -1.1831 -0.9768
 1126SOL     OW14839   3.376   4.631   5.250 -0.0171  0.1931  0.4467
 1126SOL    HW114840   3.406   4.622   5.160  0.3141  1.7414  0.3982
 1126SOL    HW214841   3.428   4.564   5.296 -0.4964  0.5493  1.5144
 1127SOL     OW14842   3.140   2.022   3.439 -0.2675 -0.2933 -0.0443
 1127SOL    HW114843   3.140   2.005   3.345 -1.8164 -3.5849  0.5495
 1127SOL    HW214844   3.085   1.950   3.473  0.4770 -0.6304  0.4597
 1128SOL     OW14845   2.365   1.067  13.027  0.3349 -0.4338  0.4033
 1128SOL    HW114846   2.434   1.031  13.083  2.0593  0.0123 -1.4321
 1128SOL    HW214847   2.412   1.139  12.983 -0.8596 -1.8896 -3.2725
 1129SOL     OW14848   0.596   2.299   3.617 -0.8786 -0.0226  0.1076
 1129SOL    HW114849   0.579   2.213   3.657  1.3666 -1.4266 -1.9607
 1129SOL    HW214850   0.576   2.358   3.689 -0.5753 -1.2720  1.2077
 1130SOL     OW14851   3.125   0.826   5.661 -0.5929 -1.1127  0.5030
 1130SOL    HW114852   3.031   0.819   5.651 -0.4593  0.4168 -1.8598
 1130SOL    HW214853   3.135   0.920   5.651 -0.5124 -1.4052 -2.1281
 1131SOL     OW14854   2.042   3.623   3.079 -0.3102  0.4636 -0.2279
 1131SOL    HW114855   2.014   3.665   2.997 -0.9812  0.9853  0.2584
 1131SOL    HW214856   2.101   3.693   3.108  2.8771 -2.3048 -0.1285
 1132SOL     OW14857   2.280   1.051   6.386  0.1120 -0.2944 -0.1589
 1132SOL    HW114858   2.364   1.010   6.367 -0.6009 -1.8175 -0.0581
 1132SOL    HW214859   2.262   1.015   6.473  1.1381 -2.2863 -0.7628
 1133SOL     OW14860   3.727   4.583   2.195 -0.2642  0.1219 -0.1119
 1133SOL    HW114861   3.728   4.665   2.245  2.2987 -0.3270  0.6045
 1133SOL    HW214862   3.693   4.607   2.109  1.0555 -0.7127 -0.8682
 1134SOL     OW14863   0.593   0.348   2.019  0.1388 -0.2790  0.1139
 1134SOL    HW114864   0.637   0.285   1.961  1.4810 -0.5603  1.4363
 1134SOL    HW214865   0.586   0.424   1.961 -0.4921  0.8981  1.7496
 1135SOL     OW14866   3.851   4.517   2.710  0.2988  0.0523  0.0983
 1135SOL    HW114867   3.921   4.458   2.682  2.0109  1.2760  1.7685
 1135SOL    HW214868   3.809   4.536   2.626 -1.2945 -2.5728  0.2989
 1136SOL     OW14869   0.375   3.702  12.509 -0.6023  0.2006 -0.4738
 1136SOL    HW114870   0.321   3.763  12.457 -0.8068  0.9036  0.5755
 1136SOL    HW214871   0.387   3.759  12.585 -0.4175 -0.0123 -0.3462
 1137SOL     OW14872   3.493   0.651  11.336  0.3167 -0.2218 -0.1364
 1137SOL    HW114873   3.493   0.746  11.321 -1.4361  0.0638  1.7574
 1137SOL    HW214874   3.570   0.633  11.390 -1.1398 -0.1261  1.9405
 1138SOL     OW14875   1.262   4.386   3.212  0.2350 -0.3383  0.1175
 1138SOL    HW114876   1.331   4.440   3.174 -1.4557  2.5664  1.1634
 1138SOL    HW214877   1.304   4.302   3.233 -2.6327 -1.5087  1.1341
 1139SOL     OW14878   0.679   4.677  17.062  0.0649 -0.2015 -0.0953
 1139SOL    HW114879   0.617   4.623  17.112 -1.2904  1.1458 -0.3012
 1139SOL    HW214880   0.725   4.615  17.004 -0.0324  1.1773 -1.6552
 1140SOL     OW14881   2.759   0.393   6.341  0.1166  0.1383 -0.3788
 1140SOL    HW114882   2.722   0.481   6.340 -0.6885 -0.1790  1.1926
 1140SOL    HW214883   2.842   0.413   6.298 -0.9008  2.2794 -1.3138
 1141SOL     OW14884   2.199   2.899  12.510  0.0525 -0.1727  0.0737
 1141SOL    HW114885   2.243   2.888  12.594  1.1178  1.7124 -0.2456
 1141SOL    HW214886   2.259   2.859  12.447  1.1844 -0.2372  1.2092
 1142SOL     OW14887   0.329   2.966   3.523 -0.1080 -0.4540 -0.3035
 1142SOL    HW114888   0.408   2.917   3.549  0.6302  1.5121  1.1545
 1142SOL    HW214889   0.295   2.901   3.461  0.9710 -0.5196 -0.8338
 1143SOL     OW14890   0.945   0.072  13.638  0.4548  0.2271 -0.5766
 1143SOL    HW114891   0.942   4.701  13.627 -0.1486 -0.1666  2.9890
 1143SOL    HW214892   0.853   0.093  13.656  0.6335  1.3667 -1.0271
 1144SOL     OW14893   2.492   3.688  15.225  0.5148  0.5833 -0.0164
 1144SOL    HW114894   2.555   3.691  15.153  1.2830 -0.3760  0.6219
 1144SOL    HW214895   2.557   3.698  15.294 -0.1590  0.0276  0.6991
 1145SOL     OW14896   1.322   2.202   3.562  0.1803 -0.5062 -0.7694
 1145SOL    HW114897   1.319   2.272   3.627 -1.3692 -1.7505  0.4828
 1145SOL    HW214898   1.323   2.252   3.480  0.8533 -0.3527 -0.6739
 1146SOL     OW14899   3.013   1.930   1.645 -0.4960  0.2927  0.3145
 1146SOL    HW114900   2.924   1.896   1.647  0.6805 -2.6943  1.7303
 1146SOL    HW214901   3.046   1.861   1.588  0.4384 -0.9709  2.3938
 1147SOL     OW14902   4.322   2.187   7.563  1.0188 -0.0366 -0.4110
 1147SOL    HW114903   4.339   2.223   7.477  0.2289 -2.2917 -1.5036
 1147SOL    HW214904   4.258   2.254   7.587 -2.0333 -3.2358  0.4082
 1148SOL     OW14905   1.569   2.389  17.446  0.2954 -0.2206 -0.0175
 1148SOL    HW114906   1.636   2.446  17.485  0.4472  1.1203 -2.2091
 1148SOL    HW214907   1.489   2.408  17.495  1.1385  1.4921  0.6925
 1149SOL     OW14908   0.590   3.844   6.448 -0.1871  0.2550 -0.0360
 1149SOL    HW114909   0.620   3.906   6.381  1.2160 -0.9453 -0.5097
 1149SOL    HW214910   0.509   3.813   6.408  1.2738 -0.3178 -2.5359
 1150SOL     OW14911   2.457   0.426   1.402  0.3986 -0.4103 -0.1145
 1150SOL    HW114912   2.439   0.489   1.332  0.3598  1.2498  1.4093
 1150SOL    HW214913   2.364   0.422   1.424  0.1253 -1.7101 -1.4684
 1151SOL     OW14914   1.655   4.652  13.825  0.7787  0.1164  0.1448
 1151SOL    HW114915   1.603   4.598  13.766 -2.5601  0.4051  2.8313
 1151SOL    HW214916   1.694   4.589  13.885  1.5091  0.3836 -0.0488
 1152SOL     OW14917   2.214   1.196   5.224 -0.3420 -0.4631  0.2681
 1152SOL    HW114918   2.241   1.268   5.280 -1.5917  0.4446 -0.3057
 1152SOL    HW214919   2.172   1.243   5.152  1.4287  0.8368  0.0631
 1153SOL     OW14920   2.374   2.707  14.108  0.1890 -0.0845  0.6192
 1153SOL    HW114921   2.454   2.758  14.117  1.1194 -1.6371  1.1841
 1153SOL    HW214922   2.325   2.777  14.065  3.7967  1.3708 -1.0786
 1154SOL     OW14923   1.586   0.831   9.106 -0.2948  0.1503 -0.1648
 1154SOL    HW114924   1.671   0.824   9.063 -1.1264 -3.1093 -1.2790
 1154SOL    HW214925   1.594   0.782   9.188  2.2306  1.7508  0.5592
 1155SOL     OW14926   2.957   3.325   4.287 -0.0018 -0.0390  0.5926
 1155SOL    HW114927   2.923   3.237   4.268 -0.4953  0.5160 -1.1267
 1155SOL    HW214928   2.930   3.325   4.378 -1.4616  2.9543  0.1348
 1156SOL     OW14929   4.334   1.317  15.839 -0.3630 -0.0274 -0.1824
 1156SOL    HW114930   4.303   1.400  15.877  1.1139  0.3571  0.1968
 1156SOL    HW214931   4.343   1.324  15.744  1.3631 -0.0358 -0.0055
 1157SOL     OW14932   0.812   4.221   4.638  0.8330  0.3218 -0.2206
 1157SOL    HW114933   0.795   4.284   4.708  1.4821  0.8388 -0.5274
 1157SOL    HW214934   0.897   4.183   4.662 -0.1267  0.1503  2.9023
 1158SOL     OW14935   2.970   1.180   9.470 -0.0663  0.1461  0.5238
 1158SOL    HW114936   3.053   1.144   9.502  0.7271  2.1322  0.6968
 1158SOL    HW214937   2.985   1.272   9.493 -2.2679  0.2158  1.7408
 1159SOL     OW14938   0.293   1.385   4.265 -0.2378 -0.0984  0.1241
 1159SOL    HW114939   0.308   1.473   4.231  2.0937 -0.0407  1.3217
 1159SOL    HW214940   0.381   1.369   4.300 -0.4965 -0.3080  0.6857
 1160SOL     OW14941   1.230   2.198   2.413  0.0059  0.1119  0.1486
 1160SOL    HW114942   1.267   2.225   2.329  0.4394 -0.4750  0.1568
 1160SOL    HW214943   1.208   2.284   2.448 -0.3756  0.3689 -0.7134
 1161SOL     OW14944   3.931   1.740   7.192  0.1754  0.0802 -0.3595
 1161SOL    HW114945   3.928   1.761   7.099  2.8645 -0.1913 -0.5100
 1161SOL    HW214946   3.846   1.695   7.192 -0.8435  2.0208  0.6546
 1162SOL     OW14947   2.114   2.324  17.373  0.4709 -0.5810 -0.1123
 1162SOL    HW114948   2.103   2.388  17.443  1.2142 -2.4916  1.7728
 1162SOL    HW214949   2.163   2.378  17.311  2.3204 -0.2994  1.5947
 1163SOL     OW14950   0.253   0.497  16.360 -0.1828 -0.2834 -0.0102
 1163SOL    HW114951   0.236   0.467  16.270  0.8061  1.2298 -0.7040
 1163SOL    HW214952   0.329   0.555  16.350 -1.9435  1.8744 -0.7782
 1164SOL     OW14953   3.253   1.134   3.242 -0.5973  0.5317 -0.0598
 1164SOL    HW114954   3.213   1.064   3.191  1.3915 -0.5618 -0.1071
 1164SOL    HW214955   3.270   1.099   3.329 -0.6943 -0.6552 -0.5189
 1165SOL     OW14956   2.341   2.541   5.352  0.0614  0.2332  0.1098
 1165SOL    HW114957   2.284   2.601   5.401  0.4609  0.9224 -0.2568
 1165SOL    HW214958   2.323   2.571   5.263  0.7012 -0.5719 -0.2886
 1166SOL     OW14959   0.635   1.001  16.838 -0.3169  0.7335 -0.1107
 1166SOL    HW114960   0.648   1.050  16.757 -1.2350 -1.4655 -1.6119
 1166SOL    HW214961   0.634   1.068  16.906 -0.5429  0.2288  0.3903
 1167SOL     OW14962   2.775   1.604   6.263  0.1457  0.2711 -0.3332
 1167SOL    HW114963   2.849   1.576   6.210 -1.8666 -1.7088 -2.1019
 1167SOL    HW214964   2.740   1.526   6.306 -0.3265  0.7535  0.1692
 1168SOL     OW14965   2.818   1.294   5.224  0.5432  0.4635 -0.6356
 1168SOL    HW114966   2.819   1.368   5.164 -0.3415  3.2602  2.8493
 1168SOL    HW214967   2.743   1.248   5.187 -1.3080  2.4399  0.7294
 1169SOL     OW14968   1.156   4.525   7.042 -0.0835  0.3358 -0.6925
 1169SOL    HW114969   1.215   4.498   7.112 -0.0891 -0.3696 -0.9554
 1169SOL    HW214970   1.135   4.613   7.073 -0.2462 -0.3723  1.2037
 1170SOL     OW14971   3.180   4.008   1.674 -0.2903  0.5244 -0.1626
 1170SOL    HW114972   3.135   3.993   1.590 -0.1623 -1.8747  0.1790
 1170SOL    HW214973   3.227   3.924   1.669 -0.4935  0.4859 -1.3987
 1171SOL     OW14974   4.636   4.281   0.203  0.4557 -0.8704  0.1610
 1171SOL    HW114975   4.678   4.270   0.118 -2.1739  3.6013 -1.6924
 1171SOL    HW214976   4.713   4.277   0.260 -0.0987  1.8748  1.0746
 1172SOL     OW14977   3.702   1.492   5.444  0.0193 -0.4879  0.1156
 1172SOL    HW114978   3.666   1.409   5.412  1.7229 -1.2914  0.2336
 1172SOL    HW214979   3.688   1.544   5.366 -0.7912  0.6667  1.0433
 1173SOL     OW14980   2.319   3.383   5.265  0.3339  0.0203  0.2520
 1173SOL    HW114981   2.258   3.358   5.196 -1.3395 -1.5332  2.3084
 1173SOL    HW214982   2.352   3.299   5.299  1.0443 -0.0346 -0.5732
 1174SOL     OW14983   4.225   1.464  10.614 -0.8977  0.9252 -0.4541
 1174SOL    HW114984   4.269   1.451  10.530 -0.6443  1.3116 -0.3792
 1174SOL    HW214985   4.222   1.559  10.605 -0.4955  1.1265  1.5149
 1175SOL     OW14986   1.935   2.202   3.231 -0.3992  0.0396 -0.5463
 1175SOL    HW114987   1.886   2.121   3.220 -1.4283  0.3087  2.2251
 1175SOL    HW214988   2.012   2.169   3.277 -1.6701  0.4454  1.8644
 1176SOL     OW14989   3.633   0.495   9.323 -0.4084  0.4680  0.2606
 1176SOL    HW114990   3.645   0.422   9.262 -0.2320 -0.7822  1.7927
 1176SOL    HW214991   3.562   0.539   9.277  0.6320  1.8491 -0.0352
 1177SOL     OW14992   4.200   0.919   2.325 -0.3612  0.2187 -0.2079
 1177SOL    HW114993   4.197   0.838   2.376  0.8530  0.4894  0.2781
 1177SOL    HW214994   4.251   0.961   2.394 -1.5407  2.1918 -0.5427
 1178SOL     OW14995   3.923   4.215   8.115 -0.4620  0.6552 -0.4952
 1178SOL    HW114996   3.939   4.124   8.141  0.9832  1.3333  0.9998
 1178SOL    HW214997   3.870   4.237   8.191 -2.3691 -0.6844 -1.4482
 1179SOL     OW14998   2.491   4.287   3.578  0.6339  0.3124  0.2830
 1179SOL    HW114999   2.447   4.372   3.581  0.2148  0.1181 -0.3117
 1179SOL    HW215000   2.551   4.291   3.653  0.0468 -0.3671  0.7863
 1180SOL     OW15001   3.355   3.366   3.345 -0.0434 -0.1779  0.0867
 1180SOL    HW115002   3.290   3.349   3.277 -1.1335 -1.4364  1.4249
 1180SOL    HW215003   3.313   3.441   3.388  1.1068  0.7098 -0.3421
 1181SOL     OW15004   3.679   1.574   5.183 -0.6997 -0.1193  0.0959
 1181SOL    HW115005   3.597   1.600   5.142  0.0539  0.9360 -0.7393
 1181SOL    HW215006   3.707   1.501   5.128  2.4565  0.3078  1.0814
 1182SOL     OW15007   3.991   0.633   9.092  0.1983  0.2835 -0.0879
 1182SOL    HW115008   4.008   0.711   9.144 -0.4760 -0.2909  0.9961
 1182SOL    HW215009   4.006   0.553   9.142 -1.4724 -0.7095 -1.1626
 1183SOL     OW15010   3.650   0.174   4.302 -0.5028  0.3902 -0.5102
 1183SOL    HW115011   3.565   0.131   4.299 -0.5562  0.4624 -0.1053
 1183SOL    HW215012   3.710   0.102   4.322 -0.9847 -0.0463 -0.6195
 1184SOL     OW15013   1.057   3.400   3.658  0.5089 -0.2022  0.2432
 1184SOL    HW115014   1.010   3.392   3.575 -1.5192  3.1866  1.0412
 1184SOL    HW215015   0.995   3.345   3.705  1.7846  0.1006  2.2576
 1185SOL     OW15016   2.623   0.640   6.370 -0.3348  0.0452 -0.3051
 1185SOL    HW115017   2.641   0.698   6.296  0.9388  0.3761  0.2722
 1185SOL    HW215018   2.666   0.689   6.440 -1.3054  2.4596 -1.3950
 1186SOL     OW15019   2.362   1.086   8.196  0.5272  0.2370 -0.3106
 1186SOL    HW115020   2.296   1.018   8.184  0.5085  0.4236 -1.2162
 1186SOL    HW215021   2.444   1.044   8.224  0.3964  0.6668  0.7401
 1187SOL     OW15022   2.362   0.927   3.949  0.0407 -0.0289  0.7453
 1187SOL    HW115023   2.390   1.010   3.912 -1.4764  0.8710  1.6203
 1187SOL    HW215024   2.404   0.866   3.888 -0.3948  0.4429 -0.0300
 1188SOL     OW15025   2.160   0.103   3.652  0.0346 -0.3319  0.3144
 1188SOL    HW115026   2.100   0.121   3.580  0.4971 -2.8955 -0.6968
 1188SOL    HW215027   2.215   0.027   3.632 -0.8822 -0.7333 -0.6355
 1189SOL     OW15028   2.035   0.661   3.612 -0.2262  0.4665  0.2593
 1189SOL    HW115029   2.063   0.741   3.657 -0.2422  0.3506  0.4751
 1189SOL    HW215030   2.111   0.604   3.626 -0.1950  0.7729  1.3691
 1190SOL     OW15031   1.681   0.953   2.833  0.5407  0.0412  0.3464
 1190SOL    HW115032   1.647   1.019   2.772 -1.9025  0.5376  2.2386
 1190SOL    HW215033   1.599   0.927   2.875 -0.5098 -3.6246 -4.0055
 1191SOL     OW15034   4.268   0.869  10.444  0.1475 -1.4615  0.0346
 1191SOL    HW115035   4.195   0.843  10.389  0.2558  2.5737 -2.0381
 1191SOL    HW215036   4.226   0.895  10.526 -0.0044  1.3606 -0.9188
 1192SOL     OW15037   1.441   1.127  17.420  0.3222  0.2998  0.2759
 1192SOL    HW115038   1.524   1.174  17.422  0.2578  0.4575 -0.7774
 1192SOL    HW215039   1.375   1.188  17.452 -0.3749 -0.0848 -0.4385
 1193SOL     OW15040   3.047   1.851  10.830 -0.0842  0.2451  0.1014
 1193SOL    HW115041   3.107   1.886  10.765 -0.5745  1.0960  0.0977
 1193SOL    HW215042   2.965   1.886  10.794  0.4863  0.5923 -0.8511
 1194SOL     OW15043   4.684   2.660   5.485 -0.1575  0.0121 -0.2699
 1194SOL    HW115044   0.007   2.743   5.475  0.8897 -0.4489  0.8748
 1194SOL    HW215045   4.592   2.685   5.476 -0.0303  0.2747 -0.8419
 1195SOL     OW15046   1.498   0.477   8.457  0.4172 -0.0231  0.0834
 1195SOL    HW115047   1.591   0.484   8.478  1.0783  1.5487 -3.3083
 1195SOL    HW215048   1.454   0.515   8.533 -2.1013 -2.4835 -0.0966
 1196SOL     OW15049   1.893   2.672   4.829 -0.6312 -0.4764  0.1925
 1196SOL    HW115050   1.977   2.637   4.856  0.2261  0.1097 -1.7289
 1196SOL    HW215051   1.895   2.765   4.853  1.3031  0.0531 -2.0275
 1197SOL     OW15052   3.954   1.438  16.159 -0.2050  0.0721  0.1735
 1197SOL    HW115053   3.881   1.390  16.199 -0.5925  0.1203 -0.4874
 1197SOL    HW215054   3.907   1.519  16.139  0.1559 -0.1556 -1.5224
 1198SOL     OW15055   0.322   1.346   5.733 -0.9527 -0.4988  1.1710
 1198SOL    HW115056   0.305   1.438   5.710  0.2133 -0.1842  1.5485
 1198SOL    HW215057   0.235   1.308   5.733 -0.9011 -0.5764 -2.9036
 1199SOL     OW15058   1.033   3.112   6.565 -0.3731  0.9372  0.1021
 1199SOL    HW115059   0.947   3.151   6.584 -1.0206  0.0588 -1.0512
 1199SOL    HW215060   1.073   3.163   6.636 -2.2274  1.4710  0.7867
 1200SOL     OW15061   3.729   0.540   1.089  0.1566 -0.1262  0.0365
 1200SOL    HW115062   3.706   0.454   1.124 -0.2496 -0.9599 -2.3293
 1200SOL    HW215063   3.775   0.570   1.168 -0.7700  1.9854 -0.2494
 1201SOL     OW15064   2.037   3.663  14.944 -0.4024  0.6777  0.2767
 1201SOL    HW115065   2.074   3.578  14.918 -0.5313  0.0459  2.2078
 1201SOL    HW215066   2.057   3.721  14.870 -0.6914 -1.6755 -1.6487
 1202SOL     OW15067   3.665   0.592   5.198  0.2651  0.2566  0.1245
 1202SOL    HW115068   3.661   0.688   5.203 -0.8766  0.2528 -0.8055
 1202SOL    HW215069   3.759   0.578   5.207  0.3816  1.7565  1.1939
 1203SOL     OW15070   0.742   1.135   3.656 -0.2715  0.2103 -0.7839
 1203SOL    HW115071   0.794   1.121   3.735  0.2498  1.9669 -0.8023
 1203SOL    HW215072   0.650   1.125   3.681  0.7141 -0.9155  2.3912
 1204SOL     OW15073   4.647   3.634   2.871 -0.3172  0.0134  0.2198
 1204SOL    HW115074   4.626   3.544   2.847 -2.2924  0.2746  0.9373
 1204SOL    HW215075   4.659   3.684   2.790 -1.4011  0.4156  0.2982
 1205SOL     OW15076   1.700   2.840   4.434  0.0436 -0.1134 -0.1559
 1205SOL    HW115077   1.707   2.753   4.395  1.2946 -0.0991  0.0428
 1205SOL    HW215078   1.668   2.902   4.369 -3.7815 -0.9357  0.9453
 1206SOL     OW15079   0.465   1.742  14.788  0.4391  0.4135  0.0015
 1206SOL    HW115080   0.434   1.663  14.832 -1.7146  1.6823  0.7496
 1206SOL    HW215081   0.403   1.805  14.824  1.4347  1.7017 -0.5320
 1207SOL     OW15082   0.537   2.686  16.939  0.7674 -0.2310 -0.5419
 1207SOL    HW115083   0.503   2.702  17.027  0.4101 -2.4386 -0.2776
 1207SOL    HW215084   0.621   2.652  16.971  0.8494  1.2960  0.9230
 1208SOL     OW15085   4.061   2.910   8.277 -0.2188  0.2143 -0.2093
 1208SOL    HW115086   4.118   2.910   8.353  2.5046  2.6894 -2.2620
 1208SOL    HW215087   4.115   2.864   8.213 -0.9462  2.0272 -2.1357
 1209SOL     OW15088   0.091   3.651   9.857  0.0678 -0.0834 -0.4730
 1209SOL    HW115089   0.078   3.560   9.830  3.7527 -0.9154  0.5380
 1209SOL    HW215090   0.008   3.689   9.828 -0.1788 -0.4553 -0.2496
 1210SOL     OW15091   2.177   0.295  13.023  0.6569 -0.0057 -0.5138
 1210SOL    HW115092   2.217   0.276  13.108 -0.5462  0.4895  0.1544
 1210SOL    HW215093   2.188   0.390  13.019  1.5490 -0.0983 -0.3536
 1211SOL     OW15094   2.696   3.131   0.596 -0.3184  0.2746  0.4196
 1211SOL    HW115095   2.686   3.047   0.552  0.9808 -0.3140  1.2626
 1211SOL    HW215096   2.698   3.122   0.691 -0.1621 -0.8320  0.3125
 1212SOL     OW15097   3.557   2.347  11.547  0.7506 -0.1469 -0.1806
 1212SOL    HW115098   3.587   2.300  11.469 -1.4395  0.6053 -1.4821
 1212SOL    HW215099   3.541   2.437  11.519 -1.7279 -0.1503  1.2339
 1213SOL     OW15100   4.382   3.350   5.594  0.0734 -0.5498 -0.0164
 1213SOL    HW115101   4.352   3.261   5.576 -1.0793 -0.0711 -0.4632
 1213SOL    HW215102   4.471   3.315   5.603 -0.2006 -0.7599  1.8955
 1214SOL     OW15103   3.516   3.344   8.308  0.4801  0.0435  0.0161
 1214SOL    HW115104   3.603   3.315   8.280  0.7634 -0.3142  1.2412
 1214SOL    HW215105   3.470   3.359   8.225  0.0474  0.2124  0.2854
 1215SOL     OW15106   0.255   2.654  15.724  0.2822  0.2249  0.7631
 1215SOL    HW115107   0.235   2.618  15.638  0.7418 -0.8478  1.1081
 1215SOL    HW215108   0.351   2.653  15.724  0.2754  1.2135  3.3984
 1216SOL     OW15109   3.036   4.359   2.123  0.1230 -0.4705 -0.0571
 1216SOL    HW115110   3.064   4.268   2.107  0.2614 -0.7431  1.7204
 1216SOL    HW215111   2.941   4.348   2.125  0.2106 -1.0768  1.4672
 1217SOL     OW15112   0.279   3.207  17.372 -0.0626  0.0855  0.3781
 1217SOL    HW115113   0.251   3.119  17.396  0.1234  0.1418  0.8136
 1217SOL    HW215114   0.213   3.261  17.415  1.4735  1.2992  1.2271
 1218SOL     OW15115   3.553   0.563  17.070  0.6404 -0.3289  0.1638
 1218SOL    HW115116   3.462   0.535  17.073  1.2893 -2.5079 -0.4750
 1218SOL    HW215117   3.547   0.617  16.991 -1.2505  0.0658  0.5892
 1219SOL     OW15118   2.097   3.731   2.728  0.1497  0.1213  0.2321
 1219SOL    HW115119   2.170   3.691   2.682 -0.9207  0.9047 -2.1371
 1219SOL    HW215120   2.137   3.817   2.742 -3.1454  1.1699  3.1200
 1220SOL     OW15121   1.778   2.172  13.339  0.4585 -0.9984 -0.0878
 1220SOL    HW115122   1.799   2.086  13.301  0.8401 -1.0889  0.3371
 1220SOL    HW215123   1.774   2.229  13.262 -0.0648  1.0474  1.4472
 1221SOL     OW15124   2.833   3.916  10.684  0.0364  0.3694  0.4592
 1221SOL    HW115125   2.924   3.944  10.671 -0.1935 -0.2848 -2.5338
 1221SOL    HW215126   2.801   3.879  10.602  1.4210  0.7077 -0.2390
 1222SOL     OW15127   0.985   4.469   3.422 -0.4773 -0.6712 -0.0646
 1222SOL    HW115128   0.990   4.426   3.337  1.0491 -1.8184  0.6021
 1222SOL    HW215129   1.076   4.489   3.444 -0.7355 -1.4524  1.7219
 1223SOL     OW15130   3.632   1.347   8.827 -0.1344 -0.2177  0.2628
 1223SOL    HW115131   3.681   1.400   8.764 -1.9727 -0.0388 -1.0113
 1223SOL    HW215132   3.697   1.351   8.898  0.2362 -0.7103 -0.0469
 1224SOL     OW15133   2.739   2.325  15.378 -0.2914  0.2211 -0.3070
 1224SOL    HW115134   2.768   2.355  15.464 -0.9476 -0.9065  0.3047
 1224SOL    HW215135   2.774   2.402  15.334 -1.7509  0.0523 -1.7518
 1225SOL     OW15136   0.514   0.333   8.546  0.4612  0.6531  0.4577
 1225SOL    HW115137   0.544   0.249   8.580  0.3333 -0.2127 -1.5658
 1225SOL    HW215138   0.419   0.321   8.557  0.3864 -1.1828 -2.3492
 1226SOL     OW15139   1.183   2.471   6.890 -0.1215 -0.0415 -0.0081
 1226SOL    HW115140   1.092   2.442   6.894  0.3285 -1.5710 -0.9600
 1226SOL    HW215141   1.203   2.520   6.970  3.6797 -1.6637  0.0210
 1227SOL     OW15142   1.967   4.397   2.534 -0.2795  0.2201  0.0085
 1227SOL    HW115143   2.018   4.405   2.453 -1.3757  2.5928 -0.4658
 1227SOL    HW215144   1.873   4.403   2.512 -0.4731  2.1548  1.3689
 1228SOL     OW15145   1.829   1.611   0.516  0.7407  0.7196 -0.5150
 1228SOL    HW115146   1.821   1.568   0.431  0.2629  3.0896 -1.6933
 1228SOL    HW215147   1.916   1.583   0.545  2.1164  2.4004 -2.9401
 1229SOL     OW15148   0.748   4.541   8.391  0.0873 -0.3119 -0.1371
 1229SOL    HW115149   0.827   4.491   8.374 -0.5703 -1.2723 -0.3573
 1229SOL    HW215150   0.685   4.469   8.384 -1.2822  0.8178  0.6606
 1230SOL     OW15151   2.920   3.626   8.363  0.6211  0.2569 -0.3376
 1230SOL    HW115152   2.919   3.625   8.459 -1.2529  0.6826 -0.3444
 1230SOL    HW215153   2.839   3.588   8.329 -0.0824  1.9270 -0.5063
 1231SOL     OW15154   3.092   0.556   2.485 -0.1218 -0.2581 -0.2804
 1231SOL    HW115155   3.113   0.552   2.391  2.5104  1.5357  0.2271
 1231SOL    HW215156   3.178   0.591   2.510 -0.6578 -0.1433  1.3506
 1232SOL     OW15157   0.466   1.919   4.232 -0.2155 -0.6104  0.1309
 1232SOL    HW115158   0.465   1.865   4.152 -0.1650  2.2908 -1.8302
 1232SOL    HW215159   0.462   2.003   4.187  2.4473 -0.3939  0.3005
 1233SOL     OW15160   2.036   4.282   2.028 -0.0686 -0.0809  0.0369
 1233SOL    HW115161   2.101   4.280   1.958 -0.4854  0.6683 -0.3745
 1233SOL    HW215162   1.964   4.275   1.965  1.2043  0.8823 -1.5248
 1234SOL     OW15163   3.483   1.955   5.063  0.1766 -0.1112 -0.3866
 1234SOL    HW115164   3.520   1.872   5.034  0.9925 -0.0185  0.3832
 1234SOL    HW215165   3.477   2.002   4.980 -0.3654  1.3886  0.5129
 1235SOL     OW15166   2.541   4.619   3.091 -0.1347 -0.3619 -0.0156
 1235SOL    HW115167   2.456   4.638   3.052 -0.5666  3.1048  2.5809
 1235SOL    HW215168   2.575   4.707   3.072  0.1078 -0.5766 -0.5809
 1236SOL     OW15169   1.180   2.257  12.156 -0.0148  1.0220 -0.3344
 1236SOL    HW115170   1.193   2.205  12.235 -0.0832 -2.4713 -2.5749
 1236SOL    HW215171   1.113   2.206  12.110  1.2168 -0.2701 -0.7032
 1237SOL     OW15172   2.766   3.692  17.033  0.1277 -0.2657 -0.3701
 1237SOL    HW115173   2.860   3.680  17.044 -0.1371 -2.1385 -0.0985
 1237SOL    HW215174   2.759   3.787  17.026  0.6518 -0.1051  1.4241
 1238SOL     OW15175   2.940   3.668   2.207  0.3468 -0.5326 -0.4988
 1238SOL    HW115176   2.894   3.750   2.225 -0.3323 -0.9329 -0.4185
 1238SOL    HW215177   3.019   3.697   2.252  1.0179  0.1352 -2.1144
 1239SOL     OW15178   1.392   0.357   7.633 -0.1010 -0.1139  0.1285
 1239SOL    HW115179   1.440   0.319   7.707 -3.0694 -0.5575  1.8347
 1239SOL    HW215180   1.379   0.450   7.653  2.8278 -0.3984  3.2577
 1240SOL     OW15181   4.123   2.928   3.841 -0.0395  0.0013  0.0425
 1240SOL    HW115182   4.140   2.952   3.932  1.1852 -0.3941 -0.0870
 1240SOL    HW215183   4.083   2.843   3.853  3.1194 -1.3375  1.0717
 1241SOL     OW15184   3.757   4.179   3.065  0.1918  0.2989  0.0040
 1241SOL    HW115185   3.690   4.141   3.121  1.1062  2.2313  2.4234
 1241SOL    HW215186   3.819   4.107   3.055 -1.6533 -1.2384 -0.1949
 1242SOL     OW15187   3.239   1.119   7.252  0.4423  0.6854  0.3378
 1242SOL    HW115188   3.258   1.046   7.193 -1.0089 -1.4542  2.5005
 1242SOL    HW215189   3.200   1.177   7.187 -0.9626 -0.8837 -0.1919
 1243SOL     OW15190   2.415   3.351   3.733 -0.2302  0.1399 -0.1681
 1243SOL    HW115191   2.421   3.445   3.751  0.2763 -0.3923  2.4658
 1243SOL    HW215192   2.376   3.345   3.646  0.5378  1.1367 -0.5795
 1244SOL     OW15193   3.736   2.799   7.810  0.5358 -0.1933 -0.3019
 1244SOL    HW115194   3.679   2.771   7.739 -0.7948  0.9383  0.3295
 1244SOL    HW215195   3.781   2.719   7.837  0.4591 -0.5925 -1.3626
 1245SOL     OW15196   1.171   1.817  15.157  0.7256 -1.2093  0.7471
 1245SOL    HW115197   1.117   1.749  15.117  0.9477 -0.4545 -0.8775
 1245SOL    HW215198   1.163   1.884  15.088 -3.1977 -1.6030  0.8639
 1246SOL     OW15199   1.627   1.587   3.214  0.2097  0.4530  0.0758
 1246SOL    HW115200   1.557   1.589   3.149  1.4567  1.6062 -1.2317
 1246SOL    HW215201   1.607   1.672   3.253  1.2768  0.6765  0.1440
 1247SOL     OW15202   2.797   3.369   8.688  0.4150  0.4109 -0.5469
 1247SOL    HW115203   2.716   3.319   8.684 -0.0260  0.9822  1.2347
 1247SOL    HW215204   2.869   3.312   8.715  1.0382  1.7391  0.6579
 1248SOL     OW15205   0.404   3.335   4.349  0.3254 -0.5578  0.1274
 1248SOL    HW115206   0.387   3.415   4.398  2.0712  0.1422 -0.3987
 1248SOL    HW215207   0.319   3.320   4.307  0.0863  0.0140  0.4077
 1249SOL     OW15208   0.170   1.183  10.666  0.2460 -0.0186 -0.3824
 1249SOL    HW115209   0.177   1.236  10.586  0.6482  1.5044  0.6482
 1249SOL    HW215210   0.085   1.140  10.661 -0.4850  1.3870 -0.2468
 1250SOL     OW15211   0.192   2.022   6.978  0.0282 -0.1896  0.1105
 1250SOL    HW115212   0.262   2.021   6.913  0.4842 -2.3624  0.6161
 1250SOL    HW215213   0.116   2.002   6.924 -0.4683 -2.3270  1.6020
 1251SOL     OW15214   1.732   0.488   8.565  0.6620 -0.5467  0.1932
 1251SOL    HW115215   1.821   0.521   8.551 -0.3020  2.0048  0.1741
 1251SOL    HW215216   1.714   0.521   8.652 -0.2834  1.3472 -0.7298
 1252SOL     OW15217   3.427   3.986  15.496 -0.4730 -0.0049  0.7470
 1252SOL    HW115218   3.514   3.954  15.518 -0.0617  0.1817 -0.5683
 1252SOL    HW215219   3.447   4.043  15.421  0.4624 -1.4935 -0.1307
 1253SOL     OW15220   3.433   0.940   9.392  0.0435  0.0147 -0.3520
 1253SOL    HW115221   3.454   0.982   9.309 -0.0103 -1.7455 -1.2438
 1253SOL    HW215222   3.482   0.991   9.457  1.3524  0.1994 -1.5101
 1254SOL     OW15223   0.122   0.081  15.093 -0.5649 -0.2890  0.6674
 1254SOL    HW115224   0.144   0.006  15.038  1.6448  1.7276 -1.1856
 1254SOL    HW215225   0.034   0.096  15.058  0.1246 -1.5914 -1.5861
 1255SOL     OW15226   2.195   3.001  10.543 -0.0955  0.0319 -0.1178
 1255SOL    HW115227   2.274   3.053  10.527 -0.9925  1.4549  0.0552
 1255SOL    HW215228   2.180   2.944  10.468  0.3095  1.8623 -1.5942
 1256SOL     OW15229   2.517   0.913  16.933  0.9030  0.0954  0.0034
 1256SOL    HW115230   2.602   0.869  16.938  0.7204 -0.1948  0.6047
 1256SOL    HW215231   2.472   0.852  16.993  1.1482  0.3267  0.4235
 1257SOL     OW15232   0.235   3.292  14.237 -0.4821 -0.2916  0.4425
 1257SOL    HW115233   0.304   3.298  14.303 -0.9980 -2.5591  1.1879
 1257SOL    HW215234   0.154   3.275  14.285 -0.0914 -2.0735  0.4525
 1258SOL     OW15235   3.038   3.809   7.932 -0.0159 -0.2356 -0.4401
 1258SOL    HW115236   3.042   3.775   7.842 -0.7530 -0.6257 -0.3268
 1258SOL    HW215237   2.955   3.855   7.946  0.2732  0.4760 -1.0463
 1259SOL     OW15238   3.492   2.948  11.635 -0.1515  0.0446 -0.1054
 1259SOL    HW115239   3.468   3.002  11.710 -0.8237  0.3468 -0.5491
 1259SOL    HW215240   3.439   2.985  11.565  0.9982 -1.5162 -1.8116
 1260SOL     OW15241   2.540   3.363   0.537  0.0792 -0.2132 -0.6755
 1260SOL    HW115242   2.595   3.292   0.569  0.4789  1.2565  1.8756
 1260SOL    HW215243   2.453   3.324   0.542 -0.5484  1.6003  2.3888
 1261SOL     OW15244   3.105   2.131   0.833  0.4055  0.1638 -0.6432
 1261SOL    HW115245   3.053   2.054   0.857 -0.2846  1.2043  1.1899
 1261SOL    HW215246   3.036   2.195   0.818  0.7693  0.0452 -2.8155
 1262SOL     OW15247   1.005   2.850  16.166 -0.1350 -0.4355 -0.3622
 1262SOL    HW115248   0.951   2.786  16.120 -0.3794 -0.8449  0.5168
 1262SOL    HW215249   1.000   2.828  16.259 -3.7826 -0.7928 -0.6604
 1263SOL     OW15250   3.617   3.975   3.225  0.3430  0.0522  0.3332
 1263SOL    HW115251   3.638   3.933   3.142 -0.0226 -1.2402  0.8919
 1263SOL    HW215252   3.624   3.899   3.283 -2.1243 -0.9163 -0.6190
 1264SOL     OW15253   3.788   1.952   8.667 -0.0758 -0.4853  0.2245
 1264SOL    HW115254   3.862   1.895   8.685 -1.4690 -2.6730 -0.8326
 1264SOL    HW215255   3.796   2.020   8.733  0.0183 -1.5260  1.2724
 1265SOL     OW15256   4.504   2.216  15.504 -0.3254 -0.4375 -0.8324
 1265SOL    HW115257   4.543   2.159  15.570  1.3444  1.2081 -0.3913
 1265SOL    HW215258   4.542   2.169  15.429  1.4519 -0.3545  0.0146
 1266SOL     OW15259   1.186   0.191   4.356 -0.3809  0.0874 -0.4296
 1266SOL    HW115260   1.261   0.251   4.362  0.6241 -1.2454  0.4389
 1266SOL    HW215261   1.149   0.192   4.445  2.2343  0.2259  0.6620
 1267SOL     OW15262   0.526   3.892  14.840  0.5141  0.5149  0.4253
 1267SOL    HW115263   0.560   3.977  14.868  0.8029  1.0835 -1.6370
 1267SOL    HW215264   0.578   3.830  14.889 -0.3702  0.3971  1.2074
 1268SOL     OW15265   1.707   2.126  10.053  0.1736  0.2859 -0.4102
 1268SOL    HW115266   1.754   2.053  10.012  0.5674  0.0803  0.4186
 1268SOL    HW215267   1.619   2.125  10.015 -0.4425  0.9864  1.0174
 1269SOL     OW15268   2.847   2.346   9.300 -0.0072 -0.0316  0.8770
 1269SOL    HW115269   2.778   2.293   9.261  0.6598 -0.9263  0.9111
 1269SOL    HW215270   2.926   2.318   9.254  0.3806  0.2536  1.3671
 1270SOL     OW15271   1.458   4.013   8.361  0.0652 -0.3594 -0.3062
 1270SOL    HW115272   1.504   4.071   8.300  0.8334  1.4456  1.9886
 1270SOL    HW215273   1.464   3.935   8.305 -0.0158 -1.1302  0.7682
 1271SOL     OW15274   4.507   0.632   4.098 -0.0565  0.3266 -0.0285
 1271SOL    HW115275   4.554   0.566   4.046 -0.8518 -0.4334  0.2254
 1271SOL    HW215276   4.530   0.714   4.053 -1.0704  0.8287  0.3798
 1272SOL     OW15277   4.211   4.068  15.918  0.2029  0.4470  0.1455
 1272SOL    HW115278   4.214   4.145  15.975 -0.0711 -0.3128  1.1923
 1272SOL    HW215279   4.184   4.003  15.982  0.2345  1.6261  1.3665
 1273SOL     OW15280   3.556   1.295   4.148 -0.3290 -0.4524  0.5628
 1273SOL    HW115281   3.527   1.204   4.148 -1.2490 -0.1543 -0.3169
 1273SOL    HW215282   3.542   1.319   4.057  0.2287  1.7323  1.0459
 1274SOL     OW15283   1.450   0.614   2.449  0.7457 -0.0213  0.3391
 1274SOL    HW115284   1.417   0.701   2.468  0.8712 -0.3045  1.8335
 1274SOL    HW215285   1.444   0.624   2.354  0.0821 -1.2507  0.2436
 1275SOL     OW15286   3.156   0.277   9.236 -0.0700 -0.0823  0.1339
 1275SOL    HW115287   3.129   0.197   9.282  0.2863 -0.8801 -1.0452
 1275SOL    HW215288   3.162   0.340   9.307  2.3093  1.0940 -1.1335
 1276SOL     OW15289   1.981   1.653   2.343 -0.2900  0.1274  0.5831
 1276SOL    HW115290   2.047   1.586   2.360 -1.4353 -0.7974  1.4323
 1276SOL    HW215291   1.900   1.613   2.376 -0.7715 -0.8227 -1.7804
 1277SOL     OW15292   2.810   0.040  11.076 -0.1006  0.2820 -0.3165
 1277SOL    HW115293   2.807   4.669  11.062 -1.9799  0.4091 -0.8823
 1277SOL    HW215294   2.903   0.058  11.084 -0.4995  1.2169  2.2884
 1278SOL     OW15295   1.600   2.104  13.697  0.3970  0.1562 -0.5058
 1278SOL    HW115296   1.595   2.095  13.792 -0.3308 -0.2174 -0.5800
 1278SOL    HW215297   1.589   2.199  13.693 -1.0530 -0.0066 -0.4209
 1279SOL     OW15298   0.159   2.095   3.109 -0.1163  0.9760 -0.1872
 1279SOL    HW115299   0.136   2.011   3.149  1.2084  0.6145 -0.2090
 1279SOL    HW215300   0.251   2.075   3.093 -0.5090 -0.1918 -0.9476
 1280SOL     OW15301   3.167   1.927   5.458 -0.5249 -0.1272  0.2840
 1280SOL    HW115302   3.209   1.962   5.379 -0.4327 -1.0403 -0.0670
 1280SOL    HW215303   3.077   1.950   5.436 -0.6465  0.1573  1.0996
 1281SOL     OW15304   3.400   1.833   9.084 -0.3696 -0.4094  0.2888
 1281SOL    HW115305   3.408   1.738   9.082 -1.1509 -0.4719  0.1461
 1281SOL    HW215306   3.325   1.847   9.141  0.5753 -1.6055  1.8187
 1282SOL     OW15307   3.970   2.273  17.463 -0.4997 -0.2617 -0.5580
 1282SOL    HW115308   3.995   2.286  17.555  3.6687  2.2176 -2.0636
 1282SOL    HW215309   3.983   2.359  17.424 -0.8668  0.1067  0.1362
 1283SOL     OW15310   3.385   4.299   1.469 -0.0962  0.1537 -0.1243
 1283SOL    HW115311   3.398   4.204   1.477 -0.7973  0.0502 -0.2384
 1283SOL    HW215312   3.474   4.323   1.443  1.3491 -1.9424  2.7776
 1284SOL     OW15313   2.293   3.784   9.468  0.0190  0.3308  0.1481
 1284SOL    HW115314   2.366   3.723   9.464  0.6498  1.1683 -1.1530
 1284SOL    HW215315   2.335   3.870   9.477  1.5164 -0.2384 -1.6071
 1285SOL     OW15316   2.238   2.591  12.141 -0.4623 -0.0896  0.0561
 1285SOL    HW115317   2.168   2.618  12.082 -0.4731  0.6324  0.3983
 1285SOL    HW215318   2.317   2.621  12.095  0.3897 -0.6978  1.1364
 1286SOL     OW15319   0.113   4.047   2.669 -0.1163 -0.2368  0.2876
 1286SOL    HW115320   0.063   4.027   2.591 -1.2546 -0.7186  1.1414
 1286SOL    HW215321   0.055   4.024   2.742 -1.7957  0.2384 -0.9213
 1287SOL     OW15322   3.686   2.795   6.556 -0.0594  0.0084 -0.1948
 1287SOL    HW115323   3.713   2.836   6.474  1.8930  1.8856  1.3783
 1287SOL    HW215324   3.757   2.734   6.577  1.0154  1.6461  0.8790
 1288SOL     OW15325   0.208   2.569   8.250  0.6109 -0.6482 -0.2435
 1288SOL    HW115326   0.120   2.574   8.288  0.1254 -1.2313 -1.2997
 1288SOL    HW215327   0.248   2.649   8.284 -1.1986 -0.1755  0.7762
 1289SOL     OW15328   3.822   1.366   0.454 -0.8023  0.2852  0.6907
 1289SOL    HW115329   3.897   1.316   0.420 -1.7344 -1.0298  0.5934
 1289SOL    HW215330   3.832   1.347   0.547 -0.1291 -2.6566  0.0110
 1290SOL     OW15331   1.865   1.068   9.249  0.2566 -0.6299 -0.5480
 1290SOL    HW115332   1.867   1.135   9.182  0.0564 -0.5704 -0.4948
 1290SOL    HW215333   1.837   0.993   9.197 -1.6137 -0.2817 -0.0415
 1291SOL     OW15334   2.277   0.320   2.550  0.3741 -0.4987 -0.2869
 1291SOL    HW115335   2.355   0.273   2.519 -0.8523 -0.2681 -3.8016
 1291SOL    HW215336   2.264   0.263   2.626 -1.1912  0.1652 -0.0576
 1292SOL     OW15337   4.241   0.384  17.454  0.0619  0.2381  0.4860
 1292SOL    HW115338   4.269   0.449  17.518 -0.4979  1.5014 -0.5764
 1292SOL    HW215339   4.256   0.309  17.512 -0.6522 -0.2879 -0.0088
 1293SOL     OW15340   3.137   3.686   3.878 -0.1156  0.4597 -0.1476
 1293SOL    HW115341   3.073   3.653   3.942  0.0066 -0.9198 -0.7352
 1293SOL    HW215342   3.220   3.676   3.925  0.6198 -0.8307 -1.7549
 1294SOL     OW15343   1.577   3.494   6.042 -0.0995  0.0330 -0.1316
 1294SOL    HW115344   1.616   3.547   6.112  2.4625 -0.5580 -1.1090
 1294SOL    HW215345   1.485   3.521   6.044  0.2520  1.2113  0.4181
 1295SOL     OW15346   0.509   2.789   5.448  0.3061 -0.5126  0.1576
 1295SOL    HW115347   0.602   2.768   5.438 -0.0293 -0.4546 -3.1319
 1295SOL    HW215348   0.503   2.883   5.431  1.0940 -0.6212 -0.7228
 1296SOL     OW15349   3.944   4.049   8.828  0.0685 -0.1527 -0.1996
 1296SOL    HW115350   4.031   4.015   8.849 -0.9464 -1.3884  2.0674
 1296SOL    HW215351   3.901   3.983   8.774  1.2746  0.0868 -1.4546
 1297SOL     OW15352   2.230   3.674  15.830 -0.2689 -0.1962 -0.4159
 1297SOL    HW115353   2.277   3.594  15.851  0.1714  1.0529  3.3648
 1297SOL    HW215354   2.285   3.709  15.760 -0.8792 -0.8995 -1.2378
 1298SOL     OW15355   4.188   1.756   7.762 -0.1644 -0.3762  0.2892
 1298SOL    HW115356   4.223   1.672   7.794  1.6070  0.3635  0.3025
 1298SOL    HW215357   4.101   1.761   7.801  0.0487  0.6770  0.6262
 1299SOL     OW15358   2.687   0.637  16.157 -0.1371 -0.4101  0.4384
 1299SOL    HW115359   2.673   0.710  16.218  0.3289  2.4931 -2.9301
 1299SOL    HW215360   2.724   0.678  16.079  0.5014 -0.2916  0.8015
 1300SOL     OW15361   4.538   2.140   7.084  0.5428  0.1854 -0.2812
 1300SOL    HW115362   4.589   2.085   7.144  0.2478  0.4690  0.2194
 1300SOL    HW215363   4.479   2.183   7.145 -0.2996  0.6820 -1.4370
 1301SOL     OW15364   4.310   2.164   6.945 -0.1232  1.0813  0.7486
 1301SOL    HW115365   4.400   2.140   6.969 -0.5898 -1.9489 -0.6716
 1301SOL    HW215366   4.268   2.079   6.953  1.3619  0.1566 -1.3826
 1302SOL     OW15367   1.509   1.652   5.762 -0.0960 -0.0125  0.1670
 1302SOL    HW115368   1.437   1.675   5.821  0.5137  0.4678  0.7223
 1302SOL    HW215369   1.506   1.733   5.713 -0.3201 -0.1989 -0.1295
 1303SOL     OW15370   4.257   3.322   7.372  0.1829  0.2290 -0.0341
 1303SOL    HW115371   4.224   3.236   7.398  0.4817  0.0950 -0.0898
 1303SOL    HW215372   4.264   3.361   7.460  1.1401  0.0282 -0.0233
 1304SOL     OW15373   0.128   3.557   3.360 -0.1742 -0.4778  0.2746
 1304SOL    HW115374   0.098   3.592   3.276 -2.6248 -1.1280  0.8818
 1304SOL    HW215375   0.058   3.600   3.410  1.4234  0.7534  1.4296
 1305SOL     OW15376   0.078   3.908   4.025 -0.1032  0.4877  0.4422
 1305SOL    HW115377   4.717   3.949   4.013 -1.1848 -1.8231  0.1988
 1305SOL    HW215378   0.128   3.932   3.947  1.2698  3.4430  2.2236
 1306SOL     OW15379   3.474   3.322  16.171  0.2695  0.1506  0.6327
 1306SOL    HW115380   3.563   3.356  16.182  0.4952  0.4702 -2.0682
 1306SOL    HW215381   3.429   3.407  16.172 -0.5619 -0.2913  1.6758
 1307SOL     OW15382   1.838   0.858  11.294 -0.2823 -0.1637 -0.2630
 1307SOL    HW115383   1.915   0.808  11.321 -0.9452  0.2553  2.3653
 1307SOL    HW215384   1.878   0.906  11.222  0.2963  0.3269  0.3823
 1308SOL     OW15385   4.212   1.213   7.975 -0.1595 -0.2692 -0.5234
 1308SOL    HW115386   4.172   1.300   7.977  1.0427  0.2835 -0.1670
 1308SOL    HW215387   4.211   1.187   8.067  2.7961  0.2576 -0.3348
 1309SOL     OW15388   3.619   2.571   7.317  0.2096 -0.1195  0.2040
 1309SOL    HW115389   3.676   2.538   7.247  1.7303 -1.2882  2.0077
 1309SOL    HW215390   3.610   2.661   7.286  0.8151  0.0561  0.5290
 1310SOL     OW15391   1.168   1.806   3.179  0.2008 -0.1044  0.1528
 1310SOL    HW115392   1.116   1.823   3.101 -1.0246  1.4008  1.2919
 1310SOL    HW215393   1.119   1.745   3.235  1.3665  0.3366  1.6505
 1311SOL     OW15394   2.069   0.571   2.205 -0.2878 -0.1643 -0.0777
 1311SOL    HW115395   2.149   0.603   2.246 -0.4747 -0.8727  0.8358
 1311SOL    HW215396   2.074   0.478   2.228 -1.9905 -0.3363 -0.4311
 1312SOL     OW15397   4.502   0.010   6.251  0.1639  0.2946  0.1741
 1312SOL    HW115398   4.409   4.714   6.236  0.2040 -0.2140  0.5780
 1312SOL    HW215399   4.499   4.714   6.345 -1.9053  0.1392  0.0751
 1313SOL     OW15400   4.231   1.001   4.174 -0.4193 -0.0012  0.0041
 1313SOL    HW115401   4.313   0.958   4.200  0.4732  0.4565 -2.1202
 1313SOL    HW215402   4.217   1.046   4.258  1.2978 -0.0327  0.3217
 1314SOL     OW15403   3.582   2.367   3.165 -0.4944 -0.1812 -0.4261
 1314SOL    HW115404   3.640   2.439   3.140  0.1701 -0.5653  0.0161
 1314SOL    HW215405   3.503   2.418   3.184  0.0214  1.0590 -1.5565
 1315SOL     OW15406   1.470   0.027   3.856  0.4875 -0.3939 -0.4937
 1315SOL    HW115407   1.539   4.689   3.879  1.4180  0.4038 -1.1076
 1315SOL    HW215408   1.462   0.009   3.762 -0.9203  0.3688 -0.5248
 1316SOL     OW15409   3.696   3.357   3.513 -0.1386  0.1468  0.0219
 1316SOL    HW115410   3.778   3.366   3.465 -0.5144  0.1293 -0.6176
 1316SOL    HW215411   3.642   3.295   3.464 -1.3804  1.3845 -0.1760
 1317SOL     OW15412   1.571   1.295   0.135  0.2049 -0.0849 -0.3215
 1317SOL    HW115413   1.571   1.343   0.052 -0.7905 -0.2006 -0.3931
 1317SOL    HW215414   1.577   1.206   0.099  0.5344 -0.9091  1.7769
 1318SOL     OW15415   3.084   4.581  10.530  0.4398 -0.2472  0.1292
 1318SOL    HW115416   3.045   4.545  10.451  0.3232  1.2716 -0.5189
 1318SOL    HW215417   3.150   4.515  10.552  0.4430 -0.2656  0.0629
 1319SOL     OW15418   2.817   3.706   5.223  0.0419  0.2918 -0.3980
 1319SOL    HW115419   2.761   3.738   5.293  1.1506  3.8587 -1.1169
 1319SOL    HW215420   2.882   3.674   5.286 -2.6590  0.0361  2.2366
 1320SOL     OW15421   2.575   3.018   3.403  0.0216 -0.0044  0.1405
 1320SOL    HW115422   2.575   3.015   3.499 -0.7278  0.8452  0.1662
 1320SOL    HW215423   2.483   2.993   3.393  0.6307 -1.8460 -0.9329
 1321SOL     OW15424   2.459   0.682   8.781  0.0671  0.0642 -0.0213
 1321SOL    HW115425   2.478   0.596   8.743 -0.3061  0.2652 -0.6795
 1321SOL    HW215426   2.478   0.658   8.871 -2.0557 -0.1859  0.3430
 1322SOL     OW15427   1.395   4.400   2.424  0.0893 -0.2866 -0.8831
 1322SOL    HW115428   1.304   4.371   2.417  0.5901 -1.5163 -2.2091
 1322SOL    HW215429   1.383   4.494   2.441  2.8281 -0.6965  3.1115
 1323SOL     OW15430   4.488   0.991   6.253 -0.3041 -0.3771 -0.3542
 1323SOL    HW115431   4.489   1.086   6.259  0.9419 -0.4860  1.1094
 1323SOL    HW215432   4.548   0.965   6.323  1.7035 -0.4150 -2.1213
 1324SOL     OW15433   1.849   0.245  14.529  0.2003 -0.1884 -0.2678
 1324SOL    HW115434   1.917   0.284  14.474  0.1000 -0.8378 -0.8592
 1324SOL    HW215435   1.867   0.293  14.609  1.0277 -1.1474  0.1149
 1325SOL     OW15436   2.203   1.706  10.655  0.1598  0.0150 -0.0929
 1325SOL    HW115437   2.212   1.665  10.741  0.7165 -0.0353 -0.1750
 1325SOL    HW215438   2.293   1.704  10.622 -0.1313 -0.2593 -0.8598
 1326SOL     OW15439   2.124   2.036  13.286 -0.1508  0.0149  0.6939
 1326SOL    HW115440   2.127   1.940  13.292 -0.7071 -0.0909 -0.7149
 1326SOL    HW215441   2.211   2.059  13.255 -0.3068 -0.8189 -0.3609
 1327SOL     OW15442   4.110   0.988  10.117  0.3612  0.4231 -0.0407
 1327SOL    HW115443   4.105   0.913  10.176  0.3264  1.4596  1.2794
 1327SOL    HW215444   4.022   1.021  10.135  0.9181  0.3675  2.8440
 1328SOL     OW15445   1.835   1.928   2.190  0.5242 -0.0297 -0.0726
 1328SOL    HW115446   1.808   1.897   2.277  0.8611 -0.6622 -0.1955
 1328SOL    HW215447   1.797   2.015   2.176 -0.9545 -0.3312  2.1253
 1329SOL     OW15448   2.023   3.354  16.080  0.6574 -0.3936 -0.0178
 1329SOL    HW115449   1.963   3.281  16.097  0.8651 -0.4568  0.4277
 1329SOL    HW215450   2.006   3.413  16.153  1.1533 -1.1924  0.7499
 1330SOL     OW15451   0.476   0.274  11.734 -0.1990 -0.2721  0.1421
 1330SOL    HW115452   0.555   0.264  11.681  0.3667 -0.4620  1.0175
 1330SOL    HW215453   0.454   0.182  11.753  0.8277 -0.4532  0.4688
 1331SOL     OW15454   2.212   4.678  12.750 -0.5843  0.2023  0.3102
 1331SOL    HW115455   2.282   4.657  12.811 -0.0626  2.0557  0.3392
 1331SOL    HW215456   2.259   0.033  12.723  0.1219 -0.5068 -0.5556
 1332SOL     OW15457   0.022   1.372   7.637 -0.2359 -0.0274 -0.0758
 1332SOL    HW115458   0.030   1.339   7.548  1.7039  0.6595 -0.1374
 1332SOL    HW215459   0.069   1.303   7.683 -3.1892 -1.4428  0.8777
 1333SOL     OW15460   4.279   0.381   0.309 -0.1195 -0.3830 -0.2458
 1333SOL    HW115461   4.338   0.446   0.347  0.0059 -0.8063  0.2844
 1333SOL    HW215462   4.190   0.404   0.337  0.3471 -1.8430  2.4947
 1334SOL     OW15463   2.588   4.321   8.958  0.5677  0.9361 -0.1933
 1334SOL    HW115464   2.661   4.357   8.907  0.6257  2.8644  1.2667
 1334SOL    HW215465   2.618   4.231   8.965 -0.0025  0.8494  1.0783
 1335SOL     OW15466   0.800   1.849   3.222  0.3021 -0.4747  0.4526
 1335SOL    HW115467   0.866   1.846   3.291 -0.1347  4.5334  1.0533
 1335SOL    HW215468   0.848   1.896   3.154 -0.8768 -1.1801 -0.8478
 1336SOL     OW15469   0.855   3.583  13.178 -0.2205 -0.2704  0.2562
 1336SOL    HW115470   0.951   3.578  13.174 -0.0910  1.8042  0.8171
 1336SOL    HW215471   0.824   3.492  13.176 -3.3721  0.8298 -1.2160
 1337SOL     OW15472   2.882   1.476  11.515  0.0445  0.1409 -0.5851
 1337SOL    HW115473   2.942   1.484  11.589 -1.8225 -1.8459  1.1278
 1337SOL    HW215474   2.867   1.381  11.509  0.6648 -0.1563  2.6846
 1338SOL     OW15475   2.808   1.828   8.886  0.2999 -0.1866 -0.5166
 1338SOL    HW115476   2.817   1.907   8.832 -0.3452 -1.4255 -2.4566
 1338SOL    HW215477   2.897   1.822   8.921  0.4591  2.2657 -0.4715
 1339SOL     OW15478   1.080   3.900   4.465  0.1976  0.5811 -0.2956
 1339SOL    HW115479   1.117   3.908   4.552  1.2467 -2.8256 -0.4566
 1339SOL    HW215480   0.990   3.927   4.484 -0.5986 -2.6527  0.5290
 1340SOL     OW15481   0.124   2.540   4.572 -0.0523 -0.0972 -0.1649
 1340SOL    HW115482   0.060   2.469   4.574  0.0133 -0.1847 -1.3366
 1340SOL    HW215483   0.115   2.580   4.658 -0.4690 -2.0756  0.7047
 1341SOL     OW15484   0.043   1.691   0.526  0.3561 -0.4848 -0.1463
 1341SOL    HW115485   0.000   1.614   0.488  0.3704 -1.0566  0.9961
 1341SOL    HW215486   4.707   1.728   0.591 -1.5116 -1.2468 -1.4262
 1342SOL     OW15487   3.296   4.050   1.055  0.3968  0.0827 -0.5321
 1342SOL    HW115488   3.230   4.120   1.047 -0.4593 -0.5640  1.0101
 1342SOL    HW215489   3.331   4.068   0.967  0.7531  3.6428  0.3460
 1343SOL     OW15490   1.556   1.304   7.833 -0.4300  0.3109 -0.3543
 1343SOL    HW115491   1.486   1.340   7.888 -0.4774  0.5536 -0.5710
 1343SOL    HW215492   1.614   1.377   7.808 -0.4908  0.5173  0.1031
 1344SOL     OW15493   1.688   4.397   6.454  0.2081  0.6386 -0.0211
 1344SOL    HW115494   1.643   4.477   6.479 -0.7223 -0.2051  0.9987
 1344SOL    HW215495   1.778   4.426   6.439  1.4385 -1.8241  2.7243
 1345SOL     OW15496   1.001   0.634   4.801  0.1053 -0.3166  0.5435
 1345SOL    HW115497   1.075   0.580   4.828 -3.0298 -3.3722  3.0462
 1345SOL    HW215498   1.030   0.720   4.829 -0.4743 -0.0281  0.2657
 1346SOL     OW15499   1.611   3.416  17.450 -0.9394 -0.2374  0.2370
 1346SOL    HW115500   1.646   3.427  17.362 -1.1532  1.7270  0.3971
 1346SOL    HW215501   1.554   3.492  17.463 -1.1837 -0.4867  0.6080
 1347SOL     OW15502   2.418   0.029   9.041 -0.1391 -0.4216 -0.0299
 1347SOL    HW115503   2.411   4.658   9.044  0.2731 -0.4760 -0.8932
 1347SOL    HW215504   2.445   0.046   8.951  0.2742 -2.3471 -0.2653
 1348SOL     OW15505   2.290   1.065  11.837  0.0220  0.0526  0.3686
 1348SOL    HW115506   2.327   1.021  11.913  0.8241 -1.1352 -0.6902
 1348SOL    HW215507   2.286   0.998  11.768 -1.5614  1.5942 -1.0160
 1349SOL     OW15508   2.879   4.586   2.972  0.8664 -0.1975 -0.0096
 1349SOL    HW115509   2.800   4.536   2.992  1.1936 -0.7023  0.0228
 1349SOL    HW215510   2.836   4.670   2.956  0.6849 -0.3828 -0.4695
 1350SOL     OW15511   2.461   1.401   4.452 -0.4162 -0.1586 -0.0239
 1350SOL    HW115512   2.489   1.318   4.413  1.3042 -0.6305  2.2174
 1350SOL    HW215513   2.366   1.396   4.443 -0.1181 -1.0311 -2.6377
 1351SOL     OW15514   2.216   2.299   5.021  0.1592  0.3289  0.4414
 1351SOL    HW115515   2.145   2.236   5.027  0.5539 -0.0497  1.1512
 1351SOL    HW215516   2.283   2.257   5.074 -0.3042 -0.0526  0.7244
 1352SOL     OW15517   2.541   2.543   9.201  0.1465 -0.4261 -0.6624
 1352SOL    HW115518   2.481   2.499   9.262  1.7726 -0.4547  0.8984
 1352SOL    HW215519   2.615   2.483   9.205  0.1715 -0.3420  0.2399
 1353SOL     OW15520   2.549   2.191   6.172  0.4751 -0.1709  0.0999
 1353SOL    HW115521   2.468   2.139   6.169 -0.4561  1.3436 -1.5999
 1353SOL    HW215522   2.600   2.154   6.100  1.0581 -0.0914  0.4798
 1354SOL     OW15523   1.951   1.617  11.717 -0.0528 -0.4933  0.0938
 1354SOL    HW115524   1.906   1.693  11.754  0.0512 -0.3344 -0.1031
 1354SOL    HW215525   1.876   1.580  11.671  0.8432 -1.0879 -0.8957
 1355SOL     OW15526   3.247   3.449   0.378 -0.2215  0.3449 -0.3256
 1355SOL    HW115527   3.325   3.419   0.331  1.5683  1.6325  1.7781
 1355SOL    HW215528   3.245   3.374   0.438 -0.0529 -0.4687 -1.3302
 1356SOL     OW15529   1.162   1.121   5.013  0.2672 -0.7069 -0.3292
 1356SOL    HW115530   1.070   1.147   5.006  1.3815  3.1834 -0.3383
 1356SOL    HW215531   1.167   1.037   4.968  0.0132 -1.1999  0.5733
 1357SOL     OW15532   4.209   4.601  10.880 -0.3880 -0.7406  0.5001
 1357SOL    HW115533   4.140   4.554  10.832 -1.2429 -0.8376  1.8143
 1357SOL    HW215534   4.267   4.624  10.808  0.4954 -0.6637  1.2418
 1358SOL     OW15535   0.265   0.356   1.519  0.5826  0.1346  0.1279
 1358SOL    HW115536   0.169   0.360   1.515  0.5966  0.4258  0.0472
 1358SOL    HW215537   0.276   0.288   1.452  0.6401 -0.9691  1.2529
 1359SOL     OW15538   2.310   1.716  17.377 -0.1155  0.1312 -0.0376
 1359SOL    HW115539   2.369   1.644  17.402  1.5981  1.6573  0.2693
 1359SOL    HW215540   2.368   1.774  17.328 -0.2404  1.4772  1.4188
 1360SOL     OW15541   2.190   2.800   9.285 -0.0460 -0.6976  0.5869
 1360SOL    HW115542   2.181   2.709   9.256 -2.1350  0.4471 -2.3219
 1360SOL    HW215543   2.181   2.788   9.380 -1.0681  0.4230  0.6262
 1361SOL     OW15544   4.579   1.594   2.405  0.1897 -0.2687 -0.1677
 1361SOL    HW115545   4.541   1.532   2.344  2.9205 -0.8893 -1.2299
 1361SOL    HW215546   4.501   1.616   2.456  0.6086 -0.9901  0.7813
 1362SOL     OW15547   0.954   2.948   7.400  0.6800  0.3199 -0.6727
 1362SOL    HW115548   1.004   2.870   7.427  1.4280  0.8830 -0.4330
 1362SOL    HW215549   0.905   2.966   7.480 -1.6137 -1.2568 -1.7433
 1363SOL     OW15550   2.790   3.219   2.555 -0.1406 -0.0236  0.2667
 1363SOL    HW115551   2.886   3.212   2.555 -0.3012 -2.3470  1.4213
 1363SOL    HW215552   2.776   3.210   2.460  1.2067 -0.0049  0.0639
 1364SOL     OW15553   2.864   2.730   5.862  0.0477  0.6058 -0.0968
 1364SOL    HW115554   2.822   2.816   5.863 -2.3419 -0.5833  1.2797
 1364SOL    HW215555   2.795   2.687   5.812 -1.4617  1.6113  1.0874
 1365SOL     OW15556   4.703   4.327   9.458  0.0493  0.0478 -0.1025
 1365SOL    HW115557   4.687   4.405   9.404 -1.0210  0.4856  0.8428
 1365SOL    HW215558   4.703   4.252   9.398  0.8814  1.7337 -2.2326
 1366SOL     OW15559   3.891   3.179   8.793 -0.6421  0.0899  0.3266
 1366SOL    HW115560   3.829   3.125   8.744  1.2197 -3.4338  1.8681
 1366SOL    HW215561   3.900   3.123   8.870  0.4114 -1.3150 -0.8230
 1367SOL     OW15562   4.519   3.038  16.025  0.1216  0.1446 -0.1971
 1367SOL    HW115563   4.584   2.973  15.997 -0.5789  0.7873 -3.3278
 1367SOL    HW215564   4.562   3.113  15.983  0.8466 -0.8524 -1.2434
 1368SOL     OW15565   0.141   4.620   3.441  0.1481 -0.3311  0.8822
 1368SOL    HW115566   0.130   4.690   3.376  0.1809 -0.2222  0.9955
 1368SOL    HW215567   0.063   4.636   3.494  0.5594  2.2406  0.6887
 1369SOL     OW15568   1.277   3.889   9.285  0.1908 -0.4728 -0.1187
 1369SOL    HW115569   1.292   3.866   9.376  4.0834 -0.0238 -0.6539
 1369SOL    HW215570   1.366   3.908   9.255  1.0638 -2.5724  1.1401
 1370SOL     OW15571   2.652   3.586   7.170  0.3486 -0.0601  0.4498
 1370SOL    HW115572   2.573   3.535   7.148 -1.8630  2.8669  1.6260
 1370SOL    HW215573   2.660   3.648   7.099 -0.3951 -0.3442  0.1139
 1371SOL     OW15574   4.660   2.288  11.655 -0.3220 -0.3508  0.2589
 1371SOL    HW115575   4.624   2.300  11.567  1.5644  3.2985  0.0249
 1371SOL    HW215576   4.638   2.195  11.663 -1.5389  0.0301  1.3687
 1372SOL     OW15577   0.559   1.545  17.455  0.1517  0.0048  0.2226
 1372SOL    HW115578   0.609   1.621  17.426  0.2173 -0.0073  0.3051
 1372SOL    HW215579   0.483   1.549  17.397 -0.3441  0.5885  0.9046
 1373SOL     OW15580   1.391   1.636   3.039 -0.5043  0.5808  0.3120
 1373SOL    HW115581   1.384   1.713   2.984  0.0748 -1.4645 -2.6042
 1373SOL    HW215582   1.421   1.566   2.981 -0.8101  0.4016  0.3717
 1374SOL     OW15583   3.603   0.109   7.296 -0.1588  0.0216  0.4060
 1374SOL    HW115584   3.633   0.198   7.276  0.7414 -1.0013 -2.7583
 1374SOL    HW215585   3.574   0.115   7.387  0.1523  0.6847  0.4636
 1375SOL     OW15586   1.111   2.201   8.738  0.9142  0.2875 -0.3541
 1375SOL    HW115587   1.204   2.178   8.742  0.3526 -2.1370 -1.5086
 1375SOL    HW215588   1.095   2.176   8.829  1.1650 -1.9537 -0.9210
 1376SOL     OW15589   3.984   1.467   9.253  0.5834  0.4293  0.0965
 1376SOL    HW115590   4.003   1.542   9.196  0.7577 -0.3224 -0.8285
 1376SOL    HW215591   4.055   1.404   9.237 -1.0528 -0.9040 -1.8027
 1377SOL     OW15592   0.515   3.482  12.434 -0.1738 -0.1210  0.5426
 1377SOL    HW115593   0.452   3.531  12.488 -0.4250 -0.2150  0.3310
 1377SOL    HW215594   0.538   3.548  12.370  2.4454 -1.0200  0.5594
 1378SOL     OW15595   1.906   0.384  14.238  0.4316 -0.3170 -0.1342
 1378SOL    HW115596   1.880   0.332  14.162  0.2356  0.2429 -0.4491
 1378SOL    HW215597   1.907   0.474  14.206  0.2367 -0.4091 -0.3913
 1379SOL     OW15598   3.381   0.606   9.396  0.0543  0.0665  0.8914
 1379SOL    HW115599   3.363   0.658   9.317  1.7928  0.0637  0.4927
 1379SOL    HW215600   3.310   0.544   9.411  0.2700 -0.5925 -0.7456
 1380SOL     OW15601   4.115   3.550  10.471  0.1582  0.3227 -0.5161
 1380SOL    HW115602   4.134   3.620  10.410 -0.7857  0.9838 -0.0575
 1380SOL    HW215603   4.179   3.484  10.444  2.2649  1.7650  0.9669
 1381SOL     OW15604   2.149   4.142  15.996 -0.1264  0.2022 -0.1103
 1381SOL    HW115605   2.151   4.047  15.985  1.1478  0.1012  0.9034
 1381SOL    HW215606   2.224   4.166  15.941 -1.0839  0.8980 -1.1039
 1382SOL     OW15607   0.402   4.531   2.897  0.2127  0.0732 -0.1418
 1382SOL    HW115608   0.415   4.568   2.810  0.4666  1.3557  0.4277
 1382SOL    HW215609   0.327   4.580   2.932  0.3046  0.3461 -0.3271
 1383SOL     OW15610   4.368   0.676   4.926  0.4266 -0.1326 -0.0939
 1383SOL    HW115611   4.383   0.761   4.968 -1.9714  0.9699 -1.4722
 1383SOL    HW215612   4.430   0.680   4.854  0.0829 -1.4250 -0.4561
 1384SOL     OW15613   2.089   0.407  14.448 -0.9009 -0.1412 -0.0102
 1384SOL    HW115614   2.172   0.445  14.421  0.5534 -3.6170 -0.3923
 1384SOL    HW215615   2.049   0.391  14.363 -2.0803 -3.3326  1.1427
 1385SOL     OW15616   2.723   1.150  12.734  0.2558 -0.1116  0.6235
 1385SOL    HW115617   2.658   1.081  12.740 -1.8847  1.4549 -4.3109
 1385SOL    HW215618   2.771   1.125  12.655 -0.4671 -0.7519  0.3856
 1386SOL     OW15619   1.746   0.224  12.042  0.0723  0.3179  0.1545
 1386SOL    HW115620   1.651   0.210  12.052  0.0046  1.2716  0.8590
 1386SOL    HW215621   1.747   0.212  11.947 -1.5861 -1.0182  0.2915
 1387SOL     OW15622   0.489   0.798   5.282  0.1796 -0.7310  0.1388
 1387SOL    HW115623   0.423   0.796   5.351 -1.8043  0.7675 -1.6896
 1387SOL    HW215624   0.503   0.709   5.249 -0.1768 -0.9901  0.6967
 1388SOL     OW15625   0.700   1.457  14.835  0.0968 -0.5737  0.1423
 1388SOL    HW115626   0.749   1.407  14.901  2.3654  0.6037 -0.6465
 1388SOL    HW215627   0.710   1.546  14.867  0.6594  0.3423 -2.6235
 1389SOL     OW15628   2.681   2.341   8.157  0.1177  0.5079  0.7016
 1389SOL    HW115629   2.609   2.404   8.149 -0.6239 -0.5602 -1.0710
 1389SOL    HW215630   2.759   2.384   8.123  0.8208 -0.1443  1.4892
 1390SOL     OW15631   4.487   3.527   6.161 -0.2466  0.2542  0.1304
 1390SOL    HW115632   4.504   3.433   6.166  1.4483  0.3705 -3.2139
 1390SOL    HW215633   4.577   3.560   6.162 -0.0873 -0.1327 -1.5358
 1391SOL     OW15634   0.072   1.925   6.171  0.0525  0.6729  0.2382
 1391SOL    HW115635   4.712   1.879   6.174 -0.5821  1.9111  1.2995
 1391SOL    HW215636   0.092   1.921   6.078  0.4677 -0.0442  0.3608
 1392SOL     OW15637   4.679   3.401   0.742  0.2131 -0.1802  0.2656
 1392SOL    HW115638   4.635   3.316   0.750  1.4486 -1.1150 -2.6754
 1392SOL    HW215639   4.679   3.414   0.647 -3.7877  0.0545  0.2967
 1393SOL     OW15640   2.049   4.287   3.940  0.2406  0.1977 -0.6194
 1393SOL    HW115641   2.074   4.347   4.010 -1.0182  2.8202 -2.4615
 1393SOL    HW215642   2.082   4.205   3.979  0.8431  0.5774 -0.3367
 1394SOL     OW15643   4.275   2.671   7.729 -0.2914 -0.1747 -0.3916
 1394SOL    HW115644   4.217   2.729   7.680 -0.7454 -0.8854 -0.6875
 1394SOL    HW215645   4.208   2.644   7.791 -0.8425  0.5889 -0.6583
 1395SOL     OW15646   1.083   4.710  12.324  0.3420  0.0970 -0.0911
 1395SOL    HW115647   1.100   0.055  12.388 -2.1090  0.3127  0.3154
 1395SOL    HW215648   1.076   0.036  12.243  0.7953  0.1880 -0.0768
 1396SOL     OW15649   1.513   4.659   9.237  0.3070 -0.3336 -0.0865
 1396SOL    HW115650   1.560   4.716   9.297  0.4147 -0.2275 -0.2709
 1396SOL    HW215651   1.446   4.721   9.208 -0.9741 -1.4440  0.5076
 1397SOL     OW15652   0.952   1.397   8.093  0.1191  0.7161 -0.1654
 1397SOL    HW115653   1.037   1.355   8.110 -0.3493 -0.1122  0.1622
 1397SOL    HW215654   0.969   1.420   8.002  2.3695  1.8063  0.5112
 1398SOL     OW15655   3.889   2.593  13.704 -0.1968  0.3159 -0.0002
 1398SOL    HW115656   3.962   2.611  13.645  1.1678 -0.6239  1.3794
 1398SOL    HW215657   3.904   2.501  13.726 -1.5573  0.3205  0.9467
 1399SOL     OW15658   0.799   3.258  10.329  0.1849  0.6952 -0.1940
 1399SOL    HW115659   0.859   3.288  10.398  1.8248 -0.7370 -1.0219
 1399SOL    HW215660   0.855   3.252  10.252 -0.9705  0.9627 -1.0518
 1400SOL     OW15661   2.096   1.519   2.750  0.3473 -0.7120  0.0781
 1400SOL    HW115662   2.191   1.514   2.736 -0.1736 -1.9961 -3.2069
 1400SOL    HW215663   2.066   1.609   2.741 -1.5643 -1.3087  0.4956
 1401SOL     OW15664   1.274   0.711   8.011 -0.4692  0.5132 -0.0272
 1401SOL    HW115665   1.288   0.630   8.060 -1.8664 -0.8637 -1.8909
 1401SOL    HW215666   1.179   0.711   8.002 -0.4431  2.7578 -0.3081
 1402SOL     OW15667   1.745   2.512   5.265  0.5012 -0.1356  0.0185
 1402SOL    HW115668   1.719   2.559   5.345  2.8342  1.2360 -0.0249
 1402SOL    HW215669   1.827   2.471   5.291  1.3400  1.6493  0.2013
 1403SOL     OW15670   1.995   1.614   7.858  0.3801 -0.4219 -0.2467
 1403SOL    HW115671   2.073   1.639   7.809  1.8872 -0.1454  2.3033
 1403SOL    HW215672   2.010   1.674   7.932  1.6858 -1.8776  0.6702
 1404SOL     OW15673   3.166   2.286  10.802 -0.2938 -0.5959  0.1803
 1404SOL    HW115674   3.193   2.282  10.710 -0.6926  1.2034 -0.0291
 1404SOL    HW215675   3.075   2.257  10.794 -0.3340 -0.3839 -0.1920
 1405SOL     OW15676   0.707   0.304   1.416  0.3575 -0.3967 -0.0137
 1405SOL    HW115677   0.798   0.322   1.391  0.7022 -1.7540  0.2923
 1405SOL    HW215678   0.707   0.322   1.510  1.4473 -0.4585 -0.0007
 1406SOL     OW15679   3.051   3.090   9.157 -0.0628 -0.2082 -0.1727
 1406SOL    HW115680   3.011   3.004   9.172  0.9633 -0.3084  1.8984
 1406SOL    HW215681   2.980   3.127   9.104  1.5796 -0.5265 -2.5855
 1407SOL     OW15682   3.100   0.849   4.544 -0.1455 -0.4453  0.0215
 1407SOL    HW115683   3.072   0.799   4.467  0.9333 -2.3450  0.8647
 1407SOL    HW215684   3.194   0.833   4.540 -0.1812 -0.6974  0.2267
 1408SOL     OW15685   1.593   4.241   3.371 -0.5789  0.1596 -0.1921
 1408SOL    HW115686   1.626   4.175   3.310 -1.3037 -1.1307  0.7953
 1408SOL    HW215687   1.501   4.217   3.358 -0.7516  0.9201 -0.3589
 1409SOL     OW15688   3.992   3.598   2.831 -0.0626  0.3822 -0.1975
 1409SOL    HW115689   4.085   3.617   2.816  0.2912 -1.1102  0.1240
 1409SOL    HW215690   3.983   3.549   2.750  0.7893 -0.3925  0.1692
 1410SOL     OW15691   3.247   3.521   0.822 -0.2754 -0.4432  0.4253
 1410SOL    HW115692   3.220   3.571   0.745  0.7704  1.3157  1.2023
 1410SOL    HW215693   3.333   3.560   0.833 -0.1215 -1.2625  2.1490
 1411SOL     OW15694   1.164   0.068   4.640 -0.3009 -0.6101 -0.1682
 1411SOL    HW115695   1.113   4.719   4.604 -2.4008  1.5554 -1.6078
 1411SOL    HW215696   1.103   0.140   4.626  0.2518 -0.5194 -2.2135
 1412SOL     OW15697   3.525   2.575   3.673 -0.5613  0.3291 -0.0093
 1412SOL    HW115698   3.482   2.551   3.591 -0.7011 -0.3227  0.2531
 1412SOL    HW215699   3.442   2.590   3.720 -0.2832  1.3417  0.1613
 1413SOL     OW15700   0.147   4.168   6.490  0.3449 -0.8863  0.2118
 1413SOL    HW115701   0.200   4.188   6.413  0.5179 -0.9724  0.3086
 1413SOL    HW215702   0.055   4.181   6.468  0.8429  1.5723 -0.4676
 1414SOL     OW15703   3.805   0.904   6.332 -0.5261  0.9723  0.1011
 1414SOL    HW115704   3.775   0.959   6.405  0.2872  0.1424  1.0447
 1414SOL    HW215705   3.723   0.863   6.304  0.0018  0.6796 -1.0026
 1415SOL     OW15706   1.354   0.843   4.583  0.0641 -0.5709 -0.2197
 1415SOL    HW115707   1.442   0.834   4.618  0.4062  4.1097  0.1431
 1415SOL    HW215708   1.324   0.753   4.598 -1.1665 -0.1320 -0.0422
 1416SOL     OW15709   4.640   0.619   4.346  0.1825  0.0212 -0.2837
 1416SOL    HW115710   4.578   0.586   4.281  0.7486  0.4291 -1.0233
 1416SOL    HW215711   4.590   0.599   4.425 -0.1461  1.9916 -0.0052
 1417SOL     OW15712   0.639   3.014  17.103 -0.1254 -0.0908 -0.0982
 1417SOL    HW115713   0.721   3.003  17.054  0.5764  2.8588  0.4039
 1417SOL    HW215714   0.568   2.969  17.057  0.7858 -0.7758 -0.8391
 1418SOL     OW15715   4.336   2.905  15.811  0.3221  0.1814  0.8055
 1418SOL    HW115716   4.395   2.851  15.758  0.3038 -0.0094  0.9801
 1418SOL    HW215717   4.392   2.982  15.821  0.1619  0.3963  0.0286
 1419SOL     OW15718   1.325   3.477   6.595  0.3429 -0.0706 -0.5751
 1419SOL    HW115719   1.245   3.428   6.611  0.4918 -0.9254 -2.4679
 1419SOL    HW215720   1.372   3.463   6.677  0.6531  1.7632 -0.4274
 1420SOL     OW15721   1.476   0.389  16.831  0.0379  0.2596 -0.3070
 1420SOL    HW115722   1.393   0.343  16.842 -0.4381  1.2970  0.4487
 1420SOL    HW215723   1.459   0.410  16.739 -0.6232 -0.7030 -0.3986
 1421SOL     OW15724   3.349   2.731  15.790  0.5351 -0.3211 -0.3705
 1421SOL    HW115725   3.415   2.676  15.749  0.5885 -1.6018  1.4394
 1421SOL    HW215726   3.383   2.719  15.879  1.9144 -0.7200 -0.9675
 1422SOL     OW15727   2.970   4.240   6.096  0.0907 -0.4997  0.0282
 1422SOL    HW115728   2.902   4.211   6.035  0.9436 -0.5204 -0.9107
 1422SOL    HW215729   2.954   4.332   6.118  0.8194 -0.2866 -0.3270
 1423SOL     OW15730   3.267   4.349   9.438 -0.0546 -0.2953  0.1733
 1423SOL    HW115731   3.336   4.402   9.479  0.0036  1.0013 -1.5828
 1423SOL    HW215732   3.227   4.428   9.401  0.7305 -0.3565 -0.7918
 1424SOL     OW15733   4.242   1.459   7.763  0.3157 -0.1790 -0.1575
 1424SOL    HW115734   4.225   1.463   7.669  3.0482 -0.5405 -0.6532
 1424SOL    HW215735   4.336   1.445   7.760  0.1900 -1.3021  1.1817
 1425SOL     OW15736   4.576   1.611  15.021  0.3420 -0.0652 -0.0122
 1425SOL    HW115737   4.599   1.694  14.978 -2.9662  0.7944 -0.1259
 1425SOL    HW215738   4.616   1.536  14.977 -0.4623  0.1185 -1.0344
 1426SOL     OW15739   4.279   1.620   6.123 -0.0851  0.7536 -0.3588
 1426SOL    HW115740   4.357   1.578   6.087 -0.2149 -0.6034  0.9300
 1426SOL    HW215741   4.245   1.677   6.055 -0.4654  0.0214 -0.7798
 1427SOL     OW15742   2.172   1.044   7.244  0.0023  0.1230 -0.6013
 1427SOL    HW115743   2.254   1.000   7.267  0.8641  3.2687  2.3959
 1427SOL    HW215744   2.112   1.020   7.315  1.0825  0.4039  0.3944
 1428SOL     OW15745   4.534   4.722   7.013 -0.3821 -0.0057 -0.0794
 1428SOL    HW115746   4.494   0.014   7.098 -2.4897  2.3466 -1.5424
 1428SOL    HW215747   4.546   0.089   6.988  3.3426 -0.2181  0.8055
 1429SOL     OW15748   0.928   0.007   4.904  0.2737 -0.2667  0.9634
 1429SOL    HW115749   0.870   0.020   4.979  0.4237  0.1225  1.0107
 1429SOL    HW215750   0.875   0.041   4.832  0.9952 -0.9446  0.1112
 1430SOL     OW15751   0.545   1.757   6.246 -0.0608 -0.4107 -0.1055
 1430SOL    HW115752   0.466   1.811   6.234 -0.7633 -0.9228  2.1517
 1430SOL    HW215753   0.589   1.764   6.161 -1.4039  1.7130 -0.6264
 1431SOL     OW15754   2.639   0.300   8.369 -0.1741 -0.3047 -0.1042
 1431SOL    HW115755   2.575   0.229   8.363  1.1240 -1.2599 -2.4102
 1431SOL    HW215756   2.683   0.296   8.284 -1.1200 -0.1721 -0.6039
 1432SOL     OW15757   2.148   0.930  10.647  0.1489 -0.2156 -0.3308
 1432SOL    HW115758   2.153   0.856  10.707 -2.3454  0.2936  0.4804
 1432SOL    HW215759   2.118   0.879  10.572  1.7515 -2.3370  0.4814
 1433SOL     OW15760   4.102   3.679   8.714  0.3460 -0.2096 -0.3010
 1433SOL    HW115761   4.074   3.677   8.806  2.6537  1.4499  0.4544
 1433SOL    HW215762   4.075   3.592   8.685 -2.3288 -0.3613  2.5879
 1434SOL     OW15763   1.415   2.368   8.968  0.0249 -0.2720 -0.0909
 1434SOL    HW115764   1.406   2.312   8.891  0.9102  1.3705 -1.4142
 1434SOL    HW215765   1.337   2.419   8.944 -1.7924 -2.2957  1.5992
 1435SOL     OW15766   0.942   4.598   8.798 -0.4364 -0.2748 -0.2401
 1435SOL    HW115767   1.008   4.575   8.863 -2.0521 -1.6596  0.8825
 1435SOL    HW215768   0.899   4.513   8.788 -0.2185 -0.2911 -1.0902
 1436SOL     OW15769   1.314   2.121   5.277 -0.3434 -0.1753  0.1551
 1436SOL    HW115770   1.390   2.176   5.256 -0.8767  0.6876  0.4932
 1436SOL    HW215771   1.308   2.052   5.211  1.7908 -0.1331 -0.0976
 1437SOL     OW15772   1.801   2.743   9.497  0.1821  0.4818 -0.3863
 1437SOL    HW115773   1.857   2.666   9.481 -1.7396 -1.5347  2.5299
 1437SOL    HW215774   1.835   2.757   9.585  0.7364 -1.5149 -0.2766
 1438SOL     OW15775   1.394   0.582   8.713 -0.4027  0.0123  0.5998
 1438SOL    HW115776   1.379   0.632   8.793 -0.0649  0.3019  0.4800
 1438SOL    HW215777   1.356   0.498   8.738 -1.0527 -0.2093 -1.0995
 1439SOL     OW15778   1.831   1.469   6.396  0.1071 -0.1672 -0.0749
 1439SOL    HW115779   1.834   1.515   6.479 -2.1278 -1.7192  0.8562
 1439SOL    HW215780   1.736   1.468   6.385  0.1072 -1.7289 -0.0394
 1440SOL     OW15781   0.117   1.206   6.068 -0.4567 -0.4404 -0.4672
 1440SOL    HW115782   0.105   1.301   6.073 -0.2276 -0.4823  0.9586
 1440SOL    HW215783   0.087   1.196   5.978  0.6550 -3.9682 -0.4539
 1441SOL     OW15784   1.070   1.762   1.771 -0.1712 -0.2054 -0.0203
 1441SOL    HW115785   1.142   1.754   1.709 -0.3321 -0.4945 -0.1718
 1441SOL    HW215786   1.004   1.796   1.710  0.2468  0.1039 -0.3002
 1442SOL     OW15787   2.040   3.700   7.758 -0.0396 -0.5824  0.0910
 1442SOL    HW115788   2.073   3.658   7.678  0.1421 -0.8871  0.3311
 1442SOL    HW215789   2.016   3.787   7.725  0.6351  0.5429  2.6039
 1443SOL     OW15790   1.081   4.539   0.383  0.0658 -0.6845 -0.4593
 1443SOL    HW115791   0.992   4.539   0.349 -0.0327  1.6466 -0.1970
 1443SOL    HW215792   1.120   4.476   0.323 -1.1478  0.3007 -2.2874
 1444SOL     OW15793   4.601   2.978   3.540  0.5597 -0.2650 -0.5132
 1444SOL    HW115794   4.636   2.905   3.590  0.7119  1.7027  2.2620
 1444SOL    HW215795   4.518   2.936   3.516  2.0667 -1.8392 -2.8924
 1445SOL     OW15796   1.096   2.525   3.388  0.6464 -0.4469  0.0679
 1445SOL    HW115797   1.129   2.612   3.409  0.8303 -0.6097  0.4541
 1445SOL    HW215798   1.033   2.531   3.315 -1.1582 -2.2733  1.4728
 1446SOL     OW15799   3.802   2.811  13.176 -0.1567  0.4485 -0.1655
 1446SOL    HW115800   3.831   2.897  13.145 -0.1370  0.8569  1.0016
 1446SOL    HW215801   3.782   2.771  13.091 -1.3344 -0.5464  0.5741
 1447SOL     OW15802   1.984   0.565   8.498  0.3628  0.0159 -0.2003
 1447SOL    HW115803   2.029   0.608   8.571  2.7432  0.5179 -1.9931
 1447SOL    HW215804   2.056   0.583   8.438 -0.6953  0.5942 -1.2908
 1448SOL     OW15805   0.495   1.349  15.941  0.5387 -0.4739 -0.1142
 1448SOL    HW115806   0.527   1.440  15.936  0.6079 -0.2867  3.9454
 1448SOL    HW215807   0.482   1.338  16.035  0.3425 -0.1704 -0.1033
 1449SOL     OW15808   0.760   0.542   7.934 -0.1397 -0.0409 -0.1099
 1449SOL    HW115809   0.738   0.634   7.920  2.6212  0.6127 -0.1644
 1449SOL    HW215810   0.762   0.509   7.844 -0.2569  2.4263 -1.0022
 1450SOL     OW15811   2.647   4.326   3.788  0.3676  0.2795  0.0878
 1450SOL    HW115812   2.719   4.264   3.785 -1.5406 -1.8901 -0.7583
 1450SOL    HW215813   2.667   4.352   3.878  0.8104  1.5959 -0.3886
 1451SOL     OW15814   0.907   3.202   4.186  0.1080  0.4996  0.2228
 1451SOL    HW115815   0.813   3.193   4.204  0.0756  0.3178 -0.0458
 1451SOL    HW215816   0.925   3.109   4.177 -1.9956  0.1436 -0.3586
 1452SOL     OW15817   0.381   0.585   8.901 -0.3162  0.4573 -0.5711
 1452SOL    HW115818   0.382   0.491   8.915  0.7597  0.6055  0.3665
 1452SOL    HW215819   0.432   0.606   8.979  1.6126  0.0119 -1.7061
 1453SOL     OW15820   1.515   0.153  15.018 -0.4571 -0.4081 -0.5876
 1453SOL    HW115821   1.583   0.108  15.068  0.4816  1.1568 -0.4572
 1453SOL    HW215822   1.563   0.193  14.945 -3.2653  0.7244 -1.8248
 1454SOL     OW15823   3.308   2.268   7.480 -0.3209 -0.2645 -0.4248
 1454SOL    HW115824   3.401   2.272   7.454  0.1537  1.6138  1.6338
 1454SOL    HW215825   3.290   2.351   7.523  0.6192  0.7245 -1.9307
 1455SOL     OW15826   2.006   2.301   0.647  0.3007 -0.2401  0.3453
 1455SOL    HW115827   1.921   2.337   0.674  0.0964 -1.1181  0.9052
 1455SOL    HW215828   1.984   2.250   0.570  2.0525 -0.2435 -0.1506
 1456SOL     OW15829   2.316   0.922   7.665  0.6582  0.3291  0.4020
 1456SOL    HW115830   2.252   0.958   7.604 -0.7114 -1.1325  0.9905
 1456SOL    HW215831   2.287   0.831   7.675 -0.7389  0.5253 -2.0074
 1457SOL     OW15832   0.418   0.979  17.063 -0.1140 -0.1932 -0.3919
 1457SOL    HW115833   0.383   0.950  17.147 -0.3936  1.0316 -0.0746
 1457SOL    HW215834   0.406   0.905  17.004 -0.0340 -1.2346  0.9148
 1458SOL     OW15835   2.371   0.343   0.525 -0.0095 -0.3953  0.1094
 1458SOL    HW115836   2.287   0.306   0.551 -0.2555  0.4411  0.4948
 1458SOL    HW215837   2.352   0.342   0.431 -1.9695  0.0899  0.4938
 1459SOL     OW15838   2.231   3.219   3.892 -0.7983  0.1270  0.8130
 1459SOL    HW115839   2.278   3.282   3.838 -0.7131 -0.2336  0.4735
 1459SOL    HW215840   2.188   3.283   3.949 -1.6550  1.0679 -0.9218
 1460SOL     OW15841   0.939   3.229   6.229  1.0310 -0.1422  0.5133
 1460SOL    HW115842   0.846   3.250   6.229  0.9206 -0.6331 -0.1667
 1460SOL    HW215843   0.958   3.189   6.314 -0.8355  0.0189  1.0144
 1461SOL     OW15844   4.615   2.516  17.346 -0.3163 -0.1868  0.3172
 1461SOL    HW115845   4.521   2.512  17.331 -0.4790 -0.3058  1.3091
 1461SOL    HW215846   4.623   2.446  17.411 -0.3194  0.4526  1.0077
 1462SOL     OW15847   1.524   0.343   4.476  0.2980  0.2442 -0.6592
 1462SOL    HW115848   1.607   0.372   4.513 -1.6848  2.2081  2.2223
 1462SOL    HW215849   1.512   0.262   4.524  0.4485  0.3591 -0.4320
 1463SOL     OW15850   4.497   0.393   2.593 -0.1990 -0.1430 -0.3360
 1463SOL    HW115851   4.432   0.458   2.621  0.5917 -0.1241  1.4936
 1463SOL    HW215852   4.547   0.375   2.673 -0.4413 -0.6115 -0.2952
 1464SOL     OW15853   0.413   3.518   2.245 -0.3971  0.1529 -0.0370
 1464SOL    HW115854   0.363   3.437   2.259  2.0759 -1.0121  2.2144
 1464SOL    HW215855   0.367   3.568   2.313 -1.3002  1.0611 -1.3317
 1465SOL     OW15856   4.516   0.889  14.228 -0.0525  0.1108 -0.7134
 1465SOL    HW115857   4.529   0.976  14.188  2.7288  1.5581  3.3046
 1465SOL    HW215858   4.564   0.832  14.168 -2.7446 -2.9028  0.0017
 1466SOL     OW15859   1.275   3.346  12.242 -0.4803  0.2764 -0.6820
 1466SOL    HW115860   1.277   3.316  12.333 -2.6321  0.0354 -0.7225
 1466SOL    HW215861   1.180   3.344  12.233 -0.5319 -1.3198  0.4528
 1467SOL     OW15862   4.574   0.212   0.140 -0.3899  0.4364 -0.2223
 1467SOL    HW115863   4.645   0.257   0.186 -0.2428  0.6402 -0.6509
 1467SOL    HW215864   4.617   0.196   0.057 -0.3615 -0.6523 -0.0063
 1468SOL     OW15865   0.582   2.184   1.111  0.6923  0.5226  0.3664
 1468SOL    HW115866   0.667   2.156   1.078  0.3466  0.2656 -0.3133
 1468SOL    HW215867   0.520   2.112   1.098 -0.6889  1.9968 -1.2524
 1469SOL     OW15868   0.639   3.691   5.434  0.0414  0.0456 -0.3655
 1469SOL    HW115869   0.546   3.671   5.445  0.0566  0.1499 -0.0394
 1469SOL    HW215870   0.644   3.665   5.342  2.8914  0.4131 -0.3012
 1470SOL     OW15871   1.964   1.613   4.579  0.0276  0.3475 -0.3445
 1470SOL    HW115872   2.053   1.644   4.587  0.4864 -0.6119 -1.6730
 1470SOL    HW215873   1.932   1.630   4.667 -1.7002  1.0375 -1.1027
 1471SOL     OW15874   4.246   0.159   9.083  0.4590  0.4824  0.6429
 1471SOL    HW115875   4.293   0.164   9.000  3.7267 -0.7588  2.4246
 1471SOL    HW215876   4.215   0.246   9.107 -0.1633  0.7076 -0.9761
 1472SOL     OW15877   3.904   0.541  15.142  0.2026  0.0790  0.6127
 1472SOL    HW115878   3.997   0.530  15.164  0.2774  1.2191  0.8817
 1472SOL    HW215879   3.867   0.547  15.230 -0.6504  0.6540  0.2144
 1473SOL     OW15880   4.105   1.621   8.157 -0.2355 -0.8549  0.1638
 1473SOL    HW115881   4.072   1.540   8.197  1.2632 -2.5930 -2.0675
 1473SOL    HW215882   4.190   1.581   8.140  0.2002  0.0953  0.1117
 1474SOL     OW15883   0.103   3.323   3.853 -0.0215 -0.0945  0.3880
 1474SOL    HW115884   0.106   3.418   3.844 -1.3193 -0.0435  0.5690
 1474SOL    HW215885   0.024   3.303   3.803  1.0670 -0.0841 -1.3473
 1475SOL     OW15886   3.218   1.219   4.760  0.0475 -0.5564 -0.0426
 1475SOL    HW115887   3.156   1.146   4.767 -1.8930  0.6607 -5.0639
 1475SOL    HW215888   3.256   1.209   4.673  1.1566 -2.5131  0.6720
 1476SOL     OW15889   3.233   2.546  11.815  0.4573  0.9016  0.2258
 1476SOL    HW115890   3.213   2.458  11.784  1.2489  0.9273 -0.3634
 1476SOL    HW215891   3.304   2.578  11.759 -1.6673  2.0546 -1.7894
 1477SOL     OW15892   3.985   3.743   3.860 -0.5076  0.2793  0.2699
 1477SOL    HW115893   3.935   3.723   3.781  1.0445  2.9295 -1.4080
 1477SOL    HW215894   4.068   3.769   3.821 -0.1986  2.2247  2.2359
 1478SOL     OW15895   3.864   0.779   2.811  0.2450 -0.0325 -0.1992
 1478SOL    HW115896   3.790   0.794   2.869 -0.3517 -0.5671 -0.8151
 1478SOL    HW215897   3.834   0.691   2.784  1.7616 -0.5446 -0.2133
 1479SOL     OW15898   2.786   3.432   3.787  0.0898  0.3090  0.4206
 1479SOL    HW115899   2.832   3.402   3.865 -0.6362 -0.6250  0.5007
 1479SOL    HW215900   2.719   3.485   3.829  0.7432  1.1481  0.3948
 1480SOL     OW15901   3.511   2.195  11.160  0.3851  0.0234 -0.3251
 1480SOL    HW115902   3.438   2.155  11.207  1.1804 -0.8341  0.1766
 1480SOL    HW215903   3.478   2.197  11.071  0.5851 -0.6947 -0.4150
 1481SOL     OW15904   1.287   1.942   8.185 -0.1915 -0.0189 -0.6303
 1481SOL    HW115905   1.248   2.030   8.180 -1.2034 -0.4091  0.3860
 1481SOL    HW215906   1.301   1.925   8.278  0.3875  2.3286 -0.2684
 1482SOL     OW15907   2.590   0.435  12.940 -0.5092  0.0830  0.3823
 1482SOL    HW115908   2.570   0.347  12.971  1.4978 -0.1825  0.8901
 1482SOL    HW215909   2.579   0.423  12.846  1.4333 -1.9037  0.4179
 1483SOL     OW15910   2.775   2.698   4.754  0.0634  0.4101  0.7961
 1483SOL    HW115911   2.691   2.651   4.747  0.6096 -0.2649 -1.1560
 1483SOL    HW215912   2.787   2.699   4.659  0.4199 -1.6648  0.8280
 1484SOL     OW15913   3.995   1.357  11.123  0.1717  0.0127  0.4564
 1484SOL    HW115914   4.007   1.452  11.129  0.7397 -0.1161  1.4840
 1484SOL    HW215915   3.931   1.354  11.052 -0.9216  1.4427  1.3710
 1485SOL     OW15916   0.888   3.783   4.764  0.0560  0.3137 -0.0627
 1485SOL    HW115917   0.960   3.841   4.739 -1.5311  2.5230  0.4716
 1485SOL    HW215918   0.889   3.778   4.860 -1.0009 -1.3501 -0.1308
 1486SOL     OW15919   1.020   0.829  13.822  0.4648 -0.3543 -0.0915
 1486SOL    HW115920   1.068   0.909  13.845  1.2236 -0.9341  0.3241
 1486SOL    HW215921   1.057   0.802  13.738  1.2602 -1.9586  0.7652
 1487SOL     OW15922   0.520   2.457   1.071  0.3430 -0.0025 -0.6838
 1487SOL    HW115923   0.474   2.429   0.992 -1.0950 -1.1590  0.5637
 1487SOL    HW215924   0.532   2.373   1.116  0.6015 -0.8019 -2.2582
 1488SOL     OW15925   2.886   2.558  17.052  0.3600  0.4636  0.4528
 1488SOL    HW115926   2.938   2.539  17.130 -0.7567  0.0953  1.0986
 1488SOL    HW215927   2.798   2.551  17.087  0.7540  0.6631  1.4829
 1489SOL     OW15928   1.378   1.973   3.156  0.0190  0.3009 -0.3682
 1489SOL    HW115929   1.388   1.958   3.062 -0.3499 -0.0973 -0.3410
 1489SOL    HW215930   1.317   1.904   3.182 -1.0793  0.6470 -2.0769
 1490SOL     OW15931   2.759   2.364   8.421 -0.4449 -0.0371 -0.2092
 1490SOL    HW115932   2.779   2.361   8.328  0.3032 -4.1641  0.1181
 1490SOL    HW215933   2.798   2.445   8.455  0.9656 -1.0152  0.4906
 1491SOL     OW15934   3.197   0.193   1.253 -0.7731 -0.5505  0.4065
 1491SOL    HW115935   3.174   0.101   1.266 -3.2096  0.0944  0.7047
 1491SOL    HW215936   3.113   0.232   1.278 -0.8855  0.8232 -2.0551
 1492SOL     OW15937   2.555   0.436   8.637 -0.2047  0.2978  0.1908
 1492SOL    HW115938   2.468   0.399   8.651 -1.7530  3.3420 -1.4806
 1492SOL    HW215939   2.583   0.414   8.548 -0.1794  2.0910 -0.2540
 1493SOL     OW15940   1.457   0.624   7.372 -0.5235 -0.3944 -0.1467
 1493SOL    HW115941   1.427   0.535   7.386  0.7220 -0.4870  1.9828
 1493SOL    HW215942   1.547   0.609   7.345  0.4733  0.7518  2.4572
 1494SOL     OW15943   1.137   4.350   2.474 -0.5253  0.4820 -0.8821
 1494SOL    HW115944   1.051   4.364   2.435 -0.5763 -0.3902 -1.0657
 1494SOL    HW215945   1.122   4.399   2.555  1.7325  1.2754 -0.9277
 1495SOL     OW15946   4.175   4.145   3.217  0.4341 -0.0382  0.2118
 1495SOL    HW115947   4.155   4.082   3.287  0.8553  1.1179  1.3907
 1495SOL    HW215948   4.268   4.128   3.199  0.6059 -0.0784  1.1096
 1496SOL     OW15949   1.825   4.452   8.321  0.0726 -0.1717 -0.2935
 1496SOL    HW115950   1.869   4.506   8.255 -2.1873  0.2173 -1.4939
 1496SOL    HW215951   1.887   4.382   8.342 -1.0564 -1.7280 -2.0956
 1497SOL     OW15952   4.173   0.865   5.125  0.1097 -0.2682  0.0138
 1497SOL    HW115953   4.087   0.877   5.087  1.0446  0.5345 -1.8495
 1497SOL    HW215954   4.187   0.771   5.141  4.1010  0.1718 -0.8441
 1498SOL     OW15955   3.739   3.888  16.529  0.2109 -0.2651  0.4043
 1498SOL    HW115956   3.667   3.862  16.587  0.4098 -2.6880 -0.4545
 1498SOL    HW215957   3.815   3.867  16.583 -1.1566 -1.2017  1.9685
 1499SOL     OW15958   3.835   1.696   4.376 -0.6290 -0.1435 -0.0596
 1499SOL    HW115959   3.863   1.771   4.324  0.2530 -0.3456  0.1118
 1499SOL    HW215960   3.851   1.628   4.310  0.2748 -0.7017  0.7297
 1500SOL     OW15961   1.096   3.060  13.662  0.4202 -0.9811 -0.4609
 1500SOL    HW115962   1.096   3.080  13.568  2.8701  1.6261  0.1129
 1500SOL    HW215963   1.189   3.075  13.680  0.1540  1.6639 -1.2747
 1501SOL     OW15964   3.890   3.752   4.123 -0.0168 -0.2612 -0.5144
 1501SOL    HW115965   3.944   3.828   4.146  0.0584 -0.0101 -1.5518
 1501SOL    HW215966   3.914   3.749   4.031  1.1326 -1.3906 -0.1822
 1502SOL     OW15967   2.877   1.057   6.128  0.0977 -0.2393 -0.0390
 1502SOL    HW115968   2.872   1.148   6.098  0.4969 -0.7841 -1.7929
 1502SOL    HW215969   2.970   1.042   6.147  0.5310 -2.7877 -4.0890
 1503SOL     OW15970   4.096   1.810   9.886  0.5156  0.3476  0.3611
 1503SOL    HW115971   4.036   1.811   9.960 -0.7316 -0.0349 -0.6476
 1503SOL    HW215972   4.113   1.904   9.873  2.0308  0.4013  2.7798
 1504SOL     OW15973   4.580   0.660   6.019 -0.1096 -0.1674 -0.2044
 1504SOL    HW115974   4.598   0.719   5.946  0.2492  2.0835  1.7121
 1504SOL    HW215975   4.610   0.581   5.975 -1.0583 -0.6853  0.0748
 1505SOL     OW15976   0.340   1.403   7.310  0.1089  0.2639 -0.4474
 1505SOL    HW115977   0.310   1.347   7.238  0.7683  0.7011 -1.0668
 1505SOL    HW215978   0.399   1.454   7.255 -1.2549  0.9597 -1.2212
 1506SOL     OW15979   2.714   0.583   1.664 -0.1815  0.6955 -0.4527
 1506SOL    HW115980   2.728   0.507   1.607 -3.5165 -0.1082 -0.1555
 1506SOL    HW215981   2.636   0.623   1.625  0.0818 -1.2737 -3.0064
 1507SOL     OW15982   4.384   3.553   8.743 -0.1227  0.9183  0.2619
 1507SOL    HW115983   4.330   3.500   8.801 -1.8552 -0.5544 -2.7113
 1507SOL    HW215984   4.314   3.612   8.715  0.4274  0.2102 -2.6517
 1508SOL     OW15985   4.130   0.887   1.027 -0.0019  0.0575 -0.1656
 1508SOL    HW115986   4.202   0.906   1.088 -0.2147  0.7584 -0.1299
 1508SOL    HW215987   4.061   0.921   1.084  0.1781 -1.3812  0.8961
 1509SOL     OW15988   0.037   3.578   5.459 -0.1192  1.0329 -0.1783
 1509SOL    HW115989   0.032   3.595   5.553  0.9171 -0.8260  0.2167
 1509SOL    HW215990   0.059   3.658   5.411 -0.3107  0.9913 -0.3351
 1510SOL     OW15991   3.773   4.052   2.354  0.2314 -0.2416  0.0457
 1510SOL    HW115992   3.719   4.077   2.279  0.9503 -0.9752 -0.7170
 1510SOL    HW215993   3.830   4.129   2.359 -0.6766  0.4664 -0.6371
 1511SOL     OW15994   0.390   3.584   6.998 -0.0869 -0.4175  0.2167
 1511SOL    HW115995   0.476   3.585   7.039  1.1465  1.0897 -2.3544
 1511SOL    HW215996   0.392   3.503   6.948  0.3677 -1.0346  1.2275
 1512SOL     OW15997   4.557   2.705  13.835  0.1942 -0.7300 -0.3515
 1512SOL    HW115998   4.484   2.644  13.845 -0.1935 -0.1899  0.1411
 1512SOL    HW215999   4.548   2.724  13.741  1.5100  0.8273 -0.1695
 1513SOL     OW16000   3.375   4.249   3.542 -0.3731  0.0611 -0.4283
 1513SOL    HW116001   3.292   4.202   3.534 -1.1784  0.9618  2.4480
 1513SOL    HW216002   3.430   4.210   3.611 -1.6557 -0.8125  0.1077
 1514SOL     OW16003   2.141   0.359   5.425 -0.1799  0.1324  0.5131
 1514SOL    HW116004   2.233   0.336   5.439  0.2229  1.9011  0.7452
 1514SOL    HW216005   2.143   0.364   5.329  0.0256  0.3720  0.5324
 1515SOL     OW16006   4.666   2.646  17.102 -0.0558  0.0344 -0.4005
 1515SOL    HW116007   4.650   2.576  17.039  2.0874 -1.3589  0.6468
 1515SOL    HW216008   4.649   2.596  17.181  0.8511 -0.0078 -0.2337
 1516SOL     OW16009   3.565   1.791  14.407 -0.4949  0.1826 -0.3277
 1516SOL    HW116010   3.531   1.732  14.339  0.5751  1.4488 -1.9649
 1516SOL    HW216011   3.508   1.867  14.399 -0.6043 -0.1604 -2.6892
 1517SOL     OW16012   3.087   2.714   7.408  0.5162 -0.3208  0.3362
 1517SOL    HW116013   3.166   2.690   7.359  1.2967  1.1948  0.8318
 1517SOL    HW216014   3.101   2.809   7.402  1.9633 -0.6087 -0.9973
 1518SOL     OW16015   1.719   3.790   7.832  0.1241  0.2360 -0.0744
 1518SOL    HW116016   1.711   3.700   7.800 -0.9766  0.8514 -1.5238
 1518SOL    HW216017   1.724   3.826   7.744 -0.1274 -0.8639 -0.5385
 1519SOL     OW16018   3.766   0.615   4.178  0.5468 -0.4890 -0.2963
 1519SOL    HW116019   3.735   0.669   4.105 -0.6726  1.3673  1.5946
 1519SOL    HW216020   3.831   0.555   4.142  1.1804  0.5048 -0.8095
 1520SOL     OW16021   1.997   1.765  10.478 -0.5116  0.2336  0.5362
 1520SOL    HW116022   2.058   1.746  10.550  0.6050  0.1992 -0.4305
 1520SOL    HW216023   1.944   1.686  10.471  0.8138 -0.6290  0.3537
 1521SOL     OW16024   3.555   4.283   7.004  0.0865  0.3591  0.0829
 1521SOL    HW116025   3.634   4.318   7.045  1.2747 -2.9130  0.5697
 1521SOL    HW216026   3.494   4.335   7.056  0.4297  0.5010  0.3422
 1522SOL     OW16027   1.760   1.497   7.775  0.4914 -0.5406 -0.1069
 1522SOL    HW116028   1.808   1.441   7.714 -2.4017 -3.0024 -0.1231
 1522SOL    HW216029   1.841   1.536   7.809  0.8833 -1.7761  0.3718
 1523SOL     OW16030   1.974   3.467   4.441 -0.1916  0.2037  0.0347
 1523SOL    HW116031   1.948   3.464   4.349 -0.3443 -2.3936  0.1519
 1523SOL    HW216032   1.895   3.430   4.482 -0.3578  0.7076  0.1729
 1524SOL     OW16033   3.520   1.410   3.885 -0.1088  0.6048 -0.3029
 1524SOL    HW116034   3.445   1.378   3.836 -0.4228  1.7622 -0.5840
 1524SOL    HW216035   3.578   1.416   3.809  2.5697 -2.8096  1.4432
 1525SOL     OW16036   0.136   2.687   6.307 -0.2487 -0.6900 -0.2687
 1525SOL    HW116037   0.081   2.642   6.243 -1.2816 -0.4447  0.4465
 1525SOL    HW216038   0.089   2.647   6.380  1.0385  1.0884  1.5546
 1526SOL     OW16039   0.350   0.577   4.889 -0.2748 -0.4738 -0.4658
 1526SOL    HW116040   0.403   0.504   4.921 -1.1056 -0.9530 -0.1612
 1526SOL    HW216041   0.394   0.608   4.810  0.7384  0.7691  0.6037
 1527SOL     OW16042   0.402   0.756  16.349 -0.1606  0.1861 -0.1029
 1527SOL    HW116043   0.340   0.802  16.293  0.9344 -0.9739 -2.2656
 1527SOL    HW216044   0.406   0.819  16.421  0.5195  0.5597 -0.4583
 1528SOL     OW16045   0.228   2.144  16.887 -0.6221  0.5090  0.8857
 1528SOL    HW116046   0.272   2.099  16.815 -1.7381 -1.5634  1.4936
 1528SOL    HW216047   0.252   2.236  16.874 -1.7753  0.2465 -2.8559
 1529SOL     OW16048   3.945   2.130  17.227  0.4680  0.3557 -0.3422
 1529SOL    HW116049   3.986   2.171  17.303  1.3392  0.1342 -0.6888
 1529SOL    HW216050   3.961   2.039  17.255 -0.5697 -0.4846 -2.5084
 1530SOL     OW16051   3.699   3.897   4.827 -0.0138 -0.3555  0.0727
 1530SOL    HW116052   3.789   3.869   4.842  0.0239 -1.2458 -1.8439
 1530SOL    HW216053   3.712   3.920   4.735  1.9294 -1.0719  0.1708
 1531SOL     OW16054   4.137   0.627   1.683  0.1345  0.2492 -0.0480
 1531SOL    HW116055   4.099   0.715   1.685  2.8768  1.3742  2.0826
 1531SOL    HW216056   4.196   0.625   1.608  0.8832  0.2893  0.5337
 1532SOL     OW16057   4.183   1.439   6.925  0.4331  0.1552 -0.0761
 1532SOL    HW116058   4.112   1.468   6.982 -0.0782  0.6015 -0.9450
 1532SOL    HW216059   4.169   1.345   6.924 -2.1133  0.5322  1.9353
 1533SOL     OW16060   2.922   3.918   8.519  0.0944 -0.3633  0.4886
 1533SOL    HW116061   2.846   3.898   8.573 -0.4931 -0.2307 -0.2748
 1533SOL    HW216062   2.929   3.838   8.467  1.7299 -0.9029  1.5424
 1534SOL     OW16063   0.754   1.813   4.207  0.5372 -0.1183 -0.0737
 1534SOL    HW116064   0.663   1.839   4.193  0.2381  0.3120  2.6435
 1534SOL    HW216065   0.774   1.864   4.286 -1.5888  1.0186 -0.2923
 1535SOL     OW16066   2.042   2.346   4.025  0.2831 -0.1082 -0.1279
 1535SOL    HW116067   2.063   2.436   3.998  0.8553 -0.1635  0.1403
 1535SOL    HW216068   1.948   2.354   4.011  0.4032  0.5592 -0.5947
 1536SOL     OW16069   4.364   0.339   6.847  0.0169 -0.0949 -0.9620
 1536SOL    HW116070   4.340   0.431   6.857  0.2759 -0.1912  0.6284
 1536SOL    HW216071   4.298   0.294   6.900  0.4559 -0.9708 -1.1652
 1537SOL     OW16072   2.573   0.525  15.798  0.1074 -0.1654  0.6984
 1537SOL    HW116073   2.520   0.530  15.718  0.9465 -0.9522  0.0834
 1537SOL    HW216074   2.584   0.432  15.817 -0.4694 -0.2541  0.5797
 1538SOL     OW16075   1.298   3.241  11.132 -0.3498 -0.1522  0.2754
 1538SOL    HW116076   1.355   3.302  11.179 -0.9247  0.1314  0.6001
 1538SOL    HW216077   1.219   3.246  11.186  0.1274  0.7113  0.8782
 1539SOL     OW16078   1.057   0.194   5.251 -0.3493  0.1807 -0.9672
 1539SOL    HW116079   1.129   0.257   5.255 -0.2302 -0.1179  1.7683
 1539SOL    HW216080   1.069   0.144   5.332  0.1594 -2.3079 -2.5790
 1540SOL     OW16081   0.565   1.615   5.638 -0.0597 -0.0617 -0.6640
 1540SOL    HW116082   0.475   1.614   5.606 -0.0176 -0.5695 -0.7675
 1540SOL    HW216083   0.615   1.674   5.582  0.4211  0.5552  0.4165
 1541SOL     OW16084   2.568   3.295   6.140 -0.7087 -0.3530 -0.4946
 1541SOL    HW116085   2.509   3.239   6.090 -0.2162  0.3023 -1.8142
 1541SOL    HW216086   2.617   3.329   6.064  1.0710  0.9041  1.2147
 1542SOL     OW16087   1.862   2.157  17.150  0.4193  0.2686  0.1204
 1542SOL    HW116088   1.846   2.172  17.243 -1.1845  1.7906 -0.4016
 1542SOL    HW216089   1.955   2.179  17.144  0.2016  0.5512 -2.1801
 1543SOL     OW16090   1.040   4.075  17.080 -0.7273  0.2872 -0.6553
 1543SOL    HW116091   1.077   4.163  17.090  0.8606 -0.4607  0.1005
 1543SOL    HW216092   1.086   4.061  16.998 -1.7032 -1.3042 -0.9240
 1544SOL     OW16093   0.966   1.886   5.441  0.0179  0.0156  0.7077
 1544SOL    HW116094   0.945   1.962   5.496 -0.6775  0.9908 -0.9243
 1544SOL    HW216095   1.059   1.905   5.430  0.4812 -2.5583  0.0028
 1545SOL     OW16096   1.193   1.054   2.593 -0.1802  0.0562 -0.1477
 1545SOL    HW116097   1.280   1.079   2.624 -2.0502  4.2566  1.5430
 1545SOL    HW216098   1.155   1.142   2.590  3.5230  1.5972 -1.8747
 1546SOL     OW16099   2.064   2.001   8.479  0.1412  0.3238  0.2735
 1546SOL    HW116100   2.103   2.088   8.488  2.3333 -0.6017 -0.4510
 1546SOL    HW216101   1.999   2.014   8.549 -0.6417 -0.1217 -0.3698
 1547SOL     OW16102   3.396   2.785   5.997  0.2201  0.8932 -0.0292
 1547SOL    HW116103   3.349   2.849   5.943  0.5073 -0.3708 -1.7654
 1547SOL    HW216104   3.466   2.839   6.035  1.8212 -1.3257  0.1376
 1548SOL     OW16105   1.100   0.279   3.213 -0.2221  0.1082  0.1623
 1548SOL    HW116106   1.147   0.354   3.176  1.9967 -0.4034  1.9122
 1548SOL    HW216107   1.024   0.321   3.254  1.2300  2.4144  0.5427
 1549SOL     OW16108   1.511   0.445   0.951 -0.3296  0.1275 -0.0784
 1549SOL    HW116109   1.557   0.491   1.021  0.6373 -2.5239  1.0487
 1549SOL    HW216110   1.539   0.489   0.871  1.1327 -0.8034 -0.0773
 1550SOL     OW16111   2.631   1.556  12.482  0.0184  0.2861  0.1260
 1550SOL    HW116112   2.596   1.467  12.486  0.1180  0.2364 -0.1010
 1550SOL    HW216113   2.708   1.543  12.426  0.0908  0.7053  0.1266
 1551SOL     OW16114   1.190   1.302   4.537 -0.4436 -0.1724  0.1566
 1551SOL    HW116115   1.115   1.362   4.541  1.1201  1.8413 -0.9425
 1551SOL    HW216116   1.261   1.359   4.506 -1.9426  0.4648 -2.0883
 1552SOL     OW16117   1.611   1.323   4.330 -0.3854 -0.1671 -0.4029
 1552SOL    HW116118   1.546   1.357   4.392  0.7149  0.5751  0.3305
 1552SOL    HW216119   1.560   1.267   4.271 -2.3082  0.8984  0.2261
 1553SOL     OW16120   3.384   1.266   1.045  0.4875  0.0712 -0.4272
 1553SOL    HW116121   3.323   1.265   1.119  2.9521 -0.1212  1.6369
 1553SOL    HW216122   3.353   1.186   1.004  0.1791 -1.4594  2.7862
 1554SOL     OW16123   4.233   0.325   3.801  0.5230  0.0660  0.9228
 1554SOL    HW116124   4.327   0.329   3.817  0.8027  0.2736 -0.7951
 1554SOL    HW216125   4.217   0.418   3.819 -2.1320 -0.6433  2.3120
 1555SOL     OW16126   3.689   2.722  13.600  0.0477 -0.3377  0.0541
 1555SOL    HW116127   3.767   2.694  13.649  0.1961  0.7905  0.4464
 1555SOL    HW216128   3.627   2.729  13.673  0.6572 -1.9994  0.7554
 1556SOL     OW16129   2.845   4.370   1.053  0.2818  0.6662 -0.2104
 1556SOL    HW116130   2.903   4.294   1.049  1.3240  1.4150  0.8220
 1556SOL    HW216131   2.843   4.383   1.148  0.1085 -0.6174 -0.0322
 1557SOL     OW16132   3.507   2.576   4.703 -0.1597  0.1713 -0.4844
 1557SOL    HW116133   3.416   2.546   4.696  0.2947 -1.5516  0.9540
 1557SOL    HW216134   3.539   2.559   4.614  0.1001 -1.0192 -0.1646
 1558SOL     OW16135   3.152   3.741   5.238  0.4732  0.5351  0.1846
 1558SOL    HW116136   3.121   3.826   5.268  1.0119  0.4258  1.0513
 1558SOL    HW216137   3.161   3.693   5.321 -0.5588  1.3022  0.7444
 1559SOL     OW16138   1.781   4.583   9.099 -0.6500 -0.9199 -0.4455
 1559SOL    HW116139   1.763   4.494   9.128 -0.4227 -0.1100  2.1772
 1559SOL    HW216140   1.714   4.630   9.149  1.3237  1.7481 -0.2938
 1560SOL     OW16141   0.590   0.491   3.178  0.3886 -0.0223 -0.2099
 1560SOL    HW116142   0.499   0.478   3.205 -0.4300  2.1688 -1.9193
 1560SOL    HW216143   0.574   0.472   3.086  2.1241 -0.5414 -0.4004
 1561SOL     OW16144   0.508   1.207   7.874 -0.2245  0.1757  0.0109
 1561SOL    HW116145   0.532   1.290   7.833  0.2729 -0.1162 -0.2950
 1561SOL    HW216146   0.420   1.196   7.837 -0.1153  2.0778 -0.8013
 1562SOL     OW16147   0.056   1.005   3.601  0.1993 -0.2439 -0.2844
 1562SOL    HW116148   0.138   0.957   3.593  0.5550  0.3537 -0.2141
 1562SOL    HW216149   0.006   0.945   3.546 -0.8491 -0.2114  0.6396
 1563SOL     OW16150   3.708   0.332   7.633 -0.2513  0.1298  0.5734
 1563SOL    HW116151   3.781   0.283   7.670  2.0867  1.9015 -1.6439
 1563SOL    HW216152   3.743   0.407   7.585  1.4394 -0.2486  1.2053
 1564SOL     OW16153   1.923   3.990   6.664 -0.1168  0.2504  0.0307
 1564SOL    HW116154   1.900   4.035   6.745  0.5669 -0.1164  0.4251
 1564SOL    HW216155   1.842   4.007   6.616 -0.2718 -0.5741 -0.0047
 1565SOL     OW16156   2.398   2.395   4.783 -0.0408 -0.6151  0.2373
 1565SOL    HW116157   2.309   2.375   4.811 -0.8029 -0.1330 -1.8690
 1565SOL    HW216158   2.394   2.339   4.706 -1.4792  0.2353 -0.2973
 1566SOL     OW16159   3.483   3.721   5.734 -0.5714 -0.2791  0.1904
 1566SOL    HW116160   3.506   3.639   5.691 -1.5430 -0.6240  0.3308
 1566SOL    HW216161   3.446   3.764   5.657  0.5570 -1.5861 -1.0741
 1567SOL     OW16162   0.654   4.248   5.566  0.3885 -1.0102  0.0723
 1567SOL    HW116163   0.694   4.290   5.490  1.7549  0.5503  1.6494
 1567SOL    HW216164   0.612   4.172   5.526 -0.2883 -0.6000  0.0129
 1568SOL     OW16165   0.625   3.779   3.677 -0.2268 -0.1456  0.7396
 1568SOL    HW116166   0.688   3.846   3.704 -1.3940  1.3657 -0.3087
 1568SOL    HW216167   0.674   3.727   3.614 -2.0948 -1.4908  0.4029
 1569SOL     OW16168   2.029   2.839   1.775 -0.3913 -0.1961 -0.3466
 1569SOL    HW116169   2.014   2.889   1.855 -0.0558 -0.2279 -0.2613
 1569SOL    HW216170   2.121   2.811   1.784 -0.5664 -0.3383  0.9809
 1570SOL     OW16171   0.829   0.661  12.387 -0.0458  0.9831 -0.4150
 1570SOL    HW116172   0.922   0.662  12.364  0.6222 -2.6009  2.0443
 1570SOL    HW216173   0.789   0.623  12.309  1.0932  1.2777 -1.1484
 1571SOL     OW16174   4.629   3.545   4.298 -0.2112 -0.3242 -0.6140
 1571SOL    HW116175   4.684   3.597   4.240  0.9219 -0.6397  0.1739
 1571SOL    HW216176   4.540   3.556   4.263 -1.4567 -0.3611  2.5622
 1572SOL     OW16177   0.921   1.948  14.305  0.0224 -0.3037  0.0627
 1572SOL    HW116178   0.936   1.858  14.278  0.2511  0.1158 -1.2489
 1572SOL    HW216179   1.013   1.970  14.320 -0.5704  2.6507 -0.5542
 1573SOL     OW16180   3.480   1.252  13.756 -0.1511  0.5222 -0.0810
 1573SOL    HW116181   3.390   1.228  13.781 -1.0995  0.5739 -3.4239
 1573SOL    HW216182   3.519   1.299  13.829 -0.2794 -1.6162  1.3807
 1574SOL     OW16183   2.704   0.030  11.333 -0.2071 -0.0568 -0.3032
 1574SOL    HW116184   2.736   0.041  11.244  1.2505  1.5342  0.4169
 1574SOL    HW216185   2.786   0.027  11.381 -0.2290  0.9258 -0.1970
 1575SOL     OW16186   3.788   1.076  13.325 -0.1660 -0.7187 -0.1823
 1575SOL    HW116187   3.808   1.014  13.396  0.9221 -0.8461 -0.5947
 1575SOL    HW216188   3.858   1.139  13.342  0.4536 -1.3342 -0.4227
 1576SOL     OW16189   2.902   0.415   9.863  0.3203 -0.0010  0.5867
 1576SOL    HW116190   2.830   0.415   9.800  0.4862  0.5193  0.4046
 1576SOL    HW216191   2.974   0.459   9.818 -0.4002 -1.3437 -1.8919
 1577SOL     OW16192   1.902   2.376  15.146  0.0298 -0.5456 -0.6053
 1577SOL    HW116193   1.924   2.468  15.159 -0.1766 -0.4772 -0.7387
 1577SOL    HW216194   1.904   2.371  15.050  0.7786 -4.4518 -0.3584
 1578SOL     OW16195   4.109   2.490   9.229 -0.6528  0.0375 -0.3686
 1578SOL    HW116196   4.187   2.487   9.173 -0.7994 -2.2255 -0.4405
 1578SOL    HW216197   4.140   2.557   9.291 -0.8442  0.6488 -0.9418
 1579SOL     OW16198   3.159   2.381  13.850  0.1737 -0.1503  0.5263
 1579SOL    HW116199   3.221   2.453  13.865  0.5731  0.1219 -2.4558
 1579SOL    HW216200   3.128   2.404  13.763  0.3989 -1.7096  0.0316
 1580SOL     OW16201   3.410   0.916   6.010  0.0252 -0.4112 -0.5231
 1580SOL    HW116202   3.377   0.988   5.957  1.2417  1.1948  0.8776
 1580SOL    HW216203   3.426   0.851   5.943 -0.3347 -0.8653 -0.1680
 1581SOL     OW16204   3.825   0.227   3.580  0.0664  0.6636 -0.1506
 1581SOL    HW116205   3.759   0.178   3.531  0.2355 -0.0045  0.2898
 1581SOL    HW216206   3.901   0.188   3.537  0.6990  0.4026  1.2192
 1582SOL     OW16207   0.952   1.945  17.273  0.4631  0.4537 -0.4873
 1582SOL    HW116208   0.910   1.902  17.347 -0.0271 -0.2379 -1.1749
 1582SOL    HW216209   0.949   1.879  17.204 -0.8738  1.6363 -1.5666
 1583SOL     OW16210   3.497   3.580  14.590 -0.3888 -0.2057 -0.2899
 1583SOL    HW116211   3.480   3.658  14.642  1.3946 -0.2640  0.4081
 1583SOL    HW216212   3.434   3.607  14.524 -0.9026  2.8756  1.4723
 1584SOL     OW16213   4.596   4.457   2.604  0.5721 -0.2167 -0.1136
 1584SOL    HW116214   4.588   4.433   2.512  0.7225 -0.4400 -0.0674
 1584SOL    HW216215   4.544   4.537   2.618  1.3425 -0.2801  3.1635
 1585SOL     OW16216   0.558   1.299  17.568  1.0631 -0.3987 -0.1244
 1585SOL    HW116217   0.602   1.238  17.508 -1.7841 -0.1764 -2.4300
 1585SOL    HW216218   0.567   1.378  17.515  0.6330 -0.3146 -0.0705
 1586SOL     OW16219   2.817   0.779   7.306  0.4959 -0.7400 -0.1332
 1586SOL    HW116220   2.848   0.865   7.277 -2.7338  0.4031 -0.2230
 1586SOL    HW216221   2.896   0.738   7.339  0.0694 -1.1660  0.3627
 1587SOL     OW16222   1.430   0.565  16.086  0.5113  0.1285 -0.2200
 1587SOL    HW116223   1.352   0.608  16.052 -0.1077  1.6070  3.0866
 1587SOL    HW216224   1.442   0.488  16.031  1.9237  0.2341 -0.0655
 1588SOL     OW16225   1.869   3.397   7.638 -0.1707  0.0226  0.2376
 1588SOL    HW116226   1.849   3.469   7.578  1.6589  0.7789  0.5266
 1588SOL    HW216227   1.964   3.387   7.638 -0.2292 -0.5337  0.1001
 1589SOL     OW16228   2.820   1.025   2.794 -0.4536 -0.1358  0.3306
 1589SOL    HW116229   2.728   1.044   2.811 -0.3315  1.5264 -0.8325
 1589SOL    HW216230   2.815   0.941   2.748 -0.4722  1.2615 -2.2148
 1590SOL     OW16231   1.448   2.352  14.286  0.2055  0.3091 -0.5836
 1590SOL    HW116232   1.512   2.419  14.262  1.1938  0.3771  2.1551
 1590SOL    HW216233   1.379   2.385  14.229  0.5211  1.7476 -0.1264
 1591SOL     OW16234   0.979   1.534   7.852  0.2106  0.2188 -0.0081
 1591SOL    HW116235   0.940   1.607   7.805  0.9190  0.1773 -0.6612
 1591SOL    HW216236   1.072   1.554   7.844  0.6250 -1.2661  1.1592
 1592SOL     OW16237   4.196   0.189  10.719 -0.2145  0.4323 -0.4551
 1592SOL    HW116238   4.226   0.278  10.735  0.2959  0.2296 -0.2758
 1592SOL    HW216239   4.212   0.147  10.804 -1.6555 -1.7713 -1.2796
 1593SOL     OW16240   4.664   1.630   8.135  0.3751  0.3580 -0.2630
 1593SOL    HW116241   4.647   1.539   8.111  0.2228  0.1355  0.7110
 1593SOL    HW216242   4.610   1.672   8.067  0.9821  0.9983 -0.3494
 1594SOL     OW16243   4.147   4.410  10.607  0.2615  0.0339  0.0917
 1594SOL    HW116244   4.110   4.479  10.552 -0.4912 -1.5100 -1.3226
 1594SOL    HW216245   4.240   4.429  10.592  0.9995 -2.6931  1.2497
 1595SOL     OW16246   4.477   0.112  13.531 -0.6499  0.0300 -0.1970
 1595SOL    HW116247   4.439   0.025  13.547 -0.7015  0.3340  1.3581
 1595SOL    HW216248   4.566   0.095  13.562 -1.2262 -2.5588  0.0366
 1596SOL     OW16249   3.400   4.381   9.070 -0.0371  0.3965 -0.0177
 1596SOL    HW116250   3.471   4.397   9.007  1.2921  1.2168  1.6870
 1596SOL    HW216251   3.344   4.457   9.057 -0.8869 -0.8079 -3.4382
 1597SOL     OW16252   3.823   2.765   8.768 -0.7574 -0.4662 -0.0600
 1597SOL    HW116253   3.806   2.842   8.714  0.5273 -1.8203 -2.3701
 1597SOL    HW216254   3.817   2.799   8.857 -0.3594  0.9323 -0.5693
 1598SOL     OW16255   1.939   3.298   6.639  0.3094  0.4297 -0.1089
 1598SOL    HW116256   1.899   3.219   6.677  2.6825 -1.2626 -1.1418
 1598SOL    HW216257   2.031   3.272   6.634  0.3427  0.4338  0.4753
 1599SOL     OW16258   2.892   0.140  15.529  0.2215 -0.5308  0.0317
 1599SOL    HW116259   2.946   0.075  15.573 -0.5621 -0.0611  1.6777
 1599SOL    HW216260   2.816   0.093  15.498 -0.4258 -0.2084  1.1255
 1600SOL     OW16261   4.620   2.646  16.741  0.0136 -0.1962  0.1389
 1600SOL    HW116262   4.666   2.728  16.759  1.1621 -0.7744 -0.1296
 1600SOL    HW216263   4.553   2.679  16.681 -0.7683 -1.3230  0.3984
 1601SOL     OW16264   2.886   0.615   5.529  0.0014  0.2765 -0.0850
 1601SOL    HW116265   2.925   0.631   5.443 -0.4013 -1.1177 -0.5256
 1601SOL    HW216266   2.842   0.700   5.539  0.0751  0.3220 -0.1576
 1602SOL     OW16267   0.960   1.150   3.517 -0.0316  0.0106  0.3948
 1602SOL    HW116268   0.878   1.153   3.566  0.9723 -2.4303  2.1835
 1602SOL    HW216269   0.999   1.226   3.560 -0.1360  0.4196 -0.2307
 1603SOL     OW16270   1.722   2.106   0.292  0.6724 -0.0592  0.4289
 1603SOL    HW116271   1.686   2.043   0.229  1.3048  1.2851 -1.2987
 1603SOL    HW216272   1.648   2.122   0.349  1.7849  0.5305  1.7014
 1604SOL     OW16273   0.088   1.660  10.351 -0.3137 -0.4673 -0.9240
 1604SOL    HW116274   0.144   1.655  10.429  0.6655 -1.2292 -1.6833
 1604SOL    HW216275   0.015   1.708  10.391 -0.2781  0.1390 -1.5759
 1605SOL     OW16276   0.460   0.853   8.518  0.1855  0.3313 -1.1013
 1605SOL    HW116277   0.474   0.759   8.522  2.1415  0.6475 -0.6049
 1605SOL    HW216278   0.506   0.878   8.598  1.7096 -1.5186 -1.4060
 1606SOL     OW16279   2.254   3.333   4.459 -0.3204 -0.2020 -0.0493
 1606SOL    HW116280   2.164   3.362   4.448 -0.1463  0.5176  0.4460
 1606SOL    HW216281   2.253   3.251   4.508  0.2503  0.5830  1.2827
 1607SOL     OW16282   4.021   4.617   5.303  0.0160 -0.0040 -0.0045
 1607SOL    HW116283   4.007   4.702   5.344  1.2313 -0.4294  1.3055
 1607SOL    HW216284   4.117   4.621   5.305 -0.0308  0.8599  0.8209
 1608SOL     OW16285   3.203   2.975  15.931 -0.7432  0.1863  0.1859
 1608SOL    HW116286   3.291   2.941  15.946 -0.7335  0.8361  1.6408
 1608SOL    HW216287   3.211   3.071  15.930 -2.7544  0.3436 -0.2841
 1609SOL     OW16288   0.486   4.197   4.281  0.0695 -0.0832 -0.0588
 1609SOL    HW116289   0.571   4.154   4.291  0.6697  1.4334  1.3066
 1609SOL    HW216290   0.437   4.196   4.363  1.3807  0.9413  0.7197
 1610SOL     OW16291   0.636   4.527   7.398 -0.2919  0.3881 -0.0870
 1610SOL    HW116292   0.665   4.539   7.488  2.4870 -0.2371 -0.9132
 1610SOL    HW216293   0.643   4.617   7.365 -1.5969  0.9831  1.2312
 1611SOL     OW16294   2.413   0.081  12.078  0.7257  0.0022  0.2317
 1611SOL    HW116295   2.332   0.108  12.123  0.2300 -0.1348 -0.5803
 1611SOL    HW216296   2.446   0.011  12.134 -1.2289 -1.9698 -1.1028
 1612SOL     OW16297   0.012   2.819   0.215 -0.3030 -0.2461 -0.6499
 1612SOL    HW116298   0.022   2.809   0.310 -2.9826 -1.0841 -0.4645
 1612SOL    HW216299   0.097   2.784   0.188 -0.9172 -0.2301 -2.6200
 1613SOL     OW16300   1.183   0.491  13.684 -0.3684 -0.4641  0.2228
 1613SOL    HW116301   1.097   0.459  13.656 -0.9094  0.6518  0.5983
 1613SOL    HW216302   1.243   0.437  13.633  0.2309 -0.3927  0.8616
 1614SOL     OW16303   0.277   1.564   5.589  0.2335 -0.0085  0.7496
 1614SOL    HW116304   0.282   1.629   5.518 -2.5082 -1.9210 -1.2072
 1614SOL    HW216305   0.293   1.486   5.536  1.7990  0.1984  0.9121
 1615SOL     OW16306   1.233   0.098   8.567 -0.5565  0.0680 -0.5153
 1615SOL    HW116307   1.157   0.039   8.561  1.0512 -1.9970 -0.3765
 1615SOL    HW216308   1.289   0.046   8.509  1.2948  0.8220  0.6065
 1616SOL     OW16309   2.566   4.042   8.502  0.5108  0.1850  0.3651
 1616SOL    HW116310   2.628   4.067   8.433 -0.8830  0.6213 -0.7410
 1616SOL    HW216311   2.553   3.949   8.481  0.3713  0.0161  1.1874
 1617SOL     OW16312   2.931   1.117   8.227 -0.5415  0.7329 -0.1706
 1617SOL    HW116313   2.908   1.074   8.144  0.2002  0.9287 -0.4787
 1617SOL    HW216314   2.959   1.201   8.190  1.0449  0.5051  0.5371
 1618SOL     OW16315   2.952   2.365   3.309 -0.0512 -0.7052 -0.1518
 1618SOL    HW116316   2.968   2.361   3.403 -0.5211 -1.2706 -0.0968
 1618SOL    HW216317   2.859   2.387   3.313  0.0728 -0.4112  1.0246
 1619SOL     OW16318   1.565   2.492   2.017 -0.6856 -0.2544 -0.2046
 1619SOL    HW116319   1.642   2.501   2.072 -2.1890  0.6737  1.7379
 1619SOL    HW216320   1.591   2.415   1.966  2.0531 -0.0250  0.8609
 1620SOL     OW16321   1.622   1.367   0.630  0.2058 -0.5711  0.3908
 1620SOL    HW116322   1.668   1.395   0.551  1.9942  0.4277  1.7777
 1620SOL    HW216323   1.542   1.419   0.620 -0.3232 -1.3004  0.7793
 1621SOL     OW16324   1.699   3.984   4.352  0.0061 -0.5064 -0.0144
 1621SOL    HW116325   1.709   3.916   4.419 -2.1378 -0.3779  0.4401
 1621SOL    HW216326   1.791   4.003   4.335  0.2421  0.0697  1.8747
 1622SOL     OW16327   3.705   1.916  17.141  0.0205 -0.3210 -0.2131
 1622SOL    HW116328   3.791   1.902  17.179 -0.1233 -2.6786 -0.7287
 1622SOL    HW216329   3.700   2.011  17.132 -2.0112 -0.5761 -1.9604
 1623SOL     OW16330   1.887   3.342   9.455  0.2493 -0.1046  0.1377
 1623SOL    HW116331   1.937   3.262   9.437  0.0799  0.0962 -1.2627
 1623SOL    HW216332   1.921   3.347   9.544 -1.1696  0.5201  0.6450
 1624SOL     OW16333   2.782   2.183   7.728 -0.0222  0.1275  0.2403
 1624SOL    HW116334   2.812   2.272   7.746 -1.2237  0.3449  1.1573
 1624SOL    HW216335   2.778   2.150   7.817 -0.1133  0.4985  0.3732
 1625SOL     OW16336   1.460   2.705   3.591 -0.2690 -0.1214 -0.2442
 1625SOL    HW116337   1.454   2.742   3.503 -0.0773  1.0683  0.2358
 1625SOL    HW216338   1.374   2.715   3.633 -0.2214  0.8292 -0.3686
 1626SOL     OW16339   0.735   0.470   8.722 -0.6270  0.2715  0.6436
 1626SOL    HW116340   0.752   0.435   8.635  1.1857 -0.0016  1.1059
 1626SOL    HW216341   0.709   0.395   8.776  2.6545 -0.7197  0.8331
 1627SOL     OW16342   3.930   4.142   7.461 -0.1139 -0.0817 -0.2032
 1627SOL    HW116343   3.997   4.113   7.523  1.7402  1.2686 -1.5652
 1627SOL    HW216344   3.986   4.181   7.394 -0.7019 -0.5694 -0.9792
 1628SOL     OW16345   1.869   4.540  12.001 -0.2334  0.5766  0.1495
 1628SOL    HW116346   1.812   4.463  12.000  3.0520 -1.8843 -1.6244
 1628SOL    HW216347   1.808   4.611  12.016 -0.2894  0.4520  0.4944
 1629SOL     OW16348   0.608   2.633   4.510  0.3725  0.1058  0.1024
 1629SOL    HW116349   0.528   2.587   4.537  1.4430 -0.3832  2.4205
 1629SOL    HW216350   0.575   2.718   4.539 -0.5962 -0.0230 -0.6155
 1630SOL     OW16351   3.348   1.192   4.452  0.0616 -0.4156  0.2574
 1630SOL    HW116352   3.422   1.131   4.444  0.7518  0.7044 -1.9574
 1630SOL    HW216353   3.280   1.132   4.422  0.8443 -0.9369 -0.4709
 1631SOL     OW16354   0.092   3.407   1.998 -0.3932  0.1821  0.5134
 1631SOL    HW116355   0.144   3.354   2.059 -0.0968 -0.6935 -0.5030
 1631SOL    HW216356   0.028   3.344   1.966 -2.5713  1.3006  2.7134
 1632SOL     OW16357   3.139   1.865  12.703  0.0785 -0.2440  0.5158
 1632SOL    HW116358   3.184   1.879  12.787 -1.0536 -0.0468  1.0823
 1632SOL    HW216359   3.108   1.955  12.696  0.4231 -0.1404  0.3160
 1633SOL     OW16360   0.628   0.759   7.505  0.1592  0.1600  0.1184
 1633SOL    HW116361   0.646   0.811   7.427 -1.4968 -0.8127 -0.9242
 1633SOL    HW216362   0.716   0.722   7.509  0.2493  0.4483  0.7754
 1634SOL     OW16363   1.270   2.752   6.360 -0.0224  0.0846 -0.4975
 1634SOL    HW116364   1.293   2.704   6.439  2.7589 -0.5099 -1.6726
 1634SOL    HW216365   1.189   2.790   6.394 -0.1635 -3.3955  3.0460
 1635SOL     OW16366   1.113   2.621   6.104 -0.2677 -0.4025 -0.1757
 1635SOL    HW116367   1.122   2.569   6.183  1.2196  2.6118  1.6408
 1635SOL    HW216368   1.113   2.710   6.139 -0.5139 -0.3016 -0.4289
 1636SOL     OW16369   1.618   3.262   7.649  0.2783 -0.2378 -0.3121
 1636SOL    HW116370   1.691   3.325   7.648  0.2040 -0.1774 -1.6974
 1636SOL    HW216371   1.549   3.318   7.687  0.6221 -0.2383  0.3213
 1637SOL     OW16372   4.557   0.697   4.713 -0.0620  0.4296 -0.0881
 1637SOL    HW116373   4.497   0.735   4.648  0.0608  0.7023 -0.0412
 1637SOL    HW216374   4.644   0.725   4.686 -0.0893 -0.7628 -1.4290
 1638SOL     OW16375   0.856   4.419   2.382  0.0404 -0.4512 -0.2678
 1638SOL    HW116376   0.823   4.394   2.296 -0.8143  0.2862 -0.1436
 1638SOL    HW216377   0.781   4.469   2.414  0.1761 -0.8152  0.6297
 1639SOL     OW16378   1.285   3.919   9.718  0.8259  0.1245  0.3100
 1639SOL    HW116379   1.332   3.998   9.693 -0.9564  1.4786  1.2527
 1639SOL    HW216380   1.313   3.847   9.661 -0.8815  0.0275 -0.4031
 1640SOL     OW16381   3.304   4.640   9.004 -0.0985 -0.4326  0.4761
 1640SOL    HW116382   3.351   4.668   9.082  1.2005 -0.9080 -0.1462
 1640SOL    HW216383   3.258   0.000   8.998  0.7090 -0.0887 -0.8872
 1641SOL     OW16384   4.554   2.328   6.198 -0.3417  0.0932  0.3219
 1641SOL    HW116385   4.624   2.281   6.242 -1.2627 -1.6153 -0.0483
 1641SOL    HW216386   4.526   2.262   6.134  1.3972 -1.2102  0.8925
 1642SOL     OW16387   1.854   3.000   3.193  0.8641  0.4009 -0.9022
 1642SOL    HW116388   1.821   2.978   3.280  1.3793  0.9651 -0.5560
 1642SOL    HW216389   1.790   2.966   3.131  0.7298  0.0928 -0.5946
 1643SOL     OW16390   2.908   3.312   4.021  0.0292 -0.4141 -0.3996
 1643SOL    HW116391   2.831   3.270   4.059 -0.8358 -0.0228 -1.7182
 1643SOL    HW216392   2.937   3.349   4.104  0.2581  0.3922 -0.8443
 1644SOL     OW16393   2.656   3.925  15.336 -0.0958 -0.1216 -0.6272
 1644SOL    HW116394   2.748   3.903  15.350  0.4089  0.6641 -2.6502
 1644SOL    HW216395   2.631   3.924  15.428  3.5068 -0.2577  0.3539
 1645SOL     OW16396   0.537   2.946   4.422 -0.2824 -0.0549 -0.0508
 1645SOL    HW116397   0.539   3.039   4.442 -3.6021 -0.1713  0.9457
 1645SOL    HW216398   0.603   2.944   4.353 -1.7538  1.3030 -1.5142
 1646SOL     OW16399   3.450   4.673   4.421  0.3337 -0.0191  0.2414
 1646SOL    HW116400   3.506   4.607   4.379 -1.3131 -0.9713 -0.4453
 1646SOL    HW216401   3.479   4.652   4.510 -0.1511  3.3843  1.1956
 1647SOL     OW16402   2.631   0.329   4.869  0.3022 -0.2570  0.0574
 1647SOL    HW116403   2.677   0.332   4.785 -1.0343  0.0413 -0.6586
 1647SOL    HW216404   2.691   0.292   4.935  0.3402  1.2942  0.9080
 1648SOL     OW16405   0.678   0.957   5.448 -0.4963 -0.0047  0.1861
 1648SOL    HW116406   0.609   0.986   5.507 -0.7937 -1.4193  0.5419
 1648SOL    HW216407   0.635   0.877   5.417  1.1046 -1.3602  1.4475
 1649SOL     OW16408   1.113   0.308   6.556 -0.1147 -0.5062 -0.5586
 1649SOL    HW116409   1.091   0.348   6.472 -1.2785 -0.5320 -0.2790
 1649SOL    HW216410   1.169   0.378   6.588  0.2870 -1.0893  0.0147
 1650SOL     OW16411   4.048   1.823   3.545  0.1082  0.4816 -0.3008
 1650SOL    HW116412   4.076   1.739   3.507  0.6728  0.2171  0.6887
 1650SOL    HW216413   4.126   1.877   3.555  0.2646  0.1697  0.1989
 1651SOL     OW16414   4.715   2.570   6.140  0.1817  0.2090  0.4139
 1651SOL    HW116415   4.645   2.506   6.151 -1.1743  1.2567 -2.1422
 1651SOL    HW216416   4.695   2.589   6.048 -1.0338  0.8913  0.8140
 1652SOL     OW16417   1.637   2.562   3.838 -0.1727 -0.1494 -0.0014
 1652SOL    HW116418   1.614   2.651   3.815 -2.0419 -1.1736 -2.0708
 1652SOL    HW216419   1.555   2.535   3.879 -0.7498 -0.5327 -1.4093
 1653SOL     OW16420   3.921   2.320   8.294 -0.1140  0.7195  0.1607
 1653SOL    HW116421   3.910   2.363   8.209  1.6531 -1.4495 -1.1527
 1653SOL    HW216422   3.904   2.394   8.352  1.8183  0.9220  0.4913
 1654SOL     OW16423   4.498   4.389   4.063  0.3055 -0.8118  0.2973
 1654SOL    HW116424   4.449   4.450   4.118 -0.5471 -1.5124  0.3204
 1654SOL    HW216425   4.428   4.352   4.009 -1.3514 -1.0447  2.6132
 1655SOL     OW16426   2.865   1.606   5.375 -0.1984 -0.0472 -0.4221
 1655SOL    HW116427   2.776   1.571   5.371 -0.8285  1.3322  1.1603
 1655SOL    HW216428   2.876   1.656   5.295 -1.5379 -0.7407 -1.0442
 1656SOL     OW16429   2.616   4.112   2.119 -0.0316  0.0220  0.0113
 1656SOL    HW116430   2.525   4.142   2.124  0.3196  1.2353 -1.1002
 1656SOL    HW216431   2.656   4.197   2.102  0.4271  0.0656  1.2764
 1657SOL     OW16432   3.196   1.074   5.288 -0.5974 -0.4696  0.0830
 1657SOL    HW116433   3.124   1.111   5.340  0.7778  1.8766  0.2952
 1657SOL    HW216434   3.168   1.110   5.204  0.2118  0.3869  0.1865
 1658SOL     OW16435   2.533   1.375  15.386 -0.0278  0.1976  0.3149
 1658SOL    HW116436   2.450   1.361  15.432  0.5331 -0.1293  1.2262
 1658SOL    HW216437   2.530   1.471  15.385  0.0380  0.1974 -0.3335
 1659SOL     OW16438   2.546   3.056   4.624 -0.1770 -0.2093  0.0066
 1659SOL    HW116439   2.553   2.965   4.651 -0.1780  0.3888  2.0322
 1659SOL    HW216440   2.637   3.076   4.603 -0.1484 -0.2415  0.0999
 1660SOL     OW16441   1.580   2.956   7.171  0.6779  0.2899 -0.2134
 1660SOL    HW116442   1.638   2.951   7.247 -1.2161 -1.9495  1.0978
 1660SOL    HW216443   1.587   2.869   7.132  2.6147  0.0287  0.7372
 1661SOL     OW16444   0.998   1.780   5.181  0.2122 -0.0125  0.8299
 1661SOL    HW116445   0.951   1.798   5.263  1.2620  2.8172  0.8033
 1661SOL    HW216446   1.062   1.713   5.203 -0.2420 -0.7441 -0.0755
 1662SOL     OW16447   4.704   0.503  10.901  0.0882  0.5709  0.5576
 1662SOL    HW116448   0.043   0.503  10.830 -1.2801  0.3930 -0.6653
 1662SOL    HW216449   4.626   0.510  10.846 -1.1492 -0.7385  2.1368
 1663SOL     OW16450   0.659   4.493  16.337 -0.0366 -0.1260  0.0308
 1663SOL    HW116451   0.606   4.414  16.346 -1.2776  0.6815 -0.0938
 1663SOL    HW216452   0.651   4.503  16.242  0.1268  1.7767  0.2090
 1664SOL     OW16453   0.514   4.689   7.705 -0.6048  0.0883 -0.7139
 1664SOL    HW116454   0.510   4.679   7.800 -0.0100  1.0741 -0.5816
 1664SOL    HW216455   0.594   0.016   7.690 -0.1068  0.3456  2.8794
 1665SOL     OW16456   0.067   3.389  15.594 -0.1789  0.8031  0.4007
 1665SOL    HW116457   0.110   3.474  15.592  2.0089 -0.2925  0.5084
 1665SOL    HW216458   0.085   3.352  15.681 -1.5340 -0.6834  0.0396
 1666SOL     OW16459   2.880   1.050   7.137  0.3103  0.7102  0.1654
 1666SOL    HW116460   2.892   1.140   7.105  1.5116  0.8625  1.0510
 1666SOL    HW216461   2.959   1.012   7.098 -0.9088 -1.3586 -0.2955
 1667SOL     OW16462   0.253   2.102  15.527  0.2624  0.2950 -0.5291
 1667SOL    HW116463   0.180   2.054  15.565 -0.2695  1.8901  0.4883
 1667SOL    HW216464   0.203   2.174  15.489  2.0724  0.6025 -2.2954
 1668SOL     OW16465   2.805   2.158   7.985 -0.1411  0.5148 -0.5271
 1668SOL    HW116466   2.776   2.211   8.059 -1.0338 -0.0046 -0.5054
 1668SOL    HW216467   2.799   2.069   8.020 -0.3346  0.9270  0.4729
 1669SOL     OW16468   4.359   1.063   7.642 -0.1513  0.2324  0.5771
 1669SOL    HW116469   4.404   1.129   7.695 -0.7070 -0.6742  2.1490
 1669SOL    HW216470   4.429   1.034   7.583  0.4954  1.3406  0.7916
 1670SOL     OW16471   0.137   4.721   2.707  0.5120 -0.2449 -0.6065
 1670SOL    HW116472   0.074   0.020   2.639 -1.1292  0.7193  1.2356
 1670SOL    HW216473   0.215   4.681   2.667 -0.0774 -2.2503  0.2858
 1671SOL     OW16474   0.372   0.659   5.792 -0.3899 -0.4481 -0.2830
 1671SOL    HW116475   0.439   0.629   5.854  0.2527 -1.3737 -1.4259
 1671SOL    HW216476   0.302   0.673   5.856  0.1620 -1.3322  0.5104
 1672SOL     OW16477   1.651   2.709   2.841 -0.4881 -0.9556  0.3136
 1672SOL    HW116478   1.618   2.693   2.753 -0.9666  3.4828 -0.3177
 1672SOL    HW216479   1.740   2.682   2.820  0.6780  3.0828  0.1997
 1673SOL     OW16480   4.162   1.618  17.486  0.0658 -0.1480  0.1839
 1673SOL    HW116481   4.256   1.600  17.485  0.2468  0.7649  1.2313
 1673SOL    HW216482   4.141   1.552  17.419 -4.0541  0.2064  1.1653
 1674SOL     OW16483   3.002   2.822   1.855  0.4333 -0.0313  0.2442
 1674SOL    HW116484   2.958   2.773   1.785  0.6253  1.2883 -0.8019
 1674SOL    HW216485   2.974   2.912   1.838 -0.4226 -0.4014 -0.3236
 1675SOL     OW16486   2.535   3.276   1.904  0.1607 -0.1113  0.5207
 1675SOL    HW116487   2.461   3.335   1.891  1.0955  1.3137  1.6526
 1675SOL    HW216488   2.529   3.214   1.831  1.1711 -1.5938  1.7012
 1676SOL     OW16489   3.233   0.454   3.631  0.2088 -0.1944  0.5136
 1676SOL    HW116490   3.321   0.430   3.601  0.9051  1.0921  1.5197
 1676SOL    HW216491   3.223   0.389   3.701 -0.0008 -0.1335  0.5385
 1677SOL     OW16492   4.032   1.298   4.927  0.4806 -0.0432 -0.2935
 1677SOL    HW116493   3.996   1.221   4.972  1.5425  0.8832  2.1271
 1677SOL    HW216494   4.010   1.274   4.837  1.1754 -0.7029 -0.2877
 1678SOL     OW16495   2.945   0.437   4.032  0.0141 -0.5975  0.3290
 1678SOL    HW116496   2.896   0.500   4.084 -2.0145 -2.3949  0.5555
 1678SOL    HW216497   3.017   0.496   4.009 -0.5153 -0.3261 -0.6349
 1679SOL     OW16498   3.373   4.264  16.543  0.2255 -0.2415  0.1140
 1679SOL    HW116499   3.350   4.252  16.451  3.8035  1.4817 -1.0177
 1679SOL    HW216500   3.347   4.174  16.562  0.2245 -0.1257  0.6601
 1680SOL     OW16501   1.555   1.876   1.596 -0.6615 -0.6344 -0.5472
 1680SOL    HW116502   1.460   1.882   1.598 -0.4516  2.8588 -1.8536
 1680SOL    HW216503   1.563   1.787   1.632  1.7708 -0.6659 -1.1505
 1681SOL     OW16504   1.903   3.222   3.567 -0.3471 -0.3715  0.5613
 1681SOL    HW116505   1.900   3.266   3.652 -1.5725  1.9361 -0.6749
 1681SOL    HW216506   1.812   3.214   3.539  0.7063 -1.0247 -2.6563
 1682SOL     OW16507   1.761   2.869   0.582  0.1762  0.4360  0.2810
 1682SOL    HW116508   1.761   2.818   0.500 -0.3409  1.2008 -0.1993
 1682SOL    HW216509   1.756   2.792   0.638 -1.2628  2.2671  2.6824
 1683SOL     OW16510   4.360   2.595   3.003 -0.2144  0.0314  0.1250
 1683SOL    HW116511   4.310   2.667   3.043 -0.4877 -0.9692  1.5995
 1683SOL    HW216512   4.352   2.629   2.914 -0.9846  0.4815  0.3619
 1684SOL     OW16513   3.000   1.681   4.043  0.0019  0.8968  0.0759
 1684SOL    HW116514   3.066   1.612   4.053  0.2428  1.4345  2.3200
 1684SOL    HW216515   3.038   1.735   4.112  2.3552 -2.1854  1.2090
 1685SOL     OW16516   0.507   3.397   5.962 -0.6255  0.0007  0.0432
 1685SOL    HW116517   0.593   3.374   5.997  0.0125 -0.6706 -1.9760
 1685SOL    HW216518   0.494   3.469   6.023 -0.4062 -2.4594  2.9852
 1686SOL     OW16519   1.847   4.560   7.382 -0.4859 -0.4016 -0.4574
 1686SOL    HW116520   1.782   4.613   7.429 -1.6940 -1.4035 -0.9941
 1686SOL    HW216521   1.910   4.551   7.454 -0.3890 -0.4441 -0.5480
 1687SOL     OW16522   2.441   4.022   9.540 -0.0994  0.0518  0.2162
 1687SOL    HW116523   2.532   4.000   9.559  0.0070  0.7255  0.4847
 1687SOL    HW216524   2.435   4.109   9.578 -0.3349  0.0590  0.1634
 1688SOL     OW16525   1.726   0.395  10.460  0.2495  0.3548  0.4160
 1688SOL    HW116526   1.797   0.454  10.483  2.1578 -1.0493 -1.9164
 1688SOL    HW216527   1.772   0.330  10.408  2.2995  1.9628  0.2438
 1689SOL     OW16528   2.206   0.453  15.804  0.4818 -0.1462 -0.1483
 1689SOL    HW116529   2.259   0.438  15.882 -0.1125 -1.3025  0.0478
 1689SOL    HW216530   2.277   0.483  15.749  0.2965 -1.7171 -1.2546
 1690SOL     OW16531   2.939   2.605   2.954  0.3325  0.5213  0.2515
 1690SOL    HW116532   2.916   2.539   2.889 -0.7213  0.4438  0.7160
 1690SOL    HW216533   2.892   2.676   2.910  1.7865  0.8894 -0.7386
 1691SOL     OW16534   0.039   3.029  14.226 -0.1172 -0.1074  0.2089
 1691SOL    HW116535   0.036   3.071  14.312 -1.1281  0.6145 -0.1774
 1691SOL    HW216536   4.702   3.096  14.197  0.6840  0.6787  0.3406
 1692SOL     OW16537   0.264   3.215  12.200 -0.3637 -0.4481 -0.2079
 1692SOL    HW116538   0.260   3.199  12.294 -0.8689 -2.2871 -0.5315
 1692SOL    HW216539   0.294   3.306  12.194 -1.5770  0.0432  1.1566
 1693SOL     OW16540   3.826   0.594  15.382  0.1719  0.0625  0.1436
 1693SOL    HW116541   3.891   0.548  15.436  1.4755  0.7452 -0.8494
 1693SOL    HW216542   3.745   0.599  15.432 -0.4506  1.0883 -0.9794
 1694SOL     OW16543   0.665   3.833  14.096 -0.0611 -0.5418 -0.0020
 1694SOL    HW116544   0.684   3.810  14.187  0.7855 -1.7425 -0.4830
 1694SOL    HW216545   0.714   3.758  14.061  3.7456  1.4094  1.2162
 1695SOL     OW16546   4.088   3.515   1.490 -0.5041  0.1653 -0.2347
 1695SOL    HW116547   4.089   3.468   1.407 -0.7782 -2.9964  1.5378
 1695SOL    HW216548   4.182   3.518   1.507 -0.6498 -1.5936  0.8940
 1696SOL     OW16549   1.648   2.016  12.323 -0.5656  0.0650 -0.1906
 1696SOL    HW116550   1.713   2.001  12.392 -3.0012 -0.9449  1.8942
 1696SOL    HW216551   1.627   2.107  12.345 -0.7098 -0.3558  1.4436
 1697SOL     OW16552   2.971   1.122   4.894  0.2347  0.6668 -0.6923
 1697SOL    HW116553   3.029   1.156   4.963  0.6713 -1.4472 -0.0074
 1697SOL    HW216554   3.004   1.034   4.876 -3.1629 -1.0330  1.4551
 1698SOL     OW16555   3.249   1.755  14.782 -0.0596 -0.2216  0.2606
 1698SOL    HW116556   3.205   1.789  14.860 -1.6244  0.2254 -0.8075
 1698SOL    HW216557   3.190   1.684  14.756 -1.3452  0.8515  0.2885
 1699SOL     OW16558   3.658   3.413   2.901 -0.7099  0.0684  0.4748
 1699SOL    HW116559   3.586   3.377   2.850 -0.6566 -0.8010  1.0274
 1699SOL    HW216560   3.641   3.507   2.907  2.7250  0.9690 -3.3532
 1700SOL     OW16561   2.202   3.479  10.481  0.3123  0.1777 -0.0106
 1700SOL    HW116562   2.224   3.572  10.474 -2.4560  0.7967 -0.3755
 1700SOL    HW216563   2.287   3.446  10.450 -0.3928 -0.6390 -1.0596
 1701SOL     OW16564   1.662   0.202  13.695 -0.5682  0.1462  0.1394
 1701SOL    HW116565   1.626   0.120  13.661  0.2581 -0.3202  0.3972
 1701SOL    HW216566   1.644   0.267  13.628  1.6524  1.3213  0.6867
 1702SOL     OW16567   1.223   4.487   6.505  0.5027  0.1246  0.2106
 1702SOL    HW116568   1.231   4.583   6.505  0.7385  0.1058 -1.3879
 1702SOL    HW216569   1.238   4.464   6.414  1.0738  2.3714 -0.2838
 1703SOL     OW16570   1.515   2.695  13.781 -0.2653  0.5663  0.6825
 1703SOL    HW116571   1.437   2.687  13.727  0.1082 -0.2638  0.2616
 1703SOL    HW216572   1.521   2.788  13.805 -0.7616  1.1146 -1.3858
 1704SOL     OW16573   1.541   4.197   8.561  0.3902  0.1860 -0.5438
 1704SOL    HW116574   1.478   4.132   8.530  1.4592 -0.0901 -2.1279
 1704SOL    HW216575   1.532   4.266   8.496  1.0344  1.9217  1.2246
 1705SOL     OW16576   4.205   1.952  17.632 -0.8455  0.3861 -0.1249
 1705SOL    HW116577   4.291   1.980  17.601 -0.1854 -1.7923 -0.2921
 1705SOL    HW216578   4.202   1.995   0.019  2.4192  1.2924 -0.4673
 1706SOL     OW16579   0.890   3.664   7.723  0.0587 -0.4267 -0.1531
 1706SOL    HW116580   0.946   3.741   7.714 -0.2627  0.0075  1.6992
 1706SOL    HW216581   0.817   3.699   7.672  1.8536  1.9360 -1.1484
 1707SOL     OW16582   0.220   4.106  11.159 -0.0482 -0.0705  0.1674
 1707SOL    HW116583   0.255   4.018  11.170 -0.1741 -0.2643 -1.0498
 1707SOL    HW216584   0.283   4.154  11.212  1.4280 -0.9606 -0.7905
 1708SOL     OW16585   1.132   1.469   4.795  0.4786  0.1182 -0.7057
 1708SOL    HW116586   1.156   1.381   4.764 -2.7354 -1.3335  0.9100
 1708SOL    HW216587   1.162   1.523   4.722 -1.0874 -0.7566 -2.0141
 1709SOL     OW16588   3.707   1.346   7.961  0.5038  0.6040 -0.3291
 1709SOL    HW116589   3.770   1.390   7.904 -0.6611  0.8933 -1.3793
 1709SOL    HW216590   3.625   1.386   7.933 -0.6530 -1.3568  0.2080
 1710SOL     OW16591   0.057   2.332   9.823 -0.3342 -0.2067  0.0895
 1710SOL    HW116592   0.067   2.250   9.775  2.5550 -1.1172  2.2448
 1710SOL    HW216593   4.714   2.327   9.892 -0.0759 -0.5127  0.3160
 1711SOL     OW16594   0.137   2.253   6.658  0.3068  0.1262  0.2996
 1711SOL    HW116595   0.104   2.316   6.722 -0.5813  0.5834 -0.6022
 1711SOL    HW216596   0.126   2.170   6.703 -0.2488 -0.1405 -0.3315
 1712SOL     OW16597   1.908   3.799  16.689  0.1609 -0.1405 -0.2182
 1712SOL    HW116598   1.916   3.803  16.785  0.1951 -0.1531 -0.2204
 1712SOL    HW216599   1.953   3.717  16.665  1.8395  0.8107 -0.3104
 1713SOL     OW16600   3.068   4.722   7.633 -0.0499  0.4628  0.5274
 1713SOL    HW116601   3.129   4.648   7.637 -0.2014  0.3329  0.4507
 1713SOL    HW216602   3.131   0.060   7.669  0.5201 -0.5309  1.2247
 1714SOL     OW16603   2.923   0.146   9.912  0.2396 -0.8012 -0.0879
 1714SOL    HW116604   2.931   0.241   9.904  1.7461 -0.6228  3.7344
 1714SOL    HW216605   3.016   0.123   9.912  0.5463  0.4640  1.2770
 1715SOL     OW16606   0.458   0.280   4.502 -0.3174 -0.5104  0.3974
 1715SOL    HW116607   0.519   0.208   4.484  1.3203  1.1838 -0.7836
 1715SOL    HW216608   0.382   0.238   4.543 -2.1518 -0.3309 -2.7245
 1716SOL     OW16609   0.841   0.317   6.722  0.0659  0.4563 -0.4808
 1716SOL    HW116610   0.835   0.409   6.747 -1.2551 -0.5315  2.8726
 1716SOL    HW216611   0.923   0.313   6.674 -0.4476 -1.2120 -1.2027
 1717SOL     OW16612   3.630   4.534  14.445 -0.1565  0.6480  0.0275
 1717SOL    HW116613   3.552   4.510  14.495 -0.3672 -0.2319 -0.7449
 1717SOL    HW216614   3.592   4.606  14.394  1.0698 -0.1961 -2.0527
 1718SOL     OW16615   2.080   4.101   8.112 -0.9942  0.8532 -0.2881
 1718SOL    HW116616   2.134   4.080   8.189 -0.9648  1.2860 -0.1904
 1718SOL    HW216617   1.991   4.079   8.139 -0.8902  1.2931  0.4116
 1719SOL     OW16618   0.735   2.745  10.110 -0.4657 -0.6091 -0.4211
 1719SOL    HW116619   0.656   2.696  10.133 -0.6045 -0.2647 -0.1693
 1719SOL    HW216620   0.750   2.693  10.031  1.6131 -0.5925 -0.0354
 1720SOL     OW16621   4.083   1.201   9.133 -0.0937 -0.1939 -0.0796
 1720SOL    HW116622   4.138   1.175   9.059  1.8849  1.9723  0.6317
 1720SOL    HW216623   4.129   1.149   9.198 -2.2549 -2.0357 -0.0007
 1721SOL     OW16624   0.686   3.503   4.932 -0.3205  0.3233 -0.0955
 1721SOL    HW116625   0.668   3.597   4.934 -0.3266  0.3580 -1.3746
 1721SOL    HW216626   0.778   3.505   4.906 -0.5177 -0.9501 -0.9351
 1722SOL     OW16627   0.960   0.280   4.030 -0.1465 -0.4418  0.7694
 1722SOL    HW116628   0.973   0.240   3.944 -1.3092  0.7045  0.0697
 1722SOL    HW216629   0.996   0.210   4.084 -0.6221  0.9190  2.8409
 1723SOL     OW16630   0.847   2.001  13.300  0.4470 -0.4301  0.2490
 1723SOL    HW116631   0.912   1.932  13.286 -0.9793 -1.8725  0.7810
 1723SOL    HW216632   0.827   1.980  13.391 -0.8676 -1.4013 -0.2675
 1724SOL     OW16633   0.557   2.773   9.366  0.1134  0.0851  0.5788
 1724SOL    HW116634   0.601   2.804   9.445  2.7634  0.1549 -0.9251
 1724SOL    HW216635   0.613   2.817   9.302 -0.6748 -1.3589 -1.0994
 1725SOL     OW16636   0.084   1.240   2.638 -0.2285 -0.5294  0.0862
 1725SOL    HW116637   0.054   1.327   2.665 -1.9197 -1.1426  0.1935
 1725SOL    HW216638   0.176   1.234   2.663 -0.2876 -0.8809  0.2283
 1726SOL     OW16639   2.756   2.560   4.163  0.2457 -0.2373  0.0298
 1726SOL    HW116640   2.844   2.528   4.186  1.0464  1.4312 -0.7790
 1726SOL    HW216641   2.746   2.550   4.068  0.5721 -2.6084  0.2304
 1727SOL     OW16642   2.207   0.817  13.207  0.0969 -1.0187 -0.1020
 1727SOL    HW116643   2.245   0.755  13.144  1.3348  1.4721 -1.8023
 1727SOL    HW216644   2.257   0.798  13.286  0.1351 -2.5735 -0.4919
 1728SOL     OW16645   0.448   1.873  15.879  0.1251 -0.4741  0.0576
 1728SOL    HW116646   0.539   1.901  15.870 -0.3766  1.9938  2.7331
 1728SOL    HW216647   0.401   1.943  15.833  0.5193 -2.5219 -3.4905
 1729SOL     OW16648   4.544   1.295   2.166 -0.5100  0.1424 -0.0887
 1729SOL    HW116649   4.457   1.268   2.196  0.1934 -1.2911  0.6589
 1729SOL    HW216650   4.535   1.389   2.151  1.3475  0.0737 -1.6545
 1730SOL     OW16651   2.633   3.311   9.402 -0.4648 -0.4024  0.1284
 1730SOL    HW116652   2.667   3.223   9.385  0.5807  0.3783 -1.8504
 1730SOL    HW216653   2.686   3.336   9.478 -1.1175 -0.9357  0.7601
 1731SOL     OW16654   3.118   4.250   1.000 -0.3796  0.1546 -0.0643
 1731SOL    HW116655   3.123   4.250   0.904 -1.5763 -1.0243 -0.1294
 1731SOL    HW216656   3.099   4.342   1.019 -0.0187 -0.1790  1.8440
 1732SOL     OW16657   4.069   2.840   0.782  0.6138 -0.4798  0.2172
 1732SOL    HW116658   3.992   2.785   0.795  0.0533  1.0983  3.6672
 1732SOL    HW216659   4.024   2.924   0.770 -0.3134 -0.8386  1.2370
 1733SOL     OW16660   2.674   1.065  15.202  0.2779 -0.0950  0.2349
 1733SOL    HW116661   2.614   1.037  15.133 -0.1752  3.4236 -0.8405
 1733SOL    HW216662   2.673   1.160  15.187  1.0748 -0.6439 -3.2487
 1734SOL     OW16663   4.366   3.050   6.872 -0.3055 -0.3574 -0.8782
 1734SOL    HW116664   4.272   3.036   6.860 -0.8356  1.2424  1.5319
 1734SOL    HW216665   4.385   2.996   6.949  0.2140  1.0098 -0.0478
 1735SOL     OW16666   0.078   1.997   5.371  0.2423  0.3584 -0.3483
 1735SOL    HW116667   0.101   2.070   5.313  1.8130 -0.2586 -0.5061
 1735SOL    HW216668   0.001   2.027   5.418  1.6094 -0.3782  2.3403
 1736SOL     OW16669   2.020   0.886   4.735  0.1355  0.0921  0.3246
 1736SOL    HW116670   2.072   0.823   4.785 -0.3494 -1.1280 -0.7113
 1736SOL    HW216671   2.046   0.867   4.645  1.6705 -0.4319  0.8834
 1737SOL     OW16672   3.014   3.994   0.657  0.2615 -0.4438 -0.2113
 1737SOL    HW116673   3.078   3.929   0.684 -1.3610 -1.1751  1.9320
 1737SOL    HW216674   2.927   3.956   0.671 -0.3714  0.5442 -1.4795
 1738SOL     OW16675   2.780   3.937   7.921 -0.1594  0.3955 -0.2932
 1738SOL    HW116676   2.773   3.891   8.004 -0.1551  3.3995  1.3660
 1738SOL    HW216677   2.720   3.878   7.875 -0.7299  0.0133  0.9410
 1739SOL     OW16678   2.715   2.380   6.248  0.4367  0.2168 -0.2387
 1739SOL    HW116679   2.752   2.425   6.172 -1.0590  3.5385  1.0124
 1739SOL    HW216680   2.649   2.326   6.204  1.6237  0.2764 -2.0664
 1740SOL     OW16681   1.057   2.266   4.918  0.2478  0.4571  0.4651
 1740SOL    HW116682   1.065   2.259   5.013  0.9763  0.2288  0.3896
 1740SOL    HW216683   0.968   2.242   4.892  0.9397  0.1599 -1.6809
 1741SOL     OW16684   4.154   0.504   1.315 -0.0360 -0.1867 -0.6624
 1741SOL    HW116685   4.191   0.517   1.227  0.0054 -2.3553 -0.9702
 1741SOL    HW216686   4.213   0.557   1.369 -1.4641  0.9131 -0.1918
 1742SOL     OW16687   4.392   4.225  14.069  0.0466 -0.3966 -0.3097
 1742SOL    HW116688   4.383   4.275  14.149 -2.4564 -1.1472 -0.1097
 1742SOL    HW216689   4.468   4.270  14.032 -1.1378  0.4879 -1.6704
 1743SOL     OW16690   3.189   0.826  15.674 -0.1966 -0.1806  0.1999
 1743SOL    HW116691   3.282   0.839  15.690  0.0603 -0.6866 -0.9280
 1743SOL    HW216692   3.173   0.761  15.606 -1.4803 -0.5421  0.8380
 1744SOL     OW16693   0.436   1.815   5.806  0.4713 -0.5267  0.1516
 1744SOL    HW116694   0.382   1.740   5.831  0.0443 -0.2548  0.0390
 1744SOL    HW216695   0.518   1.770   5.786  0.9162 -0.5133  1.9137
 1745SOL     OW16696   0.013   3.931   3.060  0.3997  0.8104  0.2701
 1745SOL    HW116697   4.682   3.972   2.994  1.7263  1.6716 -0.3115
 1745SOL    HW216698   0.077   4.002   3.070  1.3188 -0.1553  1.2265
 1746SOL     OW16699   1.376   2.066   4.764  0.6043  0.5669  0.4509
 1746SOL    HW116700   1.318   1.996   4.793  1.2379 -0.6139 -1.1425
 1746SOL    HW216701   1.416   2.072   4.851  1.5855 -1.2379  0.1261
 1747SOL     OW16702   0.478   1.330   2.304 -0.5479  0.7272  0.6525
 1747SOL    HW116703   0.525   1.410   2.328 -0.5838  1.5412 -2.0132
 1747SOL    HW216704   0.422   1.361   2.234  1.4244 -1.5176 -1.9081
 1748SOL     OW16705   0.988   1.656   2.003 -0.0092 -0.3071  0.3767
 1748SOL    HW116706   1.015   1.713   1.932  2.3523  0.3798  1.8228
 1748SOL    HW216707   0.953   1.582   1.954  1.1538 -0.8348  0.3611
 1749SOL     OW16708   3.284   0.831   1.564 -0.3851 -0.3561 -0.6390
 1749SOL    HW116709   3.320   0.791   1.485  0.2409  0.3094 -0.6915
 1749SOL    HW216710   3.190   0.822   1.546 -0.2222  0.7906 -2.1061
 1750SOL     OW16711   0.126   4.429  17.151  0.2778 -0.7786 -0.1182
 1750SOL    HW116712   0.047   4.443  17.098 -0.0424  0.2494  0.6408
 1750SOL    HW216713   0.158   4.357  17.096 -0.4827  0.7444 -2.5540
 1751SOL     OW16714   3.212   0.517   8.393  0.4984 -0.0028 -0.5256
 1751SOL    HW116715   3.177   0.600   8.423  1.5693  0.1791  0.2444
 1751SOL    HW216716   3.285   0.505   8.455 -0.8435 -1.1013  0.8619
 1752SOL     OW16717   2.093   4.675   4.812 -0.1132  0.2671 -0.2285
 1752SOL    HW116718   2.045   4.603   4.852  0.0522  1.1032  1.5014
 1752SOL    HW216719   2.182   4.651   4.839 -0.3623  0.5320  0.8482
 1753SOL     OW16720   2.799   3.932   6.521 -0.0230  0.2754  0.1248
 1753SOL    HW116721   2.735   3.878   6.474  0.7249 -0.4813 -0.0311
 1753SOL    HW216722   2.814   4.012   6.470 -0.4455 -1.6725 -3.0832
 1754SOL     OW16723   1.880   4.456   7.719 -0.0855 -0.3585 -0.4485
 1754SOL    HW116724   1.931   4.442   7.799 -0.6784  0.9439  0.1661
 1754SOL    HW216725   1.794   4.464   7.760 -1.1095 -1.7136 -2.3219
 1755SOL     OW16726   0.838   4.392  15.062  0.2856 -0.5876  0.1242
 1755SOL    HW116727   0.870   4.312  15.105  2.0036  0.8206  1.4648
 1755SOL    HW216728   0.919   4.429  15.027  0.5153 -0.9407  0.2747
 1756SOL     OW16729   3.323   1.709  12.994  0.5867  0.2666 -0.3085
 1756SOL    HW116730   3.324   1.804  12.989 -1.4101  0.2529 -1.0161
 1756SOL    HW216731   3.407   1.681  13.031  0.4391  1.0039  0.5812
 1757SOL     OW16732   0.754   4.327  14.719 -1.0152 -0.5300  0.2627
 1757SOL    HW116733   0.744   4.329  14.624  1.2123 -0.4457  0.0355
 1757SOL    HW216734   0.845   4.304  14.737 -0.2078  2.7585  0.2138
 1758SOL     OW16735   2.897   2.835   8.632  0.4841  0.0493 -1.0066
 1758SOL    HW116736   2.843   2.890   8.575 -2.8042 -1.0818  0.9845
 1758SOL    HW216737   2.837   2.761   8.646  0.1674  0.5369  0.1575
 1759SOL     OW16738   3.035   4.107   3.181 -0.3308  0.0748  0.0326
 1759SOL    HW116739   3.050   4.184   3.125 -0.2281 -0.4693 -0.6909
 1759SOL    HW216740   3.049   4.042   3.112  1.1225  2.1458 -1.6088
 1760SOL     OW16741   1.964   0.628   7.360  0.0088  0.2287  0.3014
 1760SOL    HW116742   2.026   0.667   7.298 -0.9240  2.0982  0.5182
 1760SOL    HW216743   2.027   0.560   7.381 -0.9376 -0.8083 -0.2003
 1761SOL     OW16744   2.556   2.156   4.435  0.0264  0.2026 -0.4001
 1761SOL    HW116745   2.491   2.089   4.414 -1.8166  2.4933 -1.8757
 1761SOL    HW216746   2.576   2.198   4.351  1.4954  0.8419  0.2728
 1762SOL     OW16747   4.572   0.015   2.315  0.1921  0.1071 -0.2958
 1762SOL    HW116748   4.478   0.009   2.295  0.2333 -1.4433 -0.0141
 1762SOL    HW216749   4.579   4.644   2.312  0.7400  0.1656 -1.0072
 1763SOL     OW16750   2.375   4.069  16.912 -0.1140  0.0650  0.3930
 1763SOL    HW116751   2.317   4.080  16.988 -1.5135  0.9687 -0.7923
 1763SOL    HW216752   2.307   4.056  16.846  0.8120 -0.0953 -0.5280
 1764SOL     OW16753   2.232   4.156  12.952 -0.3378  0.5915 -0.5864
 1764SOL    HW116754   2.219   4.234  12.899  1.4427  0.7144 -0.8517
 1764SOL    HW216755   2.184   4.176  13.032  1.8453 -0.3544  0.9461
 1765SOL     OW16756   1.047   4.393   6.079  0.5395 -0.0026 -0.6775
 1765SOL    HW116757   1.057   4.324   6.013 -0.6103 -1.7834  1.0326
 1765SOL    HW216758   0.994   4.451   6.024  0.1358 -0.5448 -0.8621
 1766SOL     OW16759   0.136   1.604   7.718  0.1983 -0.3781 -0.2010
 1766SOL    HW116760   0.191   1.590   7.640  2.1359  1.2787  0.8480
 1766SOL    HW216761   0.091   1.520   7.719 -0.7765  0.1169 -1.8651
 1767SOL     OW16762   0.582   1.737  17.223  0.3286  0.3576  0.7408
 1767SOL    HW116763   0.648   1.740  17.154  0.2135 -1.5114  0.5367
 1767SOL    HW216764   0.616   1.802  17.284  0.8379 -0.8724  1.7934
 1768SOL     OW16765   2.305   1.321   7.080  0.1698  0.1610 -0.5824
 1768SOL    HW116766   2.253   1.300   7.158  2.3912  2.1210  1.4574
 1768SOL    HW216767   2.243   1.391   7.059  0.6401  0.5243 -0.7583
 1769SOL     OW16768   4.084   3.807   7.957  0.1830 -0.0203 -0.0621
 1769SOL    HW116769   3.997   3.805   7.917  0.5842  1.4639 -0.9862
 1769SOL    HW216770   4.103   3.901   7.954 -0.4712 -0.0146 -3.1987
 1770SOL     OW16771   2.964   2.336   5.583  1.1290 -0.0886  0.5040
 1770SOL    HW116772   2.888   2.278   5.579  2.3653 -1.4931 -2.2167
 1770SOL    HW216773   3.009   2.299   5.659 -0.2622 -0.8233  0.9708
 1771SOL     OW16774   4.444   3.746   6.341 -0.2150  0.2216 -0.7192
 1771SOL    HW116775   4.420   3.836   6.320 -0.4659 -0.4849 -3.5165
 1771SOL    HW216776   4.436   3.700   6.258 -0.0199  0.9180 -1.1226
 1772SOL     OW16777   1.062   1.104   6.827 -0.9197  0.2149  0.0797
 1772SOL    HW116778   1.105   1.050   6.893 -0.0463  0.6540 -0.1323
 1772SOL    HW216779   1.118   1.087   6.752  0.1406 -0.8403  1.0975
 1773SOL     OW16780   3.417   0.430   5.579 -0.4940  0.3322 -0.2231
 1773SOL    HW116781   3.339   0.462   5.625 -0.3443 -0.6330  0.6748
 1773SOL    HW216782   3.477   0.417   5.652  1.7458  2.3870 -1.7019
 1774SOL     OW16783   1.672   0.655   6.740 -0.9875 -0.1701  0.5911
 1774SOL    HW116784   1.590   0.621   6.702 -1.0843  1.1427 -0.3851
 1774SOL    HW216785   1.653   0.651   6.834  1.8150 -0.8192  1.1094
 1775SOL     OW16786   0.632   1.737   5.214 -0.6617  0.4254 -0.5987
 1775SOL    HW116787   0.592   1.816   5.250  0.9263  1.7473 -1.7553
 1775SOL    HW216788   0.635   1.757   5.121 -3.4984  2.6939 -0.1751
 1776SOL     OW16789   4.671   1.165   1.694  0.3350  0.7055 -0.0882
 1776SOL    HW116790   4.687   1.103   1.623  0.0850  0.2149  0.2807
 1776SOL    HW216791   4.577   1.150   1.702  0.5988 -0.6982  0.4466
 1777SOL     OW16792   2.358   1.297  11.046 -0.1650  0.0001  0.3544
 1777SOL    HW116793   2.391   1.318  11.133 -1.8163 -1.7040  1.3907
 1777SOL    HW216794   2.434   1.281  10.991 -0.2204  2.2392 -0.3771
 1778SOL     OW16795   2.411   2.597  11.460 -0.2229 -0.3563  0.0533
 1778SOL    HW116796   2.355   2.573  11.386 -0.2288 -1.2826  0.3623
 1778SOL    HW216797   2.360   2.673  11.491  1.0147  0.0302  1.1402
 1779SOL     OW16798   3.269   2.997  11.448 -0.3371 -0.1039  0.7833
 1779SOL    HW116799   3.208   3.053  11.400  1.1835  2.8596  2.3238
 1779SOL    HW216800   3.201   2.944  11.490 -2.4446 -0.4587 -2.9808
 1780SOL     OW16801   4.578   0.533   1.902  0.0051 -0.4513 -0.1637
 1780SOL    HW116802   4.589   0.612   1.954 -2.2129 -0.5859  0.4853
 1780SOL    HW216803   4.641   0.470   1.939 -2.1189 -2.4061  0.1232
 1781SOL     OW16804   0.958   1.319   5.006  0.4765  0.0059  1.1936
 1781SOL    HW116805   0.939   1.384   4.939  1.7732 -1.0821 -0.2220
 1781SOL    HW216806   0.969   1.387   5.073  3.9674 -0.4747  1.0886
 1782SOL     OW16807   0.200   2.131   1.753 -0.0212  0.2903 -0.2524
 1782SOL    HW116808   0.141   2.169   1.688 -0.5110  0.0100  0.0251
 1782SOL    HW216809   0.261   2.078   1.702 -0.4540  1.5213 -2.0661
 1783SOL     OW16810   1.177   2.067  12.373 -0.3032  0.5614  0.1946
 1783SOL    HW116811   1.142   2.038  12.457 -0.0339  1.7123  0.6970
 1783SOL    HW216812   1.257   2.014  12.370 -0.0134  0.9992  0.2037
 1784SOL     OW16813   3.994   0.429   9.391  0.1588 -0.1733  0.0004
 1784SOL    HW116814   4.012   0.347   9.438  1.7715  0.0030 -0.3271
 1784SOL    HW216815   4.028   0.491   9.454 -2.0764  0.6884  0.3699
 1785SOL     OW16816   2.428   1.940  10.344 -0.1261  0.2552  0.2243
 1785SOL    HW116817   2.451   1.850  10.367  2.5692  0.9581  0.3258
 1785SOL    HW216818   2.334   1.934  10.331 -0.0211  0.6182 -0.7513
 1786SOL     OW16819   0.041   3.888   5.610  0.6419 -0.1480 -0.3187
 1786SOL    HW116820   0.093   3.843   5.544 -0.7998 -2.9919  0.5149
 1786SOL    HW216821   0.039   3.976   5.573 -1.0516 -0.0322  0.0332
 1787SOL     OW16822   3.147   3.166   4.930  0.0317  0.3346  0.0990
 1787SOL    HW116823   3.066   3.214   4.946 -0.3706 -0.0574 -0.7835
 1787SOL    HW216824   3.134   3.155   4.836  2.2132  1.8713 -0.3929
 1788SOL     OW16825   3.968   2.655  14.806 -0.3532  0.1844  0.5783
 1788SOL    HW116826   4.021   2.726  14.842  0.0376  0.7984 -1.2006
 1788SOL    HW216827   4.018   2.588  14.852 -2.5109 -0.5577  1.8261
 1789SOL     OW16828   4.235   2.196   6.346  0.1842  0.9624 -0.2263
 1789SOL    HW116829   4.289   2.121   6.321 -1.5432 -0.3105 -0.0681
 1789SOL    HW216830   4.247   2.250   6.268  0.8730  2.3091  0.8153
 1790SOL     OW16831   3.152   1.636   7.070  0.1017  0.8135  0.2390
 1790SOL    HW116832   3.209   1.677   7.005  0.1073  0.1313 -0.1896
 1790SOL    HW216833   3.225   1.600   7.121  0.7306  0.0854 -1.1626
 1791SOL     OW16834   0.045   4.583   7.577 -0.5770 -0.8267  0.7555
 1791SOL    HW116835   0.120   4.553   7.628 -2.2776 -0.4688  3.4745
 1791SOL    HW216836   0.055   4.523   7.503 -0.8369  0.4405 -0.3036
 1792SOL     OW16837   2.677   1.403   3.752 -0.1348 -0.1317  0.0772
 1792SOL    HW116838   2.601   1.441   3.795  0.7507  0.4474  1.1308
 1792SOL    HW216839   2.748   1.455   3.790  0.6523 -0.3799 -1.0274
 1793SOL     OW16840   1.855   2.328  12.751 -0.3611 -0.2612  1.0924
 1793SOL    HW116841   1.836   2.421  12.740  0.9547  0.3307  3.6949
 1793SOL    HW216842   1.906   2.309  12.672  0.7648 -2.4031  2.3165
 1794SOL     OW16843   4.483   4.715   3.989  0.1517  0.1059  0.1795
 1794SOL    HW116844   4.469   4.686   4.080  0.7524 -0.3126  0.1419
 1794SOL    HW216845   4.518   0.079   4.001 -1.3427  0.6107  0.7923
 1795SOL     OW16846   3.123   0.367   0.690 -0.1938 -0.1615 -0.0228
 1795SOL    HW116847   3.065   0.313   0.636 -1.0079  0.4421  0.2442
 1795SOL    HW216848   3.203   0.316   0.691  0.1552  0.3500 -1.1973
 1796SOL     OW16849   0.005   2.464   3.284  0.0470 -0.2516  0.2768
 1796SOL    HW116850   4.709   2.495   3.195  3.9201 -0.6969 -0.7290
 1796SOL    HW216851   4.639   2.456   3.314 -1.0307  0.7543 -2.6741
 1797SOL     OW16852   4.211   3.460   3.063 -0.6401 -0.2952 -0.1433
 1797SOL    HW116853   4.294   3.440   3.106 -0.3410 -1.4483 -1.2847
 1797SOL    HW216854   4.161   3.389   3.104 -1.1817  1.9947  3.2176
 1798SOL     OW16855   2.687   1.702   3.030 -0.2730 -0.2556  0.2023
 1798SOL    HW116856   2.611   1.742   3.074  0.0999 -0.0979  0.7144
 1798SOL    HW216857   2.674   1.608   3.029  0.8550 -0.3673 -4.1763
 1799SOL     OW16858   4.517   3.614   8.096  0.9556  0.1992 -0.1098
 1799SOL    HW116859   4.427   3.608   8.063  0.8063 -1.2654  0.5604
 1799SOL    HW216860   4.570   3.580   8.024  1.4452 -0.1237  0.3982
 1800SOL     OW16861   2.751   2.426  13.999  0.3737 -0.3101 -0.3328
 1800SOL    HW116862   2.691   2.404  14.070  0.6527 -1.3744 -0.4319
 1800SOL    HW216863   2.775   2.343  13.959  1.7654 -1.3497  2.6340
 1801SOL     OW16864   4.253   0.797   2.059 -0.5838 -0.1870 -0.4347
 1801SOL    HW116865   4.219   0.823   2.145 -0.0241 -2.5836  0.5152
 1801SOL    HW216866   4.301   0.716   2.079 -0.5248  0.3918  1.7931
 1802SOL     OW16867   3.452   4.610   2.831 -0.0336 -0.1590 -0.0838
 1802SOL    HW116868   3.452   4.643   2.742 -0.4829 -0.9642 -0.3853
 1802SOL    HW216869   3.541   4.576   2.843 -0.5600 -1.9886 -1.3767
 1803SOL     OW16870   3.900   1.603  13.528  0.3327 -0.0992 -0.5011
 1803SOL    HW116871   3.921   1.517  13.490  1.4666 -0.1279  0.2009
 1803SOL    HW216872   3.859   1.653  13.458 -0.5657  1.6116  1.2489
 1804SOL     OW16873   4.446   2.763   2.423 -0.5491  0.5492 -0.7115
 1804SOL    HW116874   4.467   2.669   2.427 -1.1016  0.4182 -0.9239
 1804SOL    HW216875   4.391   2.768   2.502  1.6820 -2.9912  1.0769
 1805SOL     OW16876   0.456   1.568   2.831  0.4477  0.1425  0.0377
 1805SOL    HW116877   0.541   1.591   2.868  0.1275 -1.4962  1.7837
 1805SOL    HW216878   0.414   1.515   2.899 -0.3131  1.4019  0.5395
 1806SOL     OW16879   3.431   2.951   2.704 -0.2321  0.5967  0.0404
 1806SOL    HW116880   3.501   2.931   2.642 -0.3949  1.6773 -0.5022
 1806SOL    HW216881   3.428   2.873   2.759 -2.6235  1.5099  1.2255
 1807SOL     OW16882   3.731   0.840   5.491  0.2330 -0.3678 -0.4457
 1807SOL    HW116883   3.712   0.867   5.401  0.7152  1.0045 -0.1350
 1807SOL    HW216884   3.697   0.918   5.535 -2.2744 -0.5316 -2.0895
 1808SOL     OW16885   2.928   3.615   8.647 -0.2612 -0.0136 -0.3006
 1808SOL    HW116886   2.892   3.527   8.656  0.6188 -0.2553  0.8515
 1808SOL    HW216887   2.859   3.672   8.681 -0.0077 -0.4885  0.9968
 1809SOL     OW16888   4.362   4.376   7.196  0.0793 -0.0817  0.4996
 1809SOL    HW116889   4.395   4.293   7.164 -0.0068  1.4756 -3.5785
 1809SOL    HW216890   4.359   4.413   7.108  2.3459 -3.2789 -0.9020
 1810SOL     OW16891   3.469   3.003  11.934 -0.1915  0.2512  0.0078
 1810SOL    HW116892   3.499   2.913  11.942  2.0465  1.0129  0.3343
 1810SOL    HW216893   3.539   3.049  11.981 -0.3774 -0.3310  0.8409
 1811SOL     OW16894   0.899   0.129   3.625 -0.0024 -0.0610  0.0229
 1811SOL    HW116895   0.929   0.087   3.705  1.9614  0.6548 -0.3464
 1811SOL    HW216896   0.824   0.077   3.596 -1.1168  1.7985 -0.4649
 1812SOL     OW16897   2.461   0.544   4.885  0.5155 -0.2626  0.1312
 1812SOL    HW116898   2.523   0.573   4.818  1.0060 -0.5576  0.4564
 1812SOL    HW216899   2.502   0.459   4.906  1.0060  0.3357  1.6552
 1813SOL     OW16900   4.103   3.528   3.484  0.0109  0.7970 -0.2147
 1813SOL    HW116901   4.040   3.463   3.451  0.7737 -0.3499  0.5598
 1813SOL    HW216902   4.124   3.573   3.403  0.1674  0.8939 -0.1206
 1814SOL     OW16903   1.808   4.263  11.122  0.3029 -0.9871  0.7529
 1814SOL    HW116904   1.752   4.259  11.201 -1.4094 -0.5391 -0.4297
 1814SOL    HW216905   1.894   4.232  11.150  1.4524  0.9982 -0.5982
 1815SOL     OW16906   3.068   3.677  15.004  0.0930  0.3447 -0.0816
 1815SOL    HW116907   3.023   3.663  15.087 -1.3103 -1.1827 -1.0901
 1815SOL    HW216908   2.991   3.693  14.949 -0.3551 -2.3645 -0.2557
 1816SOL     OW16909   1.145   3.831   8.908  0.1179 -0.6640  0.2692
 1816SOL    HW116910   1.186   3.783   8.980  1.6296  0.4664  0.1503
 1816SOL    HW216911   1.059   3.788   8.903 -0.0246 -0.3980  0.4226
 1817SOL     OW16912   2.863   2.996  11.523  0.3618 -0.1578 -0.2964
 1817SOL    HW116913   2.850   3.016  11.616  2.3116 -0.9595  0.1488
 1817SOL    HW216914   2.782   2.947  11.511  0.6887 -0.6481 -0.4923
 1818SOL     OW16915   2.883   1.541   1.829 -1.1544 -0.2143  0.4794
 1818SOL    HW116916   2.894   1.459   1.780 -0.0525 -0.0042  0.3906
 1818SOL    HW216917   2.970   1.549   1.867 -0.1265  2.2285 -2.4337
 1819SOL     OW16918   0.940   0.546   6.073  0.2613  0.1277 -0.5508
 1819SOL    HW116919   1.019   0.588   6.040  0.4201  0.6203  0.4702
 1819SOL    HW216920   0.877   0.618   6.080  0.8013  0.5786 -0.3225
 1820SOL     OW16921   3.379   2.616   6.664 -0.0653 -0.8800  0.0107
 1820SOL    HW116922   3.296   2.581   6.633  0.9155 -1.1391 -2.3158
 1820SOL    HW216923   3.349   2.672   6.736 -1.2395 -2.1190  0.4691
 1821SOL     OW16924   3.813   1.539  15.170 -0.1903  0.1207  0.0041
 1821SOL    HW116925   3.828   1.460  15.221 -1.2813 -0.5268 -0.6832
 1821SOL    HW216926   3.904   1.567  15.158 -0.2322  0.0626 -0.4471
 1822SOL     OW16927   2.628   2.648   4.381  0.0148 -0.3926  0.4313
 1822SOL    HW116928   2.534   2.661   4.369  0.2076 -1.3330 -2.0892
 1822SOL    HW216929   2.658   2.614   4.297 -0.0063  1.1564 -0.2040
 1823SOL     OW16930   4.599   1.152   9.883  0.2112  0.3210 -0.3118
 1823SOL    HW116931   4.628   1.207   9.810  1.2286  0.2794  0.0617
 1823SOL    HW216932   4.653   1.185   9.955  0.5584 -0.1779 -0.3390
 1824SOL     OW16933   1.992   3.444  10.644 -0.7056  0.3100 -0.5345
 1824SOL    HW116934   2.062   3.459  10.581 -1.5094 -1.7431 -1.9115
 1824SOL    HW216935   2.033   3.382  10.705  0.3244  0.0805 -1.4537
 1825SOL     OW16936   2.400   2.374  13.848 -0.3598  0.0095 -0.1200
 1825SOL    HW116937   2.398   2.278  13.849 -2.0434  0.0410 -0.5669
 1825SOL    HW216938   2.408   2.372  13.753 -1.7021  2.9242 -0.2715
 1826SOL     OW16939   3.649   3.100   3.869  0.2623 -0.4300 -0.2839
 1826SOL    HW116940   3.695   3.183   3.853  0.2638  0.0347  2.1200
 1826SOL    HW216941   3.689   3.045   3.802  2.8128  0.3491  0.5902
 1827SOL     OW16942   1.864   2.223  10.688  0.2910 -0.2988 -0.1016
 1827SOL    HW116943   1.923   2.289  10.725  1.7046 -1.2316 -0.6743
 1827SOL    HW216944   1.930   2.169  10.645  0.8502 -0.7080  1.2715
 1828SOL     OW16945   3.035   1.208  13.226  0.1958  0.0092 -0.1026
 1828SOL    HW116946   3.003   1.118  13.225  0.3259 -0.0319 -0.9818
 1828SOL    HW216947   3.083   1.208  13.308 -0.5956  0.3007  0.3623
 1829SOL     OW16948   0.803   2.740  14.534  0.3729 -0.0407 -0.0506
 1829SOL    HW116949   0.753   2.678  14.481  0.2864  0.7547 -0.8997
 1829SOL    HW216950   0.754   2.735  14.617 -0.0720 -1.0815 -0.3781
 1830SOL     OW16951   1.916   4.181  14.815 -0.3723 -0.3363 -0.7271
 1830SOL    HW116952   1.852   4.193  14.744  0.7689  3.7670 -1.0502
 1830SOL    HW216953   1.994   4.181  14.759  1.4779 -3.1706  1.8314
 1831SOL     OW16954   3.245   2.435   4.697  0.1739 -0.1807  0.7135
 1831SOL    HW116955   3.180   2.477   4.640  0.2327 -0.5942  0.3488
 1831SOL    HW216956   3.208   2.445   4.785 -1.6610  0.9673 -0.1816
 1832SOL     OW16957   4.205   2.589  11.668  0.5941 -0.1616  0.5027
 1832SOL    HW116958   4.281   2.621  11.619 -0.4498  1.8703  0.2103
 1832SOL    HW216959   4.138   2.589  11.599  3.0512 -1.2083 -1.9138
 1833SOL     OW16960   0.204   2.464   1.533  0.0917 -0.4982  0.1658
 1833SOL    HW116961   0.260   2.534   1.566  0.0999 -0.2793 -0.3152
 1833SOL    HW216962   0.271   2.407   1.497  1.4477  0.3813  1.2987
 1834SOL     OW16963   2.895   0.780   2.445 -0.1557  0.1319  0.2852
 1834SOL    HW116964   2.850   0.726   2.381  3.2746 -1.7630 -0.5448
 1834SOL    HW216965   2.848   0.747   2.522  0.8779  0.4288  1.0456
 1835SOL     OW16966   1.074   1.531   0.418  0.0633  0.4720  0.1031
 1835SOL    HW116967   0.992   1.485   0.404  1.1352 -0.9094 -1.5886
 1835SOL    HW216968   1.086   1.569   0.331 -3.0858  0.3063 -0.4031
 1836SOL     OW16969   4.154   2.963   2.154 -0.1660  0.2030 -0.2026
 1836SOL    HW116970   4.230   2.905   2.157  0.0261  0.4576 -0.1879
 1836SOL    HW216971   4.178   3.024   2.084  1.7672  0.5296  0.7388
 1837SOL     OW16972   1.577   0.985   3.692  0.3401  0.0075 -0.4559
 1837SOL    HW116973   1.649   1.024   3.641  0.1672 -0.3071 -0.9436
 1837SOL    HW216974   1.626   0.922   3.744  0.3412  0.1513 -0.2837
 1838SOL     OW16975   4.399   3.051   2.825  0.5012 -0.5491  0.0662
 1838SOL    HW116976   4.407   3.064   2.920 -0.6443  1.5086 -0.1155
 1838SOL    HW216977   4.314   3.090   2.806  2.1333  2.6805 -0.7094
 1839SOL     OW16978   0.400   3.583   5.461 -0.3427  0.2236 -0.2630
 1839SOL    HW116979   0.346   3.523   5.410 -0.8005  0.4998 -0.1015
 1839SOL    HW216980   0.369   3.557   5.547 -0.8547  0.9296 -0.2301
 1840SOL     OW16981   0.561   0.779   2.836  0.0754 -0.2599  0.2717
 1840SOL    HW116982   0.624   0.786   2.907 -0.1313 -3.3468  0.7693
 1840SOL    HW216983   0.614   0.813   2.764 -0.0420 -0.7973 -0.0635
 1841SOL     OW16984   1.908   1.025  16.295  0.5872  0.3409  0.3818
 1841SOL    HW116985   1.819   1.049  16.270  1.9985  2.8950 -2.1535
 1841SOL    HW216986   1.966   1.101  16.290 -1.4744  1.7311 -2.0649
 1842SOL     OW16987   3.219   0.666  13.146  0.5750  0.0907 -0.3828
 1842SOL    HW116988   3.231   0.657  13.051  1.1202 -0.7233 -0.2431
 1842SOL    HW216989   3.274   0.743  13.161 -0.0409  0.4911 -0.1822
 1843SOL     OW16990   0.947   1.213   4.709 -0.2690 -0.7369  0.1569
 1843SOL    HW116991   0.936   1.265   4.629 -0.7627 -2.6354 -1.0278
 1843SOL    HW216992   1.022   1.157   4.689 -1.2066 -1.2802 -1.9250
 1844SOL     OW16993   3.519   3.610   5.100  0.1926  0.0480 -0.1343
 1844SOL    HW116994   3.478   3.524   5.096  0.3567 -0.0100 -0.6754
 1844SOL    HW216995   3.610   3.584   5.083  0.5296  0.0529  1.7338
 1845SOL     OW16996   1.239   4.183  13.649  0.1245 -0.4066  0.4692
 1845SOL    HW116997   1.262   4.258  13.705 -0.3385 -1.6016  2.2554
 1845SOL    HW216998   1.210   4.113  13.708 -1.6682 -0.2682 -0.2583
 1846SOL     OW16999   3.059   1.489  12.001 -0.4292  0.4041  0.1640
 1846SOL    HW117000   3.025   1.557  12.059  2.6651  1.9243  0.2018
 1846SOL    HW217001   3.140   1.479  12.053 -0.8093 -2.9886  0.0944
 1847SOL     OW17002   1.566   0.247  11.759  0.4877 -0.0796  0.5079
 1847SOL    HW117003   1.662   0.253  11.766  0.3686  3.4871 -1.1026
 1847SOL    HW217004   1.558   0.178  11.693 -2.6087 -1.3745  2.2966
 1848SOL     OW17005   2.513   2.332   7.506 -0.3857  0.5077  0.2727
 1848SOL    HW117006   2.437   2.303   7.455  0.0881  1.3727 -0.9459
 1848SOL    HW217007   2.575   2.261   7.518 -1.2222 -0.5103 -1.3766
 1849SOL     OW17008   4.069   3.100   7.132 -0.0101  0.2624  0.9631
 1849SOL    HW117009   4.155   3.078   7.168 -0.2837 -0.6392  1.0773
 1849SOL    HW217010   4.092   3.099   7.039 -1.4700 -2.3464  0.6283
 1850SOL     OW17011   0.725   0.236   7.260  0.6023 -0.4608 -1.0668
 1850SOL    HW117012   0.700   0.327   7.274  1.1141 -0.7938  1.8838
 1850SOL    HW217013   0.679   0.213   7.179 -1.5859 -1.5577  0.4813
 1851SOL     OW17014   0.272   4.077  12.078  0.1911  0.2462 -0.0818
 1851SOL    HW117015   0.359   4.103  12.110  0.1737 -2.0819  1.8419
 1851SOL    HW217016   0.215   4.141  12.122  1.4866  1.3780 -0.0494
 1852SOL     OW17017   1.506   4.473   4.097  0.0099 -0.0288  0.3608
 1852SOL    HW117018   1.540   4.445   4.182  1.0837 -1.1483 -0.4398
 1852SOL    HW217019   1.595   4.493   4.067 -0.0031 -0.8700 -0.2340
 1853SOL     OW17020   4.264   0.983   9.258 -0.0101 -0.5391  0.1974
 1853SOL    HW117021   4.296   0.916   9.198  0.8386 -1.5435  1.7828
 1853SOL    HW217022   4.326   0.983   9.331  0.7155 -1.1878 -0.4255
 1854SOL     OW17023   2.324   2.538   6.789 -0.0916 -0.2675  0.4809
 1854SOL    HW117024   2.350   2.624   6.757 -0.7679  0.1597  1.0682
 1854SOL    HW217025   2.228   2.546   6.786 -0.0547  1.0053  2.5816
 1855SOL     OW17026   2.639   3.728   8.971 -0.8098  0.3473  0.0798
 1855SOL    HW117027   2.616   3.802   9.028  0.2590  0.9950 -0.3266
 1855SOL    HW217028   2.578   3.665   9.009  0.1459  0.0462  1.1118
 1856SOL     OW17029   4.696   2.961   1.849 -0.6735 -0.4694 -0.4846
 1856SOL    HW117030   0.060   2.980   1.817 -0.7396 -1.1528 -1.0741
 1856SOL    HW217031   4.647   2.921   1.777 -1.2726  1.9287 -1.3869
 1857SOL     OW17032   0.992   0.319   1.326  0.2337  0.2270 -0.0697
 1857SOL    HW117033   1.068   0.375   1.310 -0.0446  0.9213  1.0160
 1857SOL    HW217034   1.031   0.273   1.401 -1.1013 -0.9511 -0.0949
 1858SOL     OW17035   0.254   3.268   7.090 -0.7290 -0.0564  0.3624
 1858SOL    HW117036   0.167   3.307   7.103 -1.1546 -0.8733  0.0055
 1858SOL    HW217037   0.290   3.310   7.012  2.5145  0.7249  2.2747
 1859SOL     OW17038   2.832   0.036   3.904  0.0458  0.2921 -0.5298
 1859SOL    HW117039   2.759   0.090   3.935  0.8897  1.0595  0.1053
 1859SOL    HW217040   2.825   0.032   3.809  1.2445 -2.2261 -0.5015
 1860SOL     OW17041   0.846   3.096   5.531 -0.0486 -0.2991 -0.1320
 1860SOL    HW117042   0.898   3.049   5.466  0.4196  1.6688 -1.1669
 1860SOL    HW217043   0.908   3.087   5.603  0.3983  0.0488 -0.4723
 1861SOL     OW17044   0.903   0.190   0.088  0.0265  0.7209  0.1653
 1861SOL    HW117045   0.985   0.232   0.115  0.0672  1.7970 -1.6192
 1861SOL    HW217046   0.899   0.212  17.694  3.0317  2.4789  0.4671
 1862SOL     OW17047   1.535   1.784   4.348 -0.3060 -0.6969  0.1204
 1862SOL    HW117048   1.610   1.806   4.294 -1.0212 -0.3438 -0.7266
 1862SOL    HW217049   1.559   1.835   4.426 -1.2910 -0.7565  0.4704
 1863SOL     OW17050   4.188   3.395   0.799 -0.9486  0.0785  0.1003
 1863SOL    HW117051   4.182   3.340   0.721  3.1264  0.3445 -0.3715
 1863SOL    HW217052   4.092   3.399   0.803 -0.8803  0.9520  0.9205
 1864SOL     OW17053   0.622   2.266  16.643  0.3639  0.4583 -0.1405
 1864SOL    HW117054   0.574   2.232  16.718  0.3472  3.6580  1.3077
 1864SOL    HW217055   0.568   2.234  16.571 -0.9200  2.1396  0.0813
 1865SOL     OW17056   1.743   3.446  11.277  0.1912 -0.4325 -0.2246
 1865SOL    HW117057   1.759   3.388  11.352 -0.5562  2.6877  2.3154
 1865SOL    HW217058   1.835   3.452  11.248  0.6833 -1.9368  1.0130
 1866SOL     OW17059   1.946   0.629  10.106  0.0416  0.1683  0.1346
 1866SOL    HW117060   1.859   0.617  10.143  1.0405  0.4268  2.5934
 1866SOL    HW217061   1.995   0.690  10.161 -0.8079 -0.1318  1.2314
 1867SOL     OW17062   0.912   2.405   6.924  0.7062 -0.3307 -0.2129
 1867SOL    HW117063   0.868   2.324   6.897 -0.8843  0.1772  0.9042
 1867SOL    HW217064   0.901   2.411   7.019 -0.8629 -0.0348 -0.4125
 1868SOL     OW17065   3.037   4.454   2.380  0.7380  0.1578 -0.3022
 1868SOL    HW117066   3.039   4.399   2.301  1.6963 -0.1454 -0.0726
 1868SOL    HW217067   3.001   4.398   2.448 -0.4654  2.5606  1.0460
 1869SOL     OW17068   0.051   2.416   5.234  0.0482  0.2736 -0.4913
 1869SOL    HW117069   4.683   2.435   5.249  0.3801  2.9542 -1.9167
 1869SOL    HW217070   0.096   2.442   5.315 -0.0359  0.5388 -0.5323
 1870SOL     OW17071   3.807   3.840   3.056 -0.2800 -0.2304  0.4342
 1870SOL    HW117072   3.817   3.824   3.149  0.9274  1.1201  0.5329
 1870SOL    HW217073   3.896   3.870   3.039  0.5924 -2.9871  0.2020
 1871SOL     OW17074   0.905   2.643  17.300  0.6148 -0.1867  0.0942
 1871SOL    HW117075   0.839   2.608  17.360 -0.6381 -0.3563 -1.3699
 1871SOL    HW217076   0.916   2.732  17.333 -0.5577 -0.6302  1.6772
 1872SOL     OW17077   0.985   0.993   6.045  0.3590 -0.3158  0.2071
 1872SOL    HW117078   1.073   0.999   6.008  0.2827 -1.1109 -0.0979
 1872SOL    HW217079   0.947   1.073   6.008  0.1419  0.7690  2.7879
 1873SOL     OW17080   1.793   2.112   4.930  0.1711 -0.0990  0.1173
 1873SOL    HW117081   1.747   2.184   4.888  1.4747  1.3410  1.1457
 1873SOL    HW217082   1.872   2.129   4.878 -1.9100  4.0955 -1.6096
 1874SOL     OW17083   1.444   1.151   8.662 -0.2578 -0.3366 -0.8885
 1874SOL    HW117084   1.371   1.102   8.624  0.1785  0.1118 -2.3144
 1874SOL    HW217085   1.500   1.079   8.690 -0.4868 -0.2908 -0.3138
 1875SOL     OW17086   3.214   0.034   3.596 -0.0071  0.7356  0.1154
 1875SOL    HW117087   3.280   0.049   3.528 -0.1155 -1.6230 -0.5097
 1875SOL    HW217088   3.228   4.666   3.618  0.9290  1.0950  1.0207
 1876SOL     OW17089   3.551   4.679   5.513  0.3068  0.0171 -0.5593
 1876SOL    HW117090   3.458   4.683   5.535  1.2865  0.8262  3.4573
 1876SOL    HW217091   3.560   0.010   5.435  0.0035  2.0439  0.8346
 1877SOL     OW17092   3.701   2.247  11.335  0.7566  0.1873 -0.3584
 1877SOL    HW117093   3.637   2.213  11.272  2.3823  0.7858 -2.3627
 1877SOL    HW217094   3.725   2.324  11.282  1.4869  1.3731  1.6916
 1878SOL     OW17095   1.705   1.793   9.303 -0.6545 -0.1539 -0.5339
 1878SOL    HW117096   1.662   1.801   9.388 -0.2951 -1.8589 -0.1820
 1878SOL    HW217097   1.749   1.711   9.328  0.2119  0.8044  1.0809
 1879SOL     OW17098   4.120   1.127   4.387  0.3587 -0.4569  0.0745
 1879SOL    HW117099   4.029   1.150   4.366 -0.4294 -0.9026  2.9845
 1879SOL    HW217100   4.157   1.214   4.405  0.7226 -0.8189  1.0773
 1880SOL     OW17101   4.190   1.688   7.373 -0.2172  0.0732  0.1679
 1880SOL    HW117102   4.115   1.643   7.412 -0.2399 -0.2456 -0.2473
 1880SOL    HW217103   4.233   1.717   7.453 -0.4104 -0.1632  0.3599
 1881SOL     OW17104   1.685   2.190   2.454 -0.5756  0.1580 -0.1737
 1881SOL    HW117105   1.632   2.260   2.417  0.5552  0.6540 -0.8587
 1881SOL    HW217106   1.712   2.158   2.368  0.1789 -1.5852  0.7182
 1882SOL     OW17107   4.295   2.412   6.143  0.6015 -0.1028  0.2265
 1882SOL    HW117108   4.309   2.425   6.049 -1.4137 -0.5492 -0.1255
 1882SOL    HW217109   4.387   2.411   6.168  0.1341  0.3105  1.9527
 1883SOL     OW17110   2.642   2.240   9.137 -0.1999 -0.6743 -0.2348
 1883SOL    HW117111   2.671   2.304   9.073 -0.7016 -0.7082 -0.4948
 1883SOL    HW217112   2.679   2.162   9.096 -1.6226 -1.7038  0.4192
 1884SOL     OW17113   3.478   4.358   1.801 -0.6798  0.0954 -0.3273
 1884SOL    HW117114   3.527   4.282   1.771 -0.5193  0.7300 -1.6718
 1884SOL    HW217115   3.481   4.345   1.896 -1.5991  0.0091 -0.3072
 1885SOL     OW17116   1.563   4.512   8.449 -0.1222  0.3423 -0.1620
 1885SOL    HW117117   1.518   4.588   8.411 -1.2583  0.4867  1.4609
 1885SOL    HW217118   1.650   4.550   8.457 -0.8519  1.6811  1.3333
 1886SOL     OW17119   3.378   1.433   8.597  0.1969 -0.4007 -0.2094
 1886SOL    HW117120   3.422   1.505   8.552 -0.7265  0.7647  0.7409
 1886SOL    HW217121   3.438   1.361   8.581  1.5626  0.5086  0.8115
 1887SOL     OW17122   0.083   3.313   5.818  0.6887 -0.0435  0.2130
 1887SOL    HW117123   0.085   3.397   5.864 -1.3680 -0.8757  1.7935
 1887SOL    HW217124   0.067   3.257   5.894 -1.9806 -3.1043 -2.5848
 1888SOL     OW17125   3.673   0.140   3.333 -0.3094  0.2736 -0.6100
 1888SOL    HW117126   3.652   0.223   3.290 -2.2507  0.1731  0.1512
 1888SOL    HW217127   3.675   0.080   3.258 -2.2305 -0.9505  0.3179
 1889SOL     OW17128   2.445   2.953   5.199  0.0518  1.1391  0.1417
 1889SOL    HW117129   2.511   2.894   5.162 -0.3791 -0.0795  1.2955
 1889SOL    HW217130   2.435   3.013   5.125 -0.3379 -0.5495 -1.1919
 1890SOL     OW17131   1.729   1.759   2.603  0.1867  0.3402  0.4097
 1890SOL    HW117132   1.810   1.749   2.652  0.8874  3.5909 -0.0576
 1890SOL    HW217133   1.738   1.845   2.561 -1.8779  1.1787  1.7122
 1891SOL     OW17134   3.735   1.412   9.979  0.3911  0.2405  0.6302
 1891SOL    HW117135   3.704   1.327  10.011  0.2608  1.0897  2.7433
 1891SOL    HW217136   3.813   1.421  10.033 -0.4751 -0.1015  1.9353
 1892SOL     OW17137   2.921   3.280   7.844  0.5640  0.2330  0.1245
 1892SOL    HW117138   2.905   3.365   7.801  2.1924 -1.1627 -3.2648
 1892SOL    HW217139   2.895   3.299   7.934  1.8277  1.8230  0.1463
 1893SOL     OW17140   2.545   1.130   8.981 -0.6419 -0.2036  0.1153
 1893SOL    HW117141   2.480   1.077   8.934  1.2057 -1.2219 -1.2797
 1893SOL    HW217142   2.487   1.200   9.011  0.6835  0.1346  1.8526
 1894SOL     OW17143   3.518   0.268   9.161 -0.6962  0.0510 -0.5139
 1894SOL    HW117144   3.548   0.202   9.099 -1.4674 -0.3123 -0.5029
 1894SOL    HW217145   3.488   0.216   9.236  1.6186  0.5418  0.7546
 1895SOL     OW17146   2.244   0.503   0.784  0.5902 -0.4183 -0.1860
 1895SOL    HW117147   2.235   0.508   0.689 -0.2528 -0.6827 -0.1203
 1895SOL    HW217148   2.228   0.589   0.822  1.0885  0.0482 -1.0269
 1896SOL     OW17149   0.558   2.346  14.343  0.3903  0.0158  0.5421
 1896SOL    HW117150   0.570   2.253  14.361  2.5055  0.4394  1.3141
 1896SOL    HW217151   0.568   2.344  14.248  3.9469  0.4674  0.9339
 1897SOL     OW17152   2.806   2.321  14.312 -0.0882 -0.3730  0.0947
 1897SOL    HW117153   2.773   2.405  14.345  0.2081 -0.7501  1.3331
 1897SOL    HW217154   2.725   2.294  14.268 -0.9984 -0.5946  1.9149
 1898SOL     OW17155   3.772   3.918   9.744 -0.1412 -0.3226  0.1065
 1898SOL    HW117156   3.753   4.004   9.781 -5.6179 -2.4133  2.1253
 1898SOL    HW217157   3.771   3.862   9.821  0.0842 -0.8324 -0.2650
 1899SOL     OW17158   0.390   4.318  16.552  0.2804 -0.0105  0.2644
 1899SOL    HW117159   0.338   4.383  16.599  0.8519  0.6274  0.0244
 1899SOL    HW217160   0.475   4.351  16.579  0.4540  0.3655 -0.7356
 1900SOL     OW17161   0.448   3.411  14.652 -0.4643  0.3723 -0.8303
 1900SOL    HW117162   0.538   3.385  14.671  0.4328  3.5065 -0.7659
 1900SOL    HW217163   0.430   3.490  14.702 -0.9102 -0.2335 -0.0285
 1901SOL     OW17164   3.422   1.340  10.306  0.7651 -0.5164  0.1059
 1901SOL    HW117165   3.443   1.251  10.336 -0.6855 -1.8541 -2.8647
 1901SOL    HW217166   3.368   1.370  10.379 -0.8448 -3.8951  0.3380
 1902SOL     OW17167   2.018   3.180   0.556  0.2057 -0.1556 -0.5624
 1902SOL    HW117168   1.949   3.153   0.495 -1.0287 -0.0181  0.7631
 1902SOL    HW217169   1.992   3.271   0.573  3.3655  0.9702 -1.8462
 1903SOL     OW17170   4.473   0.426   8.914  0.8778  0.3415 -0.2765
 1903SOL    HW117171   4.541   0.359   8.912  0.0302 -0.4982 -0.7226
 1903SOL    HW217172   4.423   0.402   8.836  0.0067 -0.5366  0.5493
 1904SOL     OW17173   2.841   0.632  13.440 -0.1025 -0.4590 -0.5369
 1904SOL    HW117174   2.869   0.599  13.526 -2.2197 -0.1237  0.2732
 1904SOL    HW217175   2.756   0.673  13.455 -0.0705 -0.4588 -0.3584
 1905SOL     OW17176   3.350   4.089   9.620 -0.5603  0.0651  0.0963
 1905SOL    HW117177   3.379   4.122   9.705 -2.0220 -0.0531  0.6316
 1905SOL    HW217178   3.393   4.003   9.622  1.3104  0.9781 -0.6950
 1906SOL     OW17179   3.708   1.849   4.832  0.2951  0.3937  0.2606
 1906SOL    HW117180   3.739   1.788   4.765  1.2262  0.7052  0.3934
 1906SOL    HW217181   3.784   1.863   4.890  1.4381  1.1837 -1.4222
 1907SOL     OW17182   1.278   3.400   8.369  0.2201  0.6073  0.4330
 1907SOL    HW117183   1.317   3.318   8.399  0.6335  0.7853  0.3769
 1907SOL    HW217184   1.206   3.410   8.431 -0.1350  0.7317 -0.0011
 1908SOL     OW17185   3.820   3.815   9.983 -0.0110  0.2736 -0.5782
 1908SOL    HW117186   3.905   3.857   9.988 -1.3037  2.9549 -1.1647
 1908SOL    HW217187   3.802   3.810  10.077 -1.0513  1.0891 -0.7365
 1909SOL     OW17188   0.569   0.988   8.746 -0.0736  0.2655 -0.4776
 1909SOL    HW117189   0.660   0.977   8.773 -0.3701 -3.9394 -1.1788
 1909SOL    HW217190   0.582   1.073   8.705 -0.7884  1.1138  1.0222
 1910SOL     OW17191   0.552   3.953   4.664  0.4628 -0.6338 -0.3610
 1910SOL    HW117192   0.487   3.984   4.602 -2.2318 -2.1170  1.7079
 1910SOL    HW217193   0.564   4.035   4.713  1.8490 -0.7676 -0.4742
 1911SOL     OW17194   0.593   2.148   4.560  0.2057 -0.0728  0.2906
 1911SOL    HW117195   0.594   2.219   4.624 -0.3719 -0.4641  0.7358
 1911SOL    HW217196   0.670   2.096   4.582  0.8045  1.4703  1.8419
 1912SOL     OW17197   1.905   0.711   7.611 -0.2402  0.2825 -0.1824
 1912SOL    HW117198   1.925   0.801   7.582 -1.3569  1.2401  2.0269
 1912SOL    HW217199   1.890   0.668   7.527  0.8426  0.1329 -0.3024
 1913SOL     OW17200   1.967   3.399   8.672 -0.5965  0.0495  0.4132
 1913SOL    HW117201   1.881   3.372   8.640 -0.4923  2.0551 -1.6081
 1913SOL    HW217202   1.996   3.440   8.590 -0.4288  1.0291  0.9536
 1914SOL     OW17203   1.043   3.822   3.616 -0.0023 -0.2158  0.6109
 1914SOL    HW117204   0.966   3.806   3.561 -0.8773  0.0336  1.7843
 1914SOL    HW217205   1.111   3.817   3.548  0.1041  2.3263  0.5619
 1915SOL     OW17206   0.219   3.772   5.371 -0.4441  0.5713  0.2746
 1915SOL    HW117207   0.268   3.794   5.292 -1.9363  1.1809 -0.4727
 1915SOL    HW217208   0.283   3.704   5.395 -0.4485  0.5481  0.2210
 1916SOL     OW17209   1.273   0.384   9.131 -0.1311  0.4152  0.3893
 1916SOL    HW117210   1.256   0.472   9.164  1.0564  0.0816  1.9018
 1916SOL    HW217211   1.214   0.386   9.056 -2.9850 -0.7955  2.5899
 1917SOL     OW17212   0.267   0.552   7.298  0.2899 -0.2314  0.8277
 1917SOL    HW117213   0.249   0.551   7.393 -0.1115 -3.2347  0.7140
 1917SOL    HW217214   0.213   0.483   7.259  0.8249  0.2254 -0.7186
 1918SOL     OW17215   2.273   4.107   5.390  0.1480 -0.0424  0.1164
 1918SOL    HW117216   2.292   4.195   5.423 -2.0877  1.1883 -1.8283
 1918SOL    HW217217   2.284   4.110   5.295 -1.8732  0.2781 -0.1064
 1919SOL     OW17218   3.712   0.390   8.511 -0.2008  0.2876  0.2421
 1919SOL    HW117219   3.715   0.420   8.602 -1.3946 -0.6398  0.5829
 1919SOL    HW217220   3.807   0.384   8.503 -0.4901  1.0923 -3.9313
 1920SOL     OW17221   4.527   3.227   3.366  0.3973 -0.0114  0.1117
 1920SOL    HW117222   4.619   3.253   3.380 -0.3584  2.1225  1.1098
 1920SOL    HW217223   4.511   3.145   3.413 -0.1975  1.3060  2.2342
 1921SOL     OW17224   3.182   4.595   9.325  0.3361  0.0647 -0.1463
 1921SOL    HW117225   3.269   4.625   9.299  0.4274  1.0883  1.3288
 1921SOL    HW217226   3.150   4.676   9.366 -2.8424 -0.3779 -1.7526
 1922SOL     OW17227   3.605   4.508  15.165 -0.4408  0.1257  0.5960
 1922SOL    HW117228   3.522   4.496  15.119 -0.6557  2.5296  0.3759
 1922SOL    HW217229   3.654   4.562  15.104  3.1702 -0.7128  2.7696
 1923SOL     OW17230   4.518   0.819   9.376  0.0411  0.2992 -0.5421
 1923SOL    HW117231   4.500   0.794   9.285  2.0344 -1.1776 -0.5407
 1923SOL    HW217232   4.561   0.743   9.416  1.1411  1.3600  0.2997
 1924SOL     OW17233   2.434   4.301   7.672  0.3894  0.6218 -0.6048
 1924SOL    HW117234   2.343   4.328   7.658  0.9851  2.2690 -1.2719
 1924SOL    HW217235   2.468   4.366   7.734 -0.1000  1.0194 -0.7590
 1925SOL     OW17236   2.149   3.612   7.512  0.6401 -0.7404  0.5308
 1925SOL    HW117237   2.198   3.687   7.478  1.4982 -0.9685  1.3004
 1925SOL    HW217238   2.147   3.556   7.434  0.7902  0.3750 -0.2896
 1926SOL     OW17239   1.809   3.349   5.208  0.6417 -0.3185  0.0685
 1926SOL    HW117240   1.799   3.258   5.179 -1.4236 -0.1185  0.1332
 1926SOL    HW217241   1.762   3.352   5.291  1.4532 -0.4609  0.5266
 1927SOL     OW17242   2.375   2.982   0.446  1.0386 -0.2704  0.2594
 1927SOL    HW117243   2.470   2.973   0.446  0.9978 -0.5914 -1.6178
 1927SOL    HW217244   2.346   2.892   0.459  1.8049 -0.8716 -2.1742
 1928SOL     OW17245   2.517   3.395  11.295 -0.2661 -0.0071 -0.5074
 1928SOL    HW117246   2.507   3.489  11.311  0.4581 -0.2530  1.4407
 1928SOL    HW217247   2.478   3.348  11.369 -0.7266 -2.2226 -2.1563
 1929SOL     OW17248   1.320   3.216  13.508  0.1562  0.0128 -0.2602
 1929SOL    HW117249   1.277   3.287  13.462  1.1745  0.8850  0.1284
 1929SOL    HW217250   1.250   3.156  13.482  0.0558 -0.4549  1.0951
 1930SOL     OW17251   4.201   4.307   4.780  0.6173  0.2439  0.5323
 1930SOL    HW117252   4.142   4.375   4.748 -0.2260  1.4578  4.6895
 1930SOL    HW217253   4.137   4.253   4.826 -0.5802  0.9990 -0.2651
 1931SOL     OW17254   2.837   3.022   5.861  0.0647 -0.1067 -0.1805
 1931SOL    HW117255   2.918   3.071   5.843 -0.1168  0.0895 -0.4608
 1931SOL    HW217256   2.773   3.059   5.800 -2.4897  0.0232  2.5929
 1932SOL     OW17257   2.594   1.201   5.142 -0.3577  0.1772  0.2495
 1932SOL    HW117258   2.580   1.210   5.236 -2.1323  2.2812 -0.2158
 1932SOL    HW217259   2.577   1.288   5.106 -0.6304 -0.0828 -0.2504
 1933SOL     OW17260   2.819   1.487   7.184  1.0475 -0.4797  0.1440
 1933SOL    HW117261   2.742   1.437   7.211  1.8117 -0.9605  1.4185
 1933SOL    HW217262   2.807   1.567   7.235 -0.7140 -1.5881  1.4775
 1934SOL     OW17263   0.161   1.530   8.433  0.8638 -0.5962 -0.2685
 1934SOL    HW117264   0.236   1.515   8.492  1.4864 -1.3998 -1.2637
 1934SOL    HW217265   0.195   1.595   8.371 -0.5827  0.6035  0.1980
 1935SOL     OW17266   4.226   1.610  11.324  0.2777  0.1032  0.1308
 1935SOL    HW117267   4.315   1.578  11.337  0.2172 -0.1040  0.0412
 1935SOL    HW217268   4.194   1.618  11.414 -2.3460  0.3093 -0.8026
 1936SOL     OW17269   0.127   3.966   8.680 -0.3444  0.1006  0.0074
 1936SOL    HW117270   0.170   4.039   8.725 -1.5689  1.3673 -0.8557
 1936SOL    HW217271   0.142   3.990   8.588 -0.5258  1.6325  0.3711
 1937SOL     OW17272   2.688   0.871  11.260  0.4274  0.2758 -0.2788
 1937SOL    HW117273   2.717   0.915  11.180  0.7634 -1.3271 -1.0494
 1937SOL    HW217274   2.600   0.840  11.241  1.3039 -1.3880 -1.6571
 1938SOL     OW17275   3.479   0.151  16.012 -0.3304 -0.2833 -0.3980
 1938SOL    HW117276   3.531   0.123  16.087 -0.9304  0.1368  0.1748
 1938SOL    HW217277   3.515   0.089  15.948  1.6591  0.3620  0.1139
 1939SOL     OW17278   1.933   1.259  12.387  0.3100 -0.6868  0.1530
 1939SOL    HW117279   1.880   1.271  12.309  0.6091  2.4946  0.4526
 1939SOL    HW217280   2.011   1.219  12.348 -0.4848 -2.3269  0.2290
 1940SOL     OW17281   1.463   1.273   6.044 -0.1983 -0.5879  0.3882
 1940SOL    HW117282   1.458   1.350   6.100 -1.5145  0.3054 -0.9652
 1940SOL    HW217283   1.477   1.305   5.955  0.5283  2.6929  1.7206
 1941SOL     OW17284   2.943   1.039   5.695  0.7339 -0.1681  0.0154
 1941SOL    HW117285   2.969   1.091   5.770 -1.7317 -1.3420  1.6861
 1941SOL    HW217286   2.859   1.000   5.722  0.9913 -1.2029 -0.6586
 1942SOL     OW17287   3.015   0.059  17.395  0.0582 -0.5429 -0.2633
 1942SOL    HW117288   3.019   0.072  17.489  1.4221 -1.9055 -0.1274
 1942SOL    HW217289   3.071   0.133  17.369 -0.0049 -0.3030  0.2799
 1943SOL     OW17290   1.942   4.176  15.090 -0.5822  0.1842 -0.0542
 1943SOL    HW117291   1.999   4.253  15.093 -1.4304  0.8349 -0.6261
 1943SOL    HW217292   1.907   4.185  15.001 -2.4981  0.0710  0.6820
 1944SOL     OW17293   1.511   2.277   8.042 -0.5394 -0.3965  0.6887
 1944SOL    HW117294   1.563   2.312   8.115 -0.4631 -1.8847  1.3494
 1944SOL    HW217295   1.513   2.182   8.057  4.0605 -0.2826  0.9061
 1945SOL     OW17296   1.411   0.035   7.453  0.2428 -0.0996  0.0816
 1945SOL    HW117297   1.484   4.719   7.500 -0.5675 -0.4422  1.0688
 1945SOL    HW217298   1.336   4.709   7.486 -0.0428  1.3426  1.6152
 1946SOL     OW17299   3.310   2.158  10.566 -0.0757 -0.0602 -0.0820
 1946SOL    HW117300   3.394   2.205  10.567 -0.6913  1.0519 -1.0006
 1946SOL    HW217301   3.297   2.138  10.473  1.1372  0.0171 -0.2683
 1947SOL     OW17302   3.261   3.723   1.689  0.2790 -0.0329 -0.2790
 1947SOL    HW117303   3.188   3.664   1.672 -0.4472  1.0213 -0.8555
 1947SOL    HW217304   3.316   3.711   1.611 -1.1565 -0.4964 -1.2102
 1948SOL     OW17305   3.386   3.745   2.188  0.4973  0.6720 -0.2493
 1948SOL    HW117306   3.388   3.827   2.138 -1.5602  0.2737 -0.9724
 1948SOL    HW217307   3.405   3.679   2.122  0.2159  1.0122 -0.6717
 1949SOL     OW17308   2.745   1.782  16.355 -0.2095  0.2515  0.1097
 1949SOL    HW117309   2.692   1.703  16.356 -0.2304  0.2703  0.3327
 1949SOL    HW217310   2.748   1.801  16.261  1.3800  3.5341  0.7966
 1950SOL     OW17311   0.070   3.484   8.244 -0.1198  0.0335  0.4168
 1950SOL    HW117312   0.090   3.494   8.337 -1.7784 -1.4865  0.9330
 1950SOL    HW217313   0.093   3.567   8.202 -0.9907 -0.0812 -0.2829
 1951SOL     OW17314   4.586   1.298  13.602  0.7527  0.2698  0.2134
 1951SOL    HW117315   4.564   1.312  13.509  1.2579  0.7827  0.1686
 1951SOL    HW217316   4.624   1.384  13.621  0.9877  0.3342 -0.5427
 1952SOL     OW17317   2.997   2.599  17.312  0.2736  0.4234 -0.7127
 1952SOL    HW117318   2.964   2.687  17.292  0.0301  0.4693 -0.1171
 1952SOL    HW217319   3.068   2.620  17.372  0.4402 -1.6923 -0.1714
 1953SOL     OW17320   1.712   3.768   3.412  0.1144 -0.8403  0.1622
 1953SOL    HW117321   1.646   3.703   3.386  1.1049 -1.6601 -0.3048
 1953SOL    HW217322   1.661   3.819   3.475  0.5047  2.4550 -2.1530
 1954SOL     OW17323   4.117   3.736  16.473 -0.5230  0.6176  0.2618
 1954SOL    HW117324   4.099   3.828  16.454  1.5212  0.6237 -1.6192
 1954SOL    HW217325   4.106   3.737  16.568 -4.1418  0.2281 -0.1440
 1955SOL     OW17326   2.328   0.257   3.262 -0.2503 -0.2149  0.0140
 1955SOL    HW117327   2.296   0.172   3.291 -1.1389  0.1595  0.1350
 1955SOL    HW217328   2.332   0.251   3.167  0.6067 -1.4622  0.1346
 1956SOL     OW17329   3.538   1.200   3.552  0.0773 -0.3463 -0.0233
 1956SOL    HW117330   3.607   1.136   3.531 -0.1979 -1.4526  2.4848
 1956SOL    HW217331   3.530   1.242   3.466 -0.6296  0.7472  0.5768
 1957SOL     OW17332   3.026   0.623   7.755 -0.4480 -0.3310 -0.4823
 1957SOL    HW117333   3.041   0.629   7.661 -1.3828  0.0209 -0.6157
 1957SOL    HW217334   2.935   0.592   7.755 -1.3446  2.3154  1.6094
 1958SOL     OW17335   0.367   1.776  11.236 -0.2225  0.0825  0.4134
 1958SOL    HW117336   0.330   1.688  11.229 -2.2389  0.9418  0.0871
 1958SOL    HW217337   0.461   1.768  11.223 -0.2398 -0.3727  0.5825
 1959SOL     OW17338   4.323   0.671   1.442 -0.0407 -0.5029 -0.1971
 1959SOL    HW117339   4.312   0.748   1.499  0.4066 -1.2981  0.9617
 1959SOL    HW217340   4.386   0.626   1.497 -0.9762 -0.9973  0.4775
 1960SOL     OW17341   2.703   4.315  14.302  0.1619  0.2103  0.1281
 1960SOL    HW117342   2.661   4.390  14.259 -1.3090  0.2461  1.6656
 1960SOL    HW217343   2.698   4.252  14.231 -0.7594 -3.3872  3.4317
 1961SOL     OW17344   4.701   0.289  11.913 -0.7020  0.2318  0.4633
 1961SOL    HW117345   4.702   0.381  11.941 -0.3148  0.2439  0.4138
 1961SOL    HW217346   4.662   0.307  11.828  0.1349  0.6669  0.1662
 1962SOL     OW17347   2.860   1.275   1.717  0.2176  0.4176 -0.2337
 1962SOL    HW117348   2.778   1.323   1.717 -0.0336 -0.0052  1.4620
 1962SOL    HW217349   2.843   1.202   1.658 -2.7397  0.9792 -0.0534
 1963SOL     OW17350   1.871   3.505   5.570  0.0906  0.6267 -0.3517
 1963SOL    HW117351   1.933   3.473   5.504 -1.3847 -0.3447 -1.2696
 1963SOL    HW217352   1.795   3.448   5.555 -1.3943  2.3978  0.5617
 1964SOL     OW17353   3.631   1.518  12.261 -0.1959  0.3487 -0.0435
 1964SOL    HW117354   3.687   1.593  12.278 -0.9312  0.4527  1.9525
 1964SOL    HW217355   3.648   1.500  12.354  1.5924 -2.5008 -0.9287
 1965SOL     OW17356   4.448   2.330   2.150 -0.2534 -0.4125  0.0845
 1965SOL    HW117357   4.375   2.269   2.142 -1.1048  0.4891  0.8486
 1965SOL    HW217358   4.402   2.414   2.141 -0.2905 -0.3952  0.4282
 1966SOL     OW17359   2.377   1.567   7.966 -0.5051  0.1826  0.1719
 1966SOL    HW117360   2.372   1.518   8.049  2.0548 -1.2921 -0.5338
 1966SOL    HW217361   2.464   1.556   7.927  0.3836 -2.4498  2.8720
 1967SOL     OW17362   2.264   2.403   6.530 -0.1831  0.5867 -0.1558
 1967SOL    HW117363   2.346   2.424   6.485 -0.4222  0.7759 -0.5092
 1967SOL    HW217364   2.297   2.419   6.618 -1.0730 -3.5762  0.9412
 1968SOL     OW17365   0.390   3.440   7.735  0.9956  0.4285  0.3172
 1968SOL    HW117366   0.394   3.535   7.727  1.8166  0.3139 -0.6921
 1968SOL    HW217367   0.380   3.425   7.641 -2.1957 -0.5271  0.8160
 1969SOL     OW17368   2.096   1.078   3.349 -0.1077 -0.0677  0.0219
 1969SOL    HW117369   2.149   1.135   3.405 -1.4555  0.8489  0.3746
 1969SOL    HW217370   2.082   1.131   3.271  2.0460  1.7161  0.8495
 1970SOL     OW17371   0.894   2.638   4.927 -0.2060 -0.0297 -0.6110
 1970SOL    HW117372   0.879   2.711   4.987 -1.5453 -0.2917 -0.6184
 1970SOL    HW217373   0.840   2.572   4.971  2.1897 -0.1714  2.1147
 1971SOL     OW17374   1.234   4.276   3.575  0.1729 -0.3156  0.1054
 1971SOL    HW117375   1.245   4.371   3.579 -1.9123 -0.1458  1.6879
 1971SOL    HW217376   1.247   4.246   3.665  1.7597 -0.1663 -0.0679
 1972SOL     OW17377   1.009   1.324   1.045 -0.2925 -0.1385 -0.3764
 1972SOL    HW117378   1.015   1.244   0.994 -0.5474  1.0232 -2.2131
 1972SOL    HW217379   1.073   1.371   0.992  1.5611  0.7642  2.6723
 1973SOL     OW17380   3.885   4.546  12.641 -0.2658 -0.0710  0.1679
 1973SOL    HW117381   3.829   4.523  12.567 -0.7567 -0.4771  0.6741
 1973SOL    HW217382   3.917   4.630  12.608 -2.4333 -0.3397 -2.5326
 1974SOL     OW17383   1.421   0.984   0.308  0.2479  0.2837  0.2780
 1974SOL    HW117384   1.492   0.978   0.372  0.1507 -0.5216  0.3052
 1974SOL    HW217385   1.375   1.060   0.344 -0.7525  0.1149 -0.6465
 1975SOL     OW17386   2.239   0.933   5.175  0.5647 -0.1193  0.2888
 1975SOL    HW117387   2.170   0.892   5.227 -1.3075  0.0745 -2.0528
 1975SOL    HW217388   2.229   1.028   5.178 -2.0892 -0.3756 -1.0125
 1976SOL     OW17389   2.215   2.216   0.215  0.6026  0.1379 -0.3553
 1976SOL    HW117390   2.156   2.231   0.289  0.9807  2.8616 -0.5912
 1976SOL    HW217391   2.154   2.211   0.141  0.8372  2.4917 -0.7042
 1977SOL     OW17392   4.678   0.550   6.934  0.4188  0.6502  0.3640
 1977SOL    HW117393   0.041   0.588   6.930  1.0052 -0.6308  1.3073
 1977SOL    HW217394   4.634   0.575   6.852 -2.2443 -1.0653  1.2689
 1978SOL     OW17395   0.167   3.470   9.556  0.3171 -0.0763 -0.0413
 1978SOL    HW117396   0.149   3.559   9.587  2.0420  1.1566 -2.6024
 1978SOL    HW217397   0.078   3.436   9.547  0.0284  0.2719  1.4409
 1979SOL     OW17398   2.749   1.711  10.608 -0.0743  0.6298 -0.2406
 1979SOL    HW117399   2.792   1.633  10.644  0.0588  1.2134  0.8608
 1979SOL    HW217400   2.821   1.746  10.555 -0.6698  0.0834 -1.4053
 1980SOL     OW17401   1.007   0.979   8.191 -0.6846 -0.5419  0.0677
 1980SOL    HW117402   1.083   1.032   8.217 -0.3656  0.2027 -2.3650
 1980SOL    HW217403   1.014   0.986   8.095 -0.8768 -3.6177 -0.1411
 1981SOL     OW17404   2.508   1.904   7.790 -0.1970  0.2715  0.2279
 1981SOL    HW117405   2.567   1.967   7.748 -1.2591  1.6041  0.7498
 1981SOL    HW217406   2.567   1.829   7.801  0.1734  0.1376 -2.7463
 1982SOL     OW17407   3.198   2.733   2.888 -0.2535 -0.5439 -0.3170
 1982SOL    HW117408   3.126   2.683   2.926 -1.3983  0.9140 -0.5695
 1982SOL    HW217409   3.259   2.735   2.961  1.0867 -3.2473 -1.3433
 1983SOL     OW17410   3.793   0.792   0.120 -0.1614  0.1999  0.6984
 1983SOL    HW117411   3.840   0.820   0.042 -0.1949  1.6854  1.2077
 1983SOL    HW217412   3.778   0.875   0.165  1.8176 -0.4355  2.5788
 1984SOL     OW17413   2.181   4.649  12.493  0.6229 -0.3030 -0.6790
 1984SOL    HW117414   2.091   4.664  12.463  1.7849  2.2797 -2.8569
 1984SOL    HW217415   2.167   4.663  12.587  1.8972  2.6494 -0.9361
 1985SOL     OW17416   1.441   0.394  15.161  0.0928 -0.3503 -0.0313
 1985SOL    HW117417   1.440   0.309  15.117  0.9643 -0.4560  0.1679
 1985SOL    HW217418   1.379   0.432  15.098  0.1880  1.4714  0.9862
 1986SOL     OW17419   4.663   4.206  15.516 -0.0059 -0.0947  0.4211
 1986SOL    HW117420   4.659   4.297  15.488 -2.5354 -0.3942 -0.2528
 1986SOL    HW217421   0.026   4.175  15.490 -0.4546  1.8439 -3.2912
 1987SOL     OW17422   4.402   3.635  12.219  0.3250 -0.1969 -0.7030
 1987SOL    HW117423   4.475   3.678  12.174 -0.3883  1.5229 -0.1948
 1987SOL    HW217424   4.410   3.544  12.188 -0.6343 -0.7573  0.7020
 1988SOL     OW17425   1.986   2.035  16.075 -0.6035 -0.3856  0.5397
 1988SOL    HW117426   2.018   1.981  16.002 -0.0006 -0.8705  1.1594
 1988SOL    HW217427   1.972   2.118  16.029 -1.9995 -0.1290  1.4416
 1989SOL     OW17428   0.534   3.369   3.710  0.2939  0.2607  0.1681
 1989SOL    HW117429   0.445   3.403   3.710  0.4195  0.5996 -1.3347
 1989SOL    HW217430   0.525   3.306   3.638 -0.6523  0.3358  0.2276
 1990SOL     OW17431   3.355   1.395   6.291  0.3123 -1.0103  0.2813
 1990SOL    HW117432   3.419   1.404   6.220 -0.6847 -2.8580 -0.8562
 1990SOL    HW217433   3.401   1.427   6.369 -1.2698 -0.0737  0.8194
 1991SOL     OW17434   0.931   1.248   5.456  0.5619 -0.1637 -0.6126
 1991SOL    HW117435   0.952   1.306   5.383 -1.3180 -0.2708 -1.2392
 1991SOL    HW217436   1.000   1.185   5.436  0.5734 -0.1982 -0.4665
 1992SOL     OW17437   2.931   0.285  12.381 -0.3758  0.1081  0.2782
 1992SOL    HW117438   2.919   0.364  12.330  2.4738  0.3407  0.0042
 1992SOL    HW217439   3.004   0.242  12.337 -0.2901 -1.6290  2.0819
 1993SOL     OW17440   0.169   2.693   3.830 -0.0964  0.1066 -0.0846
 1993SOL    HW117441   0.226   2.761   3.866  1.6187 -1.2019 -0.3221
 1993SOL    HW217442   0.188   2.631   3.901  1.8907  0.5085 -0.2533
 1994SOL     OW17443   0.594   0.683   2.119 -0.3046  0.0243 -0.2490
 1994SOL    HW117444   0.671   0.731   2.088  1.4738 -0.2818  3.6460
 1994SOL    HW217445   0.527   0.692   2.051  0.2541  1.9398 -0.5382
 1995SOL     OW17446   0.678   3.428   2.286 -0.4437 -0.1117 -0.2622
 1995SOL    HW117447   0.587   3.425   2.256 -0.0657 -2.5913 -1.1213
 1995SOL    HW217448   0.732   3.412   2.208 -0.0602  0.5527 -0.1428
 1996SOL     OW17449   3.877   3.464   4.740  0.0419 -0.0177  0.8230
 1996SOL    HW117450   3.899   3.443   4.650 -0.0266  0.0013  0.8017
 1996SOL    HW217451   3.783   3.479   4.734 -0.2987 -1.5538  2.1207
 1997SOL     OW17452   0.315   2.707   5.961  0.0336  0.0357  0.6066
 1997SOL    HW117453   0.290   2.781   6.016 -0.9750  1.6072 -1.9539
 1997SOL    HW217454   0.261   2.730   5.885  1.7180  0.1862 -0.5468
 1998SOL     OW17455   0.145   2.943  17.042 -0.1642  0.0872  0.0536
 1998SOL    HW117456   0.171   2.898  17.122 -1.4523  0.6982  0.8154
 1998SOL    HW217457   0.052   2.962  17.051 -0.3002 -0.9144  0.6967
 1999SOL     OW17458   1.431   0.830  15.762 -0.0625 -1.4407 -0.4279
 1999SOL    HW117459   1.471   0.847  15.677 -0.3568 -1.1492 -0.5045
 1999SOL    HW217460   1.500   0.857  15.823 -0.8494 -1.6034  0.5354
 2000SOL     OW17461   1.138   2.575   7.157  0.2030 -0.3789 -0.4017
 2000SOL    HW117462   1.054   2.539   7.186  0.3003  2.3658  3.3368
 2000SOL    HW217463   1.196   2.504   7.185  0.4799  0.3097  0.7859
 2001SOL     OW17464   2.567   4.623  17.069  0.2382 -0.2670  0.1132
 2001SOL    HW117465   2.634   4.685  17.097  0.6997 -0.8694  0.3382
 2001SOL    HW217466   2.617   4.567  17.010 -1.3287 -2.4711  0.8613
 2002SOL     OW17467   0.768   3.761  13.569 -0.4490 -0.5012  0.1864
 2002SOL    HW117468   0.734   3.850  13.581 -0.3435 -0.4005 -0.2790
 2002SOL    HW217469   0.808   3.741  13.654 -0.8808 -1.1146  0.2426
 2003SOL     OW17470   1.481   0.663   5.889  0.5865 -0.2043 -0.2142
 2003SOL    HW117471   1.478   0.664   5.985  0.9729 -3.3318 -0.1756
 2003SOL    HW217472   1.573   0.674   5.863  0.4638  2.7527  0.5830
 2004SOL     OW17473   4.255   2.021  15.964 -0.0849  0.1734  0.5646
 2004SOL    HW117474   4.283   2.026  15.873  0.0576 -2.1467  0.4898
 2004SOL    HW217475   4.338   2.046  16.005  0.7300  0.1224 -1.0643
 2005SOL     OW17476   1.235   2.834   2.650 -0.4855  0.4088  0.0318
 2005SOL    HW117477   1.257   2.742   2.638  1.1129  0.7060  0.6423
 2005SOL    HW217478   1.298   2.854   2.719 -0.0548 -2.1445  0.3887
 2006SOL     OW17479   3.814   1.479   0.216 -0.3315 -0.2169  0.1331
 2006SOL    HW117480   3.787   1.399   0.170 -0.7374  1.3582 -2.3283
 2006SOL    HW217481   3.819   1.447   0.307 -1.4039 -2.1796 -0.4967
 2007SOL     OW17482   3.353   0.291   2.100  0.2514  0.3695 -0.6179
 2007SOL    HW117483   3.312   0.242   2.028 -0.9863 -0.9930  1.0018
 2007SOL    HW217484   3.369   0.372   2.051  0.2831  1.3241  0.9615
 2008SOL     OW17485   3.233   3.637  16.450  0.2750  0.1888  0.4062
 2008SOL    HW117486   3.173   3.679  16.388 -0.3779 -1.0199  0.2332
 2008SOL    HW217487   3.224   3.543  16.439  2.1093  0.1901 -1.1194
 2009SOL     OW17488   3.626   4.130   9.037 -0.3340 -0.3614  0.1073
 2009SOL    HW117489   3.682   4.074   9.090 -1.0399 -0.4802  0.7344
 2009SOL    HW217490   3.546   4.078   9.041 -1.6292  1.7556  2.5814
 2010SOL     OW17491   3.239   3.193   1.110 -0.8489  0.3825  0.5344
 2010SOL    HW117492   3.233   3.100   1.090 -0.2086  0.5441 -0.4292
 2010SOL    HW217493   3.150   3.208   1.141 -1.6907  1.1613 -2.2069
 2011SOL     OW17494   4.224   4.378   3.939  0.8808  0.1340  0.0575
 2011SOL    HW117495   4.137   4.417   3.941  0.5757 -0.7222  3.0025
 2011SOL    HW217496   4.199   4.291   3.908  2.4060 -0.2193 -0.2006
 2012SOL     OW17497   0.377   2.525   3.662  0.0110  0.1813  0.2421
 2012SOL    HW117498   0.399   2.613   3.690  1.8645 -0.2490  0.1507
 2012SOL    HW217499   0.295   2.544   3.616 -0.0393 -0.5543  0.0103
 2013SOL     OW17500   0.444   3.039   7.824  0.7831 -0.7915 -0.0697
 2013SOL    HW117501   0.396   3.031   7.741  1.8993  0.3601 -0.8301
 2013SOL    HW217502   0.497   2.960   7.825  1.1041 -0.5931 -1.5289
 2014SOL     OW17503   2.025   2.616  11.123 -0.2918 -0.3528 -0.0477
 2014SOL    HW117504   1.970   2.660  11.188  0.7739 -0.9505  1.2386
 2014SOL    HW217505   1.998   2.641  11.034 -0.1891  2.8466  0.7953
 2015SOL     OW17506   3.737   2.133   5.036 -0.3857  0.2766  0.4525
 2015SOL    HW117507   3.653   2.109   4.995 -0.4708  0.8990  0.2663
 2015SOL    HW217508   3.791   2.054   5.038 -0.3510  0.2715 -0.7500
 2016SOL     OW17509   3.267   1.447  17.164  0.1061 -0.1275 -0.7092
 2016SOL    HW117510   3.313   1.413  17.240 -1.4218  0.3388  0.4312
 2016SOL    HW217511   3.175   1.459  17.191  0.6041  0.3025  0.7847
 2017SOL     OW17512   4.175   4.483   7.526  0.1118  0.3049 -0.4616
 2017SOL    HW117513   4.116   4.486   7.601  0.0325  0.7074 -0.5388
 2017SOL    HW217514   4.248   4.429   7.554  0.9649  0.9742 -1.3900
 2018SOL     OW17515   0.699   3.849   7.516  0.3283  0.4495 -0.4066
 2018SOL    HW117516   0.666   3.890   7.436 -1.1510  1.3998  0.6955
 2018SOL    HW217517   0.734   3.924   7.564 -1.4161  0.7648  0.3822
 2019SOL     OW17518   2.767   4.687   4.766 -0.3638  0.2541  0.0626
 2019SOL    HW117519   2.787   4.601   4.729  0.5764  0.8889 -0.9353
 2019SOL    HW217520   2.684   4.717   4.729 -1.2591 -2.6644 -0.2400
 2020SOL     OW17521   1.521   0.720  13.149  0.2978  0.5112 -0.3098
 2020SOL    HW117522   1.526   0.813  13.171 -0.3868  0.5119 -0.1639
 2020SOL    HW217523   1.580   0.717  13.074 -0.5933 -1.1417 -0.9457
 2021SOL     OW17524   1.302   1.994  16.388  0.2538 -1.2401  0.2193
 2021SOL    HW117525   1.378   1.936  16.396  1.4473  0.5031  1.5056
 2021SOL    HW217526   1.317   2.041  16.470  0.0564 -1.3951  0.3446
 2022SOL     OW17527   4.407   0.727   0.171  0.3383  0.0500  0.0180
 2022SOL    HW117528   4.473   0.691   0.112 -0.9946 -1.5864 -0.4387
 2022SOL    HW217529   4.453   0.707   0.253 -0.1383 -1.8842 -0.2105
 2023SOL     OW17530   2.820   2.518   2.534 -0.3004 -0.3612 -0.0682
 2023SOL    HW117531   2.824   2.573   2.456 -1.1064 -0.0087  0.1485
 2023SOL    HW217532   2.772   2.580   2.587 -0.0018 -0.4917  0.3519
 2024SOL     OW17533   2.836   0.829   7.692  0.4468  0.1089  0.6863
 2024SOL    HW117534   2.924   0.792   7.695 -0.0751 -1.2470 -0.4791
 2024SOL    HW217535   2.850   0.922   7.711  3.0609 -0.7474  3.0067
 2025SOL     OW17536   3.560   0.039  15.761  0.3845  0.3019  0.1202
 2025SOL    HW117537   3.562   0.026  15.666 -0.4734  0.4295  0.0866
 2025SOL    HW217538   3.489   4.701  15.777  0.5912 -0.0789 -0.4549
 2026SOL     OW17539   1.451   3.964  10.940 -0.3204  0.1673  0.4973
 2026SOL    HW117540   1.382   4.010  10.894 -0.0159  1.0258  0.9097
 2026SOL    HW217541   1.487   4.042  10.981  0.3651  0.4245 -0.5937
 2027SOL     OW17542   2.034   0.507   9.887 -0.4776  0.0397 -0.5975
 2027SOL    HW117543   2.000   0.563   9.956  0.8538  0.6604 -0.4533
 2027SOL    HW217544   1.969   0.515   9.817  1.1697 -0.1741 -2.1472
 2028SOL     OW17545   3.795   0.092   4.011 -0.2447 -0.1733  0.1180
 2028SOL    HW117546   3.853   0.119   3.940  1.9185 -0.8733  1.6137
 2028SOL    HW217547   3.787   0.174   4.059 -3.8209  1.5015 -3.3222
 2029SOL     OW17548   1.262   3.817  13.508  0.1656  0.3197 -0.4753
 2029SOL    HW117549   1.306   3.732  13.505  1.9148  1.1950  0.3496
 2029SOL    HW217550   1.171   3.788  13.507  0.2731 -0.0406  1.8123
 2030SOL     OW17551   1.960   1.652   8.596  0.2736 -0.2111  0.2941
 2030SOL    HW117552   1.919   1.622   8.678 -0.6732 -0.3578 -0.2296
 2030SOL    HW217553   2.052   1.638   8.619  0.4311 -0.9093 -0.7807
 2031SOL     OW17554   0.722   1.705  16.151 -0.0162  0.3368  0.0146
 2031SOL    HW117555   0.728   1.643  16.223 -0.9952 -2.3411 -2.1756
 2031SOL    HW217556   0.747   1.788  16.191 -0.9000  0.5789  0.0747
 2032SOL     OW17557   4.647   1.702   2.630 -0.6777 -0.2688  0.1244
 2032SOL    HW117558   4.666   1.650   2.552 -0.9025  2.4934 -1.7597
 2032SOL    HW217559   4.559   1.671   2.651 -1.4268  0.3077 -2.1708
 2033SOL     OW17560   0.795   1.970   2.347  0.7241  0.0343 -0.1903
 2033SOL    HW117561   0.755   1.918   2.276 -0.7851  0.3058  0.4473
 2033SOL    HW217562   0.844   1.901   2.391  0.3163 -0.6214 -0.7619
 2034SOL     OW17563   3.034   2.046   4.086  0.2323  0.4688 -0.9022
 2034SOL    HW117564   2.947   2.049   4.126  1.9094 -0.7496  2.8769
 2034SOL    HW217565   3.047   2.134   4.052 -4.3872  1.1709 -0.7883
 2035SOL     OW17566   3.930   2.467  16.818  0.4214  0.2526 -0.1483
 2035SOL    HW117567   3.904   2.448  16.728 -1.1407 -2.1977  0.8178
 2035SOL    HW217568   4.005   2.408  16.833  0.0366 -0.7541 -2.1591
 2036SOL     OW17569   2.080   3.147   3.365 -0.4919  0.2285  0.0730
 2036SOL    HW117570   2.028   3.189   3.296 -3.8299  0.3534  2.6970
 2036SOL    HW217571   2.025   3.164   3.442 -1.0360 -0.5662 -0.1330
 2037SOL     OW17572   2.342   4.674   6.139 -0.7301  0.2318  0.3819
 2037SOL    HW117573   2.342   4.722   6.057 -0.8215  0.3141  0.4307
 2037SOL    HW217574   2.433   4.675   6.171  0.4564 -2.2237 -2.9052
 2038SOL     OW17575   2.023   2.967  12.758  0.4518 -0.3833  0.0617
 2038SOL    HW117576   2.035   2.990  12.666 -2.0186 -0.4197 -0.2817
 2038SOL    HW217577   1.969   3.036  12.797  0.1488  0.2316 -1.4379
 2039SOL     OW17578   2.916   2.922   8.263  0.4528 -0.2504  0.2389
 2039SOL    HW117579   2.849   2.935   8.331 -1.4524 -0.3844 -1.5989
 2039SOL    HW217580   2.994   2.911   8.318 -0.2804 -1.8788  0.9550
 2040SOL     OW17581   3.387   3.697   1.434  0.3791 -0.2119  0.3200
 2040SOL    HW117582   3.331   3.773   1.416 -2.1274 -2.2736 -0.4611
 2040SOL    HW217583   3.407   3.663   1.347  0.7226 -1.9235  1.0762
 2041SOL     OW17584   3.722   2.759   6.977 -0.1576  0.2359  0.1466
 2041SOL    HW117585   3.671   2.834   6.944 -0.4471  0.2218  0.5646
 2041SOL    HW217586   3.703   2.763   7.071 -1.9597 -0.4274 -0.2004
 2042SOL     OW17587   0.615   3.256   8.107  0.0295  0.1928 -0.2146
 2042SOL    HW117588   0.690   3.308   8.080 -0.9394  1.4521 -0.4700
 2042SOL    HW217589   0.554   3.330   8.109  0.5823  0.6170  0.8739
 2043SOL     OW17590   0.827   4.011   6.903 -0.0935  0.0890 -0.2577
 2043SOL    HW117591   0.780   4.067   6.841 -0.9900  0.0240  0.3584
 2043SOL    HW217592   0.916   4.023   6.870 -0.3664 -0.1487 -1.0962
 2044SOL     OW17593   2.748   0.409   3.020 -0.4332  0.2877 -0.2071
 2044SOL    HW117594   2.801   0.356   3.079  0.3695  0.5938 -0.6487
 2044SOL    HW217595   2.783   0.381   2.935 -0.2388  0.5131 -0.2030
 2045SOL     OW17596   4.414   0.013   2.929 -0.1549  0.2588  0.1139
 2045SOL    HW117597   4.419   4.643   2.915 -0.3442  0.1126  1.0181
 2045SOL    HW217598   4.478   0.034   2.996 -0.0860  0.7735 -0.1104
 2046SOL     OW17599   0.608   3.629   2.816  0.3787  0.1904  0.0886
 2046SOL    HW117600   0.624   3.691   2.887 -0.7158 -0.8342  1.2427
 2046SOL    HW217601   0.684   3.641   2.759  0.9592  0.1562  0.8533
 2047SOL     OW17602   0.152   2.653  13.815 -0.2827  0.0381 -0.0970
 2047SOL    HW117603   0.060   2.664  13.837 -0.2538 -0.9611  0.5582
 2047SOL    HW217604   0.158   2.688  13.726 -0.9839  3.3821  1.1555
 2048SOL     OW17605   3.057   2.307  14.196  0.1765 -0.4536 -0.0016
 2048SOL    HW117606   3.041   2.292  14.103 -0.3466  2.2140 -0.3429
 2048SOL    HW217607   2.969   2.291  14.230  0.3139  0.6646  0.9246
 2049SOL     OW17608   1.161   0.270   5.915  0.5343 -0.0126  0.1903
 2049SOL    HW117609   1.088   0.313   5.870  0.8894  2.0627  1.5687
 2049SOL    HW217610   1.229   0.335   5.898 -0.0107  0.8446  1.3092
 2050SOL     OW17611   3.454   0.866   8.840 -0.0536  0.1632  0.0072
 2050SOL    HW117612   3.519   0.933   8.817  0.6002  0.1919  1.9814
 2050SOL    HW217613   3.428   0.856   8.749  3.3993 -1.1000 -0.8494
 2051SOL     OW17614   0.652   2.144   2.158 -0.1992  0.0905 -0.0615
 2051SOL    HW117615   0.708   2.132   2.235 -0.7453  0.8710  0.4592
 2051SOL    HW217616   0.711   2.176   2.090 -0.7619  0.9069 -0.1715
 2052SOL     OW17617   2.393   4.094  16.218 -0.4244  0.4486 -0.1509
 2052SOL    HW117618   2.360   4.181  16.237 -2.8650 -0.4789 -0.0417
 2052SOL    HW217619   2.390   4.084  16.122 -1.4888  0.2020 -0.1039
 2053SOL     OW17620   2.410   0.706   4.099  0.1274 -0.5146  0.0412
 2053SOL    HW117621   2.335   0.654   4.072  0.7368 -0.6350 -1.4314
 2053SOL    HW217622   2.385   0.786   4.053  0.1360  1.0751  2.8107
 2054SOL     OW17623   0.466   1.063   4.019 -0.1863 -0.3281 -0.2340
 2054SOL    HW117624   0.545   1.052   4.071  0.7442  0.3124 -1.4978
 2054SOL    HW217625   0.406   1.060   4.094  1.4050  0.9530  1.0788
 2055SOL     OW17626   0.218   2.919   3.048  0.0473 -0.3013  0.1946
 2055SOL    HW117627   0.168   2.924   3.129  0.0572  0.3437  0.1594
 2055SOL    HW217628   0.209   3.010   3.019 -2.6599 -0.8247 -0.6208
 2056SOL     OW17629   0.000   2.957   8.785  0.3111  0.0018 -0.1660
 2056SOL    HW117630   0.040   3.000   8.709  2.0256  1.3450  1.4997
 2056SOL    HW217631   4.660   3.027   8.798  0.7094  0.1111  1.1805
 2057SOL     OW17632   1.027   4.162   7.295 -0.2150 -0.5026  0.0653
 2057SOL    HW117633   0.962   4.163   7.225 -0.1810 -1.5659  0.0039
 2057SOL    HW217634   1.011   4.244   7.341  0.5248  0.4601 -1.3913
 2058SOL     OW17635   4.663   2.730   1.487 -0.0070  0.1700  0.5741
 2058SOL    HW117636   4.573   2.750   1.463 -0.7563 -2.1170  1.4614
 2058SOL    HW217637   4.650   2.707   1.579 -1.4501  0.5926  0.4606
 2059SOL     OW17638   2.237   1.029  16.702  0.1952 -0.0322 -0.1554
 2059SOL    HW117639   2.191   1.027  16.786  0.0431  1.8111 -0.1960
 2059SOL    HW217640   2.305   1.093  16.720  0.5612 -0.5497  0.2875
 2060SOL     OW17641   2.987   4.628   3.203  0.1682  0.5477  0.1036
 2060SOL    HW117642   2.954   4.606   3.116  0.9069  0.4779 -0.1492
 2060SOL    HW217643   3.056   4.690   3.183 -0.9101  1.6485 -0.2205
 2061SOL     OW17644   0.756   3.784   8.349  0.1278 -0.2521  0.2890
 2061SOL    HW117645   0.824   3.838   8.389  0.0149 -1.2359  1.8039
 2061SOL    HW217646   0.691   3.853   8.337 -0.4652 -0.9928 -0.8666
 2062SOL     OW17647   3.303   2.476   7.648 -0.3933 -0.6717 -0.7337
 2062SOL    HW117648   3.261   2.514   7.725  2.9014 -0.9871  1.2247
 2062SOL    HW217649   3.363   2.550   7.635 -1.9050  0.9319  1.3343
 2063SOL     OW17650   0.121   4.075  10.909 -0.1275  0.4344 -0.5725
 2063SOL    HW117651   0.176   4.106  10.981  0.7461 -0.5013 -0.8286
 2063SOL    HW217652   0.039   4.046  10.949 -1.4767  3.9593 -0.8338
 2064SOL     OW17653   0.400   1.991   6.318  0.3095 -0.6827  0.5977
 2064SOL    HW117654   0.375   1.970   6.228  2.5916  1.6735 -0.5651
 2064SOL    HW217655   0.417   2.085   6.317  0.6121 -0.7465 -0.2198
 2065SOL     OW17656   0.924   2.396  15.349 -0.2939 -0.8344 -0.0470
 2065SOL    HW117657   0.978   2.321  15.325 -0.1055 -0.6332 -0.2503
 2065SOL    HW217658   0.996   2.450  15.318 -0.0726 -1.7611 -1.1482
 2066SOL     OW17659   3.379   0.518   7.714 -0.5224 -0.1901  0.6618
 2066SOL    HW117660   3.337   0.472   7.787 -1.2415 -0.9262 -0.2158
 2066SOL    HW217661   3.404   0.602   7.752 -0.7878  0.1662  0.0480
 2067SOL     OW17662   2.362   2.962   2.908 -0.0027 -0.0509  0.1498
 2067SOL    HW117663   2.330   3.027   2.846  0.6086  0.5563  0.4661
 2067SOL    HW217664   2.381   3.029   2.974 -0.8485 -0.6416  0.9933
 2068SOL     OW17665   1.452   3.040  17.402 -0.1406 -0.1173  0.3391
 2068SOL    HW117666   1.402   3.011  17.326  0.8896  1.9563 -1.1146
 2068SOL    HW217667   1.374   3.031  17.458  1.6200 -1.3329  2.5701
 2069SOL     OW17668   0.770   1.427   0.017 -0.0944  0.3885 -0.4262
 2069SOL    HW117669   0.736   1.514   0.038 -1.2852 -0.1203 -0.2909
 2069SOL    HW217670   0.690   1.382  17.689 -0.5762  1.4616 -0.8043
 2070SOL     OW17671   4.690   3.789   5.051  0.0006  0.3278  0.0955
 2070SOL    HW117672   4.618   3.729   5.072  0.6711 -0.5336 -0.0596
 2070SOL    HW217673   0.039   3.732   5.074  0.2825  0.2378 -1.0313
 2071SOL     OW17674   0.090   3.750  12.727 -0.3625 -0.2042 -0.4274
 2071SOL    HW117675   0.176   3.711  12.743 -0.4550  0.2484  1.2156
 2071SOL    HW217676   0.025   3.682  12.748 -0.2778  0.8197  3.1446
 2072SOL     OW17677   1.714   3.376   3.276  0.1356 -0.1834 -0.0834
 2072SOL    HW117678   1.681   3.465   3.289 -0.1388 -0.0476 -1.6838
 2072SOL    HW217679   1.672   3.332   3.350 -2.8756 -0.2380 -1.8298
 2073SOL     OW17680   2.779   0.637   4.724 -0.6280 -0.0800 -0.5198
 2073SOL    HW117681   2.771   0.564   4.662 -2.5280 -0.9929  0.8387
 2073SOL    HW217682   2.811   0.586   4.798 -1.3889 -1.1623 -0.9360
 2074SOL     OW17683   4.098   2.827   8.997  0.0570 -0.0380  0.3936
 2074SOL    HW117684   4.043   2.750   8.981  1.7883 -1.4367  1.1958
 2074SOL    HW217685   4.042   2.904   8.986 -0.3189 -0.3590  0.0526
 2075SOL     OW17686   1.121   0.009  13.286  0.5305 -0.3091  0.0721
 2075SOL    HW117687   1.054   4.678  13.326 -0.3931 -0.8540 -2.2203
 2075SOL    HW217688   1.086   0.096  13.305  1.0084 -0.3204  0.9816
 2076SOL     OW17689   1.514   2.402   2.726  0.5579 -0.5222  0.6198
 2076SOL    HW117690   1.605   2.408   2.755 -0.1394  0.7393  2.5154
 2076SOL    HW217691   1.514   2.317   2.680  0.1947  1.5476 -3.2390
 2077SOL     OW17692   3.366   4.259   5.348  0.0797 -1.2307  0.0380
 2077SOL    HW117693   3.357   4.227   5.258  1.1637 -0.2028 -0.4340
 2077SOL    HW217694   3.299   4.219   5.404 -1.4979  0.5853 -0.5419
 2078SOL     OW17695   1.490   0.842   3.014  0.4649 -0.6028  0.4370
 2078SOL    HW117696   1.429   0.805   2.951 -0.6835  0.9066  0.6494
 2078SOL    HW217697   1.438   0.897   3.074  0.6567 -0.4364  0.4524
 2079SOL     OW17698   2.426   3.562   9.446 -0.6983  0.7343  0.2607
 2079SOL    HW117699   2.441   3.567   9.352 -0.4045 -0.0259  0.2714
 2079SOL    HW217700   2.518   3.574   9.467 -0.5956  0.8337 -0.2669
 2080SOL     OW17701   3.623   0.588   6.233 -0.2811  0.0795  0.5402
 2080SOL    HW117702   3.636   0.496   6.212  5.6282  0.6441  1.7759
 2080SOL    HW217703   3.659   0.586   6.321 -2.1306  1.3944  1.3250
 2081SOL     OW17704   2.506   0.065  10.995  0.5277 -0.7550 -0.1191
 2081SOL    HW117705   2.587   0.022  11.022  1.3989  0.0284 -1.4414
 2081SOL    HW217706   2.460   0.078  11.077  2.0869 -0.1702  0.6732
 2082SOL     OW17707   4.559   4.477   8.162  0.3016 -0.0380 -0.5513
 2082SOL    HW117708   4.594   4.412   8.101  1.2170 -1.0990  1.1207
 2082SOL    HW217709   4.627   4.545   8.160  2.9469 -2.6904  0.1846
 2083SOL     OW17710   4.340   4.000   5.768  0.1580 -1.0558  0.0782
 2083SOL    HW117711   4.294   4.082   5.749 -0.4759 -0.7878  2.7653
 2083SOL    HW217712   4.304   3.942   5.700 -1.5615  0.0782  0.0202
 2084SOL     OW17713   0.570   3.971   8.326  0.2452 -0.2678 -0.1594
 2084SOL    HW117714   0.506   4.029   8.285  0.2907 -0.7249 -0.8724
 2084SOL    HW217715   0.511   3.911   8.373 -1.0611  1.0484 -0.1253
 2085SOL     OW17716   0.565   3.333   6.661  0.3013 -0.0566  0.9131
 2085SOL    HW117717   0.597   3.272   6.594  2.0692  0.6485  1.1102
 2085SOL    HW217718   0.631   3.401   6.670  1.0332 -0.6386 -0.0018
 2086SOL     OW17719   1.631   1.188   5.380  0.4298  0.3752 -0.9764
 2086SOL    HW117720   1.559   1.133   5.351  0.8555 -0.3162 -0.7270
 2086SOL    HW217721   1.649   1.152   5.467  0.3306  2.2236 -0.1783
 2087SOL     OW17722   3.923   0.946   5.063  0.0711  0.3876  0.1632
 2087SOL    HW117723   3.916   1.040   5.076  0.7055  0.4808 -0.1633
 2087SOL    HW217724   3.922   0.951   4.967  1.4764 -1.3453  0.0464
 2088SOL     OW17725   1.161   0.721   9.696  0.2981 -0.5029 -0.3589
 2088SOL    HW117726   1.182   0.667   9.772 -1.3862 -0.4912  0.1021
 2088SOL    HW217727   1.234   0.703   9.637 -0.6695 -3.9955 -0.4369
 2089SOL     OW17728   3.288   4.487  16.701 -0.1863  0.2414 -0.1355
 2089SOL    HW117729   3.301   4.406  16.652  1.6214  0.1451  0.5211
 2089SOL    HW217730   3.307   4.458  16.790 -1.1471  1.5468  0.4933
 2090SOL     OW17731   0.403   2.851   6.443 -0.1342 -0.2253  0.1900
 2090SOL    HW117732   0.380   2.764   6.477  2.0623 -0.9781 -0.2853
 2090SOL    HW217733   0.393   2.840   6.349 -1.1715  1.1027  0.1448
 2091SOL     OW17734   3.508   0.219   1.445  0.3067  0.6247 -0.0457
 2091SOL    HW117735   3.432   0.165   1.468  1.0965  0.1354  1.4222
 2091SOL    HW217736   3.580   0.170   1.484  0.2097  0.1545 -0.4472
 2092SOL     OW17737   0.794   3.713  13.858  0.4648  0.1767 -0.3366
 2092SOL    HW117738   0.779   3.625  13.824  2.3681 -0.1738 -0.2922
 2092SOL    HW217739   0.853   3.688  13.929  0.5089  1.5527  0.1210
 2093SOL     OW17740   4.287   1.800  11.963 -0.0330 -0.3968  0.3239
 2093SOL    HW117741   4.257   1.718  11.924 -0.7770 -0.5368  1.1900
 2093SOL    HW217742   4.268   1.777  12.054  0.5930  0.2388  0.6169
 2094SOL     OW17743   4.400   3.218   5.333  0.8447  0.6185 -0.6813
 2094SOL    HW117744   4.336   3.156   5.299 -2.8021  2.7608  2.2886
 2094SOL    HW217745   4.480   3.166   5.346 -0.0424 -0.9312 -1.3676
 2095SOL     OW17746   0.279   0.775   3.870 -0.6733 -0.4863 -0.3086
 2095SOL    HW117747   0.309   0.694   3.828 -1.1252 -1.5569  1.4381
 2095SOL    HW217748   0.274   0.834   3.794  0.3595  2.3837  1.8575
 2096SOL     OW17749   2.023   3.854   0.712  0.1952  0.0818 -0.0404
 2096SOL    HW117750   1.979   3.921   0.764  0.3944  0.2548 -0.0974
 2096SOL    HW217751   2.061   3.805   0.785  1.3483  1.3957  0.2371
 2097SOL     OW17752   3.041   4.312   5.541  0.4279  0.0504  0.4787
 2097SOL    HW117753   2.951   4.341   5.529  1.3894  1.8601 -2.3395
 2097SOL    HW217754   3.087   4.382   5.494 -0.8663  1.7349  1.7106
 2098SOL     OW17755   0.956   0.909   9.621 -0.4398 -0.3065 -0.3261
 2098SOL    HW117756   0.892   0.861   9.674 -0.5706  0.9482  0.6596
 2098SOL    HW217757   1.028   0.845   9.626 -0.3216 -0.1617 -0.1650
 2099SOL     OW17758   4.719   0.565   2.958 -0.3747  0.0402  0.2235
 2099SOL    HW117759   0.005   0.597   3.048  4.2949 -1.1850  0.1136
 2099SOL    HW217760   4.638   0.614   2.945 -0.5016 -0.1773  0.2072
 2100SOL     OW17761   2.042   2.414   9.065  0.3280 -0.1893 -0.4955
 2100SOL    HW117762   2.049   2.347   9.133 -0.1571  0.0760 -0.1798
 2100SOL    HW217763   1.952   2.399   9.035  0.5213 -0.0489 -1.1612
 2101SOL     OW17764   4.181   3.400   2.347 -0.1796  0.2635 -0.6469
 2101SOL    HW117765   4.104   3.370   2.299  0.1957 -1.4188 -0.2032
 2101SOL    HW217766   4.141   3.447   2.420  0.7655 -0.1049  0.1021
 2102SOL     OW17767   4.006   2.213   4.058  0.3101  0.0204  0.0855
 2102SOL    HW117768   4.086   2.265   4.064 -0.6150  1.2527  1.4551
 2102SOL    HW217769   3.969   2.258   3.982  2.3217  1.0880 -0.2761
 2103SOL     OW17770   1.971   0.846   6.416 -0.0317 -0.3255 -0.0833
 2103SOL    HW117771   2.032   0.879   6.482  0.0925  0.0202 -0.3764
 2103SOL    HW217772   1.939   0.774   6.471 -2.4001  0.4948 -0.3598
 2104SOL     OW17773   4.258   2.370   8.411 -0.1794 -0.0166 -0.3771
 2104SOL    HW117774   4.249   2.451   8.462  0.2098 -0.6128  0.6431
 2104SOL    HW217775   4.261   2.301   8.477 -0.6306  0.3200 -0.0081
 2105SOL     OW17776   0.691   3.254   3.950  0.0769  0.4017  0.0402
 2105SOL    HW117777   0.648   3.281   3.869 -1.1066 -0.4735  0.3894
 2105SOL    HW217778   0.698   3.337   3.998 -0.0660  0.5968 -0.2745
 2106SOL     OW17779   4.678   0.259  14.299 -0.3544  0.7602 -0.6856
 2106SOL    HW117780   0.025   0.213  14.344 -1.8529 -1.6915 -0.8675
 2106SOL    HW217781   4.638   0.312  14.368  1.1670  1.4059 -0.2870
 2107SOL     OW17782   1.677   0.188   8.058 -0.0102  0.1399  0.3255
 2107SOL    HW117783   1.740   0.252   8.092 -2.4016  2.4629  0.3754
 2107SOL    HW217784   1.606   0.202   8.120 -0.5543 -0.3643 -0.1947
 2108SOL     OW17785   3.120   3.499  14.778  0.2455 -0.1594 -0.0244
 2108SOL    HW117786   3.210   3.483  14.750  0.1006 -0.7130 -0.1756
 2108SOL    HW217787   3.130   3.580  14.829 -0.3967  0.7861 -1.4075
 2109SOL     OW17788   3.910   3.406   8.673  0.1651 -0.4710  0.5636
 2109SOL    HW117789   3.817   3.417   8.689 -0.0948 -2.4849  0.3904
 2109SOL    HW217790   3.912   3.337   8.739  1.6828 -0.1054  0.9064
 2110SOL     OW17791   4.689   4.366  12.915  0.3390  0.6917 -0.0020
 2110SOL    HW117792   4.713   4.411  12.834  0.3765  1.8303  0.6444
 2110SOL    HW217793   4.603   4.401  12.937  0.3472 -0.1021  1.3159
 2111SOL     OW17794   2.542   4.308   7.431  0.2773 -0.7704  0.4449
 2111SOL    HW117795   2.609   4.279   7.494 -1.0789  3.9884  4.1039
 2111SOL    HW217796   2.465   4.294   7.486 -0.3794 -1.5916 -0.6928
 2112SOL     OW17797   0.745   2.268   8.196  0.1263 -0.0184 -0.3368
 2112SOL    HW117798   0.696   2.323   8.136  0.6798 -1.1507 -1.8121
 2112SOL    HW217799   0.681   2.251   8.265  0.3074  0.9825  0.0807
 2113SOL     OW17800   0.107   0.017   3.878  0.3313  0.2438 -0.5705
 2113SOL    HW117801   0.090   0.038   3.970 -0.2528  0.0886 -0.6455
 2113SOL    HW217802   0.057   4.662   3.860 -1.5896  0.8803  2.0177
 2114SOL     OW17803   2.352   2.654   4.282  0.5146 -0.0425  0.3319
 2114SOL    HW117804   2.350   2.591   4.210 -1.1849  1.4621 -0.9041
 2114SOL    HW217805   2.406   2.723   4.244 -0.8706  0.4427 -0.7579
 2115SOL     OW17806   2.491   0.358   6.685 -0.0859 -0.1459 -0.1609
 2115SOL    HW117807   2.470   0.364   6.778 -0.2809 -0.4906 -0.1835
 2115SOL    HW217808   2.430   0.288   6.664  0.2886  0.3375 -2.8900
 2116SOL     OW17809   3.569   3.816   6.004  0.3239  0.3346 -0.0983
 2116SOL    HW117810   3.548   3.770   5.922  3.1360  1.5494 -1.4867
 2116SOL    HW217811   3.652   3.854   5.975  0.2760  0.3545 -0.2098
 2117SOL     OW17812   3.064   3.679   7.696 -0.8228 -0.4035 -0.0555
 2117SOL    HW117813   3.096   3.682   7.606 -2.7162  0.2811 -0.6921
 2117SOL    HW217814   3.001   3.608   7.687  0.0840 -1.1097 -0.7579
 2118SOL     OW17815   2.726   4.017  14.321  0.9470 -0.2566 -0.0519
 2118SOL    HW117816   2.681   4.045  14.401  1.4949 -0.9163  0.4803
 2118SOL    HW217817   2.817   4.033  14.346  0.8170  0.5419 -0.0719
 2119SOL     OW17818   1.028   0.891   5.667 -0.0168 -0.3764  0.1042
 2119SOL    HW117819   1.097   0.949   5.634 -0.0230 -0.0360  0.6891
 2119SOL    HW217820   0.944   0.937   5.669 -0.2710 -0.9263  1.6456
 2120SOL     OW17821   2.996   4.332   2.622 -0.6165 -0.7986  0.4846
 2120SOL    HW117822   2.903   4.342   2.642 -0.2649  0.5739  1.4537
 2120SOL    HW217823   3.035   4.389   2.688 -0.2364 -0.3253 -0.1429
 2121SOL     OW17824   1.837   3.359   6.010 -0.2523 -0.3601 -0.4572
 2121SOL    HW117825   1.764   3.419   5.998 -0.4074 -0.8700 -2.0575
 2121SOL    HW217826   1.792   3.290   6.059 -0.4473  1.6052  2.1216
 2122SOL     OW17827   0.501   1.940   5.330 -0.5237  0.4350 -0.2265
 2122SOL    HW117828   0.527   1.996   5.403  0.8058 -1.4991  0.7800
 2122SOL    HW217829   0.492   2.006   5.262  0.5528  1.0695  0.2385
 2123SOL     OW17830   2.294   3.070   7.867  1.0491 -0.4539 -0.1287
 2123SOL    HW117831   2.298   2.999   7.931 -0.4942 -1.2985 -0.9546
 2123SOL    HW217832   2.357   3.029   7.808  0.0681  2.9865 -3.6010
 2124SOL     OW17833   3.235   3.435   1.351  0.4921  0.8677 -0.0416
 2124SOL    HW117834   3.199   3.497   1.415 -0.8882 -0.3010  0.3272
 2124SOL    HW217835   3.183   3.453   1.272  1.1568  0.7758 -0.4935
 2125SOL     OW17836   2.650   0.822  16.332 -0.2455 -0.1925  0.5620
 2125SOL    HW117837   2.591   0.766  16.383 -1.3501  2.4874  2.2457
 2125SOL    HW217838   2.605   0.906  16.333  0.5914  0.2598  0.0306
 2126SOL     OW17839   2.029   2.535   6.072  0.0449  0.4450 -0.1750
 2126SOL    HW117840   1.993   2.571   6.153 -0.6805  0.1703 -0.3773
 2126SOL    HW217841   2.105   2.592   6.059  0.1006 -0.0296 -1.8406
 2127SOL     OW17842   1.707   0.587   2.277 -0.1330 -0.0903 -0.4388
 2127SOL    HW117843   1.612   0.583   2.279 -0.1564  0.4280 -0.5957
 2127SOL    HW217844   1.726   0.494   2.264 -0.0410  0.0839 -1.4894
 2128SOL     OW17845   2.364   2.532  16.963  0.5766 -0.2133 -0.2406
 2128SOL    HW117846   2.315   2.610  16.992 -1.4405 -1.6437  0.1794
 2128SOL    HW217847   2.330   2.512  16.875 -1.3986  0.5564  0.3292
 2129SOL     OW17848   2.115   3.479   5.413 -0.1947 -0.5767 -0.0467
 2129SOL    HW117849   2.155   3.550   5.464 -0.1146  0.9380 -2.2121
 2129SOL    HW217850   2.177   3.455   5.344  1.5076  1.3905  0.7880
 2130SOL     OW17851   1.878   0.529   4.497  0.0111  0.2754  0.3079
 2130SOL    HW117852   1.822   0.520   4.574  0.6500  2.2010  0.9858
 2130SOL    HW217853   1.903   0.437   4.494 -0.0834  0.2795 -0.6161
 2131SOL     OW17854   3.328   2.582   8.760 -0.0664 -0.4022  0.1532
 2131SOL    HW117855   3.411   2.625   8.743  0.2573 -0.2624  2.1005
 2131SOL    HW217856   3.352   2.489   8.757 -0.3971 -0.4884  0.1420
 2132SOL     OW17857   1.049   0.512  16.103 -0.0676  0.6677  0.2069
 2132SOL    HW117858   1.087   0.568  16.171  1.8256 -2.0941  1.4524
 2132SOL    HW217859   1.088   0.558  16.029  0.6015  0.9460  0.7318
 2133SOL     OW17860   1.254   0.482   3.369 -0.3941  0.0784 -0.3077
 2133SOL    HW117861   1.233   0.556   3.312  1.1236  1.9572  1.5372
 2133SOL    HW217862   1.315   0.523   3.430 -0.3492 -0.8015  0.2283
 2134SOL     OW17863   0.488   1.808   0.295  0.4495  0.7683  0.2043
 2134SOL    HW117864   0.484   1.720   0.332 -2.3090 -0.6496 -3.3996
 2134SOL    HW217865   0.416   1.853   0.338 -0.9515 -1.1967 -0.0551
 2135SOL     OW17866   2.796   0.756  15.053  1.2168  0.0256 -0.7457
 2135SOL    HW117867   2.709   0.795  15.043  0.0595 -2.5933 -0.8973
 2135SOL    HW217868   2.778   0.672  15.011 -1.1393 -2.7627  5.7441
 2136SOL     OW17869   1.534   4.601  10.677 -0.4678 -0.7219  0.6976
 2136SOL    HW117870   1.510   4.598  10.584 -2.0871 -0.9155  1.1330
 2136SOL    HW217871   1.602   4.669  10.679 -1.5933  0.4632 -0.6434
 2137SOL     OW17872   2.440   2.843   5.616 -0.2537 -0.0437 -0.6748
 2137SOL    HW117873   2.497   2.806   5.684  1.8157 -0.4758 -2.6580
 2137SOL    HW217874   2.474   2.783   5.549  0.0412 -0.0262 -0.5388
 2138SOL     OW17875   0.732   3.442   0.658 -0.0171 -0.2124 -0.3681
 2138SOL    HW117876   0.682   3.396   0.725 -0.6030 -0.0968 -0.7275
 2138SOL    HW217877   0.701   3.531   0.673 -1.1344 -0.9595  1.6538
 2139SOL     OW17878   1.902   2.645  11.443  0.1091  0.1173 -0.4893
 2139SOL    HW117879   1.969   2.578  11.460 -3.5101 -2.9051  1.7212
 2139SOL    HW217880   1.830   2.632  11.504  1.2944 -1.0539  0.6437
 2140SOL     OW17881   3.997   1.624   0.659  0.0987  0.4350 -0.1559
 2140SOL    HW117882   3.916   1.580   0.686  0.3922  0.0890  0.1669
 2140SOL    HW217883   4.011   1.670   0.742 -1.7823  0.5906  0.0961
 2141SOL     OW17884   2.302   4.243   8.031  0.8469  0.4962  0.3453
 2141SOL    HW117885   2.217   4.211   8.062 -0.5687  4.2083  0.2431
 2141SOL    HW217886   2.361   4.167   8.029 -0.4483 -0.4577 -0.8594
 2142SOL     OW17887   3.219   2.262   3.317 -1.0521 -0.0344  0.7478
 2142SOL    HW117888   3.135   2.296   3.287  0.2709  0.7296 -2.1058
 2142SOL    HW217889   3.203   2.182   3.367  0.5340 -1.6435 -1.3197
 2143SOL     OW17890   0.666   3.495   7.030 -0.1668 -0.0913  0.0671
 2143SOL    HW117891   0.632   3.413   7.067 -0.0747  0.3368  1.1067
 2143SOL    HW217892   0.747   3.507   7.078 -0.4942  1.5806  0.1943
 2144SOL     OW17893   0.116   2.708   8.863  0.2544 -0.1860 -0.1341
 2144SOL    HW117894   0.040   2.655   8.884 -0.2540  0.7176  0.2893
 2144SOL    HW217895   0.069   2.782   8.825 -0.2889  0.6134  2.1048
 2145SOL     OW17896   4.631   3.107   7.358  0.4759  0.1346 -0.2972
 2145SOL    HW117897   4.717   3.068   7.372 -0.5312 -0.9529  2.7468
 2145SOL    HW217898   4.630   3.121   7.263  4.5360  0.1254 -0.3426
 2146SOL     OW17899   3.720   2.256   7.125  0.6548  0.6585  0.4531
 2146SOL    HW117900   3.758   2.225   7.206  0.3092  1.0379  0.7654
 2146SOL    HW217901   3.741   2.349   7.130 -0.1795  0.9506 -1.2092
 2147SOL     OW17902   0.267   3.489   8.708 -0.1011  0.0662  0.5582
 2147SOL    HW117903   0.254   3.443   8.790 -0.6650  0.9061  0.9498
 2147SOL    HW217904   0.326   3.556   8.743 -1.2556  1.8399 -0.8734
 2148SOL     OW17905   1.842   1.733  17.436  0.4415  0.5584  0.5906
 2148SOL    HW117906   1.926   1.772  17.411  0.2383  0.4268 -0.3052
 2148SOL    HW217907   1.863   1.677  17.511 -1.1774 -1.9947 -0.8771
 2149SOL     OW17908   1.978   2.177   8.062  0.2145 -0.2552 -0.0373
 2149SOL    HW117909   2.033   2.154   7.987  0.5045 -0.0680  0.1187
 2149SOL    HW217910   1.898   2.155   8.013  0.8231 -0.1049 -1.1030
 2150SOL     OW17911   0.474   1.094   6.365  0.1427 -0.7307  0.4913
 2150SOL    HW117912   0.425   1.034   6.308  1.4838 -0.4527 -0.9549
 2150SOL    HW217913   0.541   1.119   6.302  0.2211 -0.3970  0.7072
 2151SOL     OW17914   2.070   3.530  16.596  0.3353 -0.2630  0.6863
 2151SOL    HW117915   2.133   3.462  16.571 -0.0989  0.1393 -1.4811
 2151SOL    HW217916   1.993   3.476  16.617  0.3743 -0.7591 -0.4614
 2152SOL     OW17917   1.035   1.075   0.933  0.0806 -0.1512  0.0556
 2152SOL    HW117918   0.988   1.028   0.863  1.1812 -0.1108 -0.7149
 2152SOL    HW217919   1.116   1.025   0.939 -1.6115 -2.8183  0.8377
 2153SOL     OW17920   2.769   0.156   6.485 -0.3238 -0.4809  0.5626
 2153SOL    HW117921   2.858   0.145   6.453  0.5436  1.6583  2.2857
 2153SOL    HW217922   2.733   0.226   6.431 -1.1758  0.0383  1.8000
 2154SOL     OW17923   3.390   0.947   7.060 -0.3720  0.5093 -0.2934
 2154SOL    HW117924   3.468   0.995   7.086  0.2580 -0.6945  0.0754
 2154SOL    HW217925   3.400   0.952   6.965  0.4921  2.9010 -0.0649
 2155SOL     OW17926   0.304   4.004   2.121  0.5930  0.0495  0.3744
 2155SOL    HW117927   0.374   4.017   2.057 -0.9887  2.7996 -0.7559
 2155SOL    HW217928   0.226   4.055   2.100 -0.2525 -0.5461  1.9954
 2156SOL     OW17929   1.623   0.230   6.430  0.0443  0.5670 -0.1574
 2156SOL    HW117930   1.557   0.280   6.381  0.7406 -0.5162 -2.1601
 2156SOL    HW217931   1.670   0.178   6.366 -0.0834 -0.9788  0.9963
 2157SOL     OW17932   1.341   2.088   7.511 -0.4695 -0.3299 -0.6207
 2157SOL    HW117933   1.272   2.152   7.530  0.6355  1.4316 -2.4362
 2157SOL    HW217934   1.370   2.067   7.599 -0.8259  2.8420  0.2615
 2158SOL     OW17935   4.223   4.497  17.013  0.1679  0.0979 -0.0605
 2158SOL    HW117936   4.164   4.560  17.055 -0.4844  0.9066 -2.2204
 2158SOL    HW217937   4.307   4.544  17.014  0.7981 -1.0441  1.0034
 2159SOL     OW17938   2.607   1.660  16.939  0.4899  0.3538 -0.2946
 2159SOL    HW117939   2.564   1.728  16.888  0.2537  0.0454 -0.5060
 2159SOL    HW217940   2.699   1.680  16.920  1.0644 -2.3769 -0.3791
 2160SOL     OW17941   2.999   3.637  16.312 -0.6555  0.0494 -0.0368
 2160SOL    HW117942   2.949   3.618  16.392  1.4432 -0.4688  1.1517
 2160SOL    HW217943   2.928   3.690  16.276 -0.7811  1.3809  2.1426
 2161SOL     OW17944   4.454   3.108  15.499  0.2140  0.0590 -0.1063
 2161SOL    HW117945   4.514   3.077  15.567  0.1040  1.9473  0.8564
 2161SOL    HW217946   4.402   3.028  15.504  1.2525 -0.6457 -0.5228
 2162SOL     OW17947   4.656   1.401   7.356 -0.1499  0.3384 -0.0396
 2162SOL    HW117948   4.661   1.424   7.264 -3.0865  1.6420  0.1401
 2162SOL    HW217949   4.658   1.486   7.399  0.6798 -0.0973  0.8063
 2163SOL     OW17950   0.429   4.628   5.175 -0.4362  0.4577  0.4204
 2163SOL    HW117951   0.334   4.633   5.167 -0.2795 -0.7648 -2.1749
 2163SOL    HW217952   0.445   4.653   5.266 -0.1494  0.4556  0.3728
 2164SOL     OW17953   4.192   1.082   8.682  0.1163 -0.1321 -0.4142
 2164SOL    HW117954   4.286   1.067   8.694  0.2376 -1.1636 -2.6542
 2164SOL    HW217955   4.162   0.995   8.656 -0.0960  0.2332 -1.3926
 2165SOL     OW17956   3.614   2.613   4.946 -0.0766 -0.0084  0.5375
 2165SOL    HW117957   3.581   2.611   4.856  1.9730  0.1300 -0.2149
 2165SOL    HW217958   3.531   2.628   4.992 -0.6856 -0.7972 -0.3090
 2166SOL     OW17959   1.396   0.293   5.577 -0.1348  0.0071 -0.0753
 2166SOL    HW117960   1.365   0.257   5.494 -0.5265 -0.0008  0.0713
 2166SOL    HW217961   1.490   0.289   5.564 -0.2371  1.3622 -1.3056
 2167SOL     OW17962   1.695   3.290   1.767  0.1279 -0.0571 -0.2206
 2167SOL    HW117963   1.783   3.308   1.800  1.2065 -2.6612 -1.7062
 2167SOL    HW217964   1.652   3.368   1.802  0.2148 -0.4933  0.8569
 2168SOL     OW17965   2.693   4.057  16.204 -0.0220  0.0680 -0.2008
 2168SOL    HW117966   2.650   4.073  16.120 -0.0817  0.7091 -0.0484
 2168SOL    HW217967   2.620   4.073  16.264 -0.6434 -1.2930 -0.5954
 2169SOL     OW17968   0.985   4.329   6.425 -0.0142 -0.0935 -0.1918
 2169SOL    HW117969   0.963   4.365   6.512  0.2705 -0.3012 -0.0335
 2169SOL    HW217970   1.014   4.410   6.382 -0.0072 -0.8738 -1.6306
 2170SOL     OW17971   2.681   1.775   3.389 -0.1445  0.9250  0.3509
 2170SOL    HW117972   2.671   1.683   3.364 -0.5086  1.0170  0.1633
 2170SOL    HW217973   2.634   1.782   3.472  0.5319  1.1625  0.7122
 2171SOL     OW17974   1.491   1.774   2.362  0.3184  0.7141  0.1716
 2171SOL    HW117975   1.520   1.851   2.313 -0.0440  0.5046 -0.3707
 2171SOL    HW217976   1.462   1.730   2.282 -0.6381  1.3548  0.1672
 2172SOL     OW17977   4.539   0.844   2.671 -0.1773  0.2110 -0.1682
 2172SOL    HW117978   4.627   0.815   2.697 -0.0031  1.3902  0.5164
 2172SOL    HW217979   4.524   0.916   2.732  0.2611  1.1158 -1.1338
 2173SOL     OW17980   1.390   0.118  13.357 -0.3584 -0.2126 -0.4889
 2173SOL    HW117981   1.314   0.061  13.355 -0.5235  0.0010 -0.0160
 2173SOL    HW217982   1.360   0.177  13.288  1.3977 -0.5453 -1.5812
 2174SOL     OW17983   3.652   3.699   3.436  0.1610 -0.0651  0.3411
 2174SOL    HW117984   3.599   3.646   3.377  0.3365  0.1264  0.0158
 2174SOL    HW217985   3.714   3.740   3.376 -0.4711  0.4385  0.0397
 2175SOL     OW17986   1.982   2.972   6.832  0.3800 -0.4824  0.6104
 2175SOL    HW117987   1.949   2.924   6.909 -4.0306  1.4555 -0.1103
 2175SOL    HW217988   1.906   2.980   6.775  1.7710  1.8990 -0.8725
 2176SOL     OW17989   0.293   0.895   3.616  0.1740 -0.1954  0.5009
 2176SOL    HW117990   0.365   0.957   3.607  0.6724 -0.9227 -0.6746
 2176SOL    HW217991   0.351   0.819   3.624 -2.1207 -2.1026 -0.6328
 2177SOL     OW17992   3.022   1.451  11.741 -0.0027  0.0945 -0.3377
 2177SOL    HW117993   3.037   1.472  11.833 -0.2409  1.1135 -0.5272
 2177SOL    HW217994   2.942   1.399  11.753  0.4861 -0.8866 -1.3554
 2178SOL     OW17995   4.453   4.113   3.158 -0.4203  0.0298  0.0394
 2178SOL    HW117996   4.522   4.169   3.192 -1.0478 -0.1287  1.5342
 2178SOL    HW217997   4.465   4.112   3.063  0.6779  0.4759  0.1794
 2179SOL     OW17998   2.690   2.401  16.169 -0.2528  0.1938  0.3153
 2179SOL    HW117999   2.612   2.450  16.141  0.4927  0.6692 -0.9199
 2179SOL    HW218000   2.676   2.360  16.254 -0.4656  0.0234  0.1990
 2180SOL     OW18001   1.029   1.304   6.194  0.0777 -0.3198  0.3516
 2180SOL    HW118002   0.960   1.367   6.174 -1.3127 -1.2051  2.4091
 2180SOL    HW218003   1.045   1.258   6.112  1.4986  2.7774 -1.1084
 2181SOL     OW18004   1.374   1.374   0.319 -0.3683  0.2825 -0.4613
 2181SOL    HW118005   1.329   1.299   0.358  1.5638 -0.2576  0.7155
 2181SOL    HW218006   1.429   1.331   0.254  0.0545 -0.4209  0.3615
 2182SOL     OW18007   3.167   4.221  16.915 -0.2911  0.0119 -0.2572
 2182SOL    HW118008   3.098   4.265  16.866 -1.6530 -1.8273  0.0128
 2182SOL    HW218009   3.215   4.170  16.850 -0.1006  0.2590 -0.3094
 2183SOL     OW18010   2.915   0.356   0.079  0.0331  0.0131  0.6758
 2183SOL    HW118011   2.833   0.404   0.088  0.3018  0.1028  2.6870
 2183SOL    HW218012   2.957   0.370   0.164 -0.1485 -0.9885  0.9265
 2184SOL     OW18013   4.179   2.091   0.803  0.2018 -0.5158 -0.7353
 2184SOL    HW118014   4.161   2.085   0.897 -0.6862  0.9496 -0.8104
 2184SOL    HW218015   4.202   2.001   0.781 -0.0248 -1.1059  1.4484
 2185SOL     OW18016   1.460   2.506   5.715  0.4747 -0.0165 -0.4014
 2185SOL    HW118017   1.447   2.557   5.795 -0.5628 -1.9510  0.6925
 2185SOL    HW218018   1.481   2.428   5.767  0.1863  1.5020  1.9841
 2186SOL     OW18019   3.429   0.604   2.125 -0.5394 -0.1044 -0.2026
 2186SOL    HW118020   3.524   0.595   2.114 -0.8846 -1.9376 -1.5503
 2186SOL    HW218021   3.420   0.696   2.151  1.7901 -0.4113  1.7233
 2187SOL     OW18022   4.233   3.981   4.800  0.1323  0.3561 -0.4950
 2187SOL    HW118023   4.205   4.030   4.878 -1.0119 -0.5947 -0.3065
 2187SOL    HW218024   4.285   3.910   4.839  0.7497  0.0998 -1.8071
 2188SOL     OW18025   3.285   4.364   4.747 -0.2055  0.0498  0.9548
 2188SOL    HW118026   3.201   4.319   4.741 -1.0920  1.7927  0.2616
 2188SOL    HW218027   3.342   4.289   4.765 -0.0818  0.3203  1.6797
 2189SOL     OW18028   4.401   0.926   5.693  0.0728  0.1281  0.1703
 2189SOL    HW118029   4.407   0.834   5.720 -1.7971 -0.4958 -1.4626
 2189SOL    HW218030   4.305   0.930   5.687 -0.0532 -1.2562  1.1841
 2190SOL     OW18031   2.798   2.324  12.261  0.3152 -0.0887  0.3293
 2190SOL    HW118032   2.739   2.249  12.275  0.5391 -0.4180 -0.5111
 2190SOL    HW218033   2.745   2.394  12.299  1.9305  1.6972 -0.7398
 2191SOL     OW18034   0.545   0.023  15.065  0.3673 -0.5907 -0.1039
 2191SOL    HW118035   0.557   4.671  15.009  1.6223  1.3063 -2.4240
 2191SOL    HW218036   0.535   0.089  14.996 -4.6666 -0.7913  0.4432
 2192SOL     OW18037   2.474   1.143  17.063 -0.1907 -0.9045  0.0806
 2192SOL    HW118038   2.517   1.132  17.148  0.7777  0.1162 -0.2846
 2192SOL    HW218039   2.498   1.062  17.017 -1.2758 -1.9142  1.2598
 2193SOL     OW18040   3.813   4.678   4.324  0.1849 -0.3619  0.1943
 2193SOL    HW118041   3.839   4.687   4.232  2.2921  1.0819  0.9260
 2193SOL    HW218042   3.792   4.585   4.331  4.6729 -1.3563  0.3405
 2194SOL     OW18043   1.305   1.315   7.222  0.4649 -0.0584  0.1401
 2194SOL    HW118044   1.371   1.380   7.247 -0.5334  1.3759 -0.9889
 2194SOL    HW218045   1.366   1.247   7.193 -1.2248 -1.4405 -0.1771
 2195SOL     OW18046   2.583   0.209   2.772  0.5412 -0.2333 -0.2630
 2195SOL    HW118047   2.661   0.247   2.732  1.9326  0.5255  3.1999
 2195SOL    HW218048   2.547   0.152   2.704  2.0413  1.1453 -2.2208
 2196SOL     OW18049   3.589   3.967  12.600  0.0583 -0.4522  0.7352
 2196SOL    HW118050   3.586   4.062  12.608 -0.0354 -0.2899 -1.2924
 2196SOL    HW218051   3.650   3.944  12.671  1.5711 -1.4997 -0.9181
 2197SOL     OW18052   1.717   4.418   5.131 -0.1439 -0.7331 -0.5085
 2197SOL    HW118053   1.813   4.415   5.139 -0.2074 -0.0596  0.5079
 2197SOL    HW218054   1.697   4.511   5.139 -0.1610 -0.8482  0.8721
 2198SOL     OW18055   4.364   0.063   6.777  0.3219  0.6520  0.5456
 2198SOL    HW118056   4.309   0.066   6.854  0.6825  0.3698  0.8151
 2198SOL    HW218057   4.381   0.153   6.750 -3.3695 -0.0281 -4.0723
 2199SOL     OW18058   0.422   0.605  15.968 -0.1093 -0.0328  0.4231
 2199SOL    HW118059   0.371   0.525  15.956 -0.9918  0.4947  0.6672
 2199SOL    HW218060   0.438   0.637  15.879  0.8470  0.3485  0.7300
 2200SOL     OW18061   2.932   3.657   4.052 -0.1251  0.1070  0.4042
 2200SOL    HW118062   2.943   3.630   4.143 -1.5902  0.4298  0.6768
 2200SOL    HW218063   2.846   3.623   4.027  0.1977 -0.0676 -0.4998
 2201SOL     OW18064   1.410   1.879   5.659 -0.0071 -0.0686 -0.0144
 2201SOL    HW118065   1.465   1.950   5.624 -0.0965  0.7205  1.4593
 2201SOL    HW218066   1.346   1.868   5.588 -1.2587 -1.9015  1.4049
 2202SOL     OW18067   1.395   3.571   7.602 -0.7861 -0.1307  0.5222
 2202SOL    HW118068   1.353   3.499   7.649  0.8768 -0.6403  1.2293
 2202SOL    HW218069   1.453   3.525   7.541 -0.4359  1.9700 -0.7271
 2203SOL     OW18070   3.690   1.351   8.397  0.0726 -0.3475 -0.0051
 2203SOL    HW118071   3.727   1.304   8.322  3.3056  0.2009  1.2399
 2203SOL    HW218072   3.728   1.438   8.382  0.3140  0.1765  3.7266
 2204SOL     OW18073   2.864   1.435   5.772 -0.0202  0.4064  0.0549
 2204SOL    HW118074   2.908   1.516   5.746  0.5394 -0.2954 -1.1688
 2204SOL    HW218075   2.838   1.395   5.689 -0.3286 -1.7310  1.1580
 2205SOL     OW18076   2.951   1.660   5.636 -0.0771 -0.0945 -0.0867
 2205SOL    HW118077   2.920   1.636   5.549 -2.5003 -0.1221  0.7798
 2205SOL    HW218078   3.035   1.702   5.616 -0.5600  0.8913 -0.0715
 2206SOL     OW18079   3.095   0.801   7.243  0.1721  0.5454  0.2606
 2206SOL    HW118080   3.088   0.855   7.165  3.7261  1.0311  0.3095
 2206SOL    HW218081   3.168   0.746   7.216 -0.2571  0.1420 -0.0839
 2207SOL     OW18082   0.848   4.351   7.348  0.0370  0.2816 -0.9196
 2207SOL    HW118083   0.808   4.360   7.261 -0.8702  0.4302 -0.4797
 2207SOL    HW218084   0.804   4.429   7.380 -1.8608 -0.6803 -1.1878
 2208SOL     OW18085   2.409   0.328   5.385 -0.3776 -0.1450 -0.0849
 2208SOL    HW118086   2.399   0.417   5.352  0.6547 -0.9362 -2.5268
 2208SOL    HW218087   2.449   0.291   5.307  0.4090  1.3348 -0.3778
 2209SOL     OW18088   4.081   3.461   4.112  0.3875  0.4041  0.4587
 2209SOL    HW118089   4.156   3.495   4.061  0.4545  0.8099  0.8273
 2209SOL    HW218090   4.107   3.464   4.204  0.6577  0.1496  0.3897
 2210SOL     OW18091   3.445   3.614   8.721 -0.2218  0.0077 -0.2361
 2210SOL    HW118092   3.361   3.642   8.685 -0.8474  0.3487  1.5082
 2210SOL    HW218093   3.463   3.694   8.770 -0.0811 -1.2523  1.7538
 2211SOL     OW18094   3.967   3.675   5.923 -0.1303 -0.0066 -0.6898
 2211SOL    HW118095   4.061   3.692   5.922 -0.1635  0.0019 -3.6034
 2211SOL    HW218096   3.931   3.749   5.972 -1.4447 -0.5377 -0.8514
 2212SOL     OW18097   2.549   2.453   7.244 -0.0140  0.5220  0.3022
 2212SOL    HW118098   2.530   2.391   7.315 -0.7732  1.9058  1.2972
 2212SOL    HW218099   2.639   2.483   7.258  0.4558 -1.9035  2.5134
 2213SOL     OW18100   0.145   0.348   3.051 -0.6423 -0.2667  0.4425
 2213SOL    HW118101   0.150   0.309   2.964  1.7015  0.3749  0.2701
 2213SOL    HW218102   0.095   0.427   3.032  0.3154  0.2899  0.1931
 2214SOL     OW18103   0.591   2.103  13.186  0.6869  0.1561 -0.2456
 2214SOL    HW118104   0.675   2.064  13.209  0.1521 -2.0687 -2.0175
 2214SOL    HW218105   0.538   2.024  13.174  0.1178  0.5612 -0.4217
 2215SOL     OW18106   1.621   2.423   0.374  0.2176 -0.4173 -0.0461
 2215SOL    HW118107   1.639   2.357   0.441 -0.2187 -0.3922  0.0915
 2215SOL    HW218108   1.526   2.418   0.369  0.1021  0.1961  1.5354
 2216SOL     OW18109   0.581   2.755  15.099 -0.1170 -0.2501  0.0175
 2216SOL    HW118110   0.646   2.793  15.158 -0.2191  0.1519 -0.1266
 2216SOL    HW218111   0.619   2.759  15.011 -0.9139  0.7279 -0.2876
 2217SOL     OW18112   0.663   3.310   7.472 -0.4398  0.5374 -0.1544
 2217SOL    HW118113   0.646   3.258   7.551 -1.1010  0.3106 -0.4503
 2217SOL    HW218114   0.729   3.366   7.514  1.1449 -0.7168 -0.9676
 2218SOL     OW18115   3.413   2.160   3.060 -0.6352  0.0809  0.2015
 2218SOL    HW118116   3.344   2.215   3.023  0.8705  0.1582 -2.4236
 2218SOL    HW218117   3.467   2.221   3.110  2.3450 -2.6121  0.2320
 2219SOL     OW18118   4.464   2.713   7.906 -0.1986 -0.3031  0.0468
 2219SOL    HW118119   4.423   2.672   7.982  1.1675 -2.7108 -0.5217
 2219SOL    HW218120   4.407   2.689   7.833 -1.3167 -0.1584  0.8708
 2220SOL     OW18121   3.266   3.077   2.224  0.2757  0.1176 -0.0733
 2220SOL    HW118122   3.279   3.070   2.318 -0.9078  0.3615  0.1099
 2220SOL    HW218123   3.331   3.015   2.190  0.7538  0.5218  0.1050
 2221SOL     OW18124   2.079   2.728  11.882 -0.0201 -0.2279  0.1890
 2221SOL    HW118125   2.108   2.799  11.825  1.8172 -1.1431 -0.0320
 2221SOL    HW218126   1.987   2.754  11.887 -0.0799 -0.2823 -0.6280
 2222SOL     OW18127   1.262   3.775   6.801  0.2539  0.3690  0.6151
 2222SOL    HW118128   1.238   3.834   6.730  3.2878  0.7082 -0.1574
 2222SOL    HW218129   1.201   3.708   6.771 -0.3577  1.4110 -0.4679
 2223SOL     OW18130   1.897   3.662   3.782 -0.1758 -0.1764 -0.4052
 2223SOL    HW118131   1.921   3.700   3.697  0.7484  1.3454  0.5312
 2223SOL    HW218132   1.802   3.672   3.779 -0.3153 -1.4921 -0.3105
 2224SOL     OW18133   3.948   2.049   6.794  0.0226 -0.2882  0.5606
 2224SOL    HW118134   3.900   2.132   6.803 -0.6160 -0.5739 -0.1721
 2224SOL    HW218135   4.025   2.081   6.747 -0.3501  1.4702  1.1306
 2225SOL     OW18136   2.391   0.797   6.130 -0.2629  0.8949 -0.2339
 2225SOL    HW118137   2.361   0.735   6.197  2.3037  0.4669  0.5051
 2225SOL    HW218138   2.305   0.824   6.097 -1.3044 -0.7967  1.0889
 2226SOL     OW18139   2.479   1.746   2.022  0.5892 -0.2883 -0.2893
 2226SOL    HW118140   2.511   1.702   1.943  2.0605 -3.6125  2.1865
 2226SOL    HW218141   2.506   1.838   2.012 -1.0445  0.1814 -0.4859
 2227SOL     OW18142   3.627   1.789   7.611 -0.0510 -0.0800 -0.1431
 2227SOL    HW118143   3.646   1.823   7.524  2.4005  1.9617  1.1901
 2227SOL    HW218144   3.681   1.710   7.614  0.9435  0.5924 -0.3962
 2228SOL     OW18145   3.493   2.864  10.463  0.0059 -0.3243  1.1326
 2228SOL    HW118146   3.563   2.879  10.526 -0.9743  2.0176  1.6552
 2228SOL    HW218147   3.448   2.948  10.472  0.6894  0.4302 -2.4906
 2229SOL     OW18148   2.528   1.385  14.829  0.2382 -0.0523  0.0169
 2229SOL    HW118149   2.462   1.448  14.800 -0.9513 -1.6637 -0.7655
 2229SOL    HW218150   2.504   1.314  14.769  1.7678 -1.1699  0.7237
 2230SOL     OW18151   0.932   3.697  14.642 -0.4586 -0.2646 -0.5400
 2230SOL    HW118152   0.991   3.752  14.694  1.1702 -2.5128 -0.0017
 2230SOL    HW218153   0.975   3.612  14.650  0.5526  0.2750 -0.1414
 2231SOL     OW18154   1.365   4.156  16.921 -0.1782  0.2347  0.1023
 2231SOL    HW118155   1.305   4.098  16.874  1.1774 -0.4439 -0.7934
 2231SOL    HW218156   1.305   4.216  16.965 -0.3455  0.2439 -0.1453
 2232SOL     OW18157   3.726   0.081   2.364  0.5122  0.0651 -0.4082
 2232SOL    HW118158   3.771   0.159   2.332 -0.2531  0.1283 -1.3180
 2232SOL    HW218159   3.641   0.104   2.328 -0.3441 -1.5616  0.5689
 2233SOL     OW18160   3.779   3.273   8.259  0.0620  0.0076  0.0015
 2233SOL    HW118161   3.821   3.192   8.232  1.1895  0.8654 -0.8210
 2233SOL    HW218162   3.848   3.291   8.322  0.8495 -0.0872 -0.8477
 2234SOL     OW18163   3.234   2.777   3.929  0.5184  0.1415 -0.5059
 2234SOL    HW118164   3.325   2.767   3.902 -0.6481 -1.2480 -3.9416
 2234SOL    HW218165   3.246   2.834   4.004 -0.8085  0.1795 -0.3274
 2235SOL     OW18166   3.425   1.522   5.559  0.0338 -1.2082  0.5474
 2235SOL    HW118167   3.357   1.572   5.515 -0.6375 -1.1616  1.6359
 2235SOL    HW218168   3.505   1.561   5.522 -1.6483 -0.0550 -1.8773
 2236SOL     OW18169   1.087   2.237   7.921 -0.4469 -0.0471  0.2271
 2236SOL    HW118170   1.052   2.216   8.007 -0.6159 -4.0388 -0.8106
 2236SOL    HW218171   1.135   2.315   7.946 -0.3454  0.5167 -1.6974
 2237SOL     OW18172   3.507   4.722   1.200 -0.0262 -0.5755 -0.1572
 2237SOL    HW118173   3.429   4.667   1.208 -0.6993 -0.0093 -2.9623
 2237SOL    HW218174   3.575   4.662   1.232  1.9003  0.6867 -1.9463
 2238SOL     OW18175   2.776   2.099   7.476 -0.7143 -0.7991 -0.3330
 2238SOL    HW118176   2.835   2.024   7.487  1.6858  1.2862  1.0627
 2238SOL    HW218177   2.776   2.130   7.567  0.3988 -0.3730 -0.4749
 2239SOL     OW18178   1.853   2.012  10.344  0.0375  0.1100 -0.3633
 2239SOL    HW118179   1.807   2.006  10.260 -1.7406 -0.5613  0.6593
 2239SOL    HW218180   1.941   2.009  10.308 -0.6426  1.3157 -2.1407
 2240SOL     OW18181   0.658   0.399   8.312 -0.0942  0.2394 -0.3779
 2240SOL    HW118182   0.578   0.373   8.358 -0.3749 -0.7570 -1.4424
 2240SOL    HW218183   0.672   0.491   8.337  0.2646  0.3916 -1.1231
 2241SOL     OW18184   3.525   3.604   8.427 -0.6974  0.1711 -0.7317
 2241SOL    HW118185   3.497   3.600   8.519  1.9980  0.7214  0.1199
 2241SOL    HW218186   3.507   3.512   8.405  0.6346 -0.7352  1.9003
 2242SOL     OW18187   1.168   4.419  14.720  0.3211 -0.0053 -0.1613
 2242SOL    HW118188   1.134   4.505  14.693 -0.5921 -0.5205 -0.6520
 2242SOL    HW218189   1.102   4.360  14.685  0.1450 -0.7694  1.4910
 2243SOL     OW18190   3.006   1.467   6.194  0.7101 -0.3126  0.0603
 2243SOL    HW118191   3.080   1.507   6.147 -0.2211  0.1200 -1.0270
 2243SOL    HW218192   3.050   1.390   6.230  0.6378 -0.4017 -0.0448
 2244SOL     OW18193   0.084   4.490   6.331  0.8555 -0.7869  0.6263
 2244SOL    HW118194   0.085   4.455   6.420 -0.4702 -1.0516  0.5397
 2244SOL    HW218195   0.112   4.578   6.358  0.2944 -0.0163 -1.2936
 2245SOL     OW18196   3.262   1.529   8.279 -0.1072  0.4505  0.2666
 2245SOL    HW118197   3.268   1.610   8.229  1.5415  1.3276  1.8771
 2245SOL    HW218198   3.330   1.548   8.344 -0.1642 -0.0638  0.4747
 2246SOL     OW18199   2.496   4.484   5.262 -0.2579  0.0474  0.7677
 2246SOL    HW118200   2.424   4.547   5.257 -2.2872 -2.2300  1.0533
 2246SOL    HW218201   2.557   4.512   5.330  0.5077  1.3589 -0.4533
 2247SOL     OW18202   3.738   0.808   1.631 -0.0313 -0.4442  0.1641
 2247SOL    HW118203   3.666   0.746   1.631 -0.5557  0.1344  3.7750
 2247SOL    HW218204   3.696   0.894   1.623 -0.9647 -0.7169  1.9786
 2248SOL     OW18205   1.834   2.595   4.191  0.1265  0.2277 -0.7566
 2248SOL    HW118206   1.898   2.572   4.124 -2.2272 -1.1917 -2.4869
 2248SOL    HW218207   1.877   2.589   4.276 -0.4277  0.5738 -0.4464
 2249SOL     OW18208   1.380   1.107   6.389  0.2376  0.4879 -0.2446
 2249SOL    HW118209   1.342   1.054   6.318  0.5276  1.1694 -0.9164
 2249SOL    HW218210   1.468   1.122   6.354 -0.5919  1.6747 -1.8481
 2250SOL     OW18211   0.850   0.337   8.095  0.6835 -0.2843 -0.1480
 2250SOL    HW118212   0.821   0.413   8.044 -0.3455  0.0609  0.9406
 2250SOL    HW218213   0.791   0.346   8.170 -0.4139 -0.7461 -0.9513
 2251SOL     OW18214   0.827   0.491  13.888 -0.5600  0.1250  0.4257
 2251SOL    HW118215   0.873   0.457  13.812 -0.0208  2.5169 -0.3297
 2251SOL    HW218216   0.735   0.495  13.863 -0.4046  0.8761 -0.0242
 2252SOL     OW18217   0.490   1.405   6.896 -0.3696  0.5326  0.0683
 2252SOL    HW118218   0.580   1.375   6.907 -0.2648  0.9874  0.4845
 2252SOL    HW218219   0.464   1.367   6.812 -1.2238  1.0922  0.0763
 2253SOL     OW18220   4.584   4.505   6.124  0.1577 -0.6605  0.5139
 2253SOL    HW118221   4.659   4.489   6.180  1.0411  1.7801  0.0401
 2253SOL    HW218222   4.564   4.596   6.147  0.8518 -0.0312 -1.3398
 2254SOL     OW18223   3.575   0.985   7.878  0.4578 -0.0380 -0.0848
 2254SOL    HW118224   3.541   1.004   7.965 -0.7347 -1.9562 -0.1415
 2254SOL    HW218225   3.667   1.006   7.894 -0.0276  1.9954  0.0937
 2255SOL     OW18226   1.669   2.263   0.600  0.2701 -0.3691 -0.4232
 2255SOL    HW118227   1.681   2.181   0.646 -0.5695  1.1025  2.4005
 2255SOL    HW218228   1.687   2.326   0.670  0.7390 -2.6705  1.5051
 2256SOL     OW18229   3.058   3.130  11.350 -0.2670  0.1262 -0.0122
 2256SOL    HW118230   3.001   3.056  11.371 -0.3111  0.0182 -0.5064
 2256SOL    HW218231   2.992   3.193  11.325  0.3713  0.0743 -1.8000
 2257SOL     OW18232   3.975   1.646  13.143 -0.5731  0.0695  0.2155
 2257SOL    HW118233   4.060   1.652  13.188 -0.5880 -0.6356  0.3413
 2257SOL    HW218234   3.969   1.551  13.129 -0.7718 -0.0826  1.3439
 2258SOL     OW18235   1.539   2.008   8.080 -0.2090  0.0219 -0.0240
 2258SOL    HW118236   1.595   1.969   8.148 -0.6794  0.7311  0.7678
 2258SOL    HW218237   1.457   1.959   8.087  0.8676 -1.7096  0.6857
 2259SOL     OW18238   2.947   4.150   8.892 -0.4433 -0.4402 -0.0083
 2259SOL    HW118239   3.030   4.180   8.930 -0.5012  0.0824 -0.2856
 2259SOL    HW218240   2.917   4.237   8.865  2.0206  0.0266 -1.2372
 2260SOL     OW18241   4.276   0.674   5.997  0.1072 -0.4126 -0.2931
 2260SOL    HW118242   4.358   0.671   5.948 -0.4916  1.0509 -1.3846
 2260SOL    HW218243   4.309   0.705   6.082  1.2313 -0.8845 -0.5516
 2261SOL     OW18244   3.961   3.054   6.183 -0.6669  0.2720  0.1666
 2261SOL    HW118245   4.008   2.978   6.217  3.2790  2.5534 -0.2040
 2261SOL    HW218246   3.994   3.124   6.239 -1.4935  0.5483  0.3055
 2262SOL     OW18247   3.617   0.891   5.219  0.2051  0.1454  0.1523
 2262SOL    HW118248   3.670   0.928   5.149 -0.5188 -1.0424 -1.0200
 2262SOL    HW218249   3.546   0.954   5.225 -0.1841 -0.4112  1.4745
 2263SOL     OW18250   0.546   4.685  16.508 -0.0307  0.3753  0.4030
 2263SOL    HW118251   0.453   4.661  16.511 -0.3072  0.8354 -4.3032
 2263SOL    HW218252   0.587   4.643  16.433  0.1098 -0.6995  1.0922
 2264SOL     OW18253   2.630   2.864   0.546 -0.3486  0.5204 -0.4956
 2264SOL    HW118254   2.618   2.792   0.607 -2.9952  2.4180  1.2410
 2264SOL    HW218255   2.675   2.825   0.472 -0.1868  2.4916 -1.4525
 2265SOL     OW18256   1.663   1.025   5.945 -0.9613  0.1425 -0.0216
 2265SOL    HW118257   1.679   1.097   5.884  0.5342  0.2286  0.4543
 2265SOL    HW218258   1.747   0.979   5.947 -0.9466  0.1120 -1.0472
 2266SOL     OW18259   3.272   1.925   4.402 -1.0921 -0.0262  0.0883
 2266SOL    HW118260   3.276   1.835   4.433  3.4896 -0.6800 -2.5216
 2266SOL    HW218261   3.182   1.946   4.428 -0.9688 -1.7651  1.8788
 2267SOL     OW18262   0.078   1.537   6.739  0.1360 -0.1277 -0.0286
 2267SOL    HW118263   4.719   1.493   6.718 -1.0394  0.4932  3.2817
 2267SOL    HW218264   0.115   1.544   6.651 -0.7504  1.3104 -0.2951
 2268SOL     OW18265   3.539   2.178   8.106  0.2241  0.3938 -0.4219
 2268SOL    HW118266   3.601   2.109   8.131  0.9465  0.8439 -0.9516
 2268SOL    HW218267   3.474   2.130   8.055  1.0207  0.1199 -1.1904
 2269SOL     OW18268   1.320   3.123   5.652  0.6255 -0.2143 -0.2497
 2269SOL    HW118269   1.300   3.141   5.560 -0.4930  0.3015  0.0947
 2269SOL    HW218270   1.379   3.195   5.675  0.1787 -0.2353  0.9805
 2270SOL     OW18271   0.307   0.786   6.957 -0.1299  0.2017 -0.4781
 2270SOL    HW118272   0.271   0.813   7.042  1.7367 -3.5359  1.5279
 2270SOL    HW218273   0.290   0.867   6.909  1.1013  0.0135 -1.2183
 2271SOL     OW18274   1.872   2.307   6.073  0.7115 -0.3116  0.1399
 2271SOL    HW118275   1.909   2.245   6.010  1.1732 -0.4652  0.5596
 2271SOL    HW218276   1.928   2.383   6.058 -1.5422  1.2635 -0.2852
 2272SOL     OW18277   0.882   1.103   1.964  0.0633 -0.1739  0.3239
 2272SOL    HW118278   0.796   1.141   1.978  0.4611  0.1147  1.9253
 2272SOL    HW218279   0.931   1.174   1.923  0.7081 -0.7090  0.1648
 2273SOL     OW18280   1.594   0.770   3.319  0.1754 -0.1202 -0.3538
 2273SOL    HW118281   1.654   0.796   3.249  0.6665 -0.7025 -0.1421
 2273SOL    HW218282   1.649   0.749   3.394 -1.3262  0.7560  1.0108
 2274SOL     OW18283   3.078   1.333   8.136  0.1762  0.3574  0.1487
 2274SOL    HW118284   3.074   1.362   8.044  0.1140  0.8544  0.3083
 2274SOL    HW218285   3.126   1.406   8.175  0.5404 -0.0131  0.3836
 2275SOL     OW18286   0.152   4.415   7.321 -0.1874  0.0187  0.4888
 2275SOL    HW118287   0.132   4.322   7.330  2.0965 -0.3890  1.2621
 2275SOL    HW218288   0.113   4.438   7.237 -1.5935 -0.2231  1.0792
 2276SOL     OW18289   3.107   2.027   8.181 -0.3664  0.0298  0.4108
 2276SOL    HW118290   3.164   1.965   8.228 -1.6430 -0.7271  0.9700
 2276SOL    HW218291   3.019   1.994   8.202 -0.2748 -1.0119 -0.8945
 2277SOL     OW18292   4.300   3.345  16.731  0.1896  0.3984 -0.1576
 2277SOL    HW118293   4.336   3.258  16.748  0.8171  0.6499 -0.2008
 2277SOL    HW218294   4.212   3.341  16.768 -0.3968  0.7950 -1.5571
 2278SOL     OW18295   2.688   0.824   3.773  0.7522  0.1077 -0.3261
 2278SOL    HW118296   2.603   0.783   3.789  0.4749  0.8267  0.0066
 2278SOL    HW218297   2.677   0.860   3.685 -0.4406  1.3701  0.3439
 2279SOL     OW18298   2.685   0.192   4.155  0.1676 -0.0386 -0.2503
 2279SOL    HW118299   2.616   0.215   4.218  2.1636  1.0955  1.5551
 2279SOL    HW218300   2.736   0.126   4.203 -0.0484 -0.5081 -0.6706
 2280SOL     OW18301   0.385   2.680  16.699 -0.5102 -0.1777  0.3642
 2280SOL    HW118302   0.326   2.727  16.758  1.1251 -0.6378  2.3813
 2280SOL    HW218303   0.460   2.678  16.758  1.2315 -0.3956 -1.8313
 2281SOL     OW18304   0.310   4.280   3.691  0.0564 -0.1888  0.3208
 2281SOL    HW118305   0.227   4.315   3.660  0.3434 -0.0813 -0.3348
 2281SOL    HW218306   0.347   4.339   3.757 -1.7439  1.0576  0.2066
 2282SOL     OW18307   1.881   1.952   9.154 -0.3379  0.6308  0.5052
 2282SOL    HW118308   1.873   1.910   9.068 -1.5685  1.8499  0.0251
 2282SOL    HW218309   1.809   1.913   9.203 -0.9202 -2.0888 -2.4937
 2283SOL     OW18310   1.430   3.627   8.345 -0.5722 -0.8729 -0.3446
 2283SOL    HW118311   1.370   3.553   8.348 -0.5414 -0.7802  3.3304
 2283SOL    HW218312   1.493   3.595   8.410 -0.0792 -0.2278 -0.5109
 2284SOL     OW18313   3.091   3.000   5.632  0.3452  0.2610 -0.2501
 2284SOL    HW118314   3.097   3.013   5.537 -0.7284 -0.5701 -0.4387
 2284SOL    HW218315   3.009   2.951   5.635 -0.4325  1.5979  0.6917
 2285SOL     OW18316   3.825   1.207   4.305 -0.4736  0.2904  0.0157
 2285SOL    HW118317   3.748   1.161   4.272 -0.6289  1.0941 -0.7465
 2285SOL    HW218318   3.814   1.287   4.254  0.9751  1.0444  0.8857
 2286SOL     OW18319   1.925   2.156   7.190 -0.1476 -1.0329  0.3105
 2286SOL    HW118320   1.992   2.223   7.173  0.5569 -2.2946 -1.8926
 2286SOL    HW218321   1.925   2.154   7.286  1.2614  2.9329  0.4129
 2287SOL     OW18322   0.749   3.363  16.955 -0.3300  0.2065  0.9967
 2287SOL    HW118323   0.751   3.320  17.041  0.8443 -0.6130  0.5617
 2287SOL    HW218324   0.842   3.364  16.932 -0.9491  2.0356 -1.4287
 2288SOL     OW18325   1.008   3.196   8.060  0.1311 -0.7512 -0.3704
 2288SOL    HW118326   0.959   3.150   7.992 -0.3886 -3.0149  1.5259
 2288SOL    HW218327   0.965   3.280   8.049 -0.2162 -0.5591  2.3387
 2289SOL     OW18328   4.073   1.338   4.651 -0.5443  0.1339  0.6900
 2289SOL    HW118329   4.052   1.423   4.690 -0.2862  0.7864 -0.5656
 2289SOL    HW218330   4.139   1.366   4.587 -1.2987  0.8559  0.2204
 2290SOL     OW18331   0.928   2.732   2.214 -0.1088 -0.0424  0.5198
 2290SOL    HW118332   0.925   2.684   2.296  1.0210 -0.7892  0.1138
 2290SOL    HW218333   1.012   2.774   2.229  0.7108 -1.9644  1.2183
 2291SOL     OW18334   1.320   2.660   4.729  0.1250  0.0939  0.5320
 2291SOL    HW118335   1.312   2.754   4.717  0.1096 -0.1195 -1.0872
 2291SOL    HW218336   1.331   2.617   4.644  3.1383 -1.0201  1.4676
 2292SOL     OW18337   3.840   2.418   3.550 -0.1030 -0.1314  0.7197
 2292SOL    HW118338   3.788   2.354   3.600 -0.5754  0.4989  1.0277
 2292SOL    HW218339   3.849   2.380   3.462 -1.2078  0.7069  0.2349
 2293SOL     OW18340   0.323   3.873  10.039  0.1019 -0.1856 -0.1808
 2293SOL    HW118341   0.286   3.957  10.067 -0.4675  0.7791 -3.8332
 2293SOL    HW218342   0.283   3.808  10.097 -0.1189  0.3015  0.2207
 2294SOL     OW18343   0.363   0.672   6.409 -0.2170 -0.1879 -0.0079
 2294SOL    HW118344   0.329   0.585   6.388  0.7562 -0.5216 -0.1996
 2294SOL    HW218345   0.392   0.653   6.498 -1.7289  0.4843  0.6176
 2295SOL     OW18346   4.502   1.770   3.503  0.6944  0.4172 -0.3942
 2295SOL    HW118347   4.519   1.747   3.594  1.0434 -0.7873 -0.7735
 2295SOL    HW218348   4.437   1.839   3.514 -0.9785 -1.4238  1.2379
 2296SOL     OW18349   2.130   4.114  17.044 -0.3462  0.1752 -0.4890
 2296SOL    HW118350   2.059   4.178  17.040 -1.2052 -0.5868  3.4807
 2296SOL    HW218351   2.142   4.120  17.138  0.8396  0.3090 -0.6409
 2297SOL     OW18352   1.351   0.420   5.807  0.0899  0.4660 -0.6677
 2297SOL    HW118353   1.394   0.503   5.788  0.8532  0.5771  1.5703
 2297SOL    HW218354   1.362   0.373   5.725 -0.9238  0.0485 -0.5682
 2298SOL     OW18355   3.172   0.417  17.650  0.8442 -0.2378 -0.5442
 2298SOL    HW118356   3.120   0.490  17.617 -0.0179 -0.5397  0.1534
 2298SOL    HW218357   3.102   0.385   0.009  0.7389  0.4804 -0.2724
 2299SOL     OW18358   3.885   2.742   2.540  0.0372 -0.1703 -0.1153
 2299SOL    HW118359   3.921   2.794   2.468  2.7893 -2.4401 -0.3928
 2299SOL    HW218360   3.855   2.811   2.598  1.0490  1.9896 -2.1547
 2300SOL     OW18361   2.202   3.183   8.995 -0.0092 -0.9777  0.5717
 2300SOL    HW118362   2.115   3.186   9.034 -0.5459 -2.3941 -0.5291
 2300SOL    HW218363   2.237   3.094   9.003  2.1774 -0.4274 -2.6084
 2301SOL     OW18364   2.585   4.537  10.804 -0.1499  0.3241  0.5488
 2301SOL    HW118365   2.560   4.460  10.753 -0.9764  0.8726  0.1205
 2301SOL    HW218366   2.661   4.568  10.754 -1.6240  0.2626 -1.6972
 2302SOL     OW18367   2.012   4.660   7.593 -0.9806  0.2311  0.6004
 2302SOL    HW118368   1.961   0.015   7.609  0.2019  1.2021 -0.3906
 2302SOL    HW218369   1.980   4.592   7.652 -1.2000 -0.2285 -0.0473
 2303SOL     OW18370   4.013   3.441   6.087  0.2245  0.1305  0.1458
 2303SOL    HW118371   3.951   3.476   6.152  0.8408  1.0986  0.2084
 2303SOL    HW218372   4.017   3.506   6.017 -1.5341  0.4111  0.2953
 2304SOL     OW18373   1.601   1.694   6.844 -0.3675 -0.6761 -0.1089
 2304SOL    HW118374   1.582   1.671   6.935 -0.3465  0.2880  0.1391
 2304SOL    HW218375   1.688   1.732   6.859  0.7911 -2.7029 -1.6452
 2305SOL     OW18376   3.067   0.077   7.939 -0.0035  0.2756  0.0208
 2305SOL    HW118377   3.008   0.082   7.864  0.0646 -0.1832 -0.0627
 2305SOL    HW218378   3.147   0.098   7.891 -0.1268  0.1499 -0.2449
 2306SOL     OW18379   1.156   0.986   9.872 -0.4536 -0.7385 -0.5841
 2306SOL    HW118380   1.179   0.959   9.784  0.8211  0.3633 -0.5908
 2306SOL    HW218381   1.153   0.894   9.900 -0.2804 -0.8134 -0.8174
 2307SOL     OW18382   3.461   3.375   5.880  0.0252  0.0630 -0.1557
 2307SOL    HW118383   3.399   3.324   5.828 -0.4193 -0.9997  1.4283
 2307SOL    HW218384   3.524   3.400   5.812  0.1651  0.6104  0.1769
 2308SOL     OW18385   2.266   4.400   5.478  0.2677  0.6632 -0.0612
 2308SOL    HW118386   2.341   4.449   5.514  0.2363  0.7229 -0.0766
 2308SOL    HW218387   2.240   4.356   5.558  0.0886  0.5152 -0.2029
 2309SOL     OW18388   1.144   3.384   7.597 -0.2442  0.6536  0.3377
 2309SOL    HW118389   1.198   3.305   7.592 -0.9142  0.1692  0.7307
 2309SOL    HW218390   1.112   3.395   7.507 -0.5585  1.1209  0.5066
 2310SOL     OW18391   4.625   2.273  16.161  0.1503 -0.2055 -0.1038
 2310SOL    HW118392   4.591   2.186  16.183  2.4218 -1.0870 -0.1151
 2310SOL    HW218393   4.570   2.298  16.086  0.0008  1.9169  0.6967
 2311SOL     OW18394   4.149   2.640   3.961 -0.0562 -0.1148 -0.1347
 2311SOL    HW118395   4.068   2.675   3.999  0.8363  0.6004  1.1057
 2311SOL    HW218396   4.110   2.570   3.909  0.6238 -1.2020  0.8088
 2312SOL     OW18397   1.051   3.476   2.387  0.6633  1.0759  0.1366
 2312SOL    HW118398   1.142   3.485   2.360  0.8248  1.6394  0.8651
 2312SOL    HW218399   1.019   3.411   2.323 -1.3227  1.0667  1.1261
 2313SOL     OW18400   0.827   3.446   7.984  0.1146 -0.5065  0.5475
 2313SOL    HW118401   0.816   3.473   8.075  0.1351 -3.6893  1.4820
 2313SOL    HW218402   0.793   3.522   7.936  1.5542  0.1604  0.6037
 2314SOL     OW18403   2.570   0.516   4.208 -0.4538  0.0785  0.1390
 2314SOL    HW118404   2.509   0.445   4.187 -0.8746  0.4904 -0.0275
 2314SOL    HW218405   2.514   0.588   4.177 -0.2821  0.4759  0.7515
 2315SOL     OW18406   1.987   2.518   0.989  0.8527  0.4660 -0.1611
 2315SOL    HW118407   2.009   2.443   1.044 -2.3524  0.5870  1.2896
 2315SOL    HW218408   2.045   2.591   1.011 -0.0863  1.1840 -0.0495
 2316SOL     OW18409   4.343   3.682   1.844  0.2539  0.3674 -0.1217
 2316SOL    HW118410   4.398   3.738   1.789  0.4553 -0.6205 -0.9395
 2316SOL    HW218411   4.344   3.605   1.787  0.4115 -0.3687  0.8841
 2317SOL     OW18412   1.519   2.128   0.792  0.5671 -0.1654  0.6082
 2317SOL    HW118413   1.471   2.046   0.780  1.0456 -0.6126  1.7788
 2317SOL    HW218414   1.530   2.123   0.887  1.5815 -1.1945  0.4318
 2318SOL     OW18415   4.590   2.345   1.868  0.4900 -0.3886 -0.2833
 2318SOL    HW118416   4.681   2.316   1.877  0.8752  0.6740 -0.7477
 2318SOL    HW218417   4.578   2.379   1.957 -0.0534 -0.0678 -0.4819
 2319SOL     OW18418   3.065   2.431   9.628  0.1667  0.2527  0.0343
 2319SOL    HW118419   3.121   2.436   9.705 -2.5761 -2.1379  2.1977
 2319SOL    HW218420   3.000   2.493   9.662 -0.1389 -0.3896  0.6124
 2320SOL     OW18421   3.103   3.198  11.973  0.0416 -0.6307 -0.1039
 2320SOL    HW118422   3.136   3.214  12.061  0.7705  0.8274 -0.6306
 2320SOL    HW218423   3.014   3.232  11.978  0.2800  0.0497 -0.4137
 2321SOL     OW18424   4.480   2.998   1.237 -0.2211 -0.4116 -0.0029
 2321SOL    HW118425   4.396   3.001   1.191  0.7158  2.6056 -1.5061
 2321SOL    HW218426   4.475   2.932   1.306 -2.5921  1.9904  2.1364
 2322SOL     OW18427   4.488   4.422   1.920  0.0186  0.5473  0.3586
 2322SOL    HW118428   4.580   4.405   1.939 -0.2598 -1.1719  0.1532
 2322SOL    HW218429   4.446   4.346   1.960 -0.8469 -0.5259 -2.6673
 2323SOL     OW18430   0.338   1.476   1.673  0.0638  0.1337 -0.6372
 2323SOL    HW118431   0.303   1.504   1.757 -0.9002  1.5215 -1.5081
 2323SOL    HW218432   0.313   1.384   1.682 -0.7685  0.3988 -0.2209
 2324SOL     OW18433   0.202   0.962   1.636 -0.5196 -0.3133 -0.4689
 2324SOL    HW118434   0.272   0.898   1.623 -1.3785 -1.0670 -1.3697
 2324SOL    HW218435   0.141   0.912   1.690 -1.5224 -0.5567 -1.8146
 2325SOL     OW18436   2.779   4.018   3.327  0.8794  0.5703  0.5002
 2325SOL    HW118437   2.843   4.027   3.257  0.0116  0.7945 -0.2592
 2325SOL    HW218438   2.740   4.106   3.325  2.1251  1.1250  0.4503
 2326SOL     OW18439   4.370   3.300   4.112  0.3731  0.9696 -0.5432
 2326SOL    HW118440   4.378   3.395   4.121 -1.4182  0.9500  1.3212
 2326SOL    HW218441   4.424   3.270   4.186 -0.7894 -0.9476 -0.4593
 2327SOL     OW18442   4.348   1.620   0.756  0.5908 -0.3447 -0.3164
 2327SOL    HW118443   4.293   1.553   0.796 -1.9743  0.9575 -1.7092
 2327SOL    HW218444   4.302   1.637   0.674  0.4898  1.5011  0.1260
 2328SOL     OW18445   2.009   4.170  11.306  0.1444 -0.2732  0.0239
 2328SOL    HW118446   1.945   4.203  11.369  0.7088  1.9140 -0.5254
 2328SOL    HW218447   2.087   4.181  11.361 -0.2600 -0.9156  0.7214
 2329SOL     OW18448   2.510   1.939  10.821  0.1823 -0.5843 -0.0567
 2329SOL    HW118449   2.424   1.959  10.783  0.3829 -0.9665 -0.6952
 2329SOL    HW218450   2.509   1.960  10.915  0.3535 -1.0660  0.0523
 2330SOL     OW18451   0.152   0.906  12.919  0.3535  0.1175 -0.1905
 2330SOL    HW118452   0.203   0.935  12.995 -0.4434  0.0002  0.3928
 2330SOL    HW218453   0.164   0.811  12.926  1.0311  0.1660 -0.6994
 2331SOL     OW18454   1.831   4.486   8.744 -0.2238 -0.3988 -0.5667
 2331SOL    HW118455   1.807   4.420   8.679 -2.3199 -1.1978  1.0273
 2331SOL    HW218456   1.752   4.499   8.796  1.9347 -0.1435  2.6678
 2332SOL     OW18457   3.856   3.956   1.259 -0.3727  0.0741 -0.1323
 2332SOL    HW118458   3.782   3.917   1.213 -0.4549  1.3486 -1.0805
 2332SOL    HW218459   3.819   4.016   1.324  0.5338 -0.1052  0.5436
 2333SOL     OW18460   0.278   1.384   4.931  0.2201  1.0899  0.5034
 2333SOL    HW118461   0.263   1.314   4.995 -0.5626  1.5800  0.8521
 2333SOL    HW218462   0.355   1.341   4.894 -1.6038 -2.2494  0.5852
 2334SOL     OW18463   1.933   4.002   3.701 -0.2488 -0.2607  0.0406
 2334SOL    HW118464   1.942   3.914   3.662  0.7063  0.4436 -1.3289
 2334SOL    HW218465   1.916   3.982   3.793 -3.4658  0.7263 -0.3651
 2335SOL     OW18466   1.679   2.677   6.281 -0.0157 -0.5126  0.3599
 2335SOL    HW118467   1.614   2.744   6.300  0.7658  1.0257 -2.3994
 2335SOL    HW218468   1.746   2.737   6.250 -2.1542  1.0930 -1.1307
 2336SOL     OW18469   2.460   1.158   3.840 -0.2138 -0.4897 -0.2440
 2336SOL    HW118470   2.434   1.247   3.816 -0.7102 -0.3501  0.7788
 2336SOL    HW218471   2.495   1.178   3.927  0.0280 -1.1540 -0.1937
 2337SOL     OW18472   3.728   1.480   0.752 -0.6073  0.7547  0.4503
 2337SOL    HW118473   3.652   1.468   0.695 -2.0043 -1.9338  2.8578
 2337SOL    HW218474   3.713   1.421   0.827 -0.6581  0.3585  0.1306
 2338SOL     OW18475   3.729   2.609   3.887  0.0549  0.6091  0.5188
 2338SOL    HW118476   3.685   2.620   3.972 -2.6964  3.8508 -1.3558
 2338SOL    HW218477   3.661   2.607   3.820  0.7260  0.4687 -0.1564
 2339SOL     OW18478   1.017   1.004   9.378  0.0419  0.0042  0.0060
 2339SOL    HW118479   1.003   0.963   9.463 -0.8508 -1.4484 -0.8327
 2339SOL    HW218480   1.001   0.928   9.323 -0.6305  1.0937 -1.2907
 2340SOL     OW18481   3.070   4.177  14.208 -0.0584 -0.2328  0.2704
 2340SOL    HW118482   3.145   4.172  14.148 -0.6305  0.7832 -0.5451
 2340SOL    HW218483   3.020   4.246  14.163 -0.5432 -0.6510  0.1634
 2341SOL     OW18484   0.319   1.482   0.091 -0.0830  0.2088 -0.3559
 2341SOL    HW118485   0.303   1.394   0.056  3.4022 -0.9852  1.0899
 2341SOL    HW218486   0.227   1.508   0.080 -0.7915 -1.7804  0.8427
 2342SOL     OW18487   2.326   2.081   5.211  0.2544 -0.6499 -0.0445
 2342SOL    HW118488   2.243   2.065   5.257  0.1067  0.2677  0.0084
 2342SOL    HW218489   2.361   2.152   5.263  1.0273  0.2892 -1.8427
 2343SOL     OW18490   0.555   2.564   5.225 -0.4849  0.1949  0.0110
 2343SOL    HW118491   0.567   2.494   5.289 -0.8523  0.1507  0.0310
 2343SOL    HW218492   0.610   2.636   5.257 -0.6823 -0.8308  2.6030
 2344SOL     OW18493   0.645   1.331   3.138 -0.4061 -0.4918 -0.1442
 2344SOL    HW118494   0.630   1.286   3.221  0.6193 -0.9558 -0.2091
 2344SOL    HW218495   0.739   1.347   3.146 -0.9578  2.2815  0.7943
 2345SOL     OW18496   3.622   0.079   5.253  0.2610  0.0878  0.6878
 2345SOL    HW118497   3.595   0.037   5.172 -0.6634  1.4683  0.2930
 2345SOL    HW218498   3.594   0.170   5.248  0.6403  0.2578  1.6505
 2346SOL     OW18499   3.339   2.951   4.238  0.3949 -0.2306 -0.5647
 2346SOL    HW118500   3.282   2.998   4.177  0.0030  0.6996  0.5259
 2346SOL    HW218501   3.421   2.997   4.222 -0.1037  1.1713  0.9828
 2347SOL     OW18502   1.510   4.171  13.646 -0.0499 -0.5419  0.3788
 2347SOL    HW118503   1.529   4.251  13.597 -1.3033 -0.3910  0.1432
 2347SOL    HW218504   1.415   4.179  13.647 -0.0278 -0.1647 -0.1242
 2348SOL     OW18505   4.147   2.155   1.687  0.0250 -0.0744  0.2398
 2348SOL    HW118506   4.129   2.076   1.738 -0.5611 -0.2628 -0.2466
 2348SOL    HW218507   4.222   2.193   1.733  0.4780  0.5058 -0.9755
 2349SOL     OW18508   0.300   3.690   4.303 -0.3210 -0.0756 -0.5592
 2349SOL    HW118509   0.362   3.644   4.360  1.1130  2.1874 -0.2893
 2349SOL    HW218510   0.262   3.756   4.361 -0.5611 -0.1816 -0.5956
 2350SOL     OW18511   3.009   3.009   6.884 -0.6414 -0.5431 -0.1916
 2350SOL    HW118512   2.952   3.045   6.815  0.6423  0.3456 -0.7956
 2350SOL    HW218513   2.973   2.922   6.902 -1.1020  0.1803  2.3785
 2351SOL     OW18514   3.303   3.982  12.755 -0.0989  0.4900  0.2338
 2351SOL    HW118515   3.233   3.938  12.707 -0.0461  0.7786 -0.1068
 2351SOL    HW218516   3.249   4.029  12.819 -3.1222  0.5697 -2.3667
 2352SOL     OW18517   4.000   3.624   8.975  0.3239  0.0966 -0.3384
 2352SOL    HW118518   4.036   3.535   8.980  0.0682  0.0022 -0.1647
 2352SOL    HW218519   4.025   3.661   9.060  2.6070 -1.2781 -0.3957
 2353SOL     OW18520   3.177   0.243   3.766 -0.2732 -0.3975  0.1823
 2353SOL    HW118521   3.198   0.167   3.713 -0.9127 -0.7784  0.4731
 2353SOL    HW218522   3.148   0.213   3.852 -1.6325 -0.3059 -0.2357
 2354SOL     OW18523   4.516   3.901   3.954  0.0157 -0.5855 -0.5839
 2354SOL    HW118524   4.420   3.903   3.947  0.0861  2.4919 -0.6280
 2354SOL    HW218525   4.535   3.863   4.040  0.0629  0.1061 -0.2899
 2355SOL     OW18526   0.694   3.712   5.154  0.0313 -0.2158 -0.4398
 2355SOL    HW118527   0.739   3.785   5.111 -0.9869  0.4586 -0.3666
 2355SOL    HW218528   0.604   3.743   5.147 -0.5690 -1.5924  1.3439
 2356SOL     OW18529   1.176   2.353   7.430  0.1098 -0.4198  0.4287
 2356SOL    HW118530   1.247   2.345   7.366 -2.3107 -3.6187 -1.8339
 2356SOL    HW218531   1.220   2.382   7.510 -0.3284 -0.9332  0.8506
 2357SOL     OW18532   1.165   3.573   7.785 -0.0636 -0.0419 -0.6603
 2357SOL    HW118533   1.192   3.513   7.716  2.6508  1.2794 -0.7575
 2357SOL    HW218534   1.091   3.610   7.738 -0.4259  0.1752  0.0682
 2358SOL     OW18535   0.900   3.164  11.894  0.0815  0.2484  0.3641
 2358SOL    HW118536   0.866   3.244  11.934 -1.0358 -1.0190  1.9316
 2358SOL    HW218537   0.964   3.201  11.833  0.3810 -1.7087 -0.5070
 2359SOL     OW18538   0.330   1.641  11.740 -0.0374  0.1137  0.3821
 2359SOL    HW118539   0.390   1.570  11.716 -3.0550 -2.0220 -0.7656
 2359SOL    HW218540   0.333   1.700  11.664  1.8341 -3.3197 -2.2002
 2360SOL     OW18541   0.298   0.413   3.277 -0.5402 -0.3686  0.4532
 2360SOL    HW118542   0.229   0.466   3.317  0.7021  1.3776  0.2603
 2360SOL    HW218543   0.251   0.383   3.199 -2.2623  0.9816  0.9794
 2361SOL     OW18544   3.742   3.656   8.906  0.1357 -0.1346  0.1158
 2361SOL    HW118545   3.690   3.695   8.976  0.4019 -0.1940  0.3444
 2361SOL    HW218546   3.834   3.662   8.928 -0.4275 -0.3506  2.4472
 2362SOL     OW18547   1.480   3.077   9.131 -0.0680 -0.1056  0.1320
 2362SOL    HW118548   1.546   3.042   9.191  0.1509  0.2117  0.0750
 2362SOL    HW218549   1.437   2.996   9.105  0.0817  0.3021 -1.3745
 2363SOL     OW18550   4.436   3.983  14.213 -0.2090  0.5340  0.3431
 2363SOL    HW118551   4.461   4.063  14.166 -2.0015  1.7056  1.4049
 2363SOL    HW218552   4.513   3.952  14.260  1.2981  1.2979 -1.5900
 2364SOL     OW18553   2.525   2.383   5.717  0.0598  0.4861 -0.1368
 2364SOL    HW118554   2.508   2.377   5.811  0.8679  0.5636  0.0136
 2364SOL    HW218555   2.436   2.390   5.682  0.7550 -2.8609 -2.5629
 2365SOL     OW18556   2.696   3.547   6.228 -0.0970 -0.5449 -0.0474
 2365SOL    HW118557   2.621   3.551   6.168  0.2071  0.9429 -0.3519
 2365SOL    HW218558   2.738   3.632   6.211 -0.4509 -0.1835  0.8897
 2366SOL     OW18559   0.833   3.931   0.785  0.0486  0.1163 -0.5183
 2366SOL    HW118560   0.891   3.923   0.709  2.1049  0.6455  0.9795
 2366SOL    HW218561   0.900   3.958   0.848  2.3140 -3.6443 -1.3209
 2367SOL     OW18562   2.452   2.777  10.133  0.9677 -0.2168  0.2390
 2367SOL    HW118563   2.454   2.828  10.053  0.3394  0.1155  0.4380
 2367SOL    HW218564   2.481   2.691  10.103 -0.6208 -0.9652  0.8368
 2368SOL     OW18565   2.763   4.446   9.311 -0.0267 -0.0202  0.0003
 2368SOL    HW118566   2.682   4.455   9.262 -0.5412  1.9896  1.2220
 2368SOL    HW218567   2.734   4.496   9.388 -1.6569  2.1416 -2.0472
 2369SOL     OW18568   1.389   1.919   0.341  0.2662  0.5062  0.1267
 2369SOL    HW118569   1.349   1.834   0.321  0.0121  0.5343  0.5295
 2369SOL    HW218570   1.474   1.894   0.378  0.7675  1.9458 -0.0355
 2370SOL     OW18571   4.519   3.059   6.452  0.2724 -0.5686 -0.2284
 2370SOL    HW118572   4.530   2.988   6.389  0.2779  0.3022 -1.1989
 2370SOL    HW218573   4.575   3.037   6.526  0.1405 -0.2446 -0.0291
 2371SOL     OW18574   3.365   3.810   3.984 -0.5331  0.2648  0.7950
 2371SOL    HW118575   3.332   3.877   4.044 -0.5009  2.5356 -1.7173
 2371SOL    HW218576   3.453   3.788   4.014 -0.1870  0.4913 -0.0528
 2372SOL     OW18577   0.630   0.148   3.046 -0.0553  0.0168  0.5419
 2372SOL    HW118578   0.599   0.146   3.136 -1.7282  2.1366  0.0179
 2372SOL    HW218579   0.548   0.171   3.001 -0.2217  0.9239  1.3111
 2373SOL     OW18580   2.728   0.194   7.315 -1.2375  0.3339 -0.5122
 2373SOL    HW118581   2.746   0.112   7.362  0.8218  1.5357  0.7792
 2373SOL    HW218582   2.706   0.154   7.231  0.2524 -0.4113 -0.5511
 2374SOL     OW18583   3.350   3.214   5.701 -0.4513 -0.0501  0.0265
 2374SOL    HW118584   3.329   3.125   5.729 -1.5088 -0.4034 -1.8520
 2374SOL    HW218585   3.407   3.197   5.626  0.0964 -2.0329  0.9014
 2375SOL     OW18586   2.757   3.088   0.176 -0.0447  0.1252 -0.5240
 2375SOL    HW118587   2.709   3.055   0.252 -0.0505  0.0022 -0.5809
 2375SOL    HW218588   2.740   3.012   0.120  0.1926 -0.0247 -0.3914
 2376SOL     OW18589   4.408   1.092   1.756 -0.2257 -0.3116 -0.5452
 2376SOL    HW118590   4.447   1.039   1.826  0.5229 -0.0537 -0.7698
 2376SOL    HW218591   4.367   1.162   1.807 -2.8391 -1.7196 -0.7023
 2377SOL     OW18592   4.569   0.061   9.103 -0.6098  0.2309 -0.1896
 2377SOL    HW118593   4.556   0.104   9.019  0.2160  0.4023 -0.2300
 2377SOL    HW218594   4.635   4.722   9.075 -2.0640 -0.3739 -2.2121
 2378SOL     OW18595   2.011   3.141   7.871  0.0496 -0.0524 -0.3738
 2378SOL    HW118596   2.093   3.092   7.872  0.9231  1.3190 -2.5721
 2378SOL    HW218597   1.960   3.089   7.933  0.1082 -0.7151 -0.8861
 2379SOL     OW18598   0.714   3.055   8.946 -0.7575  0.2467  0.2414
 2379SOL    HW118599   0.775   3.124   8.919 -0.4269  0.2549  1.0086
 2379SOL    HW218600   0.746   2.975   8.905 -0.7290 -0.3936  1.5156
 2380SOL     OW18601   4.592   2.950   5.543 -0.3304 -0.5412  1.1093
 2380SOL    HW118602   4.512   2.901   5.523 -0.5551  0.3160 -0.1044
 2380SOL    HW218603   4.596   2.966   5.637  0.0928 -2.3582  1.4020
 2381SOL     OW18604   0.592   4.119   6.800  0.6484  0.5963  0.8888
 2381SOL    HW118605   0.498   4.098   6.800  0.4311  1.5981 -1.4956
 2381SOL    HW218606   0.593   4.189   6.865 -1.3051  0.7526  0.7529
 2382SOL     OW18607   1.275   4.212   8.382  0.2569  0.4542 -0.0172
 2382SOL    HW118608   1.326   4.131   8.372 -0.4273 -0.1152  1.1369
 2382SOL    HW218609   1.209   4.180   8.443  0.5727  1.7126  0.9952
 2383SOL     OW18610   3.719   2.496   2.542 -0.0224  0.3671 -0.2495
 2383SOL    HW118611   3.760   2.579   2.518 -0.3808  0.1451 -1.6688
 2383SOL    HW218612   3.675   2.523   2.622  1.0008  1.9293 -0.2063
 2384SOL     OW18613   3.633   3.730   6.272  0.4732  0.6577 -0.0352
 2384SOL    HW118614   3.555   3.738   6.327  0.3766 -0.6904  0.0190
 2384SOL    HW218615   3.594   3.755   6.188  1.2109  1.8380 -0.0316
 2385SOL     OW18616   0.568   4.611  15.751 -0.2627 -0.6589 -0.3053
 2385SOL    HW118617   0.532   4.523  15.745 -1.3853 -0.3302  1.3408
 2385SOL    HW218618   0.663   4.605  15.742 -0.1065 -0.1256  0.9047
 2386SOL     OW18619   1.804   0.532   3.247 -0.5620 -0.2802  0.2210
 2386SOL    HW118620   1.771   0.609   3.291 -0.7853  0.1566 -0.7011
 2386SOL    HW218621   1.767   0.475   3.314  0.6859 -1.4935 -0.1079
 2387SOL     OW18622   4.055   1.908   6.264 -0.4807 -0.2580  0.4060
 2387SOL    HW118623   3.982   1.885   6.323 -0.5202 -1.5303 -0.1417
 2387SOL    HW218624   4.126   1.894   6.327 -0.4032  0.3377  0.4508
 2388SOL     OW18625   0.593   2.964   2.099  0.2853 -0.3517  0.2937
 2388SOL    HW118626   0.627   3.038   2.149  2.9622 -0.7233 -1.0216
 2388SOL    HW218627   0.566   3.009   2.019  0.0393  0.0879  0.6180
 2389SOL     OW18628   2.562   4.034   1.836  0.3969  0.0504  0.1951
 2389SOL    HW118629   2.647   3.989   1.843 -0.3550 -1.1086  1.8382
 2389SOL    HW218630   2.542   4.042   1.929  2.6072 -0.8557  0.7536
 2390SOL     OW18631   4.139   0.894   5.903 -0.5923 -0.2062 -0.2195
 2390SOL    HW118632   4.170   0.804   5.916  0.9092  0.4317  0.6999
 2390SOL    HW218633   4.044   0.884   5.908 -0.4807 -2.0598 -1.8137
 2391SOL     OW18634   4.513   4.716   1.763  0.1877 -0.0401  0.1492
 2391SOL    HW118635   4.517   4.627   1.800  3.6812 -0.4600 -1.1838
 2391SOL    HW218636   4.450   4.691   1.696  0.6690  1.0355 -0.6924
 2392SOL     OW18637   0.732   4.175   2.529 -0.5209 -0.3225  0.1495
 2392SOL    HW118638   0.789   4.226   2.585 -0.7039 -1.1427  1.0860
 2392SOL    HW218639   0.794   4.115   2.486  0.6867  0.1647  1.2262
 2393SOL     OW18640   4.225   0.237   7.066  0.1316 -0.3234 -0.0646
 2393SOL    HW118641   4.180   0.309   7.111 -0.6561  0.4181 -2.0384
 2393SOL    HW218642   4.300   0.221   7.122 -0.3252 -2.6211 -0.1232
 2394SOL     OW18643   0.799   2.276   2.821 -0.1241  0.2794  0.4065
 2394SOL    HW118644   0.829   2.203   2.875 -2.0925 -0.4485  0.5224
 2394SOL    HW218645   0.881   2.306   2.781  0.8866 -2.5088  0.4011
 2395SOL     OW18646   2.466   1.845   6.399 -0.3197  0.0970 -0.8859
 2395SOL    HW118647   2.445   1.903   6.326 -1.9231  0.3025 -0.2814
 2395SOL    HW218648   2.555   1.815   6.382 -0.3563  0.2284 -1.3057
 2396SOL     OW18649   4.434   1.979   6.294 -0.0241  0.0201  0.2011
 2396SOL    HW118650   4.486   1.924   6.235  0.3962  0.0047  0.5828
 2396SOL    HW218651   4.473   1.955   6.377  0.0183  1.1919  0.5266
 2397SOL     OW18652   0.196   4.359  15.897  0.3760 -0.1565  0.2182
 2397SOL    HW118653   0.194   4.319  15.984  1.3523 -0.3136  0.1678
 2397SOL    HW218654   0.114   4.321  15.865  1.1240  0.0894 -2.0427
 2398SOL     OW18655   2.685   1.708   5.733  0.0932  0.4779 -0.0042
 2398SOL    HW118656   2.717   1.744   5.816  1.3078 -0.6937  0.0323
 2398SOL    HW218657   2.773   1.692   5.697 -0.2658 -1.4549 -0.0051
 2399SOL     OW18658   3.532   0.761   9.182 -0.1473 -0.1579  0.1705
 2399SOL    HW118659   3.539   0.803   9.268 -3.0282 -0.6880  0.6815
 2399SOL    HW218660   3.623   0.767   9.153  0.4661 -0.0690  2.1181
 2400SOL     OW18661   1.398   0.204   0.922 -0.0185  0.2026  0.3859
 2400SOL    HW118662   1.448   0.285   0.927  1.8533 -0.7635 -2.3846
 2400SOL    HW218663   1.385   0.196   0.828 -3.4526 -2.4613  1.0714
 2401SOL     OW18664   1.253   3.803   8.448 -0.3549 -0.0134  0.4415
 2401SOL    HW118665   1.309   3.751   8.391  1.5145  0.5248  1.8056
 2401SOL    HW218666   1.311   3.878   8.458 -1.0549  0.5869  0.0265
 2402SOL     OW18667   2.740   1.917   8.113 -0.4532 -0.2337 -0.0364
 2402SOL    HW118668   2.779   1.944   8.195  4.2740  1.5010 -2.8806
 2402SOL    HW218669   2.697   1.835   8.139 -0.7131  0.3688  1.4258
 2403SOL     OW18670   1.884   1.029  10.692  0.4208 -0.0606 -0.4694
 2403SOL    HW118671   1.977   1.030  10.668  0.5362  0.8007  0.0216
 2403SOL    HW218672   1.839   0.989  10.617  1.0268 -0.1308 -0.7953
 2404SOL     OW18673   0.789   2.828   8.831 -0.1417  0.5377 -0.1859
 2404SOL    HW118674   0.737   2.774   8.772 -1.2611  0.9696  0.4058
 2404SOL    HW218675   0.854   2.860   8.769  0.5634 -1.4903 -0.4928
 2405SOL     OW18676   2.938   2.696   6.241  0.1585  0.5249 -0.5982
 2405SOL    HW118677   2.918   2.770   6.184 -1.9923  2.9315  3.3269
 2405SOL    HW218678   3.018   2.728   6.283  0.3951 -0.1632 -0.5222
 2406SOL     OW18679   3.446   3.190   0.443 -1.0013 -1.0836 -0.5653
 2406SOL    HW118680   3.470   3.232   0.360 -0.4238 -0.6474 -0.1715
 2406SOL    HW218681   3.353   3.177   0.424 -1.2597  0.7079 -0.5124
 2407SOL     OW18682   4.670   4.535   7.178 -0.2389  0.9632  0.4492
 2407SOL    HW118683   4.635   4.606   7.124  0.4665 -0.2305 -1.6101
 2407SOL    HW218684   4.642   4.463   7.121  2.6358  2.0319 -2.3257
 2408SOL     OW18685   1.812   1.903   3.282 -0.8975 -0.1569  0.3804
 2408SOL    HW118686   1.857   1.870   3.359 -0.5982  2.2400  1.2254
 2408SOL    HW218687   1.720   1.881   3.297 -0.7598  0.3614  1.9207
 2409SOL     OW18688   3.680   0.645   9.861  0.2712 -0.3060  0.0085
 2409SOL    HW118689   3.605   0.615   9.911  0.1634 -0.2828 -0.1406
 2409SOL    HW218690   3.739   0.650   9.936 -1.3312 -0.0066  1.2433
 2410SOL     OW18691   4.522   3.588   4.751 -0.2081  0.3794 -0.4396
 2410SOL    HW118692   4.531   3.525   4.823  1.4057 -0.2884 -1.2332
 2410SOL    HW218693   4.600   3.570   4.700 -0.3784 -1.0167 -0.2015
 2411SOL     OW18694   2.133   0.579  11.060  0.0642 -0.1615 -0.2404
 2411SOL    HW118695   2.208   0.519  11.061  1.1853  1.2186 -0.8763
 2411SOL    HW218696   2.059   0.520  11.072  0.6273 -0.8717 -0.2874
 2412SOL     OW18697   2.455   4.018   7.158  0.2650 -0.3133  0.6927
 2412SOL    HW118698   2.495   3.970   7.086  0.1336 -2.1049  1.8339
 2412SOL    HW218699   2.515   4.092   7.149  0.9393 -0.7983  1.2125
 2413SOL     OW18700   0.285   2.963  14.100 -0.5303  0.4995 -0.2952
 2413SOL    HW118701   0.223   2.965  14.173  0.8401  1.8388  0.8559
 2413SOL    HW218702   0.285   2.870  14.078  1.2049  0.4571 -0.1268
 2414SOL     OW18703   3.178   4.397  13.258 -0.2093  0.4064  0.3625
 2414SOL    HW118704   3.150   4.447  13.181 -2.5379 -2.7010 -0.8338
 2414SOL    HW218705   3.267   4.431  13.267 -1.3671  3.9780 -1.7641
 2415SOL     OW18706   0.711   4.160   0.866 -0.3149  0.7789  0.2276
 2415SOL    HW118707   0.633   4.130   0.912 -0.9233 -0.2493 -1.4772
 2415SOL    HW218708   0.746   4.084   0.820 -0.1757  2.1125 -1.9190
 2416SOL     OW18709   3.906   1.298   3.549  0.6401  0.2281  0.4883
 2416SOL    HW118710   3.941   1.269   3.633 -0.8198 -0.5220  0.8207
 2416SOL    HW218711   3.873   1.214   3.517  1.1534 -0.5125  1.8817
 2417SOL     OW18712   3.190   1.595   3.254  0.0419  0.2877  0.2400
 2417SOL    HW118713   3.186   1.688   3.231  0.8592  0.1699 -0.3995
 2417SOL    HW218714   3.112   1.570   3.204 -0.8260  0.5460  1.4613
 2418SOL     OW18715   0.140   0.838  10.083  0.2138 -0.5869  0.4643
 2418SOL    HW118716   0.223   0.886  10.079  0.3840 -0.7773  1.8025
 2418SOL    HW218717   0.094   0.880  10.010 -0.1710 -0.9388  0.5057
 2419SOL     OW18718   2.967   1.611  15.333  1.0194  0.5039  0.1158
 2419SOL    HW118719   2.982   1.519  15.356 -1.2109 -0.4021 -2.0501
 2419SOL    HW218720   2.945   1.638  15.422 -0.6997 -1.3168  0.2725
 2420SOL     OW18721   3.451   2.552   8.367 -0.0533  0.3168 -0.6341
 2420SOL    HW118722   3.485   2.584   8.450  0.4077 -1.6196 -0.0878
 2420SOL    HW218723   3.399   2.477   8.395 -0.3174  1.2176  1.2843
 2421SOL     OW18724   4.333   2.457  17.233 -0.4187 -0.0042  0.0044
 2421SOL    HW118725   4.335   2.405  17.314  1.6100  4.0021  2.5681
 2421SOL    HW218726   4.337   2.547  17.265  0.5191 -0.6140  1.6542
 2422SOL     OW18727   4.432   3.569   4.113 -0.0166  0.3154 -0.1766
 2422SOL    HW118728   4.449   3.650   4.162 -3.6875  0.6015  0.6210
 2422SOL    HW218729   4.413   3.595   4.023  2.0770  0.8677 -0.4491
 2423SOL     OW18730   3.917   0.761   2.165  0.1650 -0.0941  0.1953
 2423SOL    HW118731   3.843   0.763   2.104  0.6086 -1.8868 -0.4002
 2423SOL    HW218732   3.983   0.705   2.123 -1.5743 -0.1575 -2.4602
 2424SOL     OW18733   2.265   1.817  14.099  0.7564 -0.3993  0.3180
 2424SOL    HW118734   2.330   1.856  14.040  1.1316  0.3862  1.2537
 2424SOL    HW218735   2.302   1.733  14.128  1.9375  0.2112  0.5792
 2425SOL     OW18736   1.811   2.019   0.728 -0.4640  0.6686 -0.5493
 2425SOL    HW118737   1.765   2.039   0.810 -2.3833 -0.5948 -1.2979
 2425SOL    HW218738   1.816   1.923   0.733  0.0648  0.7769  0.8700
 2426SOL     OW18739   1.523   0.060  16.142 -0.4676  0.3793  0.0994
 2426SOL    HW118740   1.518   0.136  16.084  0.2426 -0.6425 -1.2830
 2426SOL    HW218741   1.445   0.091  16.190 -0.3156  2.4421 -0.9827
 2427SOL     OW18742   1.693   0.190   5.747  0.4115  0.0678  0.4715
 2427SOL    HW118743   1.730   0.106   5.776 -0.3469 -0.4767 -0.1340
 2427SOL    HW218744   1.718   0.187   5.655  0.6441  2.0837  0.4686
 2428SOL     OW18745   0.799   4.158   7.132 -0.2329  0.2905 -0.4551
 2428SOL    HW118746   0.718   4.192   7.092 -0.5189  0.4666  0.2663
 2428SOL    HW218747   0.820   4.089   7.069  2.4652  1.6490 -1.0341
 2429SOL     OW18748   3.809   0.197   6.676  0.3262 -0.0847  0.0400
 2429SOL    HW118749   3.783   0.168   6.764 -1.9893 -0.4623 -0.7758
 2429SOL    HW218750   3.895   0.156   6.668 -0.1684 -1.1555  0.2256
 2430SOL     OW18751   0.922   4.036  14.929  0.0049  0.1765 -0.0416
 2430SOL    HW118752   0.964   4.087  14.859  0.7234  1.2140  1.1371
 2430SOL    HW218753   0.829   4.058  14.924 -0.6099 -2.4831 -0.2014
 2431SOL     OW18754   1.111   0.295  15.301  0.7903  0.1964 -0.4546
 2431SOL    HW118755   1.091   0.388  15.287  2.0697  0.8033  1.8540
 2431SOL    HW218756   1.148   0.288  15.389  0.3944 -1.1052 -0.3809
 2432SOL     OW18757   3.531   4.330   4.107 -0.1723 -0.2994 -0.1323
 2432SOL    HW118758   3.473   4.274   4.159 -0.4499  0.4881  0.4106
 2432SOL    HW218759   3.480   4.346   4.027  1.0410  2.3956 -0.3841
 2433SOL     OW18760   0.742   3.642   3.223 -0.0069  0.0589  0.2543
 2433SOL    HW118761   0.656   3.614   3.250 -0.0477  0.8802  0.9745
 2433SOL    HW218762   0.779   3.558   3.196 -0.8194 -0.1543 -0.1889
 2434SOL     OW18763   1.264   0.945   6.914  0.2779 -0.5257 -0.2271
 2434SOL    HW118764   1.262   0.850   6.919 -0.3170 -0.6634 -2.9519
 2434SOL    HW218765   1.341   0.960   6.859 -0.7120 -1.3480 -1.8229
 2435SOL     OW18766   0.460   2.034   6.884 -0.4009 -0.3926  0.1445
 2435SOL    HW118767   0.512   2.086   6.945  1.2298 -0.6009 -1.1014
 2435SOL    HW218768   0.495   2.057   6.798 -0.1833  1.3783  0.7174
 2436SOL     OW18769   4.424   3.468   2.234 -0.4093  0.0819 -0.0033
 2436SOL    HW118770   4.489   3.398   2.224  0.1629  0.7603 -1.0731
 2436SOL    HW218771   4.341   3.436   2.269  0.1445 -0.7988  0.5175
 2437SOL     OW18772   2.097   4.389   7.878  0.4234  0.1135 -0.4645
 2437SOL    HW118773   2.127   4.452   7.943  2.2501  1.5159 -2.6886
 2437SOL    HW218774   2.165   4.323   7.890  0.1135 -0.6697 -2.8914
 2438SOL     OW18775   1.440   2.130   5.903  0.2480 -0.1219  0.1279
 2438SOL    HW118776   1.496   2.056   5.877  0.7818  0.0207  0.8603
 2438SOL    HW218777   1.505   2.200   5.906 -1.9221  1.9586 -1.6304
 2439SOL     OW18778   2.718   2.229   9.575 -0.3335 -0.1785  0.5691
 2439SOL    HW118779   2.807   2.197   9.587 -0.0242  1.5338  2.7112
 2439SOL    HW218780   2.698   2.188   9.491  0.1620 -1.3182  1.0011
 2440SOL     OW18781   1.133   3.798   2.015  0.4723  0.3288  0.3493
 2440SOL    HW118782   1.070   3.773   2.083 -0.4689 -0.0482 -0.6609
 2440SOL    HW218783   1.084   3.865   1.967  0.6265  0.5099  0.4405
 2441SOL     OW18784   4.723   0.300   0.797 -0.1848  0.7015 -0.3133
 2441SOL    HW118785   0.076   0.353   0.779 -0.5030  1.3629  0.2687
 2441SOL    HW218786   4.666   0.332   0.727 -3.0858 -0.2232  1.6069
 2442SOL     OW18787   3.334   1.600   2.644  0.0808 -0.0720 -0.1493
 2442SOL    HW118788   3.290   1.564   2.721 -0.8895  1.2832 -0.0584
 2442SOL    HW218789   3.352   1.690   2.670  0.9485  0.4921 -2.6694
 2443SOL     OW18790   2.899   2.472  15.195  0.5721  0.3619 -0.3837
 2443SOL    HW118791   2.956   2.443  15.124 -2.8908 -2.7403 -1.9035
 2443SOL    HW218792   2.962   2.514  15.254 -1.3019 -2.2199  3.4882
 2444SOL     OW18793   4.397   2.281   5.314 -0.4119 -0.7645 -0.0664
 2444SOL    HW118794   4.481   2.316   5.344 -0.5752 -1.7463  1.5622
 2444SOL    HW218795   4.348   2.355   5.278 -1.1069 -0.7059  0.9955
 2445SOL     OW18796   1.677   2.901   3.674 -0.0368 -0.8091 -0.0067
 2445SOL    HW118797   1.602   2.903   3.733 -0.0438 -2.9172  0.0216
 2445SOL    HW218798   1.727   2.977   3.706 -0.2024  0.1593 -2.0348
 2446SOL     OW18799   1.174   1.302   8.219  0.5973 -0.1665  0.3786
 2446SOL    HW118800   1.150   1.338   8.305 -2.6208  0.3130 -0.7327
 2446SOL    HW218801   1.257   1.256   8.237  1.5388  1.4311  0.0575
 2447SOL     OW18802   0.867   3.744   6.997 -0.1237  0.3730 -0.0307
 2447SOL    HW118803   0.824   3.820   6.956 -0.1594 -0.3213 -1.2943
 2447SOL    HW218804   0.804   3.739   7.069 -2.3939 -1.7974 -2.1552
 2448SOL     OW18805   3.243   0.811   9.240 -0.4014 -0.3051 -0.4675
 2448SOL    HW118806   3.162   0.863   9.235 -0.5083 -0.4958 -0.7102
 2448SOL    HW218807   3.286   0.849   9.317  2.8743 -1.5737 -1.6829
 2449SOL     OW18808   1.522   1.605   1.205 -0.6831 -0.2350  0.2507
 2449SOL    HW118809   1.454   1.586   1.269 -0.9419 -0.6845 -0.1689
 2449SOL    HW218810   1.480   1.674   1.154 -1.7553 -0.3542  0.9773
 2450SOL     OW18811   3.054   1.693   9.369 -0.5048 -0.3470 -0.4184
 2450SOL    HW118812   2.960   1.676   9.364 -0.0015 -2.7776 -1.5636
 2450SOL    HW218813   3.078   1.604   9.397 -2.3526 -1.3927 -2.2134
 2451SOL     OW18814   1.584   3.142   7.913 -0.1194  0.2215  0.2764
 2451SOL    HW118815   1.643   3.175   7.845 -0.5554  1.1382  0.3535
 2451SOL    HW218816   1.505   3.174   7.869 -0.9173 -0.6995  1.0422
 2452SOL     OW18817   2.065   1.741  15.348 -0.0917  0.7199  0.2375
 2452SOL    HW118818   2.124   1.815  15.338  0.7259  0.0986  0.4780
 2452SOL    HW218819   2.028   1.746  15.260  2.3255  1.2359 -0.7351
 2453SOL     OW18820   0.164   0.267   2.774 -0.4688 -0.0174  0.7981
 2453SOL    HW118821   0.163   0.180   2.736 -1.3138 -0.2019  1.2497
 2453SOL    HW218822   0.116   0.327   2.717 -0.6576 -0.9668 -0.0280
 2454SOL     OW18823   2.365   3.237  11.449 -0.5942 -0.3994 -0.0756
 2454SOL    HW118824   2.282   3.195  11.423 -0.9604 -0.2755  0.8911
 2454SOL    HW218825   2.378   3.194  11.533 -1.4585 -1.6942 -0.6013
 2455SOL     OW18826   3.335   4.454   6.268 -0.1856  0.5895  0.3137
 2455SOL    HW118827   3.289   4.421   6.345  0.1072  1.0886  0.6980
 2455SOL    HW218828   3.422   4.432   6.302 -0.6799 -0.5357  0.8447
 2456SOL     OW18829   4.185   3.211   3.159 -0.4561 -0.8451  0.1305
 2456SOL    HW118830   4.244   3.159   3.105 -0.5012 -2.5219  1.6942
 2456SOL    HW218831   4.214   3.187   3.247  0.2170 -3.3030 -0.7640
 2457SOL     OW18832   1.854   0.670   2.082  0.4447  0.0342  0.0614
 2457SOL    HW118833   1.941   0.650   2.116  0.4563  1.1617  0.7082
 2457SOL    HW218834   1.804   0.630   2.154  0.4426  0.2434  0.1785
 2458SOL     OW18835   0.144   1.023   6.864  0.0429 -0.2334 -0.0628
 2458SOL    HW118836   0.122   1.106   6.906  0.0488 -0.2392 -0.0482
 2458SOL    HW218837   0.055   0.990   6.851  0.9853 -2.1103 -1.9534
 2459SOL     OW18838   4.065   3.751  11.594  0.2041  0.3306  0.6073
 2459SOL    HW118839   4.120   3.672  11.601 -3.1946 -2.2282 -1.1131
 2459SOL    HW218840   3.993   3.732  11.654 -0.4052 -1.0032 -0.5335
 2460SOL     OW18841   0.182   0.613   5.998  0.3050 -1.0544 -0.0569
 2460SOL    HW118842   0.116   0.682   6.003  0.3422 -1.0978  1.0261
 2460SOL    HW218843   0.148   0.539   6.049  0.1507 -0.0553  1.3046
 2461SOL     OW18844   2.487   0.308   5.697 -0.2312  0.6971 -0.0390
 2461SOL    HW118845   2.434   0.243   5.650 -0.0725  1.8670 -1.8648
 2461SOL    HW218846   2.547   0.335   5.627 -3.2475  1.2805 -2.4015
 2462SOL     OW18847   0.730   1.102  15.607  0.1104  0.3196  0.2571
 2462SOL    HW118848   0.731   1.112  15.512  1.2080 -0.2663  0.2080
 2462SOL    HW218849   0.654   1.046  15.619 -1.2623  2.3060  0.9191
 2463SOL     OW18850   4.252   0.675   6.323  0.1201  0.3316 -0.6573
 2463SOL    HW118851   4.203   0.742   6.275  0.5293  1.1196  0.0207
 2463SOL    HW218852   4.224   0.698   6.412 -0.6676 -1.2106 -0.5142
 2464SOL     OW18853   4.055   3.566   4.936  0.1877  0.0330 -0.3431
 2464SOL    HW118854   3.998   3.542   5.009 -0.0347 -1.1892 -0.9139
 2464SOL    HW218855   3.998   3.555   4.860  0.1533 -0.1126 -0.2960
 2465SOL     OW18856   4.358   0.013  11.682 -0.0658 -0.0786  0.2655
 2465SOL    HW118857   4.395   0.093  11.643 -0.2412 -0.1165  0.0178
 2465SOL    HW218858   4.310   4.705  11.606 -0.1695  1.7109 -0.4494
 2466SOL     OW18859   3.333   1.947  10.922  0.3121 -0.2310 -0.4854
 2466SOL    HW118860   3.330   1.913  10.833  1.8780 -0.2472 -0.5301
 2466SOL    HW218861   3.339   1.869  10.976 -0.1742  0.5477  0.6991
 2467SOL     OW18862   0.731   2.661   3.833  0.0350  0.2724 -0.5739
 2467SOL    HW118863   0.799   2.721   3.801 -1.0239  1.9037  0.2533
 2467SOL    HW218864   0.650   2.712   3.828  0.0471  0.6130  3.0484
 2468SOL     OW18865   4.537   2.384   2.938  0.4625 -0.3273  0.0738
 2468SOL    HW118866   4.482   2.443   2.988 -0.6111 -0.2858 -1.1544
 2468SOL    HW218867   4.618   2.434   2.950  1.6505 -2.4603  0.8881
 2469SOL     OW18868   2.001   3.972   7.397  0.1061 -0.5976  0.0434
 2469SOL    HW118869   1.990   3.891   7.346  2.1039  0.0123 -1.3332
 2469SOL    HW218870   2.052   4.017   7.330  0.2940 -1.3255 -0.3028
 2470SOL     OW18871   3.267   2.285  16.807 -0.3369  0.1385 -0.3292
 2470SOL    HW118872   3.195   2.328  16.853  1.7742  0.8821  2.2974
 2470SOL    HW218873   3.341   2.278  16.868 -0.4772  1.0113 -0.0644
 2471SOL     OW18874   0.731   1.894   6.018 -0.4472 -0.6756  0.1405
 2471SOL    HW118875   0.783   1.947   5.957  1.5148 -1.0135  1.4839
 2471SOL    HW218876   0.742   1.808   5.978  0.6736 -1.1303  1.4008
 2472SOL     OW18877   1.630   1.069   6.276  0.3953 -1.4020 -0.1275
 2472SOL    HW118878   1.617   1.069   6.181  0.1401 -0.1702 -0.0956
 2472SOL    HW218879   1.711   1.119   6.285  0.4266 -1.4773  0.0153
 2473SOL     OW18880   3.928   0.319   9.152  0.2789  0.4646 -0.1554
 2473SOL    HW118881   3.961   0.231   9.168 -1.3684 -0.3295 -1.1093
 2473SOL    HW218882   3.948   0.357   9.237  2.4522 -3.3761  0.9996
 2474SOL     OW18883   1.943   2.929   2.806 -0.1177 -0.5082 -0.3286
 2474SOL    HW118884   1.890   2.905   2.882  0.2726 -4.6820 -1.3743
 2474SOL    HW218885   2.016   2.868   2.810  0.1133 -0.0373  2.7597
 2475SOL     OW18886   3.785   1.250   3.213 -1.2142  0.2951 -0.7038
 2475SOL    HW118887   3.706   1.273   3.262  0.7397  1.2015  1.9593
 2475SOL    HW218888   3.814   1.339   3.190  0.9803 -0.5153 -1.0979
 2476SOL     OW18889   2.891   3.063   6.627 -0.4069 -0.6281  0.1432
 2476SOL    HW118890   2.918   3.055   6.535  0.7458 -1.0920  0.5239
 2476SOL    HW218891   2.835   3.139   6.638  0.9251  0.6804 -2.0681
 2477SOL     OW18892   0.580   4.650  10.194  0.2735  0.4025  0.2874
 2477SOL    HW118893   0.603   4.602  10.274  2.2853  3.7431  1.7263
 2477SOL    HW218894   0.491   4.670  10.222 -0.6651  2.0259 -3.8352
 2478SOL     OW18895   2.675   2.042   5.167  0.0995  0.6535  0.0344
 2478SOL    HW118896   2.677   2.029   5.262  1.2525  1.9280  0.1680
 2478SOL    HW218897   2.643   2.132   5.171 -0.5622  0.4231 -0.0819
 2479SOL     OW18898   2.217   3.607  13.755 -0.0963 -0.1790 -0.2242
 2479SOL    HW118899   2.176   3.655  13.683  1.3455  0.5840 -0.5508
 2479SOL    HW218900   2.165   3.639  13.829 -0.1396  1.5082 -0.9763
 2480SOL     OW18901   0.704   2.999  10.353 -0.1889  0.2094 -0.1130
 2480SOL    HW118902   0.798   2.983  10.348 -0.4977 -1.6633 -0.0091
 2480SOL    HW218903   0.699   3.094  10.359 -0.9495  0.1636 -0.0232
 2481SOL     OW18904   4.336   3.479   5.279  0.5641  0.4969  0.0499
 2481SOL    HW118905   4.353   3.395   5.321  3.0054  1.2948  0.6505
 2481SOL    HW218906   4.250   3.487   5.319  0.5769 -1.4769  0.4582
 2482SOL     OW18907   2.049   3.165   4.345 -0.3441  0.5924  0.1082
 2482SOL    HW118908   1.994   3.140   4.419  0.2539 -0.5022  0.1877
 2482SOL    HW218909   1.983   3.215   4.298 -0.3039 -0.0056 -0.5675
 2483SOL     OW18910   1.277   0.627   6.383  0.2647  0.8572  0.0926
 2483SOL    HW118911   1.234   0.705   6.349  1.3407  2.0849  1.5484
 2483SOL    HW218912   1.207   0.562   6.380 -0.2637  1.5872 -3.0618
 2484SOL     OW18913   2.242   0.104   1.432  0.3171  0.2388 -0.0472
 2484SOL    HW118914   2.177   0.055   1.381  0.4549  0.2992 -0.2781
 2484SOL    HW218915   2.192   0.131   1.510 -2.4334  1.1178 -2.1147
 2485SOL     OW18916   2.032   3.565   8.456 -0.1073  0.6467 -0.0830
 2485SOL    HW118917   1.959   3.625   8.472 -0.6917  0.0087 -0.3454
 2485SOL    HW218918   2.033   3.570   8.360  2.1405 -1.1167 -0.1675
 2486SOL     OW18919   0.510   2.166  17.577  0.2748 -0.0021  0.3223
 2486SOL    HW118920   0.546   2.181  17.489  0.3752 -1.6456  0.0817
 2486SOL    HW218921   0.517   2.256  17.609 -1.8036  0.3708 -0.3134
 2487SOL     OW18922   4.519   0.882  11.039 -0.1784  0.3488 -0.3748
 2487SOL    HW118923   4.551   0.835  10.962 -2.1984  2.3891 -2.4732
 2487SOL    HW218924   4.517   0.971  11.003 -1.5711 -1.3369 -4.4823
 2488SOL     OW18925   2.344   3.851   2.258  0.2170 -0.0226  0.0794
 2488SOL    HW118926   2.324   3.767   2.216  1.0737 -1.5648  2.7602
 2488SOL    HW218927   2.437   3.845   2.281  0.0681  1.5261  1.0854
 2489SOL     OW18928   2.113   2.050   0.504  0.0030  0.4683  0.0745
 2489SOL    HW118929   2.050   2.005   0.561 -0.6059  0.1097 -0.8918
 2489SOL    HW218930   2.054   2.117   0.470 -1.5344 -1.1358 -0.4128
 2490SOL     OW18931   1.669   0.208   9.038  0.2365  0.1555  0.4881
 2490SOL    HW118932   1.668   0.186   9.131 -0.8442  0.0145  0.4452
 2490SOL    HW218933   1.580   0.201   9.003 -0.2087  2.4872  1.1399
 2491SOL     OW18934   2.514   0.779   7.830  0.3558 -0.4241  0.0196
 2491SOL    HW118935   2.479   0.862   7.796  1.7485  0.0847 -0.1685
 2491SOL    HW218936   2.584   0.762   7.766  0.8323  2.4098 -0.2199
 2492SOL     OW18937   1.713   3.991   8.005  0.4500 -0.2004  0.4356
 2492SOL    HW118938   1.673   3.914   7.966 -2.0492  0.7177  1.1891
 2492SOL    HW218939   1.778   4.011   7.938 -0.3289  0.2593 -0.1841
 2493SOL     OW18940   0.904   2.506   9.508  0.0496  0.2779 -0.3588
 2493SOL    HW118941   0.889   2.457   9.588  0.5178 -1.0746 -1.0895
 2493SOL    HW218942   0.881   2.443   9.440  1.0152  0.0083 -0.4464
 2494SOL     OW18943   1.796   2.279  10.415 -0.6142  0.1942 -0.0646
 2494SOL    HW118944   1.812   2.191  10.381  1.0251  0.9475 -1.2686
 2494SOL    HW218945   1.788   2.263  10.509 -0.0496 -0.6190 -0.1567
 2495SOL     OW18946   0.495   3.729  13.776 -0.3567  0.5361  0.1864
 2495SOL    HW118947   0.589   3.712  13.778 -0.3591  0.4901 -0.2518
 2495SOL    HW218948   0.481   3.824  13.779 -2.2519  0.2997 -0.8383
 2496SOL     OW18949   1.268   1.476   4.182 -0.1163  0.3054  0.1335
 2496SOL    HW118950   1.198   1.447   4.123 -0.8405 -0.8671  1.5516
 2496SOL    HW218951   1.344   1.470   4.126  0.7694  1.9479  1.1462
 2497SOL     OW18952   1.055   3.540   7.084 -0.0603 -0.6193  0.2135
 2497SOL    HW118953   1.115   3.612   7.064  0.6498 -1.5326 -0.9896
 2497SOL    HW218954   0.976   3.585   7.054 -1.3533 -2.8545  0.2740
 2498SOL     OW18955   1.199   2.169   0.939  0.0630 -0.5771 -0.0681
 2498SOL    HW118956   1.237   2.204   0.859 -0.1393 -0.7319 -0.2286
 2498SOL    HW218957   1.170   2.080   0.919 -0.0609 -0.3454 -0.9054
 2499SOL     OW18958   1.873   2.395   1.222 -0.4210  0.3641  0.1649
 2499SOL    HW118959   1.947   2.337   1.209  1.1728  2.2253  0.9233
 2499SOL    HW218960   1.803   2.336   1.249  1.0328 -1.6787 -0.5959
 2500SOL     OW18961   0.456   0.822  16.786  0.2774 -0.1182 -0.1882
 2500SOL    HW118962   0.472   0.829  16.692  2.1914  0.2619  0.1691
 2500SOL    HW218963   0.529   0.876  16.818 -0.6414  0.9026  0.1840
 2501SOL     OW18964   1.013   3.962   7.484  0.1266  0.0790 -0.2769
 2501SOL    HW118965   0.981   3.883   7.441 -0.3521  0.0349  0.1472
 2501SOL    HW218966   1.022   4.022   7.410  0.4487  3.3667  2.3840
 2502SOL     OW18967   2.365   1.648  14.464  0.1932 -0.4313  0.2208
 2502SOL    HW118968   2.386   1.635  14.372 -0.9695 -1.3374  0.0810
 2502SOL    HW218969   2.454   1.672  14.492  0.7126 -1.9784 -0.1115
 2503SOL     OW18970   2.416   2.008   6.825 -0.1695  0.1874  0.2078
 2503SOL    HW118971   2.454   1.939   6.879  1.2064  0.0659 -0.9090
 2503SOL    HW218972   2.380   1.957   6.753  1.4337 -1.2340  0.4002
 2504SOL     OW18973   0.104   0.620   8.365 -0.3617 -0.4269  0.2440
 2504SOL    HW118974   0.199   0.631   8.365 -0.2085 -1.6434  0.5778
 2504SOL    HW218975   0.079   0.704   8.327 -2.6687 -2.2716 -2.2731
 2505SOL     OW18976   3.064   0.633   7.473  0.1411 -0.2071  0.6025
 2505SOL    HW118977   3.099   0.695   7.409 -2.8792  1.1968  0.2808
 2505SOL    HW218978   3.011   0.568   7.426 -0.0911  0.1602  0.3529
 2506SOL     OW18979   0.084   2.647  16.520 -0.8464 -0.0573  0.4246
 2506SOL    HW118980   0.145   2.619  16.588  0.4878 -1.6849 -1.4312
 2506SOL    HW218981   0.001   2.630  16.564 -1.9495 -1.4877 -2.2051
 2507SOL     OW18982   1.023   2.732  12.123  0.5939  0.0335 -0.6655
 2507SOL    HW118983   1.012   2.763  12.033  0.6357  0.3700 -0.5544
 2507SOL    HW218984   0.987   2.643  12.126  1.0912 -0.1414  0.1273
 2508SOL     OW18985   2.147   2.714   7.412  0.2801 -0.5374  0.5014
 2508SOL    HW118986   2.233   2.713   7.370 -0.4923  0.4227 -1.0936
 2508SOL    HW218987   2.184   2.731   7.499 -0.6004 -1.3543  1.0315
 2509SOL     OW18988   0.466   0.141   8.286  0.1039 -0.3960 -0.4689
 2509SOL    HW118989   0.512   0.135   8.202  2.4367  1.7567  0.6472
 2509SOL    HW218990   0.537   0.120   8.347  0.8418 -2.0562 -1.8802
 2510SOL     OW18991   3.601   2.903   6.773 -0.3393  0.2053  0.4952
 2510SOL    HW118992   3.631   2.845   6.703 -0.8333 -0.0916  0.5352
 2510SOL    HW218993   3.517   2.935   6.739 -0.4418  1.0364  1.5252
 2511SOL     OW18994   2.352   1.571  13.506 -0.1773 -0.1498 -0.1913
 2511SOL    HW118995   2.310   1.488  13.530  0.2323  0.3264  2.1277
 2511SOL    HW218996   2.307   1.586  13.423  1.4837  0.3195 -1.0112
 2512SOL     OW18997   1.543   0.328  11.193 -0.1633 -0.2506  0.0756
 2512SOL    HW118998   1.586   0.303  11.111 -2.1083  0.3544 -1.1166
 2512SOL    HW218999   1.482   0.255  11.201 -0.1490 -0.3362 -0.5808
 2513SOL     OW19000   0.356   3.420   3.112 -0.0761 -0.2164  0.0671
 2513SOL    HW119001   0.383   3.498   3.160  2.9244 -1.2186  0.0158
 2513SOL    HW219002   0.424   3.407   3.046  0.1681  2.2774 -0.1862
 2514SOL     OW19003   4.049   1.263   3.291 -0.3477  0.2594 -0.0240
 2514SOL    HW119004   4.016   1.280   3.379 -0.1074 -2.3424  0.5871
 2514SOL    HW219005   3.968   1.244   3.244 -0.3971 -1.3356  0.7017
 2515SOL     OW19006   1.018   2.023   2.596  0.2703 -0.0262  0.0853
 2515SOL    HW119007   1.040   2.114   2.578  1.8221 -0.0822  1.6584
 2515SOL    HW219008   0.925   2.034   2.614  0.3709  1.1732 -0.0946
 2516SOL     OW19009   3.383   3.226   6.105 -0.0646  0.1365  0.2945
 2516SOL    HW119010   3.448   3.296   6.111  1.1103 -0.8454 -0.8247
 2516SOL    HW219011   3.369   3.224   6.011 -1.6145 -0.4943  0.5371
 2517SOL     OW19012   1.242   2.747   3.318  0.1742  0.2484  0.2423
 2517SOL    HW119013   1.297   2.728   3.242 -0.0908  0.7925 -0.0927
 2517SOL    HW219014   1.284   2.818   3.367 -0.2263  1.2952 -0.9238
 2518SOL     OW19015   2.903   3.561   4.887 -0.1217  0.3179 -0.5069
 2518SOL    HW119016   2.842   3.607   4.829 -1.4048  1.3319  1.6130
 2518SOL    HW219017   2.923   3.628   4.953 -0.7781  1.7610 -1.7839
 2519SOL     OW19018   1.052   0.756   5.133 -0.1790  0.2904  0.0128
 2519SOL    HW119019   1.090   0.782   5.049  1.5204 -1.0965  0.3282
 2519SOL    HW219020   0.998   0.831   5.155 -1.7710 -0.5575 -1.0217
 2520SOL     OW19021   2.782   0.205  14.652  0.1965  0.0641  0.2025
 2520SOL    HW119022   2.725   0.128  14.649 -0.3785  0.4963 -0.0316
 2520SOL    HW219023   2.755   0.244  14.735  0.2698  0.6202 -0.0368
 2521SOL     OW19024   2.320   0.538   2.330  0.1257  0.2543 -0.3118
 2521SOL    HW119025   2.353   0.470   2.387  1.3825  0.3352 -0.9448
 2521SOL    HW219026   2.380   0.607   2.359  0.2025  1.0230 -2.2787
 2522SOL     OW19027   4.168   4.430   8.560  0.4012 -0.0380  0.1300
 2522SOL    HW119028   4.191   4.341   8.586  1.8854  0.8196  1.7650
 2522SOL    HW219029   4.232   4.442   8.491 -1.7030  1.2938 -1.6073
 2523SOL     OW19030   2.694   4.402   6.060 -0.3588 -0.3462 -0.4846
 2523SOL    HW119031   2.704   4.315   6.020  2.6308 -0.5927  0.7964
 2523SOL    HW219032   2.632   4.388   6.131  1.2257 -0.5656  0.8508
 2524SOL     OW19033   3.904   3.404   3.002 -0.0231 -0.3503 -0.5068
 2524SOL    HW119034   3.941   3.486   2.969 -0.3406  0.1423  0.3656
 2524SOL    HW219035   3.810   3.414   2.995  0.5594  3.0772 -3.0159
 2525SOL     OW19036   4.669   3.968   6.476  0.5825  0.4491 -0.5437
 2525SOL    HW119037   4.578   3.959   6.448  0.2288 -1.4935  1.2195
 2525SOL    HW219038   4.671   4.051   6.523 -0.0885  1.6800 -2.6742
 2526SOL     OW19039   2.422   2.688   6.998  0.3315 -0.4864 -0.0090
 2526SOL    HW119040   2.393   2.609   6.952  2.5094 -1.8570  1.0021
 2526SOL    HW219041   2.421   2.753   6.928  1.4345  0.8308  1.1863
 2527SOL     OW19042   3.140   1.747   8.765  1.2071 -0.6865  0.0821
 2527SOL    HW119043   3.140   1.775   8.857  1.3502  0.2968 -0.2150
 2527SOL    HW219044   3.135   1.651   8.764  0.7011 -0.6767  1.3359
 2528SOL     OW19045   3.706   0.335   3.119 -0.1409 -0.0770  0.0403
 2528SOL    HW119046   3.670   0.423   3.111 -0.0220 -0.1205 -0.9302
 2528SOL    HW219047   3.729   0.316   3.029  3.5770 -0.9771  1.1921
 2529SOL     OW19048   0.595   1.159   2.489 -0.2305 -0.2852  0.3374
 2529SOL    HW119049   0.530   1.211   2.442 -3.4399 -3.2792  1.4044
 2529SOL    HW219050   0.632   1.108   2.416  1.5707  0.7623  0.5231
 2530SOL     OW19051   4.469   0.695  10.391  0.5689  0.1232 -0.1220
 2530SOL    HW119052   4.387   0.742  10.405 -0.1658 -1.6280  1.4265
 2530SOL    HW219053   4.509   0.743  10.318 -0.9208 -0.6790 -1.4521
 2531SOL     OW19054   2.118   3.342   7.285  0.1412 -0.0491  0.3069
 2531SOL    HW119055   2.161   3.403   7.226 -1.5740 -0.3096 -1.2200
 2531SOL    HW219056   2.069   3.289   7.223  2.1577  0.4827 -1.7189
 2532SOL     OW19057   1.696   3.316   8.617  0.2726 -0.1729 -0.1941
 2532SOL    HW119058   1.625   3.315   8.681  0.5396  0.4874  0.1025
 2532SOL    HW219059   1.670   3.383   8.554 -2.2981 -0.2607  0.7983
 2533SOL     OW19060   0.514   3.216  17.216  0.3357  0.4958  0.1632
 2533SOL    HW119061   0.546   3.159  17.146 -0.9007  0.5507 -0.4328
 2533SOL    HW219062   0.435   3.168  17.242  0.8165 -1.0661 -1.2642
 2534SOL     OW19063   3.290   0.316  14.976 -0.2101 -0.1308  0.3628
 2534SOL    HW119064   3.201   0.326  14.943  0.1352 -0.0111 -0.5541
 2534SOL    HW219065   3.284   0.351  15.065 -3.9211  0.7827 -0.2288
 2535SOL     OW19066   2.274   1.966   3.279 -0.1702 -0.2951  0.3369
 2535SOL    HW119067   2.231   2.000   3.357  3.5811  1.5231  1.6519
 2535SOL    HW219068   2.196   1.950   3.225  0.0311 -1.4092  0.3635
 2536SOL     OW19069   1.719   2.682   8.482  0.5000 -0.0687  0.6368
 2536SOL    HW119070   1.693   2.607   8.536  2.0830 -1.9342 -1.1728
 2536SOL    HW219071   1.774   2.724   8.547 -2.4007  3.0752  1.0351
 2537SOL     OW19072   3.546   2.623   5.449 -0.3104  0.1088 -0.0789
 2537SOL    HW119073   3.472   2.678   5.474 -1.9305 -2.2260  0.2043
 2537SOL    HW219074   3.602   2.678   5.394 -3.7716  1.3572 -2.3782
 2538SOL     OW19075   1.502   2.921   6.291 -0.3950 -0.5617 -0.1847
 2538SOL    HW119076   1.425   2.866   6.308 -1.8446  1.3962 -0.3675
 2538SOL    HW219077   1.468   3.010   6.302  1.5972  0.2493 -0.6197
 2539SOL     OW19078   1.016   0.566   2.825  0.2452 -0.4386  0.1114
 2539SOL    HW119079   0.952   0.514   2.873 -0.7641  0.3628 -0.3590
 2539SOL    HW219080   1.050   0.605   2.906 -0.3702  0.2609  0.0432
 2540SOL     OW19081   2.061   0.805   3.349 -0.6325  0.6766  0.4301
 2540SOL    HW119082   2.092   0.894   3.365 -0.6563  0.6843  0.4334
 2540SOL    HW219083   2.094   0.758   3.425  1.0417 -2.5272 -2.2722
 2541SOL     OW19084   1.520   3.731   4.046 -0.1672  0.4035 -0.0204
 2541SOL    HW119085   1.429   3.759   4.055  0.1940  1.6726 -0.3048
 2541SOL    HW219086   1.521   3.636   4.052 -2.1569  0.2332 -2.4380
 2542SOL     OW19087   0.887   3.674   8.902 -0.6090 -0.0159 -0.4443
 2542SOL    HW119088   0.851   3.634   8.823  1.1866 -0.5718 -0.9845
 2542SOL    HW219089   0.943   3.605   8.939  2.1746  1.4895 -1.8499
 2543SOL     OW19090   2.368   3.159   3.129  0.7843  0.3412 -0.1608
 2543SOL    HW119091   2.275   3.167   3.149  0.1323 -2.1979 -2.1492
 2543SOL    HW219092   2.370   3.236   3.072 -3.8085  1.0846  0.6994
 2544SOL     OW19093   0.208   3.825  12.326 -0.1791  0.4230  0.2699
 2544SOL    HW119094   0.276   3.837  12.260 -1.2990 -2.0591 -1.3480
 2544SOL    HW219095   0.184   3.915  12.348  1.4533 -0.4470  5.4540
 2545SOL     OW19096   1.731   4.621   4.762  0.3782  0.0732 -1.2736
 2545SOL    HW119097   1.672   4.639   4.688 -0.9284 -1.5791 -0.6516
 2545SOL    HW219098   1.671   4.571   4.818  3.6074 -0.2071  1.9063
 2546SOL     OW19099   0.376   1.641   4.960  0.2360 -0.8436  0.3306
 2546SOL    HW119100   0.469   1.647   4.940 -0.1720  0.8927 -1.0745
 2546SOL    HW219101   0.349   1.561   4.916  0.1796 -0.5425 -0.1818
 2547SOL     OW19102   0.876   3.552   0.420  0.7414 -0.4854  0.2948
 2547SOL    HW119103   0.792   3.597   0.428 -0.7281 -2.8978 -1.6582
 2547SOL    HW219104   0.895   3.530   0.511  1.2584 -0.7702  0.1216
 2548SOL     OW19105   3.778   2.073   8.250 -0.0056 -0.6742 -0.5600
 2548SOL    HW119106   3.838   2.037   8.184  2.0682  1.4363  0.2014
 2548SOL    HW219107   3.815   2.158   8.270 -0.1923 -0.3834 -1.4511
 2549SOL     OW19108   3.548   1.079  15.514 -0.1204  0.0735  0.3196
 2549SOL    HW119109   3.587   1.033  15.589  0.0478  0.0894  0.2428
 2549SOL    HW219110   3.617   1.080  15.448  1.5927  1.4201  2.1118
 2550SOL     OW19111   1.871   3.726   4.757 -0.0173 -0.5734 -0.0430
 2550SOL    HW119112   1.847   3.816   4.777 -1.4484 -0.6099 -1.5832
 2550SOL    HW219113   1.833   3.667   4.822 -1.5904 -0.0106 -0.4617
 2551SOL     OW19114   2.623   0.550  10.528 -0.2146  0.1887 -0.4583
 2551SOL    HW119115   2.715   0.531  10.545 -0.5158  1.1056  2.2374
 2551SOL    HW219116   2.625   0.534  10.433  0.8391 -0.3934 -0.3364
 2552SOL     OW19117   1.808   3.391  10.146 -0.7514 -0.2481  0.0375
 2552SOL    HW119118   1.747   3.456  10.180  0.8014 -0.1320  2.6100
 2552SOL    HW219119   1.884   3.432  10.189  0.9537 -2.7464 -0.6028
 2553SOL     OW19120   1.488   0.484  13.797 -0.2701 -0.3692 -0.8512
 2553SOL    HW119121   1.566   0.447  13.839 -1.4599 -1.4396  0.4038
 2553SOL    HW219122   1.481   0.434  13.716 -0.6930 -2.1687  0.3052
 2554SOL     OW19123   1.354   4.320   5.173 -0.0977 -0.2350 -0.0021
 2554SOL    HW119124   1.365   4.297   5.265  0.4075 -1.0618 -0.2683
 2554SOL    HW219125   1.282   4.259   5.151  0.2549 -1.5270  2.4196
 2555SOL     OW19126   2.282   2.728   0.403 -0.1175 -0.3261 -0.5085
 2555SOL    HW119127   2.268   2.637   0.429 -0.3932 -0.3818 -0.8498
 2555SOL    HW219128   2.196   2.766   0.418  0.0718  0.2591 -0.8513
 2556SOL     OW19129   3.991   3.991   4.219 -0.2460 -0.5565 -0.1393
 2556SOL    HW119130   3.897   3.998   4.237 -0.0426 -0.2484  0.7803
 2556SOL    HW219131   4.013   4.084   4.219  1.2548 -0.9195  0.6887
 2557SOL     OW19132   0.746   3.090   6.573 -0.4303  0.5149 -0.2217
 2557SOL    HW119133   0.675   3.096   6.509 -1.7423  0.3060  1.2039
 2557SOL    HW219134   0.748   2.996   6.592  4.1129  0.4521 -1.1624
 2558SOL     OW19135   3.330   0.346   6.895  0.3213 -0.3537 -0.0341
 2558SOL    HW119136   3.250   0.313   6.937  0.3713 -1.4630 -0.8166
 2558SOL    HW219137   3.314   0.352   6.801 -1.3181  0.6599  0.2995
 2559SOL     OW19138   1.633   3.670   2.092 -0.0715  0.5402 -0.0499
 2559SOL    HW119139   1.726   3.667   2.069 -0.9329 -1.8311 -3.2736
 2559SOL    HW219140   1.644   3.712   2.177 -1.7621 -1.4038  1.1318
 2560SOL     OW19141   0.267   2.741  17.620  0.1699  0.2762 -0.5144
 2560SOL    HW119142   0.262   2.649  17.594  2.3959 -0.5788  1.9567
 2560SOL    HW219143   0.232   2.740   0.011  1.6171  1.7692  0.0590
 2561SOL     OW19144   0.095   0.875   8.240  0.0922  0.4965 -0.4833
 2561SOL    HW119145   0.174   0.921   8.269 -1.8859  3.1363  0.6588
 2561SOL    HW219146   0.095   0.892   8.145 -0.1239  0.1109 -0.5519
 2562SOL     OW19147   2.046   2.436   2.920 -0.1837  0.0096  0.5545
 2562SOL    HW119148   2.120   2.427   2.860  0.4232  1.0796  1.1365
 2562SOL    HW219149   2.072   2.356   2.965 -1.3080  0.4273  1.9392
 2563SOL     OW19150   0.180   3.035   7.665  0.8384 -0.2780  0.2120
 2563SOL    HW119151   0.192   3.130   7.665  0.5798 -0.2410  3.3367
 2563SOL    HW219152   0.159   3.015   7.574  0.0704 -0.4944  0.4405
 2564SOL     OW19153   2.925   0.949  15.170 -0.3973 -0.1502  0.1593
 2564SOL    HW119154   2.853   1.011  15.185 -1.9035 -1.2440 -2.4837
 2564SOL    HW219155   2.863   0.877  15.157  0.6100 -0.7088 -1.5671
 2565SOL     OW19156   3.150   1.490   8.732 -0.7759  0.4469 -0.2728
 2565SOL    HW119157   3.231   1.469   8.684 -0.1883  1.3772  0.3060
 2565SOL    HW219158   3.110   1.403   8.731 -1.9545  0.9997 -0.9396
 2566SOL     OW19159   1.665   1.395   6.994 -0.4070 -0.1209 -0.0588
 2566SOL    HW119160   1.692   1.318   7.044 -1.2707 -1.6455 -1.9574
 2566SOL    HW219161   1.605   1.356   6.930 -0.0724 -0.7244 -0.0094
 2567SOL     OW19162   2.046   2.566   5.747  0.4490 -0.1739  0.4930
 2567SOL    HW119163   2.101   2.644   5.762  0.2999 -0.0257  0.2648
 2567SOL    HW219164   1.973   2.586   5.805  1.1101  1.1345  0.8865
 2568SOL     OW19165   0.444   2.964   7.518  0.4121 -0.5535 -0.1583
 2568SOL    HW119166   0.407   2.978   7.431 -0.1495  0.7250  0.2788
 2568SOL    HW219167   0.376   2.907   7.552 -0.8735  1.4197  0.6000
 2569SOL     OW19168   1.950   1.028   5.924  0.4891  0.3383 -0.2870
 2569SOL    HW119169   2.035   1.071   5.925  0.2885  0.6895  0.8792
 2569SOL    HW219170   1.929   1.012   6.016 -0.0393 -3.7543 -1.0896
 2570SOL     OW19171   3.264   4.544   4.149 -0.0490 -0.4534 -0.0467
 2570SOL    HW119172   3.312   4.606   4.094 -2.2112  0.2863 -1.0903
 2570SOL    HW219173   3.331   4.477   4.163 -0.5353 -0.7478  0.8239
 2571SOL     OW19174   0.356   0.846   8.841  0.3491 -0.1755 -0.3840
 2571SOL    HW119175   0.368   0.752   8.849 -1.0547 -0.3961 -0.8633
 2571SOL    HW219176   0.440   0.891   8.831 -0.5227  1.3961 -0.7811
 2572SOL     OW19177   2.856   0.755  12.796  0.0610 -0.3013 -0.3614
 2572SOL    HW119178   2.897   0.726  12.715 -0.1943 -0.2809 -0.4977
 2572SOL    HW219179   2.804   0.678  12.818  0.7317  0.0521  2.5266
 2573SOL     OW19180   3.592   4.544  10.441  0.1460 -0.8144 -0.0730
 2573SOL    HW119181   3.526   4.601  10.480  0.6387 -0.8482  0.8191
 2573SOL    HW219182   3.653   4.525  10.513 -0.4304  0.5972  0.7865
 2574SOL     OW19183   0.576   2.715  15.804  0.6178 -0.0244 -0.5945
 2574SOL    HW119184   0.605   2.776  15.872  1.7362 -2.0591  0.7460
 2574SOL    HW219185   0.549   2.641  15.858 -0.5713 -0.5031 -1.8508
 2575SOL     OW19186   2.316   3.324   3.475 -0.2808 -0.3427 -0.7533
 2575SOL    HW119187   2.256   3.252   3.455 -0.0979 -0.5292 -0.6290
 2575SOL    HW219188   2.341   3.358   3.389 -1.4006 -0.3547 -1.0862
 2576SOL     OW19189   4.220   4.650   8.055 -0.5951  0.9502 -0.1179
 2576SOL    HW119190   4.226   4.692   8.141 -0.0121  0.7251 -0.0479
 2576SOL    HW219191   4.307   4.679   8.025 -0.2982  0.2089  0.0502
 2577SOL     OW19192   2.279   0.069  10.544 -0.2547  0.2708  0.2853
 2577SOL    HW119193   2.295   0.157  10.577 -2.7621  0.3927  1.1556
 2577SOL    HW219194   2.369   0.037  10.539 -0.8591 -1.8090  2.6417
 2578SOL     OW19195   2.133   1.967   0.010 -0.0296  0.1864 -0.2128
 2578SOL    HW119196   2.038   1.979   0.013  0.0433  0.4782  1.1857
 2578SOL    HW219197   2.134   1.879  17.670  0.4142 -0.0944  0.4255
 2579SOL     OW19198   2.445   1.078   8.565  0.2239  0.2889 -0.0102
 2579SOL    HW119199   2.408   1.167   8.565  0.4964  0.3900  1.0055
 2579SOL    HW219200   2.524   1.098   8.515 -0.2467  0.6502 -0.6091
 2580SOL     OW19201   1.378   1.547   2.579  0.6812 -0.3737  0.5249
 2580SOL    HW119202   1.322   1.620   2.551  1.3067 -0.9507 -2.2481
 2580SOL    HW219203   1.424   1.529   2.496 -0.3274  0.2924 -0.1836
 2581SOL     OW19204   2.379   4.573   1.802 -0.5176  0.1285  0.0141
 2581SOL    HW119205   2.383   4.649   1.745 -0.4821 -1.3638 -1.9449
 2581SOL    HW219206   2.382   4.502   1.739 -1.9416  0.2764 -0.2259
 2582SOL     OW19207   3.229   3.801   1.032  0.3392  0.2582  0.3866
 2582SOL    HW119208   3.224   3.798   0.936  1.9190 -0.2919  0.3173
 2582SOL    HW219209   3.256   3.890   1.052 -1.3489  0.6920  0.7356
 2583SOL     OW19210   4.255   3.925  14.391 -0.1904  0.2569  0.2773
 2583SOL    HW119211   4.178   3.936  14.334 -0.1593  0.0769  0.1998
 2583SOL    HW219212   4.319   3.958  14.327 -0.0410 -3.1526 -1.3321
 2584SOL     OW19213   2.704   2.440   8.957 -0.0362  0.4862 -0.8230
 2584SOL    HW119214   2.753   2.522   8.950  1.8564 -0.4748  1.1781
 2584SOL    HW219215   2.620   2.472   8.925 -1.4744 -1.2298  1.1959
 2585SOL     OW19216   2.773   3.578   0.151  0.0673 -0.2328  0.3830
 2585SOL    HW119217   2.728   3.505   0.193 -0.5902 -0.5742 -0.8954
 2585SOL    HW219218   2.862   3.567   0.183  1.0578 -2.5283 -3.1685
 2586SOL     OW19219   4.619   1.975   6.886  0.2336  0.0566 -0.2705
 2586SOL    HW119220   4.590   2.035   6.955  1.7943  1.1967 -0.5869
 2586SOL    HW219221   4.584   2.019   6.808 -2.2500 -0.2086  0.7247
 2587SOL     OW19222   3.981   1.269   7.582 -0.9087  0.5069  0.0885
 2587SOL    HW119223   3.906   1.299   7.633 -0.1285 -0.8961  2.0593
 2587SOL    HW219224   4.034   1.218   7.644  1.3640  1.0612 -1.4091
 2588SOL     OW19225   0.484   4.552   6.211 -0.3830  0.2174  0.3785
 2588SOL    HW119226   0.485   4.599   6.294  0.4310  0.4221  0.2518
 2588SOL    HW219227   0.535   4.611   6.156  0.6316 -0.8505  0.1875
 2589SOL     OW19228   3.045   3.610   7.128  0.5538  0.6045  0.7152
 2589SOL    HW119229   3.078   3.610   7.038 -1.0855  1.8245  0.1142
 2589SOL    HW219230   3.093   3.683   7.168  1.6437 -1.1516  2.5909
 2590SOL     OW19231   3.268   1.963   7.063 -0.2308  0.2538 -0.4853
 2590SOL    HW119232   3.350   2.013   7.063  0.0557 -0.2293  1.8499
 2590SOL    HW219233   3.286   1.881   7.017 -3.0973 -0.3630 -0.4942
 2591SOL     OW19234   1.133   4.287  14.339 -0.3359 -0.4132 -0.2357
 2591SOL    HW119235   1.061   4.256  14.283  0.9635  0.3000 -2.3184
 2591SOL    HW219236   1.192   4.211  14.338 -2.2736 -1.9058 -2.1402
 2592SOL     OW19237   0.739   3.719   9.129 -0.1162  0.3729 -0.1949
 2592SOL    HW119238   0.807   3.712   9.062 -0.8465  1.0621 -1.0159
 2592SOL    HW219239   0.675   3.651   9.110  0.9005  0.0116 -2.3762
 2593SOL     OW19240   0.686   0.977   4.988 -0.0129 -0.3487 -0.5875
 2593SOL    HW119241   0.626   1.026   5.045  0.6780 -1.1064  0.7702
 2593SOL    HW219242   0.749   0.934   5.045 -0.5735  0.1171  0.3835
 2594SOL     OW19243   2.111   3.403   4.047 -0.1339  0.0423 -0.2685
 2594SOL    HW119244   2.100   3.498   4.034  2.0775  0.3256 -0.1696
 2594SOL    HW219245   2.030   3.385   4.093  1.1042 -1.4870  1.2924
 2595SOL     OW19246   0.601   0.673   7.014 -0.3428  0.7429 -0.0525
 2595SOL    HW119247   0.534   0.661   6.947 -0.7232 -0.1664  0.4828
 2595SOL    HW219248   0.575   0.760   7.046 -2.5326  0.6962 -1.6512
 2596SOL     OW19249   3.509   3.657   3.710 -0.1700 -0.0896  0.3744
 2596SOL    HW119250   3.454   3.588   3.672 -0.9789 -0.1310  1.6204
 2596SOL    HW219251   3.584   3.665   3.652 -0.1016  0.8665  0.5994
 2597SOL     OW19252   3.471   0.649   3.445 -0.2552  0.0861  0.1172
 2597SOL    HW119253   3.433   0.561   3.443  0.2720 -0.1719  1.5656
 2597SOL    HW219254   3.428   0.697   3.516 -1.7053  1.2852 -1.5569
 2598SOL     OW19255   4.072   1.357   8.244  0.0705  0.1273  0.2338
 2598SOL    HW119256   4.136   1.344   8.314  0.2118 -1.6439 -0.2112
 2598SOL    HW219257   3.996   1.304   8.267  0.5699 -0.6237  0.1607
 2599SOL     OW19258   3.944   0.032   3.354  0.1688 -0.5729 -0.3131
 2599SOL    HW119259   3.855   0.067   3.345  0.6513  0.6926 -0.1595
 2599SOL    HW219260   3.992   0.060   3.275 -3.1613  0.8078 -1.8510
 2600SOL     OW19261   1.262   3.792   4.010  0.1731 -0.0699 -0.2969
 2600SOL    HW119262   1.226   3.817   4.095  0.2841  1.8698 -0.8284
 2600SOL    HW219263   1.221   3.857   3.953 -0.7169  1.9482  2.6057
 2601SOL     OW19264   3.337   2.559   3.193  0.0954  0.1342 -0.2012
 2601SOL    HW119265   3.386   2.639   3.208 -0.2776  0.6487 -1.7271
 2601SOL    HW219266   3.251   2.598   3.175 -0.0446  0.7148  1.7676
 2602SOL     OW19267   2.167   1.844   6.919 -0.0915 -0.3843 -0.1000
 2602SOL    HW119268   2.261   1.832   6.931  0.2159 -0.2972 -2.4281
 2602SOL    HW219269   2.127   1.852   7.006 -0.6621 -2.9837 -0.1182
 2603SOL     OW19270   0.252   2.184   6.025 -0.2830  0.0025 -0.8103
 2603SOL    HW119271   0.339   2.151   6.001  0.3321 -1.1338  2.9441
 2603SOL    HW219272   0.218   2.213   5.941 -0.8556  0.5042 -0.4074
 2604SOL     OW19273   0.497   4.542  17.223 -0.2459  0.9394 -0.3859
 2604SOL    HW119274   0.486   4.574  17.313 -2.2089  1.2828 -0.7592
 2604SOL    HW219275   0.476   4.450  17.238 -2.5891  1.4379 -0.6818
 2605SOL     OW19276   1.569   4.335   1.469  0.3141  0.5018  0.0016
 2605SOL    HW119277   1.582   4.402   1.401 -1.0217  0.3835 -0.3775
 2605SOL    HW219278   1.654   4.291   1.476  0.3565  0.6672  0.4685
 2606SOL     OW19279   2.297   4.362   4.275 -0.2753 -0.5110  0.4819
 2606SOL    HW119280   2.223   4.411   4.239  0.5692  2.1319  2.3671
 2606SOL    HW219281   2.339   4.317   4.201 -2.7936 -0.2477 -1.1050
 2607SOL     OW19282   4.057   0.345   6.829  0.1900  0.1468 -0.1854
 2607SOL    HW119283   4.123   0.412   6.850 -0.0844  1.1505 -2.4490
 2607SOL    HW219284   3.990   0.356   6.897  0.6973  1.5444  0.1015
 2608SOL     OW19285   0.730   4.656   3.547  0.5142  0.5861 -0.0998
 2608SOL    HW119286   0.645   4.670   3.505 -1.0424 -2.6043  2.0072
 2608SOL    HW219287   0.739   4.563   3.529  0.2819  0.3797  0.8551
 2609SOL     OW19288   1.482   3.820   8.174  0.2151  0.3498  0.1616
 2609SOL    HW119289   1.457   3.803   8.083  0.1426 -0.3703  0.3165
 2609SOL    HW219290   1.483   3.733   8.214  1.7628 -0.7321 -2.1912
 2610SOL     OW19291   1.937   0.727   0.812 -0.0335  0.3199  0.6874
 2610SOL    HW119292   2.029   0.753   0.816 -0.3855  1.5699  0.6954
 2610SOL    HW219293   1.947   0.632   0.821 -1.4741 -0.0675 -1.8701
 2611SOL     OW19294   3.454   4.458  12.246 -0.2236 -0.5781  0.0101
 2611SOL    HW119295   3.442   4.443  12.152  0.6409 -1.1196 -0.0156
 2611SOL    HW219296   3.366   4.486  12.271 -0.3162  0.0653 -1.0712
 2612SOL     OW19297   4.300   2.199   0.406 -0.9887  0.0577  0.1857
 2612SOL    HW119298   4.274   2.255   0.479 -2.4290  0.7832 -0.8903
 2612SOL    HW219299   4.336   2.262   0.343 -0.3572  0.1462  0.6283
 2613SOL     OW19300   2.807   0.376   4.635 -0.1263 -0.0565  0.0815
 2613SOL    HW119301   2.767   0.344   4.553  1.9534 -0.0471 -0.9254
 2613SOL    HW219302   2.896   0.342   4.628 -0.2324  0.1351 -2.3557
 2614SOL     OW19303   0.195   2.993  17.534  0.4204  0.3746 -0.2162
 2614SOL    HW119304   0.159   3.029  17.615  1.3693 -1.5966  1.0880
 2614SOL    HW219305   0.226   2.906  17.559  1.0004  0.4064 -0.8026
 2615SOL     OW19306   2.964   4.383  16.805  0.0053 -0.6906  0.1794
 2615SOL    HW119307   2.965   4.472  16.841  0.4446 -1.0428  1.0364
 2615SOL    HW219308   2.977   4.403  16.713  1.5707  1.2496  0.8154
 2616SOL     OW19309   2.413   3.093  10.423 -0.6740 -0.3716 -0.0084
 2616SOL    HW119310   2.484   3.031  10.405  0.1458  0.7234 -0.5680
 2616SOL    HW219311   2.387   3.134  10.340  2.6381  0.2029 -0.7624
 2617SOL     OW19312   1.494   1.804  14.964 -0.1255  0.1790 -0.5326
 2617SOL    HW119313   1.503   1.842  14.877  3.2228  1.2607  0.3048
 2617SOL    HW219314   1.475   1.711  14.949 -0.1045  0.4172 -2.0375
 2618SOL     OW19315   1.060   4.698   1.911 -0.2129  0.0007  0.8255
 2618SOL    HW119316   0.989   4.634   1.900 -0.0994 -0.1688  1.0880
 2618SOL    HW219317   1.138   4.643   1.906 -0.3806 -0.1778  0.0896
 2619SOL     OW19318   4.160   4.095   9.064 -0.2955  0.8955  0.4091
 2619SOL    HW119319   4.242   4.145   9.065  0.4162 -0.2827  0.5868
 2619SOL    HW219320   4.100   4.145   9.120  0.3431  0.9438  1.0460
 2620SOL     OW19321   2.496   2.613   7.609  0.5994 -0.6161  0.0618
 2620SOL    HW119322   2.553   2.634   7.683 -1.9707  4.1193  0.6955
 2620SOL    HW219323   2.498   2.518   7.600 -3.1061 -0.6542 -0.5354
 2621SOL     OW19324   1.086   2.689   6.640 -0.1885 -0.2870 -0.4103
 2621SOL    HW119325   1.087   2.596   6.617  1.0892 -0.0498 -1.3396
 2621SOL    HW219326   1.046   2.721   6.559 -0.0616  0.4413 -0.1814
 2622SOL     OW19327   2.769   1.297   4.455  0.0093  0.2377 -0.0520
 2622SOL    HW119328   2.775   1.213   4.502  0.9679  0.2101 -0.2440
 2622SOL    HW219329   2.698   1.337   4.507  1.4904  1.3518  1.1030
 2623SOL     OW19330   2.086   2.449  11.553  1.0743 -0.4072  0.4866
 2623SOL    HW119331   2.025   2.379  11.574  1.1631 -0.5050  0.4185
 2623SOL    HW219332   2.132   2.459  11.637  0.5956  2.7409  0.3925
 2624SOL     OW19333   1.490   4.050   6.648  0.3818 -0.0680  0.0725
 2624SOL    HW119334   1.438   4.130   6.637 -1.8049 -1.4751  0.2293
 2624SOL    HW219335   1.423   3.990   6.682  0.4393  0.6407  1.4271
 2625SOL     OW19336   2.477   2.903   7.602 -0.7506 -0.3133 -0.1215
 2625SOL    HW119337   2.476   2.808   7.596 -0.7578 -0.5112  3.0980
 2625SOL    HW219338   2.387   2.924   7.577 -0.8138  2.0666  2.1357
 2626SOL     OW19339   2.834   2.154  14.702 -0.2849 -0.5424 -0.0785
 2626SOL    HW119340   2.868   2.229  14.751  2.0096 -2.3283  1.0771
 2626SOL    HW219341   2.743   2.163  14.731 -1.0668  0.3246 -2.7929
 2627SOL     OW19342   0.936   4.467   2.060 -0.0300  0.0415  0.4663
 2627SOL    HW119343   0.896   4.389   2.097  0.2828  0.5112  1.7727
 2627SOL    HW219344   0.983   4.431   1.984 -3.7340  0.9990 -2.3067
 2628SOL     OW19345   2.362   3.873   4.994 -0.1125  0.8783  0.0714
 2628SOL    HW119346   2.444   3.880   4.944  1.2379 -1.4724  1.9506
 2628SOL    HW219347   2.310   3.950   4.972  1.4769  2.4788  2.0074
 2629SOL     OW19348   1.213   2.394   3.739  0.6640 -0.1838 -0.1529
 2629SOL    HW119349   1.180   2.481   3.760 -2.1468 -1.1709 -0.4131
 2629SOL    HW219350   1.241   2.374   3.828 -3.0399 -1.8579  0.6656
 2630SOL     OW19351   2.992   2.397   7.473  0.2139  0.3515  0.0013
 2630SOL    HW119352   3.000   2.405   7.378  1.6082 -1.2133 -0.0079
 2630SOL    HW219353   3.070   2.442   7.505  0.6810  0.1132 -0.8036
 2631SOL     OW19354   3.724   1.721   8.182 -0.4147  0.1066  0.1088
 2631SOL    HW119355   3.776   1.736   8.103  0.7628 -2.1762  0.4682
 2631SOL    HW219356   3.638   1.754   8.155  0.1451  0.8702 -0.7295
 2632SOL     OW19357   2.717   0.388   8.127 -0.4098 -0.1634  0.1800
 2632SOL    HW119358   2.694   0.308   8.080 -0.3815 -0.3358  0.4560
 2632SOL    HW219359   2.810   0.371   8.144 -0.6955 -1.1728  0.7915
 2633SOL     OW19360   1.130   1.067   5.344 -0.2263  0.0448 -0.5243
 2633SOL    HW119361   1.178   1.127   5.287 -0.9132  0.2297 -0.9011
 2633SOL    HW219362   1.199   1.041   5.405 -0.7440 -0.5508 -0.1903
 2634SOL     OW19363   0.324   3.719  14.453  0.2849 -1.2807  0.3557
 2634SOL    HW119364   0.303   3.736  14.545  0.6872  0.3486  0.1346
 2634SOL    HW219365   0.241   3.737  14.410  0.3385  1.9382  1.6366
 2635SOL     OW19366   1.068   3.997   3.284 -0.1969  0.2917 -0.7687
 2635SOL    HW119367   1.043   4.085   3.313  3.9420  1.1800  0.0331
 2635SOL    HW219368   0.978   3.968   3.303 -0.7779  2.0198 -0.8868
 2636SOL     OW19369   0.479   4.467   2.211 -0.0695  0.0248  0.5549
 2636SOL    HW119370   0.465   4.413   2.290 -1.7293 -0.4075 -0.0389
 2636SOL    HW219371   0.563   4.500   2.242 -0.7623  1.6822  0.6325
 2637SOL     OW19372   0.186   2.807  11.740 -0.0003  0.3566  0.4264
 2637SOL    HW119373   0.141   2.891  11.726 -0.1408 -0.1318 -1.9516
 2637SOL    HW219374   0.150   2.754  11.669  2.4005 -0.0732 -0.4694
 2638SOL     OW19375   1.254   2.226   5.727  0.2365 -0.2841 -0.0389
 2638SOL    HW119376   1.325   2.281   5.692 -1.2447  1.5471 -0.1751
 2638SOL    HW219377   1.292   2.177   5.800  1.5796  1.9490  0.7600
 2639SOL     OW19378   2.531   3.154   1.662 -0.1444 -0.5699 -0.6774
 2639SOL    HW119379   2.459   3.104   1.626  0.8924 -2.0379 -0.7098
 2639SOL    HW219380   2.602   3.090   1.670 -0.9492 -1.2388  1.0131
 2640SOL     OW19381   2.266   3.171   1.253  0.5475 -0.8207 -0.5668
 2640SOL    HW119382   2.220   3.105   1.201  0.9583  0.1147 -2.1426
 2640SOL    HW219383   2.225   3.251   1.220 -0.4083 -1.4427 -0.8919
 2641SOL     OW19384   4.124   4.656  16.747 -1.2115  0.3793  0.0111
 2641SOL    HW119385   4.160   4.573  16.778  0.2783  1.0193 -0.0089
 2641SOL    HW219386   4.067   4.689  16.816 -0.8036  1.3262 -0.1132
 2642SOL     OW19387   1.914   2.167  12.240  0.1930 -0.4008  0.0186
 2642SOL    HW119388   1.955   2.111  12.305  0.0751  2.3275  2.4297
 2642SOL    HW219389   1.965   2.247  12.255  0.1998 -0.4742  0.3733
 2643SOL     OW19390   3.806   0.427   5.943 -0.4027 -0.5439  0.2969
 2643SOL    HW119391   3.808   0.522   5.930  0.5174 -0.6968 -0.7021
 2643SOL    HW219392   3.882   0.400   5.891  0.5528  2.1197  0.2948
 2644SOL     OW19393   4.005   2.916   2.379  0.4370  0.0564  0.5925
 2644SOL    HW119394   4.007   2.997   2.430 -2.1977  1.8026 -2.1480
 2644SOL    HW219395   4.038   2.945   2.295 -1.9084 -0.0891 -0.3793
 2645SOL     OW19396   3.199   0.786  14.737  1.2383 -0.2110 -0.1939
 2645SOL    HW119397   3.204   0.810  14.830  0.4167 -0.3305 -0.1175
 2645SOL    HW219398   3.110   0.818  14.723  0.4927 -1.3529  1.8540
 2646SOL     OW19399   3.873   2.080   3.638 -0.0875  0.2843 -0.3810
 2646SOL    HW119400   3.854   2.058   3.547 -1.7151  2.8514 -0.6733
 2646SOL    HW219401   3.822   2.015   3.687  0.4108  0.4996  0.4079
 2647SOL     OW19402   0.795   1.397   8.748 -0.3231 -0.5842  0.3878
 2647SOL    HW119403   0.853   1.330   8.711 -0.0416  0.4186 -0.9797
 2647SOL    HW219404   0.851   1.471   8.724 -2.2238  0.5547 -0.5557
 2648SOL     OW19405   3.498   0.169   9.699  0.3092  0.3287 -0.1395
 2648SOL    HW119406   3.481   0.104   9.631  1.9430  2.7272 -2.8974
 2648SOL    HW219407   3.540   0.233   9.641  1.0106  0.5736  0.6432
 2649SOL     OW19408   3.668   4.396   6.139  0.2366  0.4733 -0.1901
 2649SOL    HW119409   3.734   4.357   6.082  1.3641  3.4053 -0.9031
 2649SOL    HW219410   3.587   4.369   6.095  0.7740 -1.2925 -0.0714
 2650SOL     OW19411   4.532   2.055   5.781  0.7157 -1.0979  0.6809
 2650SOL    HW119412   4.448   2.064   5.737  0.7944 -1.0147  0.5459
 2650SOL    HW219413   4.511   2.075   5.872  0.5741 -1.0569  0.6386
 2651SOL     OW19414   0.625   3.412   3.346  0.1994 -0.1728  0.2096
 2651SOL    HW119415   0.707   3.381   3.306  0.2179  0.9665 -0.6674
 2651SOL    HW219416   0.581   3.333   3.376 -0.9730  0.7854  1.0012
 2652SOL     OW19417   0.039   4.484   4.724  0.6647 -0.4720  0.1565
 2652SOL    HW119418   0.133   4.482   4.705  0.5278 -0.0709 -0.5426
 2652SOL    HW219419   0.004   4.450   4.642  0.9177  0.7737 -0.4578
 2653SOL     OW19420   0.429   1.715   1.898  0.4487 -0.1177 -0.1944
 2653SOL    HW119421   0.344   1.753   1.876 -0.1124 -0.0356  2.0342
 2653SOL    HW219422   0.468   1.698   1.813  0.1706  0.4270 -0.4317
 2654SOL     OW19423   2.088   0.571   3.223  0.0111 -0.7737  0.2190
 2654SOL    HW119424   1.994   0.554   3.224 -0.5649  2.4066 -0.0448
 2654SOL    HW219425   2.079   0.662   3.251  2.8063 -0.6669  0.7698
 2655SOL     OW19426   4.668   3.328   5.261  0.0698  0.2619  0.4699
 2655SOL    HW119427   4.626   3.385   5.326 -0.8613 -1.2723  1.1913
 2655SOL    HW219428   0.036   3.354   5.259  0.0436  0.3146 -0.2181
 2656SOL     OW19429   4.154   0.011   9.328 -0.1682  0.4543 -0.2343
 2656SOL    HW119430   4.114   4.668   9.383 -1.2789  1.7434  0.5123
 2656SOL    HW219431   4.108   0.013   9.244  0.6849  0.4608 -0.7061
 2657SOL     OW19432   1.529   4.386   7.442  0.5187  0.1617  0.3623
 2657SOL    HW119433   1.557   4.323   7.508  1.8229 -1.0954 -1.4288
 2657SOL    HW219434   1.581   4.367   7.365 -0.7167 -0.8472 -0.2232
 2658SOL     OW19435   2.583   0.556  13.740  0.2006  0.2862  0.3681
 2658SOL    HW119436   2.533   0.572  13.660  0.6728  2.4622  0.5250
 2658SOL    HW219437   2.533   0.480  13.771 -0.8682 -0.0584 -2.2080
 2659SOL     OW19438   3.991   0.500  14.336  0.1332  0.1668  0.6407
 2659SOL    HW119439   3.940   0.419  14.331 -0.6002  0.5366  2.2999
 2659SOL    HW219440   3.970   0.542  14.419  3.2477  0.5364  1.2418
 2660SOL     OW19441   3.382   2.470   3.462 -0.2890  0.0548  0.5994
 2660SOL    HW119442   3.366   2.506   3.375  0.7179 -0.3519  0.2431
 2660SOL    HW219443   3.342   2.384   3.446 -0.7118 -0.0623  2.2526
 2661SOL     OW19444   2.834   0.301  10.662  0.3796 -0.6642  0.7670
 2661SOL    HW119445   2.860   0.351  10.585 -0.6648  0.5674  1.2088
 2661SOL    HW219446   2.896   0.229  10.669 -0.0487 -1.1758 -0.6852
 2662SOL     OW19447   1.255   1.016   5.628 -0.2505 -0.2673  0.3570
 2662SOL    HW119448   1.324   0.955   5.655 -0.2852 -1.1868 -1.6282
 2662SOL    HW219449   1.274   1.100   5.669  1.5849 -1.1214  1.2888
 2663SOL     OW19450   4.718   3.933   1.773 -0.2999  0.4513  0.2366
 2663SOL    HW119451   0.088   3.922   1.761 -0.1172  0.0919  1.9376
 2663SOL    HW219452   4.718   3.924   1.869  1.4599  0.8239  0.2641
 2664SOL     OW19453   1.258   0.321  17.101  0.4738 -0.2472 -0.0085
 2664SOL    HW119454   1.258   0.341  17.195 -0.6067 -0.7353  0.0969
 2664SOL    HW219455   1.328   0.373  17.062 -0.1298 -1.2444 -2.3922
 2665SOL     OW19456   1.380   4.394   5.460 -0.0250 -0.2825  0.1600
 2665SOL    HW119457   1.309   4.425   5.516 -0.9665 -1.1897 -0.5491
 2665SOL    HW219458   1.399   4.471   5.405  2.9713  0.0767  1.6699
 2666SOL     OW19459   0.964   1.493   5.919  0.1309  0.1862 -0.1066
 2666SOL    HW119460   0.923   1.499   5.832  0.9603 -0.1072 -0.5206
 2666SOL    HW219461   0.978   1.584   5.944  0.6647 -0.8032  3.1678
 2667SOL     OW19462   1.631   1.815   0.458 -0.8125  0.3847  0.2309
 2667SOL    HW119463   1.659   1.841   0.546 -3.2955  1.3840  0.7278
 2667SOL    HW219464   1.685   1.737   0.448 -2.2750 -0.3914 -1.6287
 2668SOL     OW19465   2.302   3.799   7.404  0.7174  0.0634  0.4251
 2668SOL    HW119466   2.310   3.873   7.465 -0.1510  1.1870 -0.8232
 2668SOL    HW219467   2.388   3.778   7.368  0.4135 -1.9509  0.8660
 2669SOL     OW19468   1.888   3.854   6.102  0.0887 -0.0235  0.0685
 2669SOL    HW119469   1.941   3.924   6.139 -0.4157  0.7185 -0.6193
 2669SOL    HW219470   1.806   3.903   6.102  0.3414  0.4245  1.8926
 2670SOL     OW19471   0.839   0.014  12.760 -0.2590 -0.0058 -0.2083
 2670SOL    HW119472   0.873   0.094  12.802  0.3935 -0.8452  0.8593
 2670SOL    HW219473   0.923   4.695  12.745  0.0339  1.7289 -3.4245
 2671SOL     OW19474   1.104   3.013   5.998 -0.2524  0.4793 -0.1915
 2671SOL    HW119475   1.035   2.949   6.014  0.5679 -0.1721  0.7286
 2671SOL    HW219476   1.174   2.971   5.947  0.0300 -0.8139  1.2435
 2672SOL     OW19477   0.611   2.595   1.427 -0.2234  0.7543 -0.3538
 2672SOL    HW119478   0.550   2.654   1.383 -1.5847 -0.4393 -0.0712
 2672SOL    HW219479   0.560   2.594   1.508  0.0571 -2.1672 -0.1983
 2673SOL     OW19480   4.365   1.061   5.177 -0.6674  0.5447 -0.3179
 2673SOL    HW119481   4.444   1.037   5.129 -0.8037 -1.3145  0.4042
 2673SOL    HW219482   4.310   0.984   5.164  1.1938 -0.7546 -0.5133
 2674SOL     OW19483   1.375   4.168  11.339 -0.0591 -0.1008  0.4642
 2674SOL    HW119484   1.300   4.174  11.398  0.3279  2.7380  0.6573
 2674SOL    HW219485   1.332   4.136  11.259  0.0461  0.6549  0.1041
 2675SOL     OW19486   2.647   3.248   6.697 -0.2508  0.4706 -0.0873
 2675SOL    HW119487   2.707   3.271   6.768  1.6257  0.8252 -1.8053
 2675SOL    HW219488   2.666   3.309   6.626  1.7516  1.2206  1.0719
 2676SOL     OW19489   2.249   3.951   2.689  0.3778 -0.2829 -0.5405
 2676SOL    HW119490   2.253   4.046   2.690  0.9053 -0.3097  1.7520
 2676SOL    HW219491   2.216   3.942   2.600  1.8919  2.1483 -1.3508
 2677SOL     OW19492   3.925   3.066  13.179  0.3437 -0.3029  0.2159
 2677SOL    HW119493   3.937   3.140  13.239  0.2666  0.3192 -0.5271
 2677SOL    HW219494   4.017   3.061  13.154  0.5522  1.9600  0.5191
 2678SOL     OW19495   3.571   3.586   7.770 -0.1859  0.6031  0.6067
 2678SOL    HW119496   3.604   3.508   7.814 -2.0997  0.5102  1.8811
 2678SOL    HW219497   3.477   3.574   7.757 -0.0774 -0.8441  1.2413
 2679SOL     OW19498   0.050   0.335   0.245 -0.1628 -0.4333 -0.3085
 2679SOL    HW119499   0.106   0.378   0.181  0.5025 -2.0477 -0.8265
 2679SOL    HW219500   0.046   0.393   0.321 -1.4206 -0.6352 -0.2221
 2680SOL     OW19501   2.404   1.733   4.062  1.1690 -0.4246  0.0370
 2680SOL    HW119502   2.324   1.681   4.064 -0.0632  1.4350 -0.7338
 2680SOL    HW219503   2.360   1.816   4.080  1.0783  0.0935 -2.4738
 2681SOL     OW19504   1.661   2.502   3.586  0.3724  0.0653  0.2138
 2681SOL    HW119505   1.600   2.564   3.546 -0.6505 -0.9882  0.1170
 2681SOL    HW219506   1.640   2.501   3.680  0.6489 -1.4512  0.2608
 2682SOL     OW19507   3.157   2.898   4.948  1.0115 -0.2547  0.5686
 2682SOL    HW119508   3.158   2.989   4.977  0.2327  0.1616 -0.7151
 2682SOL    HW219509   3.118   2.898   4.861  0.9791 -1.1670  0.5793
 2683SOL     OW19510   1.780   0.126  15.140 -0.5035 -0.0272 -0.4565
 2683SOL    HW119511   1.754   0.036  15.160 -0.1253 -0.3985 -1.6312
 2683SOL    HW219512   1.873   0.111  15.156 -0.6567 -0.4068  0.0819
 2684SOL     OW19513   4.036   1.167  17.353 -0.3186  0.5084 -0.2654
 2684SOL    HW119514   4.071   1.133  17.435  3.2777  5.5418  0.2841
 2684SOL    HW219515   4.052   1.089  17.301 -1.4980  0.5182 -0.6469
 2685SOL     OW19516   2.213   1.263  16.543  0.3847  0.2452  0.2613
 2685SOL    HW119517   2.191   1.203  16.472 -0.4409 -0.7462  1.3451
 2685SOL    HW219518   2.214   1.204  16.619  1.4594 -2.0744 -1.5424
 2686SOL     OW19519   1.427   1.905  15.210  0.0053  0.5764  0.0800
 2686SOL    HW119520   1.335   1.879  15.208  0.1729 -0.0001 -0.1269
 2686SOL    HW219521   1.451   1.870  15.125  2.2815  2.8098 -0.1940
 2687SOL     OW19522   3.566   1.105   8.747 -0.1406 -0.4491 -0.4909
 2687SOL    HW119523   3.542   1.121   8.655 -0.6017 -0.5579 -0.3926
 2687SOL    HW219524   3.594   1.194   8.767 -0.2454 -0.8407  1.4477
 2688SOL     OW19525   2.006   1.260  11.264  0.3888  0.2332 -0.2788
 2688SOL    HW119526   1.968   1.180  11.227 -1.5136  1.6379 -1.3463
 2688SOL    HW219527   2.013   1.323  11.193 -1.9148 -0.1421 -0.8350
 2689SOL     OW19528   2.944   0.771   4.329 -0.4873 -0.2674  0.2770
 2689SOL    HW119529   2.917   0.707   4.263  1.9394 -1.5193  0.4716
 2689SOL    HW219530   2.861   0.779   4.376 -0.1396  0.3139  0.8029
 2690SOL     OW19531   2.352   0.708   2.756 -0.1631 -0.6726 -0.3070
 2690SOL    HW119532   2.417   0.715   2.826 -1.2983 -0.5031  0.7294
 2690SOL    HW219533   2.276   0.736   2.807  0.8592  2.8676 -0.7055
 2691SOL     OW19534   4.066   3.930  16.136  0.7748 -0.5250 -0.5592
 2691SOL    HW119535   4.110   3.974  16.208  1.3348  1.6688 -2.2617
 2691SOL    HW219536   3.981   3.916  16.178 -0.3836  1.0133 -2.4010
 2692SOL     OW19537   0.388   1.611   2.564 -0.1273 -0.2995  0.1512
 2692SOL    HW119538   0.301   1.573   2.562  0.3496 -1.3899  0.4554
 2692SOL    HW219539   0.417   1.586   2.651 -0.5159 -3.4525 -0.6458
 2693SOL     OW19540   4.664   0.395   2.381  0.2020 -0.1073  0.4774
 2693SOL    HW119541   4.590   0.391   2.441  0.9909  1.3091  1.5544
 2693SOL    HW219542   0.000   0.445   2.436  0.7208 -0.2135  0.0019
 2694SOL     OW19543   0.072   0.729   2.718  0.4082  0.5822  0.4603
 2694SOL    HW119544   0.094   0.692   2.804  1.3164  3.1387  1.3339
 2694SOL    HW219545   0.119   0.812   2.724  0.1773  0.7919 -0.5911
 2695SOL     OW19546   4.076   3.128   4.708 -0.3450  0.2206 -0.6171
 2695SOL    HW119547   4.140   3.082   4.762 -0.7860  0.8479  0.4298
 2695SOL    HW219548   4.031   3.190   4.765  1.7944  2.6695 -1.5604
 2696SOL     OW19549   2.039   2.435   1.543  0.1128  0.2126 -0.1189
 2696SOL    HW119550   2.105   2.469   1.483  1.3157  0.3037  1.2364
 2696SOL    HW219551   1.966   2.486   1.510  0.1134  1.3512  1.6251
 2697SOL     OW19552   0.885   3.677   2.120 -0.3279  0.0715  0.1896
 2697SOL    HW119553   0.835   3.675   2.038 -0.0365 -0.0715  0.0154
 2697SOL    HW219554   0.847   3.608   2.174 -0.0802 -0.5403 -0.4221
 2698SOL     OW19555   1.640   2.651   2.558 -0.3926 -0.4075  0.1019
 2698SOL    HW119556   1.657   2.723   2.497  1.6693 -0.6767  0.3561
 2698SOL    HW219557   1.719   2.598   2.549 -0.7980 -1.6016  3.5087
 2699SOL     OW19558   4.126   1.651   4.656  0.0192 -0.4238  0.2274
 2699SOL    HW119559   4.131   1.742   4.630 -1.9713 -0.8042 -1.4176
 2699SOL    HW219560   4.212   1.615   4.634 -0.2512 -1.2905  0.5857
 2700SOL     OW19561   2.754   4.167   9.945 -1.3859 -0.0941 -0.1193
 2700SOL    HW119562   2.834   4.161   9.998 -0.0644 -1.3865 -2.2746
 2700SOL    HW219563   2.703   4.234   9.991 -0.8031  0.6650 -0.5857
 2701SOL     OW19564   1.986   2.501   7.419  0.5002 -0.0594  0.1682
 2701SOL    HW119565   2.049   2.453   7.473  0.3103  0.6844  1.0500
 2701SOL    HW219566   2.042   2.578   7.409  0.3077  0.1767  0.8963
 2702SOL     OW19567   4.058   0.561  10.660  0.3390 -0.1503 -0.0274
 2702SOL    HW119568   4.135   0.512  10.688 -0.1664 -1.3481 -0.7098
 2702SOL    HW219569   4.018   0.594  10.740 -1.8784 -1.5549 -0.5314
 2703SOL     OW19570   1.260   0.347   3.708  0.1898 -0.7910 -0.3856
 2703SOL    HW119571   1.341   0.296   3.706 -0.1137 -1.3056  0.4188
 2703SOL    HW219572   1.282   0.423   3.762  1.5661 -0.6340 -1.1779
 2704SOL     OW19573   3.001   1.519   9.009 -0.0856 -0.2782  0.2150
 2704SOL    HW119574   3.055   1.451   9.050 -0.4400  0.1914  1.4605
 2704SOL    HW219575   2.999   1.484   8.920 -1.0955 -1.1873  0.6004
 2705SOL     OW19576   0.448   0.757   1.911 -0.2552 -0.8424  0.1667
 2705SOL    HW119577   0.444   0.796   1.824 -1.7416  2.0639  1.5657
 2705SOL    HW219578   0.386   0.686   1.893 -0.5511 -1.2383  2.7639
 2706SOL     OW19579   0.271   3.904   1.708  0.2890  0.2971  0.1457
 2706SOL    HW119580   0.272   3.925   1.615  1.3154 -1.7252 -0.3000
 2706SOL    HW219581   0.316   3.978   1.748  0.6608 -0.6507  1.5110
 2707SOL     OW19582   4.245   3.841   4.013  0.2562  0.4928 -0.0957
 2707SOL    HW119583   4.219   3.838   4.105 -0.7973 -1.2036 -0.4520
 2707SOL    HW219584   4.170   3.792   3.979  0.4111  0.2756 -0.1243
 2708SOL     OW19585   1.764   3.467  10.525 -0.3269  0.3303  0.5066
 2708SOL    HW119586   1.734   3.415  10.600 -2.5492  0.5429 -0.2567
 2708SOL    HW219587   1.855   3.464  10.554 -0.4312 -0.0194  0.7995
 2709SOL     OW19588   2.920   0.380   2.373  0.2249 -0.2463  0.2219
 2709SOL    HW119589   2.904   0.450   2.310  1.5517 -0.7822 -0.7205
 2709SOL    HW219590   3.002   0.419   2.403  0.1222 -0.9159  1.3711
 2710SOL     OW19591   2.538   2.793   8.600  0.2557 -0.1852  0.2372
 2710SOL    HW119592   2.482   2.728   8.557  0.3331  1.0430 -1.7106
 2710SOL    HW219593   2.473   2.830   8.660  1.0478  1.3968  0.1316
 2711SOL     OW19594   1.665   3.563   1.274 -0.4783 -0.1514  0.5437
 2711SOL    HW119595   1.700   3.586   1.188 -0.1889 -0.4337  0.5859
 2711SOL    HW219596   1.572   3.583   1.262 -0.3324  0.1016 -0.2026
 2712SOL     OW19597   0.567   0.616   8.584 -0.0675 -0.3658  0.2758
 2712SOL    HW119598   0.621   0.623   8.662  0.0020 -0.3626  0.2274
 2712SOL    HW219599   0.553   0.522   8.567  0.0694 -0.4458  0.6067
 2713SOL     OW19600   2.581   4.437   2.887 -0.3154 -0.1939  0.6232
 2713SOL    HW119601   2.488   4.424   2.870  0.0184 -0.8132 -0.7529
 2713SOL    HW219602   2.579   4.491   2.966  0.5016 -1.3839  1.4462
 2714SOL     OW19603   3.077   4.122   5.044 -1.0030 -0.9212  0.1203
 2714SOL    HW119604   2.996   4.172   5.053 -0.6119 -0.3298  0.3591
 2714SOL    HW219605   3.066   4.119   4.949  0.0981 -1.2444  0.0089
 2715SOL     OW19606   0.244   4.447   7.749 -0.1032  0.2254  0.1129
 2715SOL    HW119607   0.339   4.454   7.737 -0.2480  3.4791  0.9473
 2715SOL    HW219608   0.229   4.404   7.833 -0.8780 -2.6965 -1.5069
 2716SOL     OW19609   3.977   4.149  14.003 -0.1153 -0.5531 -0.3997
 2716SOL    HW119610   3.904   4.120  13.948  0.3922 -1.6907 -0.4751
 2716SOL    HW219611   3.987   4.241  13.978 -1.0804 -0.5708 -0.8540
 2717SOL     OW19612   0.570   1.398   4.862 -0.2011  0.0293 -0.3341
 2717SOL    HW119613   0.630   1.439   4.800  2.2004  0.0249  2.0013
 2717SOL    HW219614   0.568   1.309   4.827 -1.2588 -0.5688  1.2517
 2718SOL     OW19615   2.990   1.684   4.359  0.4748 -0.6455  0.1657
 2718SOL    HW119616   2.949   1.637   4.431 -0.9836  0.1073 -0.1758
 2718SOL    HW219617   3.083   1.688   4.381  0.5478 -1.3462 -0.0291
 2719SOL     OW19618   0.655   2.752  14.804  0.5841  0.1044 -0.6156
 2719SOL    HW119619   0.569   2.794  14.814  0.5966 -0.3267  1.4288
 2719SOL    HW219620   0.627   2.663  14.781  0.5886 -0.1470  0.3417
 2720SOL     OW19621   0.608   1.016  10.472  0.1388 -0.5744  0.4234
 2720SOL    HW119622   0.595   1.016  10.567  0.0698  1.3836  0.4209
 2720SOL    HW219623   0.560   1.094  10.443 -0.6493 -2.0713 -2.3946
 2721SOL     OW19624   2.661   2.862   8.124 -0.4450 -0.2070 -0.2379
 2721SOL    HW119625   2.626   2.948   8.148 -0.6156 -0.1522 -0.6673
 2721SOL    HW219626   2.751   2.872   8.154 -0.2408  0.1289 -0.9501
 2722SOL     OW19627   2.980   0.839   4.779  0.0080 -0.2407 -0.2131
 2722SOL    HW119628   2.890   0.812   4.757 -0.8867  1.2572  1.6661
 2722SOL    HW219629   3.020   0.828   4.693 -1.5546 -2.3953 -0.6964
 2723SOL     OW19630   0.317   4.410   0.078 -0.1119 -0.2371 -0.2188
 2723SOL    HW119631   0.353   4.498   0.090  1.0006 -0.6652 -0.4527
 2723SOL    HW219632   0.223   4.424   0.067  0.1228  0.3104 -1.4778
 2724SOL     OW19633   2.745   4.342   2.684 -0.5265 -0.0733 -0.0435
 2724SOL    HW119634   2.674   4.291   2.644  2.1324 -2.9422 -1.0773
 2724SOL    HW219635   2.697   4.400   2.743  0.0767  1.2491 -0.8570
 2725SOL     OW19636   2.142   1.750   4.117  0.6238 -0.3759 -0.4548
 2725SOL    HW119637   2.061   1.699   4.111  0.2782 -0.0379  1.6212
 2725SOL    HW219638   2.122   1.836   4.080  1.4607 -0.8521 -2.0336
 2726SOL     OW19639   4.128   4.336  12.630 -0.0577 -0.7512  0.2096
 2726SOL    HW119640   4.111   4.423  12.595 -0.5776 -1.1907 -0.6383
 2726SOL    HW219641   4.061   4.283  12.585  0.2766 -0.9779 -0.0200
 2727SOL     OW19642   4.238   1.130   4.638  0.0365 -0.1754 -0.3671
 2727SOL    HW119643   4.277   1.181   4.567 -0.9442  0.9191 -0.1174
 2727SOL    HW219644   4.160   1.179   4.666  1.1943  0.7519  1.2123
 2728SOL     OW19645   3.794   2.161   8.856 -0.2827  0.0925 -0.0122
 2728SOL    HW119646   3.852   2.227   8.894  0.2297 -1.0369  1.1550
 2728SOL    HW219647   3.759   2.132   8.940 -2.6704  1.3465 -0.5572
 2729SOL     OW19648   0.791   0.783   6.122 -0.4832  0.0348 -0.0053
 2729SOL    HW119649   0.740   0.795   6.202 -1.0727 -1.4816 -0.1494
 2729SOL    HW219650   0.852   0.856   6.110 -2.4948  1.9003  1.1009
 2730SOL     OW19651   3.635   1.270   7.417 -0.3031 -0.7399  0.2324
 2730SOL    HW119652   3.642   1.267   7.513 -2.2265 -1.4664  0.3518
 2730SOL    HW219653   3.539   1.272   7.416 -0.3034 -2.3211 -1.0574
 2731SOL     OW19654   4.444   0.452   3.274 -0.7770  0.5691 -0.3386
 2731SOL    HW119655   4.425   0.358   3.265  0.0826  0.2759  0.9109
 2731SOL    HW219656   4.355   0.486   3.286 -1.6889 -2.5068  1.7068
 2732SOL     OW19657   1.781   2.704   0.104 -0.2434  0.2733  0.2439
 2732SOL    HW119658   1.730   2.674   0.029  0.0550  0.0925  0.1129
 2732SOL    HW219659   1.830   2.774   0.061  1.3613 -0.7059  0.4670
 2733SOL     OW19660   3.828   0.260   8.895 -0.0884  0.1378 -0.6789
 2733SOL    HW119661   3.843   0.300   8.981 -0.0427  0.2436 -0.7350
 2733SOL    HW219662   3.910   0.213   8.883  1.2166  1.8679  1.3994
 2734SOL     OW19663   1.262   1.880   5.876 -0.0701  0.0322 -0.1524
 2734SOL    HW119664   1.278   1.974   5.885  0.7880  0.0124 -1.3752
 2734SOL    HW219665   1.323   1.852   5.807  0.3260  3.6358 -1.2726
 2735SOL     OW19666   0.995   1.687   1.152  0.0233 -0.4799  0.2535
 2735SOL    HW119667   0.950   1.604   1.164 -1.2237  0.0945 -0.4209
 2735SOL    HW219668   1.026   1.695   1.061  0.9715 -1.1220  0.5241
 2736SOL     OW19669   4.102   4.665   2.222  0.1098  0.3123  0.1590
 2736SOL    HW119670   4.070   4.723   2.153  1.4636 -1.4012 -1.9243
 2736SOL    HW219671   4.087   4.581   2.180  1.5127  0.9064 -1.5711
 2737SOL     OW19672   4.571   2.406  16.397 -0.8401 -0.3527  0.0748
 2737SOL    HW119673   4.536   2.350  16.328 -0.4215 -0.5225  0.0008
 2737SOL    HW219674   4.516   2.483  16.381  0.1632  0.7503  1.8319
 2738SOL     OW19675   0.845   4.131  13.711 -0.1099  0.4702 -0.6363
 2738SOL    HW119676   0.873   4.172  13.629  1.1207  0.2882 -0.3052
 2738SOL    HW219677   0.768   4.080  13.687 -0.5587  0.5061  0.7273
 2739SOL     OW19678   0.451   3.877   5.179 -0.5844 -0.2760 -0.3154
 2739SOL    HW119679   0.384   3.838   5.123 -1.5653  2.7094 -1.1887
 2739SOL    HW219680   0.491   3.930   5.110 -1.4777 -0.0245 -0.6360
 2740SOL     OW19681   3.571   1.647  15.124 -0.0328 -0.3389  0.4854
 2740SOL    HW119682   3.521   1.595  15.061 -1.4890  1.5065  0.1116
 2740SOL    HW219683   3.660   1.613  15.118  0.1967  0.7885 -2.4155
 2741SOL     OW19684   3.348   0.498  13.325 -0.4074  0.1117  0.4345
 2741SOL    HW119685   3.306   0.584  13.318 -0.1921  0.2685  1.1468
 2741SOL    HW219686   3.336   0.453  13.241 -2.0144 -0.6107  1.0384
 2742SOL     OW19687   1.654   2.901   3.027 -0.2890  0.7119  0.0402
 2742SOL    HW119688   1.676   2.819   2.983  0.1203  1.8547 -1.8641
 2742SOL    HW219689   1.561   2.911   3.009  0.0968  1.8631 -1.2341
 2743SOL     OW19690   4.170   2.079   0.202  0.5733  0.9695  0.0790
 2743SOL    HW119691   4.214   2.125   0.273  0.6540  1.7203 -0.4539
 2743SOL    HW219692   4.123   2.004   0.239  0.4332 -0.1420 -2.3437
 2744SOL     OW19693   0.024   2.202   2.346  0.1081  1.1490  0.4914
 2744SOL    HW119694   0.012   2.297   2.337 -1.0168  0.7548 -2.1950
 2744SOL    HW219695   4.706   2.185   2.430 -0.4668 -2.0914 -0.4261
 2745SOL     OW19696   1.845   4.603   5.397  0.6910 -0.1010 -0.1170
 2745SOL    HW119697   1.840   4.508   5.405 -0.9254 -0.0230 -0.1412
 2745SOL    HW219698   1.940   4.610   5.402  0.5834 -0.5267  2.6060
 2746SOL     OW19699   1.946   1.831   5.413 -0.1026  0.1704  0.0527
 2746SOL    HW119700   1.993   1.762   5.459  0.8535 -0.2486 -1.5294
 2746SOL    HW219701   1.871   1.846   5.470  0.2916 -0.6525  0.7862
 2747SOL     OW19702   4.389   0.410  10.202 -0.1325 -0.7589 -0.1602
 2747SOL    HW119703   4.438   0.379  10.278  1.2637 -0.0262 -0.7647
 2747SOL    HW219704   4.300   0.417  10.237 -0.0931 -0.7577 -0.0604
 2748SOL     OW19705   3.217   3.774   7.260 -0.0057 -0.0231 -0.1716
 2748SOL    HW119706   3.294   3.765   7.203  0.7677  0.4702  0.8009
 2748SOL    HW219707   3.224   3.863   7.293 -1.7584  0.6863 -1.7163
 2749SOL     OW19708   3.712   2.132  17.547  0.1661  0.0275 -0.6000
 2749SOL    HW119709   3.726   2.057  17.605  0.3838  1.1992  0.8698
 2749SOL    HW219710   3.804   2.148  17.524  0.1016  0.1463 -0.7747
 2750SOL     OW19711   0.729   0.907   1.114  0.0722  0.0093 -0.0192
 2750SOL    HW119712   0.759   0.838   1.055  1.7214 -0.8199  1.8038
 2750SOL    HW219713   0.691   0.977   1.061  1.9877 -0.9384 -2.6442
 2751SOL     OW19714   1.066   1.591   5.429 -0.4818  0.6111 -0.3476
 2751SOL    HW119715   1.159   1.588   5.451 -1.1978 -1.9274  2.2085
 2751SOL    HW219716   1.026   1.621   5.510  0.4158 -0.2498  0.4055
 2752SOL     OW19717   3.992   1.927  14.329 -0.0322 -0.5605  0.1954
 2752SOL    HW119718   3.917   1.939  14.270  0.4248  0.7923 -0.1211
 2752SOL    HW219719   4.002   1.832  14.333  1.9411 -0.2166  2.8987
 2753SOL     OW19720   2.135   2.209   7.842  0.2745  0.2138  0.0116
 2753SOL    HW119721   2.230   2.223   7.840  0.2384  0.3157 -1.0193
 2753SOL    HW219722   2.110   2.289   7.888 -0.6197 -0.3133  0.4214
 2754SOL     OW19723   2.371   2.718   7.259  0.0228 -0.0821 -0.1046
 2754SOL    HW119724   2.397   2.699   7.169 -1.4385  1.8350 -0.9402
 2754SOL    HW219725   2.459   2.719   7.295 -0.3496  2.2463  0.7120
 2755SOL     OW19726   2.764   0.513   7.762 -0.1429  0.5360  0.3919
 2755SOL    HW119727   2.721   0.464   7.832 -2.1743  0.5136 -0.8936
 2755SOL    HW219728   2.704   0.509   7.688  0.8978  0.5199 -0.4616
 2756SOL     OW19729   4.610   1.365   3.470 -0.2824  0.1131 -0.4857
 2756SOL    HW119730   4.636   1.338   3.382 -3.2143  0.7125 -1.5310
 2756SOL    HW219731   4.675   1.322   3.525 -0.9285 -0.0079  0.1806
 2757SOL     OW19732   1.292   2.339   7.159 -0.3669  0.0612 -0.2831
 2757SOL    HW119733   1.335   2.268   7.206 -0.1020 -0.9997 -2.1425
 2757SOL    HW219734   1.222   2.290   7.118  2.0588 -1.5682 -2.5072
 2758SOL     OW19735   4.051   3.164   4.230  0.6687 -0.2696 -0.0601
 2758SOL    HW119736   4.107   3.102   4.183  0.0142 -0.2174 -0.8992
 2758SOL    HW219737   4.065   3.240   4.173  0.1826 -0.1350 -0.0009
 2759SOL     OW19738   2.595   1.958  11.324 -0.2064  0.4659 -0.0409
 2759SOL    HW119739   2.664   1.996  11.379 -1.8470  1.3348  1.3878
 2759SOL    HW219740   2.554   1.905  11.392  0.1107  2.0290  1.3667
 2760SOL     OW19741   3.905   0.662   2.514 -0.4348  0.3741 -0.1209
 2760SOL    HW119742   3.856   0.693   2.590  2.4236  0.7536  1.5505
 2760SOL    HW219743   3.986   0.712   2.521 -0.0360 -0.6655  2.4569
 2761SOL     OW19744   1.295   0.658   4.815 -0.5950  0.5263 -0.5089
 2761SOL    HW119745   1.353   0.623   4.882  0.8240 -0.7774 -2.4217
 2761SOL    HW219746   1.307   0.603   4.737  1.2139 -1.9089  1.5003
 2762SOL     OW19747   0.604   2.851  16.032 -0.4773 -0.5011  0.3340
 2762SOL    HW119748   0.513   2.831  16.053 -0.1129  0.6403  3.0570
 2762SOL    HW219749   0.636   2.888  16.115  0.8511 -0.5787 -0.1435
 2763SOL     OW19750   0.583   2.943   2.435  0.0354 -0.7283 -0.4933
 2763SOL    HW119751   0.611   2.966   2.347 -0.9880 -0.9883 -0.8935
 2763SOL    HW219752   0.652   2.895   2.481 -0.2548 -0.4425  0.2555
 2764SOL     OW19753   2.760   1.363   2.784  0.3485 -0.0305  0.2048
 2764SOL    HW119754   2.797   1.367   2.697  0.5233  0.2520  0.2929
 2764SOL    HW219755   2.760   1.271   2.812 -0.4487 -0.4509 -1.1502
 2765SOL     OW19756   2.879   1.019   7.974 -0.0499 -0.7076  0.1522
 2765SOL    HW119757   2.864   1.059   7.888  0.5917 -0.6620  0.0659
 2765SOL    HW219758   2.943   0.952   7.950 -0.5727 -1.0546 -0.2828
 2766SOL     OW19759   4.044   4.713   7.382 -0.0929  0.3533  0.6067
 2766SOL    HW119760   4.030   4.645   7.447  2.8259 -2.6242 -1.8175
 2766SOL    HW219761   4.094   0.043   7.443 -1.6050  3.2331 -0.7455
 2767SOL     OW19762   4.043   1.347  17.608  0.2405  0.5950  0.5305
 2767SOL    HW119763   3.996   1.313  17.685 -2.8249  1.7092 -0.8466
 2767SOL    HW219764   4.042   1.274  17.547  0.7308  2.9722 -2.3353
 2768SOL     OW19765   0.554   2.970   5.162 -0.2248 -0.0390  0.6190
 2768SOL    HW119766   0.523   2.992   5.250 -1.5718 -1.3299  0.4778
 2768SOL    HW219767   0.606   3.048   5.146 -1.9892  0.5580 -2.2177
 2769SOL     OW19768   1.529   2.345  17.177  0.2257  0.2113  0.3637
 2769SOL    HW119769   1.553   2.344  17.270  0.9206  1.0148  0.2026
 2769SOL    HW219770   1.462   2.413  17.182  1.5877  1.6787 -0.8458
 2770SOL     OW19771   4.351   1.378  14.312 -0.1192  0.2782 -0.1922
 2770SOL    HW119772   4.409   1.453  14.300 -0.4801  0.5030 -0.5172
 2770SOL    HW219773   4.419   1.316  14.340  0.9800  1.9067  0.7091
 2771SOL     OW19774   2.425   0.744   3.733  0.0985  0.3294 -0.1276
 2771SOL    HW119775   2.362   0.674   3.717  0.0087  0.4089 -0.1177
 2771SOL    HW219776   2.384   0.817   3.686  0.1266  1.8039  2.1791
 2772SOL     OW19777   1.849   4.110   7.793  0.5547  0.2394  0.3757
 2772SOL    HW119778   1.881   4.183   7.846  2.3293 -1.3695  1.5130
 2772SOL    HW219779   1.907   4.085   7.721  2.9413  1.4598  1.8593
 2773SOL     OW19780   2.150   2.891   5.216 -0.1735 -0.0807  0.2105
 2773SOL    HW119781   2.244   2.908   5.210 -0.3672  1.0032  0.2176
 2773SOL    HW219782   2.130   2.921   5.127 -0.0528 -2.5722 -0.6627
 2774SOL     OW19783   0.347   0.617   2.845  0.0055 -0.3405  0.1165
 2774SOL    HW119784   0.403   0.695   2.843  1.1745 -1.1980 -0.8366
 2774SOL    HW219785   0.272   0.621   2.786  1.0481  1.1305 -1.0983
 2775SOL     OW19786   3.080   3.310   5.551 -0.3917  0.5032 -0.0328
 2775SOL    HW119787   3.045   3.282   5.636 -0.6264 -1.4368 -0.7646
 2775SOL    HW219788   3.166   3.270   5.552 -0.3092  0.6765 -0.2618
 2776SOL     OW19789   0.514   3.074  12.204  0.0920 -0.2626  0.0658
 2776SOL    HW119790   0.552   3.113  12.283  1.1258  1.6044 -1.3537
 2776SOL    HW219791   0.592   3.042  12.158 -1.3660 -2.1493 -1.1009
 2777SOL     OW19792   1.607   2.402   8.296 -0.2192  0.4191  0.2864
 2777SOL    HW119793   1.625   2.450   8.377  1.5707 -1.6455  1.1195
 2777SOL    HW219794   1.697   2.391   8.267  0.2149  0.0318  1.7809
 2778SOL     OW19795   0.132   1.209   1.341  0.3235  0.1313 -0.0635
 2778SOL    HW119796   0.074   1.163   1.280  4.2205 -4.0216 -0.6828
 2778SOL    HW219797   0.209   1.153   1.349  0.7444  0.6309 -0.5590
 2779SOL     OW19798   0.417   2.989   8.929 -0.6096 -0.0061 -0.2986
 2779SOL    HW119799   0.511   3.002   8.918 -0.5808 -0.0322 -0.0699
 2779SOL    HW219800   0.397   3.028   9.014 -1.7446  0.1909 -0.6537
 2780SOL     OW19801   4.643   4.059  16.923  0.1184  0.6892  0.5660
 2780SOL    HW119802   0.004   4.057  16.967 -0.1753 -0.4298  1.0826
 2780SOL    HW219803   4.655   3.969  16.891 -2.0861  0.4684  0.3793
 2781SOL     OW19804   4.207   3.325   3.660 -0.2991  0.0766 -0.7580
 2781SOL    HW119805   4.137   3.273   3.701 -0.8785  1.1391 -0.3915
 2781SOL    HW219806   4.162   3.394   3.611  0.7643  1.5043  0.2924
 2782SOL     OW19807   2.184   3.948   3.842  0.2013 -0.1833 -0.7581
 2782SOL    HW119808   2.136   4.010   3.787  1.5324  0.5378 -1.1100
 2782SOL    HW219809   2.203   3.884   3.773 -0.8128 -1.3738  0.0867
 2783SOL     OW19810   0.465   4.310   8.662 -0.2198 -0.3166  0.1301
 2783SOL    HW119811   0.513   4.295   8.580 -0.6184  0.0990 -0.1849
 2783SOL    HW219812   0.525   4.316   8.736 -3.2591  1.9596  2.3937
 2784SOL     OW19813   3.369   1.320   4.963  0.2175  0.7831 -0.2870
 2784SOL    HW119814   3.304   1.383   4.994  0.8094  0.0987  2.3284
 2784SOL    HW219815   3.307   1.276   4.905 -1.3724 -1.9949  3.5617
 2785SOL     OW19816   4.431   3.472   3.551  0.2931 -0.4595  0.3970
 2785SOL    HW119817   4.347   3.447   3.588 -0.5918  1.9756  0.0590
 2785SOL    HW219818   4.442   3.401   3.489  1.0383  0.1389 -0.1512
 2786SOL     OW19819   3.017   1.631  12.780  0.4124  0.3887  0.4671
 2786SOL    HW119820   2.922   1.643  12.787  0.2949 -0.2468 -0.0096
 2786SOL    HW219821   3.037   1.712  12.733  1.4925  0.5426  1.1778
 2787SOL     OW19822   2.337   3.081   2.198  0.6947  0.0820  0.2978
 2787SOL    HW119823   2.339   3.154   2.259 -2.2591 -0.2970  0.8727
 2787SOL    HW219824   2.286   3.109   2.121 -1.1412 -1.6442  0.8776
 2788SOL     OW19825   2.084   2.264   8.523 -0.3969 -0.2546 -0.3160
 2788SOL    HW119826   2.023   2.337   8.536 -0.6403 -0.2543 -1.5287
 2788SOL    HW219827   2.151   2.303   8.467 -0.0718 -1.4907 -0.7947
 2789SOL     OW19828   3.315   2.422   7.972 -0.2542 -0.1340 -0.1995
 2789SOL    HW119829   3.330   2.340   7.924 -1.0181 -0.7502  0.6057
 2789SOL    HW219830   3.237   2.406   8.025 -1.8148 -1.4020 -2.8562
 2790SOL     OW19831   2.900   1.549   3.824  0.2280 -0.2877  0.4001
 2790SOL    HW119832   2.950   1.593   3.892 -3.0757  0.3918  2.3617
 2790SOL    HW219833   2.941   1.588   3.746 -0.0993 -0.9374 -0.1049
 2791SOL     OW19834   3.931   3.264   4.905  0.1430  0.5860  0.2629
 2791SOL    HW119835   3.991   3.297   4.972  0.1348  1.5298 -0.1983
 2791SOL    HW219836   3.915   3.339   4.848 -2.0757 -0.3396 -0.3379
 2792SOL     OW19837   0.764   1.054   6.898 -0.0410  0.1744  0.0399
 2792SOL    HW119838   0.859   1.070   6.899  0.1909 -1.2406 -0.2727
 2792SOL    HW219839   0.721   1.138   6.881 -0.9444 -0.3300 -0.1423
 2793SOL     OW19840   0.924   1.489   8.345 -0.0037  0.3646 -0.3794
 2793SOL    HW119841   0.913   1.584   8.336  0.0281  0.8489  4.9895
 2793SOL    HW219842   0.964   1.473   8.259 -0.3036  2.2384 -0.8805
 2794SOL     OW19843   4.652   2.367  16.981 -0.4407  0.2895 -0.0326
 2794SOL    HW119844   4.629   2.287  16.933  1.8377 -0.8350  0.7911
 2794SOL    HW219845   4.715   2.349  17.050 -2.2103  0.7977  1.7095
 2795SOL     OW19846   0.906   1.705   3.824  0.5142  0.0662 -0.5008
 2795SOL    HW119847   0.841   1.741   3.764  0.6166 -0.2651 -0.8123
 2795SOL    HW219848   0.911   1.780   3.883 -0.3585 -1.0405  0.9678
 2796SOL     OW19849   2.818   0.596   8.551 -0.9349 -0.1877 -0.0083
 2796SOL    HW119850   2.847   0.521   8.500 -1.4262  1.6923 -3.0288
 2796SOL    HW219851   2.887   0.656   8.521 -1.1296  0.9767  1.7991
 2797SOL     OW19852   2.378   0.356  11.340 -0.0402  0.4169 -0.3432
 2797SOL    HW119853   2.304   0.318  11.292  1.5708 -1.8314 -1.0959
 2797SOL    HW219854   2.380   0.449  11.321 -0.6674  0.0288 -2.3205
 2798SOL     OW19855   0.862   4.179   1.157 -0.0982 -0.1332  0.1796
 2798SOL    HW119856   0.954   4.159   1.175 -0.5228 -0.5214  1.8920
 2798SOL    HW219857   0.850   4.161   1.064 -1.0122  0.1201  0.2459
 2799SOL     OW19858   0.274   1.134   7.787 -0.1279  0.5906  0.3401
 2799SOL    HW119859   0.227   1.051   7.787  1.7430 -0.4709 -0.3451
 2799SOL    HW219860   0.278   1.159   7.695  0.6811 -0.9308 -0.0350
 2800SOL     OW19861   0.684   2.078  14.390  0.0138  0.1035  0.3426
 2800SOL    HW119862   0.768   2.032  14.400 -0.1663 -1.0220 -3.3054
 2800SOL    HW219863   0.637   2.029  14.458  2.2528 -0.3009  1.6032
 2801SOL     OW19864   0.355   0.930  11.856 -0.2591  0.4522  0.3951
 2801SOL    HW119865   0.364   1.020  11.887 -0.1926 -0.0161  1.7308
 2801SOL    HW219866   0.374   0.880  11.935 -0.2327  0.0670  0.1466
 2802SOL     OW19867   1.490   1.804  12.614 -0.5792  0.0382  0.2963
 2802SOL    HW119868   1.493   1.888  12.660 -0.5128 -0.3023  0.9258
 2802SOL    HW219869   1.435   1.758  12.677 -0.9045  0.0588  0.0213
 2803SOL     OW19870   3.052   1.645  12.243  0.0719 -0.4141 -0.4930
 2803SOL    HW119871   2.997   1.719  12.267  0.1304 -1.0319  1.5582
 2803SOL    HW219872   3.133   1.669  12.289  0.7163 -1.4838 -1.0783
 2804SOL     OW19873   1.353   2.901   2.923 -0.0903 -0.6276  0.0165
 2804SOL    HW119874   1.285   2.941   2.977  0.5051  0.4681 -0.0551
 2804SOL    HW219875   1.362   2.814   2.963  1.6702 -0.7678 -0.6802
 2805SOL     OW19876   3.141   4.457   8.503  0.1363 -0.2265 -0.7661
 2805SOL    HW119877   3.162   4.515   8.430 -0.5749 -0.8552 -1.4679
 2805SOL    HW219878   3.053   4.424   8.488  0.4565 -1.2935 -0.3167
 2806SOL     OW19879   3.165   0.411   9.480 -0.3651  0.2155  0.1324
 2806SOL    HW119880   3.175   0.430   9.574  3.3891  3.3268 -0.8968
 2806SOL    HW219881   3.069   0.417   9.481 -0.2075  2.8427 -1.6914
 2807SOL     OW19882   3.314   4.605   5.609 -0.1762  0.3892 -0.0521
 2807SOL    HW119883   3.255   4.592   5.534  0.3837  3.0885 -0.9838
 2807SOL    HW219884   3.261   4.556   5.672  0.6916  0.2188  0.5426
 2808SOL     OW19885   0.507   2.226   5.913 -0.2689  0.2792 -0.5396
 2808SOL    HW119886   0.481   2.312   5.879  0.1311 -0.1443 -1.8850
 2808SOL    HW219887   0.600   2.243   5.927 -0.3256  1.5257 -1.6808
 2809SOL     OW19888   0.518   0.302   7.636 -0.1122  0.1700 -0.0113
 2809SOL    HW119889   0.529   0.394   7.613  0.3369  0.3282  0.8567
 2809SOL    HW219890   0.605   0.264   7.629 -0.8979 -2.0448  1.9495
 2810SOL     OW19891   2.496   0.247   5.135  0.3906  0.2637 -0.1457
 2810SOL    HW119892   2.592   0.237   5.136  0.5419  1.4910 -1.0307
 2810SOL    HW219893   2.493   0.260   5.040 -0.3874  0.1248 -0.1373
 2811SOL     OW19894   0.996   1.249   8.617 -0.1110 -0.0987 -0.3204
 2811SOL    HW119895   1.056   1.277   8.686  0.5288 -0.4827 -0.7228
 2811SOL    HW219896   1.037   1.165   8.598  0.5301  0.3429 -0.9139
 2812SOL     OW19897   3.110   1.420   0.168 -0.0779  0.1530  0.1352
 2812SOL    HW119898   3.078   1.453   0.252 -0.5294 -0.3515  0.1620
 2812SOL    HW219899   3.080   1.486   0.106  1.1211 -2.2089 -3.0011
 2813SOL     OW19900   0.369   3.647   8.085  0.3112 -0.1930  0.5968
 2813SOL    HW119901   0.412   3.563   8.066 -0.4262 -0.0811 -1.6078
 2813SOL    HW219902   0.363   3.641   8.180  0.6506  1.2144  0.7024
 2814SOL     OW19903   1.450   3.479   2.791 -0.5618 -0.0970 -0.4320
 2814SOL    HW119904   1.521   3.497   2.730  0.4661 -0.1189  0.7666
 2814SOL    HW219905   1.404   3.563   2.802 -0.1951 -0.4337  3.6984
 2815SOL     OW19906   4.184   3.694  17.626  0.1391  0.0228 -0.2972
 2815SOL    HW119907   4.199   3.788  17.638  2.7179 -0.2657 -1.1593
 2815SOL    HW219908   4.140   3.676   0.011 -1.9888 -0.4241 -1.5181
 2816SOL     OW19909   1.493   1.033  12.865 -0.0654 -0.4218  0.4603
 2816SOL    HW119910   1.529   1.024  12.953 -2.2350 -0.3759  1.3404
 2816SOL    HW219911   1.571   1.075  12.829 -0.4880 -1.0956 -1.2502
 2817SOL     OW19912   3.823   1.194   5.093  0.0464 -0.2005  0.0209
 2817SOL    HW119913   3.797   1.211   5.183 -0.6838  0.2745 -0.2762
 2817SOL    HW219914   3.772   1.268   5.060 -2.3944 -1.2286  1.5797
 2818SOL     OW19915   0.357   4.520  10.284 -0.0447 -0.1684 -0.1488
 2818SOL    HW119916   0.433   4.490  10.333 -1.1391  0.8450  2.2054
 2818SOL    HW219917   0.292   4.493  10.350 -0.3047  0.6652 -0.0640
 2819SOL     OW19918   2.828   0.830   6.880 -0.1040  0.2062 -0.3670
 2819SOL    HW119919   2.911   0.865   6.914 -0.1499  1.5177 -1.5772
 2819SOL    HW219920   2.793   0.790   6.959  0.8235  0.6136  0.2486
 2820SOL     OW19921   1.978   2.398   5.373 -0.7387  0.4960 -0.4836
 2820SOL    HW119922   2.053   2.458   5.378 -0.8151  0.6289 -0.9383
 2820SOL    HW219923   2.005   2.331   5.435  1.0986  0.1085 -1.7126
 2821SOL     OW19924   1.364   2.581  17.281 -0.7704 -0.0465 -0.3482
 2821SOL    HW119925   1.354   2.664  17.235  1.5055  0.8611  0.8095
 2821SOL    HW219926   1.409   2.606  17.361 -1.6689  0.0421  0.1314
 2822SOL     OW19927   4.486   0.379   4.811  0.0630  0.2283  0.0514
 2822SOL    HW119928   4.396   0.396   4.839 -0.6274  0.9562 -2.6170
 2822SOL    HW219929   4.510   0.468   4.786  2.3957  0.4861  3.0914
 2823SOL     OW19930   0.815   0.171   5.851  0.5709 -0.0106  0.6652
 2823SOL    HW119931   0.853   0.244   5.803 -1.4406  1.3292  1.1212
 2823SOL    HW219932   0.815   0.102   5.785  1.5707 -0.1256  0.7785
 2824SOL     OW19933   0.533   1.477  10.079  0.3238 -0.0024 -0.4720
 2824SOL    HW119934   0.590   1.402  10.096  1.0721  0.7607  0.4212
 2824SOL    HW219935   0.493   1.446   9.998  0.6164  0.4691 -0.7992
 2825SOL     OW19936   2.165   3.960   3.380  0.3026 -0.3929 -0.5363
 2825SOL    HW119937   2.250   3.970   3.423 -0.5286  0.3026  0.9451
 2825SOL    HW219938   2.127   4.046   3.393 -0.1664 -0.9195  1.5471
 2826SOL     OW19939   1.024   2.328   3.545  0.9259  0.1968 -0.2900
 2826SOL    HW119940   1.055   2.396   3.486  2.7604 -1.9887 -1.8571
 2826SOL    HW219941   1.093   2.332   3.611 -0.1600 -0.9904  0.9424
 2827SOL     OW19942   0.301   0.065  13.750 -0.3520 -0.2542  0.0631
 2827SOL    HW119943   0.306   0.160  13.743 -1.3710 -0.1877  0.1668
 2827SOL    HW219944   0.387   0.044  13.785 -1.0532 -1.7608  0.8621
 2828SOL     OW19945   1.758   1.725   1.291  0.0984  0.3627  0.3652
 2828SOL    HW119946   1.768   1.809   1.335 -0.5435 -0.1126  1.4197
 2828SOL    HW219947   1.665   1.702   1.289  0.5832 -1.5658  0.2842
 2829SOL     OW19948   1.728   3.694   9.182 -0.0689 -0.2165 -0.3438
 2829SOL    HW119949   1.808   3.655   9.218  0.5308  0.7329 -0.6416
 2829SOL    HW219950   1.669   3.621   9.203 -1.0461  1.1391  1.6424
 2830SOL     OW19951   0.957   0.507   4.547 -0.1614 -0.1146 -0.5269
 2830SOL    HW119952   0.987   0.531   4.634  0.4091 -0.9420 -0.4990
 2830SOL    HW219953   0.915   0.587   4.515 -0.3440 -0.6337 -1.6066
 2831SOL     OW19954   4.648   2.319  14.777 -0.2638 -1.1942  0.1123
 2831SOL    HW119955   4.586   2.344  14.708  0.4871  1.0370  0.2234
 2831SOL    HW219956   4.602   2.361  14.850 -0.6347  1.4197 -1.6019
 2832SOL     OW19957   4.268   0.894   1.624  0.1743 -0.3706  0.4650
 2832SOL    HW119958   4.217   0.891   1.705  0.7501  0.3239  0.8605
 2832SOL    HW219959   4.335   0.960   1.643 -0.1228  0.3821 -1.1179
 2833SOL     OW19960   1.321   1.856   7.055 -0.3548  0.1683 -0.2088
 2833SOL    HW119961   1.399   1.888   7.100 -0.6087 -0.5315  0.7185
 2833SOL    HW219962   1.313   1.926   6.990 -0.6894  0.5731  0.2712
 2834SOL     OW19963   2.925   0.694  16.487 -0.1682 -0.3034  0.7407
 2834SOL    HW119964   2.970   0.622  16.532  0.4526  0.1310  0.8149
 2834SOL    HW219965   2.840   0.656  16.468  0.3202 -2.5761  3.1313
 2835SOL     OW19966   4.425   0.494   0.825 -0.4146  0.1825  0.0358
 2835SOL    HW119967   4.439   0.587   0.803 -0.6077  0.2559  0.2248
 2835SOL    HW219968   4.447   0.484   0.917 -0.4269  0.8366  0.1091
 2836SOL     OW19969   2.124   4.518   4.105 -0.2308 -0.0388  0.4494
 2836SOL    HW119970   2.117   4.573   4.183 -0.4905 -1.7998  1.6924
 2836SOL    HW219971   2.069   4.570   4.046 -1.6908  0.1683  1.9654
 2837SOL     OW19972   2.617   1.013  11.925 -0.5583 -0.0325  0.3220
 2837SOL    HW119973   2.698   0.967  11.951 -1.0409 -1.0688 -0.0104
 2837SOL    HW219974   2.552   0.991  11.992  0.5358  0.5284  1.5653
 2838SOL     OW19975   1.298   4.585  13.651  0.0100 -0.1035 -0.2132
 2838SOL    HW119976   1.305   4.536  13.569 -0.9631  2.4148 -1.7983
 2838SOL    HW219977   1.340   4.522  13.710  0.2677  1.7850  1.6095
 2839SOL     OW19978   1.428   2.198   7.809 -0.0376 -0.5206  0.3990
 2839SOL    HW119979   1.493   2.237   7.751  0.5686 -2.7437 -0.4008
 2839SOL    HW219980   1.440   2.247   7.891  1.1299  0.2852 -0.2593
 2840SOL     OW19981   4.163   2.079   9.901 -0.5812 -0.4394 -0.2482
 2840SOL    HW119982   4.129   2.110   9.817  1.4303 -1.7674 -1.5264
 2840SOL    HW219983   4.137   2.145   9.965  0.5771 -0.8219  0.6050
 2841SOL     OW19984   1.799   3.551   7.159 -0.1721 -0.1157  0.2798
 2841SOL    HW119985   1.734   3.616   7.132  0.3834  0.8634  1.2769
 2841SOL    HW219986   1.751   3.494   7.220 -0.7010 -0.7076 -0.6872
 2842SOL     OW19987   2.511   3.483   5.758 -0.7062  0.9788 -0.3138
 2842SOL    HW119988   2.428   3.477   5.806 -1.7357  2.2535 -1.9657
 2842SOL    HW219989   2.512   3.570   5.720  0.3169  2.3510  2.8754
 2843SOL     OW19990   1.856   1.971   1.765  0.1666  0.0982  0.0041
 2843SOL    HW119991   1.918   1.911   1.723  0.0356  0.7960 -1.1756
 2843SOL    HW219992   1.803   1.905   1.810  0.2848  0.9582  1.3987
 2844SOL     OW19993   3.509   4.377   3.819  0.0567 -0.0896 -0.0600
 2844SOL    HW119994   3.525   4.295   3.771  0.0555  0.1095 -0.4014
 2844SOL    HW219995   3.593   4.418   3.835  0.5507 -1.4952  0.9462
 2845SOL     OW19996   1.167   3.106  11.557 -0.3495  0.9703 -0.2363
 2845SOL    HW119997   1.257   3.133  11.536 -0.2779 -0.1332 -1.3429
 2845SOL    HW219998   1.179   3.025  11.607  0.8336  0.4873 -1.2880
 2846SOL     OW19999   1.295   2.902   5.842  0.8886 -0.2560  0.4475
 2846SOL    HW120000   1.307   2.807   5.847  0.0918 -0.4264 -0.8115
 2846SOL    HW220001   1.331   2.922   5.756  3.4055  0.2184  1.6251
 2847SOL     OW20002   3.082   1.044  15.769 -0.1031 -0.4269 -0.1125
 2847SOL    HW120003   3.134   0.978  15.725 -2.4117 -1.4142 -1.3261
 2847SOL    HW220004   3.094   1.023  15.862 -0.4510  0.1703  0.0717
 2848SOL     OW20005   2.338   1.827   9.078 -0.8055  0.4705 -0.2228
 2848SOL    HW120006   2.398   1.796   9.009 -0.1684  0.6803  0.2356
 2848SOL    HW220007   2.283   1.890   9.032  1.0308  2.5038  0.3741
 2849SOL     OW20008   1.758   2.659   7.734  0.7043 -0.6814 -0.4969
 2849SOL    HW120009   1.823   2.724   7.761 -0.9335  1.6100 -2.0978
 2849SOL    HW220010   1.716   2.642   7.818  2.8441 -2.0544  0.3119
 2850SOL     OW20011   3.523   0.114   8.578 -0.2273  0.1963 -0.2343
 2850SOL    HW120012   3.509   0.031   8.623  1.2565 -1.0641 -2.0670
 2850SOL    HW220013   3.491   0.172   8.647 -0.3743 -0.4785  0.2654
 2851SOL     OW20014   3.483   1.443   9.161 -0.5439 -0.3470  0.1135
 2851SOL    HW120015   3.571   1.430   9.125 -0.3844 -1.6158  0.9649
 2851SOL    HW220016   3.456   1.511   9.099  2.6142 -0.5816 -1.5316
 2852SOL     OW20017   2.472   4.364   9.343  0.1415 -0.0923 -0.5202
 2852SOL    HW120018   2.444   4.442   9.391 -1.0903 -0.9699  0.1825
 2852SOL    HW220019   2.505   4.323   9.422  0.7259 -0.4107 -0.9289
 2853SOL     OW20020   2.333   0.844  17.167 -0.1901 -0.2794  0.3419
 2853SOL    HW120021   2.291   0.894  17.237 -0.3056  0.8200 -0.4938
 2853SOL    HW220022   2.283   0.881  17.094 -0.1258 -0.8998 -0.0110
 2854SOL     OW20023   2.556   2.287  14.175  0.0902  0.6449 -0.2464
 2854SOL    HW120024   2.482   2.321  14.123  0.3685 -0.3136 -1.2621
 2854SOL    HW220025   2.509   2.216  14.218  1.1334  1.5459  2.3690
 2855SOL     OW20026   3.089   3.538   1.566 -0.2032 -0.7118  0.0626
 2855SOL    HW120027   3.018   3.477   1.548 -2.4049  1.4533  1.4296
 2855SOL    HW220028   3.047   3.620   1.540  1.9827 -0.4489 -2.6314
 2856SOL     OW20029   4.452   1.347  13.340 -0.0292 -0.6834 -0.5456
 2856SOL    HW120030   4.385   1.395  13.291 -0.5248 -0.8763 -0.0632
 2856SOL    HW220031   4.487   1.294  13.269 -2.5313 -1.3687 -1.2764
 2857SOL     OW20032   0.679   3.719   0.743  0.0632  0.1089  0.6326
 2857SOL    HW120033   0.738   3.792   0.764  3.1005 -1.2814 -3.0495
 2857SOL    HW220034   0.603   3.770   0.771 -0.4877  0.1862 -0.9832
 2858SOL     OW20035   3.032   3.256   2.175  0.2817 -0.5674 -1.0146
 2858SOL    HW120036   2.958   3.306   2.141 -0.0231  0.5485  1.2833
 2858SOL    HW220037   3.063   3.204   2.101 -0.7013  0.1147 -1.9124
 2859SOL     OW20038   4.211   3.577   4.698 -0.5319 -0.2197 -0.3110
 2859SOL    HW120039   4.216   3.482   4.684  1.1742  0.0255 -1.3873
 2859SOL    HW220040   4.173   3.593   4.784 -0.3824  1.1418 -0.4997
 2860SOL     OW20041   1.257   4.353   9.947  0.4450  0.0370 -0.5620
 2860SOL    HW120042   1.247   4.300  10.026  0.6817 -1.8362 -1.7979
 2860SOL    HW220043   1.344   4.332   9.914  0.7614 -2.0071  1.5767
 2861SOL     OW20044   1.778   1.918  16.701 -0.1683  0.0389  0.4235
 2861SOL    HW120045   1.694   1.957  16.676 -0.2474 -0.5097 -0.1615
 2861SOL    HW220046   1.754   1.875  16.783  0.5992 -1.2018 -0.0127
 2862SOL     OW20047   3.093   2.084   4.919 -0.2148 -0.3357 -0.7165
 2862SOL    HW120048   3.095   2.179   4.910  0.6791 -0.3636 -0.7965
 2862SOL    HW220049   2.999   2.070   4.918 -0.5221  1.8527 -1.0676
 2863SOL     OW20050   1.676   1.826   1.962  0.1323  0.6156 -0.3113
 2863SOL    HW120051   1.730   1.749   1.981 -0.4545  0.8583  2.2580
 2863SOL    HW220052   1.717   1.892   2.017  1.7269 -1.1446  0.6444
 2864SOL     OW20053   2.715   0.120   6.783  0.1122 -0.4265 -0.8464
 2864SOL    HW120054   2.637   0.066   6.766  1.2738 -1.2887 -3.5191
 2864SOL    HW220055   2.757   0.109   6.697 -1.5763 -0.2337 -1.6947
 2865SOL     OW20056   2.308   3.211   9.725  0.3108  0.5049 -0.1601
 2865SOL    HW120057   2.400   3.188   9.739  0.4256  1.1907  0.2050
 2865SOL    HW220058   2.316   3.305   9.712 -1.0530  0.5854 -0.3772
 2866SOL     OW20059   2.973   2.258   9.823  0.5377 -0.4793 -0.0968
 2866SOL    HW120060   3.002   2.289   9.737  0.0994  1.0536  0.2968
 2866SOL    HW220061   3.049   2.262   9.881 -0.6611  0.4442  1.4201
 2867SOL     OW20062   3.350   0.974  13.609 -0.2474  0.3006 -0.0933
 2867SOL    HW120063   3.444   0.979  13.592 -0.3772  0.4804 -0.7305
 2867SOL    HW220064   3.359   0.959  13.704  0.6736  1.3286 -0.0322
 2868SOL     OW20065   1.088   0.529   8.938 -0.3464 -0.0189 -0.5600
 2868SOL    HW120066   1.023   0.599   8.935  1.2119  1.4880  0.7125
 2868SOL    HW220067   1.080   0.484   8.854  0.0438 -0.0257 -0.5949
 2869SOL     OW20068   4.198   1.928   6.962 -0.0855 -0.2020  0.5156
 2869SOL    HW120069   4.106   1.900   6.956 -0.2279  0.2505  0.5659
 2869SOL    HW220070   4.237   1.842   6.945  1.9273  0.5953  1.1037
 2870SOL     OW20071   2.311   0.380  16.406 -0.1692  0.5425  0.1307
 2870SOL    HW120072   2.357   0.322  16.466  0.0452  1.2062  0.6122
 2870SOL    HW220073   2.375   0.451  16.403 -0.6346  1.0134  1.1934
 2871SOL     OW20074   0.618   3.185   4.248 -0.5606 -1.3305 -0.1897
 2871SOL    HW120075   0.613   3.202   4.154 -1.1712  2.4582  0.5456
 2871SOL    HW220076   0.542   3.235   4.278 -0.1307 -1.5443  1.2347
 2872SOL     OW20077   1.522   3.021   5.451  0.3255 -0.8127  0.5347
 2872SOL    HW120078   1.605   3.036   5.495  1.1274 -0.6766 -1.0181
 2872SOL    HW220079   1.529   2.928   5.431  0.6190 -0.5124 -0.7771
 2873SOL     OW20080   3.308   3.809  14.957 -0.3294  0.5486 -0.3090
 2873SOL    HW120081   3.232   3.867  14.948 -1.1289 -0.0090  3.0800
 2873SOL    HW220082   3.261   3.734  14.993 -0.3825  0.6598 -0.1455
 2874SOL     OW20083   0.021   2.440  15.704 -0.5300  0.1279  0.0181
 2874SOL    HW120084   0.081   2.367  15.717 -0.8580 -0.3828 -1.2893
 2874SOL    HW220085   0.072   2.502  15.756  0.0170 -0.2087 -0.1054
 2875SOL     OW20086   3.215   2.691   5.668  0.0051  0.4041 -0.4151
 2875SOL    HW120087   3.123   2.682   5.643  0.6603  0.1753 -2.6832
 2875SOL    HW220088   3.258   2.697   5.583  0.4557 -2.2224 -0.3697
 2876SOL     OW20089   0.186   4.117   4.904 -0.3503  0.3463 -0.4140
 2876SOL    HW120090   0.265   4.072   4.935 -0.4403  0.6260  0.2244
 2876SOL    HW220091   0.228   4.184   4.850  1.3719  0.2567  0.8093
 2877SOL     OW20092   2.913   3.876   3.000 -0.1355  0.3153  0.0541
 2877SOL    HW120093   2.857   3.799   3.013  0.4893 -0.1448 -0.0088
 2877SOL    HW220094   2.977   3.849   2.935 -0.1390 -1.3956  0.7584
 2878SOL     OW20095   1.387   0.276   3.039 -0.3606 -0.6515  0.1857
 2878SOL    HW120096   1.466   0.327   3.055 -0.2046 -0.4466 -1.2576
 2878SOL    HW220097   1.395   0.259   2.945  1.1226  1.3426 -0.0360
 2879SOL     OW20098   1.768   2.297   2.768  0.1068 -0.0747 -0.8254
 2879SOL    HW120099   1.761   2.225   2.705 -0.3755 -1.0428  0.3290
 2879SOL    HW220100   1.858   2.330   2.765 -0.3687  1.2606 -0.3293
 2880SOL     OW20101   1.859   3.174   9.053 -0.0122  0.1244  0.2748
 2880SOL    HW120102   1.890   3.109   9.115  1.7953  0.8425  0.1152
 2880SOL    HW220103   1.802   3.121   8.997 -0.3279  1.4745 -0.6999
 2881SOL     OW20104   2.571   0.757   8.445 -0.9394  0.6714  0.8749
 2881SOL    HW120105   2.642   0.812   8.410  0.8648 -1.1550  1.6565
 2881SOL    HW220106   2.611   0.681   8.487 -0.8511  0.4514  0.3929
 2882SOL     OW20107   2.349   3.978   5.622 -0.2713  0.3844 -0.4399
 2882SOL    HW120108   2.287   3.962   5.693 -1.0776  0.4682 -1.1238
 2882SOL    HW220109   2.301   3.985   5.539 -0.5719 -2.0079 -0.4637
 2883SOL     OW20110   0.297   4.215   4.052 -0.1355  0.5462  0.3191
 2883SOL    HW120111   0.364   4.159   4.014 -0.5176  0.9240 -0.8982
 2883SOL    HW220112   0.289   4.178   4.140 -1.0769  0.3033  0.1383
 2884SOL     OW20113   1.995   2.054  15.213 -0.5666  0.1066  0.4392
 2884SOL    HW120114   1.902   2.068  15.232 -0.0297  0.4760  2.8533
 2884SOL    HW220115   1.998   1.970  15.168  0.0459  1.1542 -1.4930
 2885SOL     OW20116   4.148   2.505   7.911 -0.3808  0.2187  0.5156
 2885SOL    HW120117   4.176   2.428   7.863 -1.7586  0.6538 -0.9758
 2885SOL    HW220118   4.166   2.479   8.002  2.4796 -1.1573 -0.4397
 2886SOL     OW20119   2.700   3.556   0.623 -0.0392 -0.3710  0.3351
 2886SOL    HW120120   2.647   3.490   0.579  0.2189 -1.2292  1.3128
 2886SOL    HW220121   2.636   3.622   0.650  0.0697  1.0067 -2.7019
 2887SOL     OW20122   0.987   3.512  15.757 -0.5916 -0.2198 -0.7909
 2887SOL    HW120123   0.928   3.444  15.787  0.3356 -0.0917  1.2902
 2887SOL    HW220124   0.958   3.524  15.666  0.1744 -2.0556 -1.2861
 2888SOL     OW20125   3.862   2.556   4.413 -0.1411 -1.1292  0.5752
 2888SOL    HW120126   3.778   2.598   4.396  0.9004  1.3521  1.4228
 2888SOL    HW220127   3.847   2.468   4.381  1.0995 -1.2118  0.2230
 2889SOL     OW20128   4.119   0.200  10.116 -0.3655 -0.0456  0.0046
 2889SOL    HW120129   4.052   0.145  10.077 -0.6899  1.6459 -1.8168
 2889SOL    HW220130   4.186   0.184  10.050  1.8967  1.0361  2.0119
 2890SOL     OW20131   4.351   4.585   2.450  0.1409 -0.1733 -0.1133
 2890SOL    HW120132   4.264   4.624   2.442 -0.4843 -1.3360  0.9407
 2890SOL    HW220133   4.408   4.641   2.502  1.0172  0.2176 -1.5046
 2891SOL     OW20134   3.444   0.687   5.851 -0.2004 -0.8125  0.1435
 2891SOL    HW120135   3.359   0.648   5.829 -0.7278  0.5853 -0.3176
 2891SOL    HW220136   3.483   0.716   5.768 -1.7265  1.3417  0.1777
 2892SOL     OW20137   2.981   3.810   0.379 -0.3388 -0.0151  0.0417
 2892SOL    HW120138   3.024   3.744   0.435 -0.2177  1.0011  1.1604
 2892SOL    HW220139   2.905   3.841   0.427  1.1794 -0.6455  2.8828
 2893SOL     OW20140   2.913   0.500   4.912 -0.0077  0.4326  0.3855
 2893SOL    HW120141   2.911   0.489   5.007  0.1123  0.6179  0.4093
 2893SOL    HW220142   2.966   0.426   4.881  0.2616  1.6612 -2.1276
 2894SOL     OW20143   1.394   0.746   6.128  0.7618  0.1265 -0.0988
 2894SOL    HW120144   1.425   0.835   6.110 -0.7171  0.5783 -0.3946
 2894SOL    HW220145   1.302   0.768   6.143  0.2397 -1.1490 -1.4591
 2895SOL     OW20146   1.621   0.716   8.184 -0.1418  0.2671 -0.1679
 2895SOL    HW120147   1.591   0.794   8.136  0.2880  1.1419  0.9897
 2895SOL    HW220148   1.583   0.731   8.270  0.3710 -1.2015  0.3129
 2896SOL     OW20149   4.608   1.893   7.964  0.3900  0.0110  0.0828
 2896SOL    HW120150   4.514   1.878   7.977  0.4048 -1.2110 -1.1247
 2896SOL    HW220151   4.615   1.985   7.986  0.7582  0.1294 -0.5104
 2897SOL     OW20152   3.421   3.654   1.159  0.1913 -0.4027 -0.3936
 2897SOL    HW120153   3.420   3.576   1.104  0.2706  0.3865 -1.5330
 2897SOL    HW220154   3.362   3.711   1.108  0.0259  0.4269  0.7273
 2898SOL     OW20155   3.116   1.328   9.161  0.4487  0.2654  0.0260
 2898SOL    HW120156   3.192   1.294   9.112  0.5838 -0.7334  0.9190
 2898SOL    HW220157   3.154   1.346   9.246  1.8565  1.6736 -0.9086
 2899SOL     OW20158   0.986   0.131   1.122  0.1230 -0.6849 -0.1611
 2899SOL    HW120159   0.968   0.184   1.199 -0.1993 -0.9239 -0.0696
 2899SOL    HW220160   0.902   0.123   1.077  0.8846  0.9573 -1.8701
 2900SOL     OW20161   1.262   3.930   7.280 -0.0662 -0.3000  0.1883
 2900SOL    HW120162   1.242   3.892   7.195 -0.9970 -1.8600  1.1025
 2900SOL    HW220163   1.182   3.899   7.322  1.9648 -2.2345  2.6748
 2901SOL     OW20164   2.866   2.539   6.489  0.2096 -0.7448  0.4035
 2901SOL    HW120165   2.823   2.469   6.440  0.0769 -0.0064 -0.5452
 2901SOL    HW220166   2.890   2.601   6.419  0.5403 -0.5761  0.6672
 2902SOL     OW20167   0.661   0.684  16.360  0.4998 -0.3472 -0.1397
 2902SOL    HW120168   0.578   0.732  16.357  0.9551  0.5732  2.5823
 2902SOL    HW220169   0.650   0.632  16.280  0.5175 -0.3964 -0.1104
 2903SOL     OW20170   2.443   4.478   9.102 -0.4051 -0.4609  0.2356
 2903SOL    HW120171   2.453   4.432   9.186  0.6105 -0.6716 -0.0078
 2903SOL    HW220172   2.505   4.438   9.042 -1.3275  0.1638 -1.1313
 2904SOL     OW20173   0.413   3.594  14.832 -0.4507 -0.3267  0.3593
 2904SOL    HW120174   0.394   3.593  14.926 -1.6419 -0.2806  0.1253
 2904SOL    HW220175   0.470   3.670  14.846 -2.6405  1.0913  1.5295
 2905SOL     OW20176   1.198   3.105   7.808 -0.3894  0.0480 -0.1370
 2905SOL    HW120177   1.220   3.068   7.722 -1.3910  0.3153 -0.5084
 2905SOL    HW220178   1.104   3.091   7.814 -0.5531  1.4391  0.5721
 2906SOL     OW20179   1.382   2.147  15.325 -0.3230  0.1425 -0.2626
 2906SOL    HW120180   1.350   2.112  15.408 -1.1743 -0.5841 -0.9043
 2906SOL    HW220181   1.387   2.067  15.273 -2.0175 -0.9055  1.2145
 2907SOL     OW20182   4.459   3.469   3.214  0.0555 -0.8351 -0.3463
 2907SOL    HW120183   4.496   3.387   3.248 -0.2177 -0.5835  0.5405
 2907SOL    HW220184   4.540   3.520   3.214 -0.9608  0.7842  0.7443
 2908SOL     OW20185   4.590   1.730   3.762 -0.9198 -0.0406  0.2054
 2908SOL    HW120186   4.593   1.823   3.739 -1.4240  0.0386  0.4605
 2908SOL    HW220187   4.674   1.732   3.807  0.0637  0.9085 -1.6561
 2909SOL     OW20188   3.201   3.453  15.648 -0.1638 -0.1546 -0.5003
 2909SOL    HW120189   3.119   3.456  15.696  1.6575  0.9885  2.5488
 2909SOL    HW220190   3.247   3.384  15.696  1.0872  0.4971 -0.7536
 2910SOL     OW20191   3.652   4.185   7.416 -0.6720  0.4551 -0.0622
 2910SOL    HW120192   3.738   4.159   7.449 -0.0644  1.9540 -0.4622
 2910SOL    HW220193   3.632   4.272   7.450  2.0300  0.8139  0.6683
 2911SOL     OW20194   4.325   4.254  12.813  0.1248  0.0720  0.1634
 2911SOL    HW120195   4.336   4.348  12.826  1.3193  0.2859 -2.4775
 2911SOL    HW220196   4.240   4.247  12.769  0.1223  0.5150  0.0966
 2912SOL     OW20197   0.706   2.569  16.592  0.2510  0.3621 -0.4306
 2912SOL    HW120198   0.640   2.505  16.620  3.7660 -3.4001 -0.8261
 2912SOL    HW220199   0.682   2.573  16.499 -2.8181 -1.0817  0.2948
 2913SOL     OW20200   3.408   0.247   8.805 -0.3549  0.4189 -0.1176
 2913SOL    HW120201   3.351   0.235   8.881 -1.2233  1.8895 -0.5505
 2913SOL    HW220202   3.342   0.227   8.739 -0.0226 -0.5465 -0.1578
 2914SOL     OW20203   4.636   3.820   7.864 -0.0089  0.1133  0.5830
 2914SOL    HW120204   4.624   3.726   7.854 -2.1540  0.4680  0.0029
 2914SOL    HW220205   0.006   3.829   7.845 -0.4354 -1.8368 -2.3987
 2915SOL     OW20206   0.071   3.263   0.966  0.2158  0.1948 -0.2273
 2915SOL    HW120207   0.123   3.320   0.910  1.6940  0.5019  1.4746
 2915SOL    HW220208   4.707   3.259   0.928  0.2794 -1.1052 -0.2564
 2916SOL     OW20209   1.290   0.598  13.328  0.2566 -0.8456  0.2049
 2916SOL    HW120210   1.382   0.591  13.354  0.4219 -0.1648 -0.1951
 2916SOL    HW220211   1.288   0.671  13.265 -1.0241 -1.3761 -0.3696
 2917SOL     OW20212   4.320   0.212   3.293  0.2239  0.2849  0.2043
 2917SOL    HW120213   4.248   0.248   3.347 -2.1468 -2.4610 -1.1443
 2917SOL    HW220214   4.332   0.124   3.329 -1.9648  0.9716  2.6884
 2918SOL     OW20215   1.154   0.683   7.369  0.4627 -0.0545  0.3788
 2918SOL    HW120216   1.163   0.627   7.293 -2.1145 -1.0873  0.8317
 2918SOL    HW220217   1.237   0.730   7.365 -0.5434  1.7774  0.6789
 2919SOL     OW20218   3.538   0.555  13.022 -0.5338  0.2358 -0.1170
 2919SOL    HW120219   3.458   0.600  12.997  0.3967  0.6029 -2.5095
 2919SOL    HW220220   3.490   0.496  13.079 -0.2225  1.1400  1.0716
 2920SOL     OW20221   0.401   3.912   2.776  0.1386  0.1474 -0.2488
 2920SOL    HW120222   0.325   3.967   2.761 -0.4099 -0.6881 -0.5511
 2920SOL    HW220223   0.369   3.870   2.856  2.1389 -0.9633 -0.0321
 2921SOL     OW20224   2.713   1.936  16.737  0.2369 -0.6636  0.9380
 2921SOL    HW120225   2.686   2.027  16.751 -1.8143 -1.0246 -0.5442
 2921SOL    HW220226   2.628   1.898  16.716 -1.7723  2.5824  3.1583
 2922SOL     OW20227   4.104   4.416   4.369 -0.2716  0.2766 -0.1411
 2922SOL    HW120228   4.118   4.323   4.351  0.9763  0.3664  0.3660
 2922SOL    HW220229   4.078   4.412   4.461  0.2338 -1.6671 -0.0759
 2923SOL     OW20230   2.721   3.644  15.071 -0.5140 -0.3556  0.6032
 2923SOL    HW120231   2.792   3.632  15.134 -0.9322 -3.5076  0.4414
 2923SOL    HW220232   2.774   3.681  15.001 -2.2529  0.2895 -0.3931
 2924SOL     OW20233   2.188   4.052  16.706 -0.3764  0.3572 -0.2215
 2924SOL    HW120234   2.169   4.063  16.613 -0.4413  0.1285 -0.2362
 2924SOL    HW220235   2.111   4.093  16.746 -0.3119 -1.6596  1.9978
 2925SOL     OW20236   0.853   3.115  12.209  0.0747  0.0467 -0.6465
 2925SOL    HW120237   0.879   3.062  12.284 -0.4960  1.7547  0.7721
 2925SOL    HW220238   0.829   3.047  12.146  1.3581 -1.8771  0.9537
 2926SOL     OW20239   1.687   3.460  15.936 -0.1338 -0.0768  0.5400
 2926SOL    HW120240   1.772   3.471  15.893  0.5101 -0.9715  1.6121
 2926SOL    HW220241   1.637   3.502  15.865  1.8608 -1.3179 -1.6173
 2927SOL     OW20242   3.921   3.387   0.765 -0.3211  0.6227  0.2618
 2927SOL    HW120243   3.833   3.398   0.803 -0.1420 -2.4334  1.5745
 2927SOL    HW220244   3.919   3.293   0.743 -2.6293  0.8458 -0.5641
 2928SOL     OW20245   0.144   0.003   7.025 -0.4634  0.3713  0.0825
 2928SOL    HW120246   0.110   4.667   6.959 -0.7413  0.1423  0.4324
 2928SOL    HW220247   0.167   0.078   6.971 -0.0883  0.7220  0.7298
 2929SOL     OW20248   3.805   3.570   7.054  0.0612 -0.1838  0.3211
 2929SOL    HW120249   3.895   3.542   7.068  0.2626 -1.3748 -3.3165
 2929SOL    HW220250   3.762   3.571   7.139 -0.2832 -0.7518  0.1572
 2930SOL     OW20251   3.200   3.767   0.197  0.2273 -0.3833 -0.5354
 2930SOL    HW120252   3.122   3.811   0.229  0.9817  0.7378 -0.2220
 2930SOL    HW220253   3.188   3.674   0.215 -0.3626 -0.0180  0.9149
 2931SOL     OW20254   3.013   3.965  15.624 -0.6354 -0.4606  0.6689
 2931SOL    HW120255   3.098   3.930  15.649  0.7402  2.3683 -0.1070
 2931SOL    HW220256   2.968   3.994  15.704 -0.0954  2.4755 -0.0825
 2932SOL     OW20257   0.192   1.834  17.349 -0.5760 -0.1711  0.1662
 2932SOL    HW120258   0.250   1.898  17.390  0.9190 -2.8205  2.1709
 2932SOL    HW220259   0.190   1.874  17.262 -0.1291 -0.2554  0.1192
 2933SOL     OW20260   4.284   4.368   1.692 -0.1424 -0.0299  0.5831
 2933SOL    HW120261   4.351   4.368   1.759 -0.1844 -1.4089  0.6200
 2933SOL    HW220262   4.326   4.330   1.615 -1.7410  1.3126 -0.9546
 2934SOL     OW20263   0.134   0.566   9.867  0.0117  0.0139 -0.1574
 2934SOL    HW120264   0.109   0.493   9.809  1.2819 -0.7726  0.2774
 2934SOL    HW220265   0.193   0.611   9.806  0.3883 -0.6121 -0.2550
 2935SOL     OW20266   4.325   4.050   4.560 -0.1721  0.1484  0.0022
 2935SOL    HW120267   4.288   4.018   4.642 -1.7215 -0.6798 -1.0357
 2935SOL    HW220268   4.420   4.041   4.571 -0.0503  0.0804 -1.0950
 2936SOL     OW20269   1.558   3.273   3.913 -0.5777  0.8473  0.3418
 2936SOL    HW120270   1.646   3.257   3.879 -0.7371 -0.9761  0.8064
 2936SOL    HW220271   1.499   3.225   3.855 -0.1034 -1.4314  1.7313
 2937SOL     OW20272   2.455   1.965   8.620  0.7829  0.3240 -0.0095
 2937SOL    HW120273   2.383   1.904   8.634  1.6575 -0.7398 -0.0632
 2937SOL    HW220274   2.507   1.946   8.699 -0.2093 -1.5447  0.1744
 2938SOL     OW20275   0.001   1.503   5.264 -0.1084  0.2177 -0.7397
 2938SOL    HW120276   0.086   1.524   5.226  0.8695  0.5130  1.6085
 2938SOL    HW220277   0.006   1.408   5.266 -1.3682  0.2108  2.4206
 2939SOL     OW20278   1.962   2.462   0.241  0.6877  0.0104  0.4300
 2939SOL    HW120279   2.011   2.509   0.173 -0.9283 -1.3055 -1.6458
 2939SOL    HW220280   1.936   2.539   0.292 -1.3017 -0.9498  0.8259
 2940SOL     OW20281   0.171   2.712   7.262 -0.5418 -0.5468 -0.1090
 2940SOL    HW120282   0.137   2.641   7.208 -0.8311  0.4095 -1.1860
 2940SOL    HW220283   0.194   2.666   7.343  0.6456  2.4839  1.2486
 2941SOL     OW20284   3.181   2.333   6.359 -0.1389 -0.2222  0.1119
 2941SOL    HW120285   3.156   2.394   6.290 -1.3495  0.1663  0.8973
 2941SOL    HW220286   3.246   2.382   6.409  0.8099 -0.9250 -0.4213
 2942SOL     OW20287   3.696   4.386   9.637 -0.1817 -0.0212  0.3585
 2942SOL    HW120288   3.745   4.457   9.678 -0.3725 -0.1829  0.8612
 2942SOL    HW220289   3.623   4.431   9.595  0.1933  0.2674  0.0119
 2943SOL     OW20290   1.634   3.386   2.999  0.7375  0.2063 -0.0115
 2943SOL    HW120291   1.569   3.453   2.977  0.7457 -0.5705 -2.4030
 2943SOL    HW220292   1.672   3.407   3.084 -0.3075  0.8508  0.2965
 2944SOL     OW20293   1.996   1.781   2.720 -0.2095 -0.0268  0.2889
 2944SOL    HW120294   1.962   1.853   2.773 -2.1530 -1.6709  1.2704
 2944SOL    HW220295   2.033   1.835   2.650  0.0124  1.0224  1.2141
 2945SOL     OW20296   3.096   2.177   2.838  0.6689 -0.2329  0.2519
 2945SOL    HW120297   3.134   2.260   2.869  0.8263 -0.3681  0.4188
 2945SOL    HW220298   3.159   2.113   2.871 -0.8636 -1.3848  0.9058
 2946SOL     OW20299   0.178   0.574   4.297  0.1212 -0.2356  0.2810
 2946SOL    HW120300   0.092   0.579   4.338 -0.6197 -0.9914 -1.2007
 2946SOL    HW220301   0.179   0.663   4.261 -1.4228 -0.7912 -1.0745
 2947SOL     OW20302   2.424   3.375   6.360 -0.1673 -0.1035 -0.5709
 2947SOL    HW120303   2.448   3.295   6.406  0.0250 -0.8769 -2.0159
 2947SOL    HW220304   2.470   3.368   6.276 -1.1530 -0.8794 -1.0432
 2948SOL     OW20305   0.402   3.903   8.003  0.1352  0.3569 -0.7213
 2948SOL    HW120306   0.496   3.903   8.020 -0.2300 -0.0628  1.4016
 2948SOL    HW220307   0.373   3.813   8.013  0.1764  0.2027 -2.0350
 2949SOL     OW20308   1.247   1.406   0.916 -0.4354  0.1836  0.9768
 2949SOL    HW120309   1.300   1.328   0.926  0.2904  0.4334 -1.0881
 2949SOL    HW220310   1.257   1.432   0.825 -0.6641  1.1428  1.2226
 2950SOL     OW20311   4.210   0.405   4.833 -0.0021 -0.1696 -0.0393
 2950SOL    HW120312   4.135   0.346   4.824 -1.4639  1.9017 -1.5759
 2950SOL    HW220313   4.176   0.487   4.797 -2.2766 -0.4380  1.4446
 2951SOL     OW20314   3.660   2.674   4.143 -0.3248 -0.0241  0.3253
 2951SOL    HW120315   3.582   2.618   4.146  0.7527 -1.7119 -2.3730
 2951SOL    HW220316   3.656   2.710   4.231  1.7230  0.1970  0.3217
 2952SOL     OW20317   4.153   1.919  10.846  0.3897  0.0427 -0.0828
 2952SOL    HW120318   4.227   1.871  10.884 -0.9198  0.2054  2.6342
 2952SOL    HW220319   4.203   1.974  10.785 -1.1252  0.7160 -0.7063
 2953SOL     OW20320   1.274   3.391   5.819  0.1510  0.0639  0.6078
 2953SOL    HW120321   1.231   3.349   5.894  1.2777 -0.8998  0.7218
 2953SOL    HW220322   1.195   3.427   5.780  0.0836 -1.3346 -0.5210
 2954SOL     OW20323   1.333   1.392   7.962 -0.5626 -0.6635  0.0160
 2954SOL    HW120324   1.326   1.485   7.981  1.7285 -0.8414  1.7256
 2954SOL    HW220325   1.311   1.392   7.868 -0.6391  3.3003  0.0515
 2955SOL     OW20326   2.734   2.611   8.661  0.5039  0.2000  0.2637
 2955SOL    HW120327   2.777   2.618   8.746  0.4353  1.1915  0.2146
 2955SOL    HW220328   2.669   2.682   8.666  2.2363  1.7424  0.8415
 2956SOL     OW20329   1.518   4.006   4.902 -0.0065 -0.1270  0.0277
 2956SOL    HW120330   1.586   4.023   4.968 -1.5195 -0.8775  1.7724
 2956SOL    HW220331   1.441   4.019   4.958  1.2938 -2.7001  2.4612
 2957SOL     OW20332   1.682   1.846  14.149  0.4096 -0.2283  0.4889
 2957SOL    HW120333   1.734   1.835  14.228  0.8743  0.3489  0.2682
 2957SOL    HW220334   1.727   1.919  14.105 -0.0332 -1.6902 -2.4011
 2958SOL     OW20335   4.686   2.318   1.572  0.0023 -0.2271 -0.0585
 2958SOL    HW120336   0.021   2.388   1.543  0.7454 -1.3647 -1.2936
 2958SOL    HW220337   4.658   2.343   1.660 -0.1151 -0.8439  0.0743
 2959SOL     OW20338   3.675   4.640  13.072 -0.4016 -0.3056 -0.4118
 2959SOL    HW120339   3.732   4.702  13.027 -0.1052 -1.0834 -1.0975
 2959SOL    HW220340   3.685   4.654  13.166  3.0170 -4.5987 -0.1704
 2960SOL     OW20341   1.545   1.498  14.908  0.1438  0.4150  0.0111
 2960SOL    HW120342   1.545   1.433  14.837 -3.4969 -0.1379  0.5109
 2960SOL    HW220343   1.511   1.445  14.979  1.1200 -0.2287  0.0037
 2961SOL     OW20344   4.217   1.734  10.634 -0.0523  0.5141 -0.4354
 2961SOL    HW120345   4.226   1.807  10.573  2.3993  0.6719  0.1164
 2961SOL    HW220346   4.166   1.784  10.697 -0.9517 -0.9191 -0.0357
 2962SOL     OW20347   2.560   0.903  13.185 -0.1887  0.2621 -0.3183
 2962SOL    HW120348   2.602   0.821  13.158 -1.0146  0.2080 -1.4558
 2962SOL    HW220349   2.483   0.866  13.228  1.4939  0.4337  2.8486
 2963SOL     OW20350   2.813   4.275   4.748 -0.4462 -0.0415  0.0210
 2963SOL    HW120351   2.858   4.215   4.688 -0.3890 -0.4352  0.4603
 2963SOL    HW220352   2.723   4.280   4.715 -1.7758 -2.0794  3.3876
 2964SOL     OW20353   4.154   2.315   3.860  0.2323 -0.3901 -0.4168
 2964SOL    HW120354   4.068   2.346   3.834 -0.0383 -1.2146 -0.5001
 2964SOL    HW220355   4.181   2.257   3.789  0.9883  0.0155 -0.4650
 2965SOL     OW20356   3.639   4.430   5.580  0.0809  0.0741 -0.0920
 2965SOL    HW120357   3.591   4.512   5.569  0.0788 -0.1223 -1.5753
 2965SOL    HW220358   3.576   4.389   5.638 -1.0651 -0.1850 -1.5207
 2966SOL     OW20359   4.215   2.903   1.028 -0.1098  0.6081  0.1751
 2966SOL    HW120360   4.145   2.909   0.963 -1.8680  2.6095  2.2504
 2966SOL    HW220361   4.187   2.968   1.092 -2.3535  0.1790 -0.3944
 2967SOL     OW20362   1.364   0.850   2.522 -0.5439 -0.1976 -0.1168
 2967SOL    HW120363   1.432   0.918   2.526  1.3887 -2.2391  1.6197
 2967SOL    HW220364   1.296   0.918   2.523 -0.1570  0.1838  0.2696
 2968SOL     OW20365   3.417   4.570  17.477  0.7428 -0.3758 -0.2918
 2968SOL    HW120366   3.360   4.601  17.547  2.0749 -0.7346  0.9612
 2968SOL    HW220367   3.427   4.649  17.424 -0.4704 -0.8725 -1.2705
 2969SOL     OW20368   3.077   4.143  17.150 -0.1486  0.2133 -0.0912
 2969SOL    HW120369   3.097   4.236  17.165  1.4662 -0.0278 -0.7864
 2969SOL    HW220370   3.095   4.137  17.056 -0.2470  1.2161 -0.1782
 2970SOL     OW20371   0.141   2.495  16.808 -0.0536  0.6545 -0.0261
 2970SOL    HW120372   0.137   2.590  16.811 -2.1424  0.6711 -2.9829
 2970SOL    HW220373   0.049   2.482  16.828  0.2768  0.3917  1.3307
 2971SOL     OW20374   0.605   0.046   4.427 -0.0837 -0.0177  0.7107
 2971SOL    HW120375   0.522   0.068   4.385 -0.3507 -1.7979  0.3153
 2971SOL    HW220376   0.659   0.121   4.402 -1.0020  0.2520 -0.4334
 2972SOL     OW20377   4.025   3.077   7.746 -0.1283 -0.2258  0.0278
 2972SOL    HW120378   4.021   3.172   7.734  0.1219 -0.2441 -0.1991
 2972SOL    HW220379   3.948   3.067   7.802  0.3291 -1.7906  0.3748
 2973SOL     OW20380   3.732   4.422   6.394 -0.3986  0.5434 -0.6401
 2973SOL    HW120381   3.657   4.478   6.415 -1.4264 -0.8672 -0.4974
 2973SOL    HW220382   3.718   4.425   6.300  1.0775 -2.6398 -0.9619
 2974SOL     OW20383   0.504   3.166   1.895 -0.4564  0.2589  0.0664
 2974SOL    HW120384   0.544   3.176   1.809 -0.0162  0.4168  0.2906
 2974SOL    HW220385   0.425   3.219   1.882  0.2591  0.7541 -2.2216
 2975SOL     OW20386   2.440   0.096   8.766  0.0634 -0.0799 -0.3007
 2975SOL    HW120387   2.389   0.151   8.705  1.5566 -0.6295 -2.0417
 2975SOL    HW220388   2.449   0.012   8.722  0.7949 -1.1806  2.0164
 2976SOL     OW20389   0.558   0.524   4.459  0.2906 -0.1233  0.2391
 2976SOL    HW120390   0.635   0.513   4.404  1.1929 -0.0889  1.4950
 2976SOL    HW220391   0.513   0.439   4.457  2.2593 -1.1421 -0.7685
 2977SOL     OW20392   3.561   2.922   7.532 -0.7005  0.8736 -0.3178
 2977SOL    HW120393   3.483   2.947   7.581  0.7775  2.6950  1.1444
 2977SOL    HW220394   3.566   2.830   7.556 -0.3295  0.9909  0.0590
 2978SOL     OW20395   1.116   3.602   2.824 -0.9105 -0.0493  0.6644
 2978SOL    HW120396   1.141   3.531   2.765 -2.3444 -0.7802  0.9588
 2978SOL    HW220397   1.024   3.596   2.798 -0.6108 -1.7573  0.0007
 2979SOL     OW20398   4.338   2.621   3.724 -0.1702 -0.5959  0.3362
 2979SOL    HW120399   4.291   2.651   3.802  0.3577 -0.8804  0.7637
 2979SOL    HW220400   4.421   2.581   3.752  0.9901 -0.0039 -2.2488
 2980SOL     OW20401   4.374   4.463   6.924  0.3120 -0.1925  0.5264
 2980SOL    HW120402   4.322   4.447   6.845  0.1749 -2.8847  1.1497
 2980SOL    HW220403   4.390   4.555   6.906 -0.5085 -0.4073 -1.2558
 2981SOL     OW20404   1.326   1.601   1.840 -0.2423 -0.0967 -0.1787
 2981SOL    HW120405   1.403   1.583   1.787 -0.7880 -1.8079 -0.3912
 2981SOL    HW220406   1.291   1.512   1.829 -0.5870 -0.1099  1.0077
 2982SOL     OW20407   4.166   0.716   2.537 -0.1739 -0.1599  0.0721
 2982SOL    HW120408   4.209   0.674   2.463  0.1439  0.4424 -0.0828
 2982SOL    HW220409   4.224   0.682   2.605 -0.3172 -0.2087  0.1710
 2983SOL     OW20410   3.052   0.047   8.481  0.6451  0.3823 -0.0837
 2983SOL    HW120411   3.036   0.141   8.483 -2.3357 -0.1447 -0.1126
 2983SOL    HW220412   2.988   0.016   8.417  1.6364  1.5166 -1.6395
 2984SOL     OW20413   0.652   2.267   2.517  0.4848 -0.2989  0.1078
 2984SOL    HW120414   0.680   2.185   2.558  3.3916  1.2468  1.1961
 2984SOL    HW220415   0.729   2.284   2.463 -0.8874  1.6240 -1.2477
 2985SOL     OW20416   2.877   3.481   7.667 -0.7528 -0.3455  0.3908
 2985SOL    HW120417   2.899   3.412   7.605  2.6564  0.8746  0.2261
 2985SOL    HW220418   2.793   3.512   7.634 -0.5509 -0.3394 -0.1063
 2986SOL     OW20419   0.523   2.804  10.331  0.0131 -0.1131 -0.4325
 2986SOL    HW120420   0.600   2.861  10.342 -0.1315 -0.4257  2.2499
 2986SOL    HW220421   0.550   2.752  10.256  0.0203 -1.8935  0.8274
 2987SOL     OW20422   4.472   0.913   4.265  0.0829  0.3035  0.2687
 2987SOL    HW120423   4.522   0.986   4.302 -1.7781  0.8422  1.6781
 2987SOL    HW220424   4.479   0.929   4.171 -3.3731  2.5184  0.3994
 2988SOL     OW20425   3.940   2.091   6.077  0.1501  0.0709  0.1755
 2988SOL    HW120426   3.964   2.035   6.151  0.4628 -0.2543 -0.1662
 2988SOL    HW220427   3.916   2.028   6.009 -2.8375  1.6835 -0.2403
 2989SOL     OW20428   3.790   3.153  13.787  0.2564  0.2208 -0.2723
 2989SOL    HW120429   3.847   3.229  13.776 -0.0853  0.6700  1.0869
 2989SOL    HW220430   3.767   3.134  13.697  2.0878  2.3546 -1.1941
 2990SOL     OW20431   2.889   2.731   7.948 -0.3183 -0.1482  0.0768
 2990SOL    HW120432   2.914   2.802   7.889  1.0960  0.5095  1.4517
 2990SOL    HW220433   2.955   2.744   8.017 -0.0324 -1.2121  0.0046
 2991SOL     OW20434   3.671   1.127  14.578  0.0755 -0.3812 -0.4532
 2991SOL    HW120435   3.735   1.196  14.559 -1.8544  1.9147  1.3922
 2991SOL    HW220436   3.727   1.051  14.596  0.6741  0.6925  2.3082
 2992SOL     OW20437   1.186   1.000   6.592 -0.1622  0.2511  0.3550
 2992SOL    HW120438   1.116   1.033   6.537 -1.5616 -0.5107  1.6947
 2992SOL    HW220439   1.267   1.035   6.554 -0.4496 -0.0060 -0.4987
 2993SOL     OW20440   3.780   2.134  10.324  0.6804  0.3656  0.2013
 2993SOL    HW120441   3.757   2.115  10.414  1.1603  1.8641  0.6289
 2993SOL    HW220442   3.715   2.200  10.299 -1.5404 -2.1437 -0.6233
 2994SOL     OW20443   4.562   3.236   2.195 -0.0095 -0.2218 -0.0477
 2994SOL    HW120444   4.537   3.206   2.107 -0.4852 -2.3010  0.7865
 2994SOL    HW220445   4.580   3.147   2.226 -1.5136  0.1275  1.8341
 2995SOL     OW20446   1.215   2.625   8.476  0.6505  0.2118 -0.5611
 2995SOL    HW120447   1.180   2.577   8.401  0.5806 -1.9332  0.8406
 2995SOL    HW220448   1.145   2.622   8.540  3.7429  1.2550  2.8400
 2996SOL     OW20449   1.193   3.842   5.399  0.2083  0.2574 -0.1840
 2996SOL    HW120450   1.158   3.931   5.409 -0.3312 -0.0489  0.6184
 2996SOL    HW220451   1.224   3.819   5.486 -1.5600  0.1085  0.3993
 2997SOL     OW20452   2.970   4.685   5.665 -0.3877  0.2795  0.4230
 2997SOL    HW120453   2.905   0.023   5.697  1.1592  1.3693  1.4680
 2997SOL    HW220454   3.037   4.683   5.733  0.7824  0.3120 -0.7327
 2998SOL     OW20455   4.565   1.997   7.555 -0.2822  0.1038 -0.1354
 2998SOL    HW120456   4.520   2.081   7.568  0.9606  0.7706 -0.1069
 2998SOL    HW220457   4.643   2.008   7.608  2.1490 -1.6700 -3.3655
 2999SOL     OW20458   2.374   2.321   9.228 -0.7425  0.5222  0.2581
 2999SOL    HW120459   2.448   2.265   9.208 -1.1332  0.8349 -2.0336
 2999SOL    HW220460   2.315   2.256   9.268 -3.6064  3.0402  0.1830
 3000SOL     OW20461   1.737   0.051  14.125 -0.4644  0.3702 -0.4871
 3000SOL    HW120462   1.740   4.689  14.165  1.6095  0.1404 -1.1070
 3000SOL    HW220463   1.766   0.101  14.202 -3.8836  3.4617 -1.2162
 3001SOL     OW20464   4.337   0.111   9.861 -0.7682 -0.1087  0.8062
 3001SOL    HW120465   4.430   0.122   9.878 -0.9860  1.2810  1.0990
 3001SOL    HW220466   4.318   0.047   9.931 -2.6191 -0.2569  0.1811
 3002SOL     OW20467   0.549   2.387   5.423 -0.6424  0.4735  0.2738
 3002SOL    HW120468   0.518   2.303   5.390 -0.7590  0.3835  0.6075
 3002SOL    HW220469   0.597   2.355   5.500 -1.0907 -0.6718  0.0805
 3003SOL     OW20470   4.100   0.446   8.811  0.3917 -0.6973  0.4716
 3003SOL    HW120471   4.040   0.418   8.880 -1.5933  1.9259 -0.1924
 3003SOL    HW220472   4.177   0.488   8.848 -1.6672  1.7767  1.9504
 3004SOL     OW20473   3.703   0.144   9.882  0.1407  0.5460 -0.3286
 3004SOL    HW120474   3.642   0.172   9.814  0.3525 -0.0638 -0.7726
 3004SOL    HW220475   3.647   0.151   9.958  0.8093  0.5032  0.1703
 3005SOL     OW20476   4.414   2.779   4.683  0.0523 -0.4073 -0.3730
 3005SOL    HW120477   4.321   2.765   4.664  0.3695 -0.3763 -1.9562
 3005SOL    HW220478   4.453   2.722   4.616 -1.7843 -1.1982 -0.7839
 3006SOL     OW20479   4.221   0.485  13.479 -0.0940  0.3366 -0.2168
 3006SOL    HW120480   4.272   0.436  13.543 -3.1110 -0.2572  1.6816
 3006SOL    HW220481   4.239   0.443  13.395 -2.2049 -0.5765 -0.2040
 3007SOL     OW20482   1.096   0.423  14.439 -0.4384  0.7361 -0.3763
 3007SOL    HW120483   1.126   0.334  14.455  0.2789  0.6674 -2.0665
 3007SOL    HW220484   1.142   0.449  14.359  1.0216  1.2886  0.6215
 3008SOL     OW20485   1.248   0.630   6.877  0.5762  0.3958  0.2647
 3008SOL    HW120486   1.223   0.540   6.899  1.1309 -0.4085 -2.4530
 3008SOL    HW220487   1.339   0.639   6.903  0.3458  2.9134  0.2270
 3009SOL     OW20488   4.332   0.577   9.066 -0.1309 -0.0303  0.0394
 3009SOL    HW120489   4.385   0.523   9.007 -1.8144 -1.1956 -0.4104
 3009SOL    HW220490   4.344   0.530   9.148 -0.8920 -0.3041 -0.0082
 3010SOL     OW20491   0.905   1.525  17.505  0.5176  0.0378  0.8926
 3010SOL    HW120492   0.861   1.482  17.578 -0.1293 -2.8185 -1.1993
 3010SOL    HW220493   0.876   1.616  17.507  0.7798  0.1382  0.0210
 3011SOL     OW20494   0.807   3.391   2.008 -0.0771  0.9092  0.3984
 3011SOL    HW120495   0.863   3.345   1.946 -0.8975  2.0342 -1.1629
 3011SOL    HW220496   0.748   3.431   1.944 -1.1745  0.1346  0.9202
 3012SOL     OW20497   0.086   1.277  16.859 -0.3618 -0.0686  0.1096
 3012SOL    HW120498   0.154   1.274  16.927 -0.9649  1.3225  0.7793
 3012SOL    HW220499   0.109   1.207  16.798  0.6383 -0.1901  0.6230
 3013SOL     OW20500   4.218   2.180   8.606 -0.1537 -0.1495  0.7707
 3013SOL    HW120501   4.173   2.228   8.676 -0.7332  0.0107  0.2807
 3013SOL    HW220502   4.266   2.110   8.649  0.3700 -0.4230 -0.2492
 3014SOL     OW20503   1.578   3.221   6.557  0.1663  0.1183 -0.0500
 3014SOL    HW120504   1.530   3.293   6.600 -1.6177  0.2038 -2.1812
 3014SOL    HW220505   1.505   3.182   6.508  0.1414  0.5812 -0.3829
 3015SOL     OW20506   2.745   2.528  10.815  0.0209 -0.4327  0.3933
 3015SOL    HW120507   2.733   2.592  10.745 -1.0443 -2.1436 -1.0109
 3015SOL    HW220508   2.802   2.585  10.866  1.8788 -1.8453 -0.1131
 3016SOL     OW20509   1.569   2.361  13.675 -0.0384 -0.1890 -0.0664
 3016SOL    HW120510   1.661   2.385  13.672  0.2964 -1.4850 -0.3443
 3016SOL    HW220511   1.529   2.425  13.616 -0.2595 -0.3480 -0.0899
 3017SOL     OW20512   2.139   1.095  10.927 -0.5229 -0.1378  0.2039
 3017SOL    HW120513   2.169   1.127  10.842  0.6416  0.4854  0.8530
 3017SOL    HW220514   2.215   1.109  10.984 -1.2921  0.2587  1.1264
 3018SOL     OW20515   0.520   4.560   9.909 -0.6584  0.0971 -0.1177
 3018SOL    HW120516   0.540   4.588   9.998 -0.3919  0.2192 -0.2166
 3018SOL    HW220517   0.424   4.565   9.905 -0.6756  1.9901  2.7408
 3019SOL     OW20518   4.338   3.084  16.768  0.4590 -0.0060  0.5747
 3019SOL    HW120519   4.255   3.094  16.720  0.3903 -0.3889  0.6140
 3019SOL    HW220520   4.303   3.012  16.821 -2.4419  0.2645 -0.9338
 3020SOL     OW20521   3.540   3.748   4.325 -0.0176 -0.0752 -0.2344
 3020SOL    HW120522   3.465   3.689   4.334 -0.8703  1.0550  0.0935
 3020SOL    HW220523   3.600   3.710   4.389 -0.8981 -1.4345 -0.2168
 3021SOL     OW20524   3.346   3.176   8.065  0.3616 -0.0658 -0.5102
 3021SOL    HW120525   3.277   3.135   8.117 -1.0849  0.1110 -2.2483
 3021SOL    HW220526   3.386   3.099   8.025 -0.4049  0.1411 -1.6801
 3022SOL     OW20527   0.163   2.959   7.399 -0.1152  0.6753  0.3126
 3022SOL    HW120528   0.181   2.887   7.340  0.7788  1.8862 -0.8924
 3022SOL    HW220529   0.205   3.028   7.348  1.9056  1.0882  2.5052
 3023SOL     OW20530   3.874   0.285  11.747  0.2626 -0.4901  0.1125
 3023SOL    HW120531   3.831   0.330  11.674 -0.6969 -1.2892  0.1763
 3023SOL    HW220532   3.961   0.325  11.749 -0.9156  2.1270 -1.5188
 3024SOL     OW20533   3.517   4.161   6.484 -0.0020 -0.4311  0.3314
 3024SOL    HW120534   3.497   4.228   6.419 -0.6680 -0.9678 -0.0188
 3024SOL    HW220535   3.463   4.181   6.561 -0.6523 -1.6310  0.1892
 3025SOL     OW20536   1.664   3.713  13.790 -0.0250 -0.6630 -0.0065
 3025SOL    HW120537   1.618   3.749  13.714  0.0107  1.2521  0.8691
 3025SOL    HW220538   1.619   3.633  13.818 -0.6076 -0.9185 -1.7151
 3026SOL     OW20539   2.634   2.149  10.661  0.0827 -0.0229  0.3195
 3026SOL    HW120540   2.620   2.061  10.695  0.9816  0.3800  1.6982
 3026SOL    HW220541   2.614   2.202  10.738  2.1610 -0.3093  1.0303
 3027SOL     OW20542   3.970   0.376   0.700  0.0935 -0.6702  0.4460
 3027SOL    HW120543   4.065   0.367   0.709  0.2631 -0.3086 -0.9304
 3027SOL    HW220544   3.957   0.447   0.763 -2.5453 -0.8062  0.0717
 3028SOL     OW20545   2.240   4.579   6.699 -0.0726  0.2594 -0.1076
 3028SOL    HW120546   2.159   4.604   6.655  0.1163  0.8062 -0.1461
 3028SOL    HW220547   2.217   4.552   6.788  0.6340  1.2199  0.3698
 3029SOL     OW20548   3.247   4.421   1.690 -0.3149  0.8570  0.5730
 3029SOL    HW120549   3.250   4.364   1.614  0.9500  1.1330  0.4260
 3029SOL    HW220550   3.325   4.394   1.738  0.8310  3.9978  0.4863
 3030SOL     OW20551   2.389   1.523  17.003 -0.2003 -0.0764  0.1443
 3030SOL    HW120552   2.469   1.561  16.969 -1.3619  0.9804 -1.4316
 3030SOL    HW220553   2.342   1.488  16.927  2.8260  0.2863 -1.8642
 3031SOL     OW20554   2.074   3.197   4.774 -0.6476  0.6870 -0.5129
 3031SOL    HW120555   2.003   3.135   4.757  2.6563 -2.6152 -2.2769
 3031SOL    HW220556   2.145   3.157   4.724 -1.0198  1.4319 -1.6227
 3032SOL     OW20557   1.513   0.871   1.122  0.6152 -0.5413  0.7154
 3032SOL    HW120558   1.573   0.845   1.192  1.3209 -0.5979  0.0923
 3032SOL    HW220559   1.453   0.918   1.179  3.1358  1.6840  1.5632
 3033SOL     OW20560   1.093   4.071   6.891 -0.2364  0.1967  0.3045
 3033SOL    HW120561   1.108   4.164   6.907  1.9589  0.1311 -1.4201
 3033SOL    HW220562   1.124   4.067   6.801  0.0454 -0.1064  0.4135
 3034SOL     OW20563   2.475   0.742  11.141  0.3804 -0.2923 -0.5491
 3034SOL    HW120564   2.491   0.653  11.112  1.7208  0.1792 -1.2335
 3034SOL    HW220565   2.491   0.795  11.063  1.7287  0.6111  0.3388
 3035SOL     OW20566   3.838   2.313  12.560  0.5996 -0.0869  0.4512
 3035SOL    HW120567   3.747   2.337  12.543  0.7543  0.3002  0.1686
 3035SOL    HW220568   3.891   2.388  12.533 -3.1687  1.4290 -2.7646
 3036SOL     OW20569   0.377   3.217   5.809  0.2199  0.1272  0.0491
 3036SOL    HW120570   0.445   3.265   5.857  0.0986  0.3136  0.0344
 3036SOL    HW220571   0.372   3.138   5.863 -2.7179  1.1153  1.2358
 3037SOL     OW20572   1.172   1.711   3.732  0.4943 -0.1688  0.1154
 3037SOL    HW120573   1.083   1.707   3.768 -0.0402  0.6204 -1.1040
 3037SOL    HW220574   1.175   1.806   3.717  0.2570  0.1250  1.8933
 3038SOL     OW20575   1.279   3.552   3.735  0.2567 -0.2819 -0.4643
 3038SOL    HW120576   1.203   3.503   3.704 -1.1224  1.3348  0.3845
 3038SOL    HW220577   1.238   3.616   3.793  2.8365 -2.0229  3.3098
 3039SOL     OW20578   0.980   2.799   1.336  0.4555  0.7077 -0.0655
 3039SOL    HW120579   1.036   2.866   1.375  0.3497  0.0806  1.1564
 3039SOL    HW220580   0.891   2.833   1.348  0.4879  0.9778 -0.6167
 3040SOL     OW20581   1.960   2.273  17.676 -0.0223 -0.6252  0.3666
 3040SOL    HW120582   1.881   2.305   0.022  0.8327  3.3702 -0.9471
 3040SOL    HW220583   1.951   2.178  17.667  0.9963 -0.5926 -0.9757
 3041SOL     OW20584   2.893   1.090   3.560 -0.9298  0.3927 -0.3269
 3041SOL    HW120585   2.895   1.186   3.553 -1.9013  0.3933 -0.5815
 3041SOL    HW220586   2.873   1.085   3.653 -1.4183  1.4713 -0.3657
 3042SOL     OW20587   0.669   1.830   8.571  0.2364  0.2904 -0.3766
 3042SOL    HW120588   0.744   1.816   8.513 -0.7121  0.7651 -1.7435
 3042SOL    HW220589   0.705   1.846   8.658 -0.5617 -2.1955  0.4007
 3043SOL     OW20590   3.940   3.937   8.201 -0.0672  0.5146  0.3919
 3043SOL    HW120591   3.988   3.865   8.160 -1.1450  0.1689 -0.2769
 3043SOL    HW220592   3.846   3.920   8.190  0.4370 -1.1800 -1.4433
 3044SOL     OW20593   2.711   0.088   2.963  0.2219  1.0307  0.2963
 3044SOL    HW120594   2.785   0.146   2.980  0.4038  0.9084 -0.0743
 3044SOL    HW220595   2.661   0.143   2.903 -0.5739 -1.2685 -1.1507
 3045SOL     OW20596   4.401   3.791  11.880 -0.3113  0.0822 -0.0630
 3045SOL    HW120597   4.419   3.703  11.847  0.6247  0.2049  0.1053
 3045SOL    HW220598   4.481   3.807  11.930 -1.4988  1.9587  1.2586
 3046SOL     OW20599   4.695   2.271  13.317  0.3774 -0.4484 -0.2897
 3046SOL    HW120600   4.626   2.221  13.273 -0.0822 -0.1749  0.1259
 3046SOL    HW220601   0.041   2.210  13.294 -0.8912 -2.2339  0.5532
 3047SOL     OW20602   0.041   1.760   5.036  0.3271  0.4769  0.2435
 3047SOL    HW120603   0.101   1.801   4.973  1.9892 -0.1452  1.4253
 3047SOL    HW220604   0.050   1.673   4.997 -0.1647  0.7455 -0.4821
 3048SOL     OW20605   2.501   1.837   1.047 -0.3230 -0.4551 -0.2608
 3048SOL    HW120606   2.586   1.879   1.060 -1.5025  1.1739  2.2369
 3048SOL    HW220607   2.515   1.753   1.090  1.4662 -0.6480 -1.2064
 3049SOL     OW20608   2.668   2.458  15.056  0.6844  0.0243  0.2859
 3049SOL    HW120609   2.693   2.483  14.967 -0.5467 -0.8829 -0.3124
 3049SOL    HW220610   2.748   2.467  15.108  0.2594 -1.1356  1.1370
 3050SOL     OW20611   1.243   0.184   6.242  0.1743  0.6937 -0.1290
 3050SOL    HW120612   1.195   0.237   6.178  1.3234  1.9193  0.0220
 3050SOL    HW220613   1.322   0.237   6.251  1.5842 -0.9861 -2.6189
 3051SOL     OW20614   2.149   0.617   2.559  0.1901 -0.1216 -0.3654
 3051SOL    HW120615   2.169   0.523   2.561 -1.8380 -0.5433 -0.6385
 3051SOL    HW220616   2.199   0.657   2.631  1.0268 -2.8228  0.5801
 3052SOL     OW20617   3.970   0.906   6.669  0.2284  0.1846 -0.1733
 3052SOL    HW120618   3.886   0.862   6.680  0.5861 -0.3174  0.5364
 3052SOL    HW220619   3.971   0.939   6.579  2.3080 -0.8461 -0.5227
 3053SOL     OW20620   4.275   2.660   3.448  0.1688  0.2480 -0.5520
 3053SOL    HW120621   4.313   2.619   3.527  1.0604 -1.1314 -1.6993
 3053SOL    HW220622   4.188   2.686   3.477  2.0001  2.7403  2.7689
 3054SOL     OW20623   1.935   4.697   4.559 -0.2872 -0.7213 -0.6781
 3054SOL    HW120624   1.863   4.711   4.621  1.1460  1.6463  0.4716
 3054SOL    HW220625   2.000   4.670   4.624  1.3634 -0.6800 -2.3138
 3055SOL     OW20626   4.211   3.069   5.202 -0.1585  0.3857 -1.0063
 3055SOL    HW120627   4.252   2.983   5.195  0.2100  0.5561 -0.9688
 3055SOL    HW220628   4.120   3.047   5.182 -0.4813 -1.1608  2.1176
 3056SOL     OW20629   3.760   0.088   6.372  0.2275 -0.3131 -0.4329
 3056SOL    HW120630   3.709   0.012   6.345  2.0915 -2.2117  1.4011
 3056SOL    HW220631   3.729   0.090   6.463 -0.2304 -1.1630 -0.5739
 3057SOL     OW20632   0.257   1.376   3.263 -0.5777  0.0157 -0.1653
 3057SOL    HW120633   0.187   1.397   3.201  0.5917  0.5846 -1.2936
 3057SOL    HW220634   0.231   1.418   3.346 -1.5767 -0.5148 -0.2115
 3058SOL     OW20635   2.757   0.375   5.559  0.1723 -0.3003 -0.0391
 3058SOL    HW120636   2.740   0.467   5.579  3.3439  0.3500 -0.3651
 3058SOL    HW220637   2.848   0.374   5.529 -0.0793 -2.9175 -0.7725
 3059SOL     OW20638   0.337   3.194  13.129  0.0456 -0.1939  0.1256
 3059SOL    HW120639   0.407   3.159  13.073  0.2706 -0.3965  0.5402
 3059SOL    HW220640   0.296   3.114  13.161  0.8632 -0.4444  0.5431
 3060SOL     OW20641   0.304   0.989  17.336 -0.3023 -0.1382  0.0420
 3060SOL    HW120642   0.242   1.053  17.370 -2.5985 -1.5467 -1.5524
 3060SOL    HW220643   0.288   0.910  17.388 -1.9049  0.6955  0.7845
 3061SOL     OW20644   2.485   1.059  15.458 -0.0681  0.2487  0.3530
 3061SOL    HW120645   2.518   1.139  15.416  2.6703 -0.6760  0.7543
 3061SOL    HW220646   2.446   1.099  15.536 -0.8847  0.4551 -0.1572
 3062SOL     OW20647   0.667   0.583   5.169 -0.1136  0.5588  0.2250
 3062SOL    HW120648   0.619   0.555   5.247  2.9686 -0.6478  1.6702
 3062SOL    HW220649   0.757   0.569   5.199  0.2290 -0.0452 -1.0879
 3063SOL     OW20650   2.265   2.818   8.043  0.0669 -0.5240  0.6710
 3063SOL    HW120651   2.287   2.751   7.978 -0.9425  1.3183 -1.5714
 3063SOL    HW220652   2.291   2.779   8.127  1.1377  0.4033  0.7527
 3064SOL     OW20653   3.181   2.779   8.856 -0.3259 -0.5588 -0.7559
 3064SOL    HW120654   3.248   2.722   8.819 -0.7623 -0.7090 -1.3135
 3064SOL    HW220655   3.224   2.834   8.921 -3.3459  1.1438 -0.1933
 3065SOL     OW20656   0.320   3.890   7.533 -0.1104  0.5222 -0.4170
 3065SOL    HW120657   0.261   3.858   7.464  0.0436 -1.7839  0.5116
 3065SOL    HW220658   0.317   3.985   7.518  1.0504  0.4874 -0.8077
 3066SOL     OW20659   1.450   3.879   6.093  0.2982  0.5593  0.4343
 3066SOL    HW120660   1.376   3.914   6.143 -0.5037 -0.5993  0.0493
 3066SOL    HW220661   1.415   3.799   6.055 -0.6214  0.9780  0.3847
 3067SOL     OW20662   2.862   1.123  13.006  0.0178 -0.0284 -0.2160
 3067SOL    HW120663   2.877   1.029  13.009  1.2073  0.1104 -1.7876
 3067SOL    HW220664   2.818   1.129  12.921  0.3584  0.7741 -0.3403
 3068SOL     OW20665   3.050   4.075   2.626 -0.1288  0.1294 -0.4146
 3068SOL    HW120666   3.000   4.156   2.631  3.2209  2.0539  1.2248
 3068SOL    HW220667   3.131   4.103   2.585 -0.9886  1.1733 -1.3917
 3069SOL     OW20668   0.781   0.423  10.590 -0.7451 -0.3466  0.8378
 3069SOL    HW120669   0.694   0.448  10.558 -1.7185 -1.5367  2.5889
 3069SOL    HW220670   0.803   0.504  10.637 -1.4591  0.4408 -0.1622
 3070SOL     OW20671   1.948   0.408   8.904 -0.0420  0.2407  0.0358
 3070SOL    HW120672   1.990   0.438   8.984  2.3077 -1.2824 -0.6479
 3070SOL    HW220673   2.004   0.335   8.876 -1.7254 -1.6285  1.4938
 3071SOL     OW20674   0.456   4.448   3.885  0.2127 -0.5435  0.0460
 3071SOL    HW120675   0.427   4.391   3.956  0.5007 -1.2244 -0.3851
 3071SOL    HW220676   0.550   4.432   3.888  0.5370  1.1525 -1.4066
 3072SOL     OW20677   0.264   3.407  15.224 -0.0619  0.0298 -0.0823
 3072SOL    HW120678   0.296   3.322  15.253 -0.8743 -0.4984 -0.7588
 3072SOL    HW220679   0.169   3.404  15.239 -0.2111 -0.9456 -1.2714
 3073SOL     OW20680   2.257   0.511   3.674  0.9301 -0.2523 -0.0840
 3073SOL    HW120681   2.279   0.513   3.581  2.9098 -0.4293  0.3780
 3073SOL    HW220682   2.331   0.476   3.723  0.3449 -0.3414  0.7350
 3074SOL     OW20683   4.216   4.591   5.614  0.2938  0.4867  0.2518
 3074SOL    HW120684   4.255   4.672   5.648  0.4805 -0.5218  2.4533
 3074SOL    HW220685   4.270   4.575   5.537 -1.2299 -0.4509 -0.6368
 3075SOL     OW20686   1.674   3.423   6.760 -0.1242  0.5909  0.3267
 3075SOL    HW120687   1.748   3.400   6.817  0.4803 -0.3252 -0.8184
 3075SOL    HW220688   1.717   3.459   6.682  0.1651 -0.5435 -0.0460
 3076SOL     OW20689   0.486   2.045   8.903  0.4605  0.3047  0.0869
 3076SOL    HW120690   0.543   2.017   8.831 -0.3733  0.8651 -0.7944
 3076SOL    HW220691   0.498   2.140   8.901 -2.1367  0.6434  0.9526
 3077SOL     OW20692   1.630   3.975   4.079 -0.7892  0.2348 -0.7867
 3077SOL    HW120693   1.602   3.884   4.072  2.0806 -0.7432  0.4306
 3077SOL    HW220694   1.651   3.978   4.172 -1.1160  1.5347 -0.7488
 3078SOL     OW20695   0.650   3.678  14.988  0.3924  0.3049  0.4296
 3078SOL    HW120696   0.572   3.636  15.024  0.1086  1.2730  0.9511
 3078SOL    HW220697   0.662   3.633  14.904 -0.0335 -0.5931  0.8522
 3079SOL     OW20698   2.078   2.510   8.280 -0.2293  0.1075 -0.1853
 3079SOL    HW120699   2.111   2.600   8.289 -0.3231  0.3080 -1.8509
 3079SOL    HW220700   2.154   2.457   8.304 -2.5187 -2.4050  1.5078
 3080SOL     OW20701   0.763   2.800   6.345  0.4911  0.2252  0.0367
 3080SOL    HW120702   0.801   2.720   6.382  0.1536  0.8811  1.7777
 3080SOL    HW220703   0.686   2.812   6.399  1.1012 -0.5605  1.0827
 3081SOL     OW20704   1.582   3.049  11.450  0.0184  0.5058  0.0196
 3081SOL    HW120705   1.584   2.984  11.380  1.1946 -0.0533  0.5550
 3081SOL    HW220706   1.611   2.992  11.522  1.4279 -1.1335 -1.8648
 3082SOL     OW20707   3.731   0.121   5.662 -0.0397 -0.3546 -0.6709
 3082SOL    HW120708   3.669   0.073   5.606 -2.0269  0.9390  0.4381
 3082SOL    HW220709   3.809   0.121   5.606  0.5082 -2.1018  0.0867
 3083SOL     OW20710   1.998   1.987   1.324  0.0661 -0.1614  0.2027
 3083SOL    HW120711   2.085   1.953   1.301 -0.1928 -1.2901  0.9274
 3083SOL    HW220712   2.015   2.028   1.409  2.0678  1.8627 -1.1517
 3084SOL     OW20713   2.111   4.094   9.053  0.3050  0.6298 -0.0026
 3084SOL    HW120714   2.044   4.099   8.984 -0.4168  4.4211  1.0262
 3084SOL    HW220715   2.169   4.168   9.034 -0.2419  1.0821  0.0997
 3085SOL     OW20716   2.645   0.250   6.143  0.0115 -0.2905 -0.3744
 3085SOL    HW120717   2.679   0.311   6.078  0.8257  0.7829  1.0544
 3085SOL    HW220718   2.663   0.297   6.225 -1.3488 -0.4130 -0.0130
 3086SOL     OW20719   3.823   4.160  16.061 -0.2807 -0.2095 -0.1120
 3086SOL    HW120720   3.740   4.123  16.089 -0.6025 -0.2581 -1.1437
 3086SOL    HW220721   3.804   4.248  16.093 -0.7318 -0.3618  0.0424
 3087SOL     OW20722   1.771   2.927   1.384  0.4962  0.3103  0.7187
 3087SOL    HW120723   1.708   2.877   1.333 -1.2992  1.7267  1.5491
 3087SOL    HW220724   1.724   2.993   1.435 -2.0853 -0.7390 -0.2908
 3088SOL     OW20725   1.316   3.276  11.991  0.4568  0.7735 -0.3873
 3088SOL    HW120726   1.302   3.298  12.083  2.4436 -2.8026  0.7690
 3088SOL    HW220727   1.269   3.344  11.943  0.7580  1.6605  0.5890
 3089SOL     OW20728   0.039   2.367   9.121 -0.0603 -0.0190 -0.6437
 3089SOL    HW120729   0.128   2.334   9.133 -0.3589 -0.5764  0.0656
 3089SOL    HW220730   0.024   2.417   9.202 -2.1916  1.8506 -2.2005
 3090SOL     OW20731   1.197   3.208   8.978 -0.1158  0.0768 -0.3742
 3090SOL    HW120732   1.214   3.115   8.990  0.2286  0.2452  0.4898
 3090SOL    HW220733   1.202   3.221   8.884 -2.6542  2.4084 -0.2076
 3091SOL     OW20734   1.583   2.989   7.557 -0.2575  0.1910 -0.3072
 3091SOL    HW120735   1.626   3.007   7.473 -0.7833  1.6268 -0.2698
 3091SOL    HW220736   1.605   3.071   7.602  1.1512 -1.6888  2.4134
 3092SOL     OW20737   3.036   1.853  13.136  0.9398 -0.5376  0.3948
 3092SOL    HW120738   3.045   1.769  13.183 -0.1193  0.7324  2.8983
 3092SOL    HW220739   3.006   1.914  13.203 -2.7240  0.9879 -2.6786
 3093SOL     OW20740   2.405   3.984  14.125  0.2661  0.3230  0.6371
 3093SOL    HW120741   2.334   3.941  14.077 -0.4788  2.0987  0.1819
 3093SOL    HW220742   2.397   4.072  14.090  2.0142 -0.0371 -0.7044
 3094SOL     OW20743   0.559   3.207  12.442  0.0267 -0.1265 -1.0320
 3094SOL    HW120744   0.552   3.302  12.443 -0.3183 -0.1481 -1.5418
 3094SOL    HW220745   0.469   3.186  12.467 -0.2384  2.6613  0.3623
 3095SOL     OW20746   3.963   1.373  11.411 -0.8561 -0.1450 -0.1265
 3095SOL    HW120747   3.975   1.354  11.318 -0.0483  0.2559 -0.1085
 3095SOL    HW220748   3.870   1.396  11.415  0.0343  3.0276  1.9722
 3096SOL     OW20749   2.173   1.752  13.265  0.4324  0.3594 -0.5889
 3096SOL    HW120750   2.175   1.656  13.268 -3.0973  0.3015 -0.0534
 3096SOL    HW220751   2.142   1.762  13.175 -0.6988 -0.9288 -0.3567
 3097SOL     OW20752   0.168   3.978  12.631 -0.3543 -0.3646  0.1986
 3097SOL    HW120753   0.245   3.951  12.681  0.7080  0.2903 -1.0828
 3097SOL    HW220754   0.109   3.909  12.660  1.3618 -2.8686 -2.2205
 3098SOL     OW20755   0.969   0.241   4.529  0.3033  0.1987  0.0670
 3098SOL    HW120756   0.957   0.333   4.552 -1.5872  0.1449 -0.7045
 3098SOL    HW220757   0.907   0.234   4.456 -1.3372  1.9276  1.3047
 3099SOL     OW20758   2.964   1.378   6.508 -0.3219  0.1870 -0.0558
 3099SOL    HW120759   3.037   1.408   6.454 -1.4270 -1.1566 -2.2757
 3099SOL    HW220760   2.954   1.284   6.495 -2.6568  0.2669  1.2186
 3100SOL     OW20761   2.745   4.284   5.305  0.1180  0.2363 -0.2547
 3100SOL    HW120762   2.725   4.237   5.224 -0.9787 -0.6843  0.5433
 3100SOL    HW220763   2.746   4.378   5.287 -0.6706  0.1130 -0.9448
 3101SOL     OW20764   4.120   3.932   1.340 -0.2376  0.5502  0.2488
 3101SOL    HW120765   4.039   3.890   1.368  0.6782 -1.0953  0.4685
 3101SOL    HW220766   4.120   3.903   1.249 -2.7372  1.3336  0.0109
 3102SOL     OW20767   3.752   2.903   6.309 -0.4909 -0.3061  0.5941
 3102SOL    HW120768   3.815   2.963   6.269  0.0412  0.1934  2.1927
 3102SOL    HW220769   3.685   2.972   6.318  0.3242  0.3436  1.6964
 3103SOL     OW20770   4.356   0.429   0.024  0.1045  0.5044  0.5047
 3103SOL    HW120771   4.442   0.470   0.037 -0.2172  1.2386  0.2799
 3103SOL    HW220772   4.359   0.371   0.099 -1.2278  1.5022  1.3255
 3104SOL     OW20773   0.410   1.867  13.971  0.1113 -0.3713  0.2411
 3104SOL    HW120774   0.445   1.840  14.056 -3.6331  0.5671  2.0681
 3104SOL    HW220775   0.375   1.954  13.993  3.2724  0.4748  1.9732
 3105SOL     OW20776   3.315   0.107   8.385  0.5032 -0.1207 -0.3436
 3105SOL    HW120777   3.238   0.081   8.436  1.6161  2.1309  2.4713
 3105SOL    HW220778   3.390   0.090   8.441  0.9648  1.4687 -0.4828
 3106SOL     OW20779   0.079   0.312   4.256  0.6423  0.8082  0.0181
 3106SOL    HW120780   0.125   0.344   4.334  2.0095 -0.2967 -0.3328
 3106SOL    HW220781   0.154   0.282   4.205 -0.0396 -0.3822 -0.3011
 3107SOL     OW20782   1.134   3.202   2.766  0.1329 -0.4574 -0.1199
 3107SOL    HW120783   1.205   3.192   2.830 -1.6240 -1.3707  1.6623
 3107SOL    HW220784   1.170   3.285   2.734 -1.3008  0.1802 -0.0561
 3108SOL     OW20785   3.725   0.910   2.562  0.5741 -0.0681 -0.1005
 3108SOL    HW120786   3.780   0.913   2.641 -0.9320  1.0956  0.9087
 3108SOL    HW220787   3.649   0.958   2.596  0.1807 -0.7692  0.0127
 3109SOL     OW20788   2.378   4.699   2.423  0.6235 -0.1622  0.5015
 3109SOL    HW120789   2.355   4.630   2.486 -0.5540  0.1617  0.4128
 3109SOL    HW220790   2.309   4.689   2.358  2.4112 -0.9448 -1.2995
 3110SOL     OW20791   0.766   1.711   5.458 -0.6853 -0.4398  0.3173
 3110SOL    HW120792   0.844   1.765   5.458  0.5267 -2.1905  1.4970
 3110SOL    HW220793   0.728   1.727   5.372  0.7644 -1.4813 -0.5120
 3111SOL     OW20794   0.204   2.560   1.248  0.0380  0.6724 -0.4235
 3111SOL    HW120795   0.170   2.514   1.325  0.5168 -1.9082 -1.7322
 3111SOL    HW220796   0.173   2.650   1.252 -3.1786 -0.2991 -2.4804
 3112SOL     OW20797   2.229   3.826   3.151 -0.2740  0.3466  0.0459
 3112SOL    HW120798   2.323   3.818   3.170 -0.4096 -0.1286  0.4883
 3112SOL    HW220799   2.190   3.858   3.232 -0.2003 -1.4925  0.7980
 3113SOL     OW20800   3.471   3.124   5.478 -0.4755 -0.2190  0.0221
 3113SOL    HW120801   3.470   3.120   5.382 -4.3028 -1.2534  0.1233
 3113SOL    HW220802   3.481   3.035   5.511 -0.0072 -0.2797 -0.2776
 3114SOL     OW20803   0.700   3.951   2.012  0.5676 -0.5541 -0.2251
 3114SOL    HW120804   0.654   4.020   1.963 -1.0565 -2.3404 -1.1811
 3114SOL    HW220805   0.681   3.969   2.104  2.0472  0.5764 -0.1344
 3115SOL     OW20806   4.484   1.442   3.137  0.2062  0.0506 -0.6183
 3115SOL    HW120807   4.400   1.398   3.142  1.4033 -2.1106  0.4635
 3115SOL    HW220808   4.479   1.513   3.201 -2.0676 -1.8477  1.3012
 3116SOL     OW20809   1.914   1.351   2.619 -0.1290  0.0384 -0.1059
 3116SOL    HW120810   1.967   1.397   2.683  0.3012 -0.5427 -0.0499
 3116SOL    HW220811   1.985   1.306   2.573 -0.4625 -0.1529 -0.4357
 3117SOL     OW20812   1.499   4.475  13.259  0.9080  0.1655  0.0122
 3117SOL    HW120813   1.412   4.466  13.297  1.5222 -0.0782  1.3614
 3117SOL    HW220814   1.551   4.487  13.338  0.8540 -0.0795  0.0877
 3118SOL     OW20815   0.781   1.861   9.677  0.3558 -0.1046  0.0633
 3118SOL    HW120816   0.750   1.787   9.730  1.0329  0.6139  1.4342
 3118SOL    HW220817   0.778   1.821   9.590  0.0255 -1.4099  0.6666
 3119SOL     OW20818   1.658   0.217   5.174  0.6684  0.1831  0.2074
 3119SOL    HW120819   1.610   0.277   5.230 -0.0253 -1.9744  1.9487
 3119SOL    HW220820   1.727   0.187   5.234  0.0058 -0.5106  0.6280
 3120SOL     OW20821   0.482   0.675  12.322 -0.2648 -0.2903  0.2726
 3120SOL    HW120822   0.469   0.715  12.408  0.6463 -0.1715  0.3557
 3120SOL    HW220823   0.501   0.755  12.273 -1.7178 -0.7318 -1.0034
 3121SOL     OW20824   1.642   0.934   4.115 -0.4343 -0.0310  0.2368
 3121SOL    HW120825   1.601   1.006   4.163 -1.9403  0.2135 -1.4269
 3121SOL    HW220826   1.612   0.860   4.168  1.3081 -1.1533 -0.3408
 3122SOL     OW20827   2.663   4.017  11.883 -0.6314  0.3388  0.5737
 3122SOL    HW120828   2.609   4.095  11.900  0.9323  1.1879  1.6694
 3122SOL    HW220829   2.643   3.965  11.960 -3.6585 -0.5146 -0.8030
 3123SOL     OW20830   3.712   1.948   3.807 -0.1576  1.1734  0.6652
 3123SOL    HW120831   3.790   1.895   3.820  0.0611  1.4672  0.5589
 3123SOL    HW220832   3.659   1.930   3.884  0.6864  0.9266  1.1866
 3124SOL     OW20833   2.988   1.778   5.189  0.3940 -0.0921  0.3264
 3124SOL    HW120834   2.983   1.873   5.200  0.3078 -0.0755  0.1432
 3124SOL    HW220835   3.070   1.772   5.140 -0.8774 -1.4879 -1.5976
 3125SOL     OW20836   3.182   2.772   3.184 -0.1248  0.5975  0.0134
 3125SOL    HW120837   3.174   2.815   3.270 -0.2188  2.3454 -0.8673
 3125SOL    HW220838   3.104   2.794   3.134 -0.1672 -2.5109 -1.2527
 3126SOL     OW20839   3.493   0.731   5.601  0.2721  0.0855 -0.3278
 3126SOL    HW120840   3.478   0.638   5.581 -1.3981  0.4705 -0.8215
 3126SOL    HW220841   3.569   0.743   5.544  1.2602 -0.3396  0.8769
 3127SOL     OW20842   2.945   3.894   3.517  0.4077  0.2454 -0.5655
 3127SOL    HW120843   2.957   3.819   3.459  0.6489  0.0831 -0.3041
 3127SOL    HW220844   2.873   3.927   3.463 -0.3686  0.1816  0.4224
 3128SOL     OW20845   3.081   4.015  10.635  0.3228 -0.3035 -0.3339
 3128SOL    HW120846   3.154   3.953  10.630  0.5907 -0.0914  1.0113
 3128SOL    HW220847   3.110   4.091  10.585  0.7909 -1.1512 -1.3489
 3129SOL     OW20848   3.136   4.370  10.948 -0.7811  0.1729  0.3423
 3129SOL    HW120849   3.174   4.363  11.035  0.3317 -1.4792 -0.2512
 3129SOL    HW220850   3.211   4.342  10.895 -1.7079  0.5206 -1.1680
 3130SOL     OW20851   2.317   4.600   2.678  0.0148  0.5689 -0.1170
 3130SOL    HW120852   2.318   4.516   2.722  1.4664 -1.0275 -3.2019
 3130SOL    HW220853   2.224   4.609   2.655  0.6305 -0.3457 -2.9932
 3131SOL     OW20854   1.048   0.837   2.652 -0.1155 -0.2154 -0.2943
 3131SOL    HW120855   1.096   0.919   2.639  2.3430 -1.5371  0.5264
 3131SOL    HW220856   0.964   0.852   2.609 -0.1414 -1.9238 -0.8341
 3132SOL     OW20857   0.897   2.349  16.748 -0.0962 -0.4066  0.1073
 3132SOL    HW120858   0.935   2.411  16.685 -1.1595  0.4704  0.3238
 3132SOL    HW220859   0.819   2.328  16.697  0.5239  1.1457 -1.5022
 3133SOL     OW20860   0.191   3.139   5.628 -0.6415  0.2083 -0.2816
 3133SOL    HW120861   0.219   3.213   5.682 -1.0117 -0.9386  1.4814
 3133SOL    HW220862   0.153   3.088   5.699 -0.4512 -0.8105 -0.9173
 3134SOL     OW20863   3.117   1.251   6.290  0.0928 -0.4163 -0.2031
 3134SOL    HW120864   3.204   1.280   6.318  0.4143  1.0743 -2.7165
 3134SOL    HW220865   3.137   1.177   6.233 -0.3995 -1.1808  0.6135
 3135SOL     OW20866   1.476   2.373   6.954 -0.6069  0.6413 -0.3115
 3135SOL    HW120867   1.414   2.368   7.026  0.6244 -0.7431  0.6597
 3135SOL    HW220868   1.435   2.322   6.884  3.1009 -2.2643 -0.3316
 3136SOL     OW20869   1.948   0.620   6.906  0.8039 -0.1741  0.3164
 3136SOL    HW120870   1.960   0.651   6.996  2.0419 -1.5170  0.6282
 3136SOL    HW220871   1.937   0.705   6.865  0.7425 -0.6544 -0.6576
 3137SOL     OW20872   2.142   0.465   5.166  0.5714 -0.0472  0.1733
 3137SOL    HW120873   2.218   0.515   5.195  2.1606 -1.1225 -2.1172
 3137SOL    HW220874   2.156   0.469   5.071 -0.0837  1.9456  0.1695
 3138SOL     OW20875   2.980   2.516   4.495 -0.1138  0.0559  0.0391
 3138SOL    HW120876   3.025   2.494   4.414 -0.1357 -0.5422  0.1866
 3138SOL    HW220877   2.914   2.447   4.499 -0.3942  0.3308  0.1194
 3139SOL     OW20878   2.287   4.484  10.442  0.2400 -0.1637  0.0169
 3139SOL    HW120879   2.304   4.502  10.535 -1.9847  1.8566  0.0377
 3139SOL    HW220880   2.193   4.466  10.454  0.6477 -2.1752  0.1689
 3140SOL     OW20881   1.137   2.245   5.433 -0.2348  0.2650  0.1471
 3140SOL    HW120882   1.210   2.298   5.464  0.4713  1.2054 -3.0919
 3140SOL    HW220883   1.181   2.196   5.363 -1.9371 -3.2073  1.4676
 3141SOL     OW20884   2.606   3.476  16.249 -0.6016 -0.1022  0.0731
 3141SOL    HW120885   2.530   3.421  16.270 -1.7014  1.0789 -0.8404
 3141SOL    HW220886   2.678   3.414  16.263 -0.2219  0.2628 -0.2845
 3142SOL     OW20887   3.924   0.409   7.049 -0.0176 -0.2241 -0.2953
 3142SOL    HW120888   3.990   0.417   7.117  1.0380 -2.0332 -1.0817
 3142SOL    HW220889   3.855   0.382   7.109  0.4497  1.7191  1.0868
 3143SOL     OW20890   2.257   2.598   3.180 -0.0411 -0.5325  0.2314
 3143SOL    HW120891   2.328   2.634   3.127  0.0559  0.7886  1.2587
 3143SOL    HW220892   2.183   2.651   3.149  0.7676  1.6712  2.0595
 3144SOL     OW20893   4.421   0.747   4.495  0.1072  0.1738 -1.1312
 3144SOL    HW120894   4.349   0.686   4.479 -0.8857  0.5682  1.7574
 3144SOL    HW220895   4.439   0.772   4.405  0.0243  0.6959 -1.0033
 3145SOL     OW20896   1.973   3.476   6.306 -0.0474 -0.2480 -0.0709
 3145SOL    HW120897   1.904   3.443   6.362  0.0609 -0.0199  0.1981
 3145SOL    HW220898   1.933   3.482   6.219  2.6631  0.8448 -1.2629
 3146SOL     OW20899   3.311   1.088   5.851  0.2462 -0.2544 -0.0636
 3146SOL    HW120900   3.359   1.145   5.792 -3.1124  2.1379 -0.5370
 3146SOL    HW220901   3.225   1.130   5.844 -0.1664 -1.5726 -2.7464
 3147SOL     OW20902   3.620   3.744  12.210 -0.0799 -0.0978  0.3198
 3147SOL    HW120903   3.675   3.817  12.238 -0.4704 -0.5154  2.2112
 3147SOL    HW220904   3.590   3.728  12.300 -0.0752 -0.5196  0.2426
 3148SOL     OW20905   2.827   0.672  11.657 -0.1993 -0.2338 -0.0909
 3148SOL    HW120906   2.775   0.629  11.588 -1.7253  1.7975 -0.1928
 3148SOL    HW220907   2.893   0.730  11.619  0.2521 -0.6498  0.0543
 3149SOL     OW20908   2.194   1.791   6.133  0.1975  0.0271 -0.0169
 3149SOL    HW120909   2.127   1.859   6.138 -0.6768 -0.6498 -2.3960
 3149SOL    HW220910   2.146   1.729   6.188  0.0927 -1.6930 -2.0633
 3150SOL     OW20911   3.861   3.786   7.791  0.2183  0.0863 -0.1354
 3150SOL    HW120912   3.777   3.800   7.835 -0.1660  3.2616 -1.9172
 3150SOL    HW220913   3.845   3.834   7.710 -0.8622 -1.1415 -0.6435
 3151SOL     OW20914   3.595   4.144   3.704 -0.4757 -0.6441  0.4221
 3151SOL    HW120915   3.615   4.055   3.732  1.3625  0.1200  1.5782
 3151SOL    HW220916   3.661   4.164   3.637 -1.3835  1.2638  0.0876
 3152SOL     OW20917   1.582   2.492  15.029  0.3796 -0.1554  0.4658
 3152SOL    HW120918   1.659   2.525  15.075  1.3446  2.0102 -2.6641
 3152SOL    HW220919   1.520   2.524  15.094 -2.4240 -2.7867 -0.9338
 3153SOL     OW20920   3.777   1.725  13.332  0.0649  0.3679 -0.0786
 3153SOL    HW120921   3.848   1.714  13.269 -1.2333 -2.9095 -1.0009
 3153SOL    HW220922   3.725   1.794  13.290  1.5994  0.7516 -1.3456
 3154SOL     OW20923   2.638   0.928   5.272  0.2843  0.3092  0.3288
 3154SOL    HW120924   2.616   0.996   5.208 -1.4329 -0.9919 -0.4592
 3154SOL    HW220925   2.647   0.852   5.214 -2.2981 -0.4190  0.8675
 3155SOL     OW20926   4.493   3.814   1.466  0.3575 -0.1756 -0.4171
 3155SOL    HW120927   4.485   3.854   1.379 -0.2544 -0.7398 -0.6156
 3155SOL    HW220928   4.583   3.781   1.458  1.3888  2.6241 -0.6833
 3156SOL     OW20929   3.940   1.213   5.573  0.4815 -0.2862  0.2137
 3156SOL    HW120930   3.873   1.162   5.526 -0.3428  1.7641 -0.8333
 3156SOL    HW220931   3.968   1.276   5.507 -2.5875  2.2846  1.3627
 3157SOL     OW20932   0.456   3.605   3.301 -0.2811 -0.2622  0.5064
 3157SOL    HW120933   0.484   3.520   3.335  0.2390 -0.9265 -1.5711
 3157SOL    HW220934   0.420   3.646   3.380  1.7614  1.2761  0.6459
 3158SOL     OW20935   3.947   4.567   8.119 -0.3475  0.1147  0.1070
 3158SOL    HW120936   3.965   4.521   8.201  1.1330 -1.3753 -1.0578
 3158SOL    HW220937   4.035   4.603   8.111 -0.1315 -0.5275 -0.3809
 3159SOL     OW20938   3.611   3.856   1.881 -0.4008 -0.0448 -0.1337
 3159SOL    HW120939   3.702   3.830   1.897 -0.5703  0.9866  2.5646
 3159SOL    HW220940   3.581   3.768   1.900  2.1122 -0.9409 -0.2549
 3160SOL     OW20941   0.654   2.844   4.144 -0.2776 -0.3347 -0.9143
 3160SOL    HW120942   0.610   2.761   4.123  0.5357 -0.5001 -1.9322
 3160SOL    HW220943   0.593   2.906   4.105  0.4785  1.4936  0.8031
 3161SOL     OW20944   2.428   3.428   7.087  0.2562 -0.1628 -0.5679
 3161SOL    HW120945   2.453   3.336   7.093 -2.3279 -0.7234  1.5944
 3161SOL    HW220946   2.376   3.424   7.007  0.4495  1.2554 -0.7698
 3162SOL     OW20947   3.303   0.971   6.313 -0.3417  0.3451 -0.5362
 3162SOL    HW120948   3.395   0.996   6.300 -0.9993  1.8760 -2.3193
 3162SOL    HW220949   3.304   0.877   6.299 -0.9025  0.1886  0.5380
 3163SOL     OW20950   4.308   3.168   9.072 -0.2136 -0.6609 -0.0301
 3163SOL    HW120951   4.397   3.161   9.107 -0.1630  1.8380  0.3273
 3163SOL    HW220952   4.255   3.120   9.136  2.3631 -1.9174  1.1669
 3164SOL     OW20953   2.763   1.378   2.481 -0.3485 -0.2053  0.2719
 3164SOL    HW120954   2.849   1.372   2.438  0.4541  1.7017  1.6157
 3164SOL    HW220955   2.733   1.297   2.440 -0.1107  0.0519 -0.3997
 3165SOL     OW20956   3.534   4.022   8.370  0.7472 -0.0953  0.5948
 3165SOL    HW120957   3.583   4.080   8.428  2.4892 -1.1446  0.1439
 3165SOL    HW220958   3.446   4.060   8.375  0.6591 -0.4745  1.7790
 3166SOL     OW20959   0.295   2.915   2.537  0.1736  0.2464  0.2633
 3166SOL    HW120960   0.304   2.990   2.596 -2.3842 -0.2962  1.3466
 3166SOL    HW220961   0.371   2.858   2.554  1.0196  1.2314 -0.2074
 3167SOL     OW20962   4.418   4.037   5.052 -0.2793 -0.0245  0.7981
 3167SOL    HW120963   4.444   3.977   4.982 -1.0200  0.9724 -0.3516
 3167SOL    HW220964   4.419   3.988   5.134  0.8680  0.2476  0.9555
 3168SOL     OW20965   4.240   2.254   2.016 -0.0567  0.1615  0.3508
 3168SOL    HW120966   4.281   2.200   1.948 -1.7556  0.8050 -1.1677
 3168SOL    HW220967   4.194   2.193   2.073 -0.1318 -1.1171 -1.0602
 3169SOL     OW20968   2.762   4.376  11.844  0.1743  0.8900  0.9594
 3169SOL    HW120969   2.795   4.295  11.805 -0.2228  1.6357 -0.9309
 3169SOL    HW220970   2.694   4.417  11.790  1.3906 -0.3949 -1.5429
 3170SOL     OW20971   1.756   4.224   6.671 -0.0542 -0.2050 -0.2810
 3170SOL    HW120972   1.774   4.318   6.661 -0.1403 -0.2865 -1.2533
 3170SOL    HW220973   1.665   4.218   6.699  0.0359 -1.7063 -0.3153
 3171SOL     OW20974   4.063   2.246  16.971  0.1274  0.0197  0.3211
 3171SOL    HW120975   4.039   2.168  16.921 -2.2289 -0.1507  1.6836
 3171SOL    HW220976   4.045   2.217  17.061  1.5726  1.2206  0.9791
 3172SOL     OW20977   1.539   0.620  11.574 -0.6828 -0.3099  0.3553
 3172SOL    HW120978   1.444   0.627  11.571 -0.5236  2.6444  2.6424
 3172SOL    HW220979   1.564   0.708  11.545  1.3905 -0.9109  0.2967
 3173SOL     OW20980   1.696   1.262  14.065  0.1318  0.2688 -0.6696
 3173SOL    HW120981   1.679   1.351  14.098 -2.6805 -0.6183  0.3076
 3173SOL    HW220982   1.736   1.269  13.978  2.1883 -3.5280 -0.0194
 3174SOL     OW20983   1.785   3.249  11.467 -0.7351  0.2042 -0.5198
 3174SOL    HW120984   1.826   3.212  11.545  2.9753  1.5458 -1.8229
 3174SOL    HW220985   1.709   3.191  11.463 -0.4299 -0.3309  1.3896
 3175SOL     OW20986   0.940   2.441   4.743 -0.5200 -0.0375  0.0311
 3175SOL    HW120987   0.979   2.379   4.804 -2.8096 -0.8910  0.6451
 3175SOL    HW220988   0.920   2.510   4.806  1.0210  0.7372 -0.3434
 3176SOL     OW20989   3.450   3.500  11.237 -0.0918  0.4333 -0.2385
 3176SOL    HW120990   3.440   3.462  11.325 -1.3352 -1.7479 -1.3158
 3176SOL    HW220991   3.443   3.423  11.181 -0.8154 -0.4735  1.1043
 3177SOL     OW20992   0.250   2.235   4.637 -0.5060  0.3010 -0.2240
 3177SOL    HW120993   0.306   2.202   4.567 -1.3617  0.9689 -1.2103
 3177SOL    HW220994   0.163   2.247   4.601 -0.9634 -1.0374  0.4292
 3178SOL     OW20995   0.573   2.153  17.309  0.1754 -0.1202 -0.6212
 3178SOL    HW120996   0.662   2.167  17.278 -0.4414  0.7558 -2.0380
 3178SOL    HW220997   0.524   2.198  17.240 -1.7282  0.1624  0.8957
 3179SOL     OW20998   0.154   3.115   1.705 -0.2431  0.0131 -0.3837
 3179SOL    HW120999   0.194   3.193   1.743  1.6297 -0.6112 -1.0619
 3179SOL    HW221000   0.097   3.142   1.633 -1.2465 -0.4057  0.2562
 3180SOL     OW21001   3.287   4.430  10.606  0.0543 -0.5042  0.1470
 3180SOL    HW121002   3.241   4.421  10.690  3.3495 -1.8792  1.8316
 3180SOL    HW221003   3.378   4.435  10.635  0.3894 -1.8059 -0.6861
 3181SOL     OW21004   4.620   0.826  15.227  0.1391  0.4576  0.1942
 3181SOL    HW121005   4.653   0.812  15.138 -1.2673 -2.8276  0.1711
 3181SOL    HW221006   4.703   0.836  15.273 -0.5986  2.7143  1.0078
 3182SOL     OW21007   4.402   4.150   1.514 -0.1378  0.0027 -0.0237
 3182SOL    HW121008   4.412   4.082   1.581 -1.1799 -1.7065 -1.6012
 3182SOL    HW221009   4.410   4.097   1.434  2.5309 -0.9814  0.8731
 3183SOL     OW21010   3.817   3.208   2.771 -0.3793 -0.1269  0.0274
 3183SOL    HW121011   3.828   3.256   2.690 -1.8022 -0.1263 -0.1643
 3183SOL    HW221012   3.749   3.260   2.814  1.8747  2.3316  0.6144
 3184SOL     OW21013   1.942   4.622  12.347  0.5982 -0.1280 -0.3242
 3184SOL    HW121014   1.950   4.663  12.260  0.5692 -0.1176 -0.3221
 3184SOL    HW221015   1.847   4.619  12.362  0.6091 -1.4514 -0.5530
 3185SOL     OW21016   3.091   2.374   5.852  0.1521 -0.1811 -0.1655
 3185SOL    HW121017   3.184   2.353   5.856  0.1110  0.0797  2.3216
 3185SOL    HW221018   3.102   2.468   5.870 -1.2772 -0.1917  0.7840
 3186SOL     OW21019   0.241   0.337  13.740  0.1510 -0.2401  0.2177
 3186SOL    HW121020   0.291   0.394  13.681 -0.8443  0.6592  0.2378
 3186SOL    HW221021   0.266   0.353  13.831 -0.4258  2.8417 -0.1812
 3187SOL     OW21022   3.247   2.136   5.637  0.3344  0.2955 -0.2259
 3187SOL    HW121023   3.204   2.072   5.580  0.4937 -1.0024  1.1179
 3187SOL    HW221024   3.251   2.082   5.716  0.2023 -0.3454 -0.6480
 3188SOL     OW21025   0.408   0.690   4.624  0.7531 -0.2547 -0.3743
 3188SOL    HW121026   0.464   0.645   4.560  1.5764 -0.8489  0.7764
 3188SOL    HW221027   0.471   0.738   4.678 -2.6648  0.1731  3.2056
 3189SOL     OW21028   1.278   4.323   4.071  0.1746 -0.5985 -0.6440
 3189SOL    HW121029   1.285   4.245   4.126 -0.6127 -0.0878  0.1788
 3189SOL    HW221030   1.352   4.371   4.108 -0.3085  0.4013 -0.9628
 3190SOL     OW21031   3.137   3.124   7.726 -0.5127  0.3106 -0.5558
 3190SOL    HW121032   3.185   3.201   7.755 -1.3014  0.2675  0.8557
 3190SOL    HW221033   3.050   3.142   7.763 -1.3800 -2.6882 -1.1368
 3191SOL     OW21034   1.836   3.671  17.578  0.3056 -0.2566 -0.6346
 3191SOL    HW121035   1.852   3.586  17.537 -0.1761  0.4660 -2.3235
 3191SOL    HW221036   1.900   3.723  17.529 -0.9042  1.3950 -0.4282
 3192SOL     OW21037   3.553   1.759   3.620  1.0511 -0.0367  0.4489
 3192SOL    HW121038   3.632   1.776   3.569  1.1221 -0.1900  0.5073
 3192SOL    HW221039   3.580   1.682   3.670 -0.1340  0.0574  1.2413
 3193SOL     OW21040   1.780   4.331   9.207  0.5783 -0.2204 -0.1391
 3193SOL    HW121041   1.858   4.280   9.226  0.0542 -1.5331 -1.4420
 3193SOL    HW221042   1.707   4.270   9.223  0.5165 -0.7248 -2.2597
 3194SOL     OW21043   0.174   4.659   5.070 -0.1940  0.4016  0.9718
 3194SOL    HW121044   0.094   4.696   5.107 -0.4872  1.7157 -0.9704
 3194SOL    HW221045   0.210   0.012   5.027  0.1574 -0.4817 -0.3250
 3195SOL     OW21046   2.775   1.319   3.408  0.1547 -0.0656  0.0405
 3195SOL    HW121047   2.843   1.258   3.380  1.1020  0.8142  0.4174
 3195SOL    HW221048   2.816   1.344   3.491 -1.7334 -0.7026  1.1674
 3196SOL     OW21049   2.457   0.667   3.358 -0.1414  0.4724 -0.2763
 3196SOL    HW121050   2.397   0.601   3.394 -0.5223  0.7923 -0.3237
 3196SOL    HW221051   2.496   0.611   3.291  2.0902 -1.1304  2.3771
 3197SOL     OW21052   0.859   1.430  13.851 -0.3412  0.0176 -0.2288
 3197SOL    HW121053   0.794   1.431  13.780 -0.7512 -0.3806  0.1427
 3197SOL    HW221054   0.881   1.337  13.847  0.6144  0.2618 -0.7383
 3198SOL     OW21055   2.005   1.029   5.431  0.6382 -0.2015 -0.8040
 3198SOL    HW121056   2.012   0.956   5.493  0.4459  1.0022  0.6520
 3198SOL    HW221057   2.084   1.078   5.455  0.4602  1.2471 -3.1789
 3199SOL     OW21058   2.063   4.711   2.648 -0.3116 -0.7297 -0.2413
 3199SOL    HW121059   1.983   4.704   2.700  0.3783 -1.3756  0.7483
 3199SOL    HW221060   2.042   0.012   2.558  2.7971 -0.3248 -0.8604
 3200SOL     OW21061   0.605   3.213   1.615 -0.6031  0.3807  0.5629
 3200SOL    HW121062   0.656   3.132   1.616  0.3261  0.9771  0.8696
 3200SOL    HW221063   0.531   3.180   1.564 -0.9723  0.1125  1.2832
 3201SOL     OW21064   0.181   1.924   3.489 -0.3688 -0.5355  0.2134
 3201SOL    HW121065   0.113   1.861   3.464 -0.0472 -0.4762 -0.7896
 3201SOL    HW221066   0.251   1.872   3.449 -1.4811 -1.5049 -0.4586
 3202SOL     OW21067   2.557   3.307   7.705 -0.0702  0.4361 -0.2752
 3202SOL    HW121068   2.566   3.230   7.648  0.3066 -1.2757  2.0682
 3202SOL    HW221069   2.581   3.378   7.646  1.8970 -2.0048 -2.4488
 3203SOL     OW21070   0.643   2.355   4.715 -0.1911  0.7501  0.7836
 3203SOL    HW121071   0.711   2.410   4.676 -2.1064  1.9361 -0.8639
 3203SOL    HW221072   0.570   2.417   4.723  0.1001  1.1428  0.4006
 3204SOL     OW21073   4.139   0.579   1.036  0.2329  0.1709 -0.5242
 3204SOL    HW121074   4.233   0.567   1.024  0.4552  2.6213 -1.1773
 3204SOL    HW221075   4.137   0.674   1.023 -1.9344  0.3044  0.8067
 3205SOL     OW21076   2.184   1.270   3.166  0.5602  0.5294 -0.1647
 3205SOL    HW121077   2.118   1.316   3.115  1.0221 -0.8670 -2.0168
 3205SOL    HW221078   2.195   1.326   3.243 -1.3193  0.5338  0.0881
 3206SOL     OW21079   3.944   2.465   6.741 -0.6032 -0.7128 -0.4167
 3206SOL    HW121080   3.887   2.399   6.781 -1.0042 -1.8079 -2.7742
 3206SOL    HW221081   4.028   2.430   6.769  0.0045 -0.0374 -1.3971
 3207SOL     OW21082   1.011   1.535   2.874  0.0060 -0.8046 -0.0630
 3207SOL    HW121083   0.959   1.455   2.885  1.3733 -1.7901 -0.8252
 3207SOL    HW221084   1.083   1.512   2.932  0.2410 -3.8330 -1.5374
 3208SOL     OW21085   4.040   1.600   3.346 -0.0446  0.1392  0.5201
 3208SOL    HW121086   4.043   1.507   3.366 -1.6116  0.7701  3.6970
 3208SOL    HW221087   3.961   1.597   3.291  0.7826 -1.0781 -0.5973
 3209SOL     OW21088   3.577   3.491   5.651  0.1701 -0.1953 -0.1873
 3209SOL    HW121089   3.672   3.497   5.657  0.1373  0.7286 -0.5605
 3209SOL    HW221090   3.574   3.483   5.556  0.6841 -1.7142 -0.0731
 3210SOL     OW21091   3.155   0.451   3.123 -0.3219 -0.6251 -0.4787
 3210SOL    HW121092   3.172   0.471   3.215 -0.9165  0.2838 -0.5599
 3210SOL    HW221093   3.061   0.471   3.112  0.3204  2.2594 -0.8228
 3211SOL     OW21094   1.687   2.845  13.544  0.3878  0.0411  0.2268
 3211SOL    HW121095   1.754   2.828  13.611  1.4038  0.4198 -0.6929
 3211SOL    HW221096   1.613   2.791  13.572 -1.1205  1.4823 -1.0395
 3212SOL     OW21097   3.944   1.682   6.531 -0.2115 -0.2434 -0.3454
 3212SOL    HW121098   3.891   1.750   6.490 -1.5951  0.9003  3.3701
 3212SOL    HW221099   3.968   1.634   6.452 -1.7777 -0.5251 -0.6401
 3213SOL     OW21100   0.392   3.246  13.416  0.4758  0.5953 -0.5269
 3213SOL    HW121101   0.312   3.233  13.467  1.0098  1.1994  0.4472
 3213SOL    HW221102   0.350   3.258  13.331  0.9225  0.7594 -0.7258
 3214SOL     OW21103   3.236   2.044   7.623 -0.7379  0.1269  0.2180
 3214SOL    HW121104   3.170   2.049   7.691 -1.5988  2.1126 -0.7509
 3214SOL    HW221105   3.232   2.132   7.585  1.1413  0.9722  1.9732
 3215SOL     OW21106   1.537   3.893   5.799 -0.4761 -0.7336  0.4772
 3215SOL    HW121107   1.631   3.906   5.807 -0.3660 -0.5480 -1.0133
 3215SOL    HW221108   1.505   3.894   5.889 -0.5428  3.0253  0.3940
 3216SOL     OW21109   1.433   1.983   2.171  0.2452 -0.2377 -0.0819
 3216SOL    HW121110   1.349   2.003   2.211 -0.5593  0.7310 -2.2402
 3216SOL    HW221111   1.403   1.935   2.094  0.0488  0.6743 -0.5775
 3217SOL     OW21112   0.124   3.859   7.350 -0.1250  0.2808  0.5772
 3217SOL    HW121113   0.071   3.785   7.380 -0.6440  0.1838 -0.5759
 3217SOL    HW221114   0.143   3.836   7.259  1.9693 -0.7888  1.2871
 3218SOL     OW21115   1.864   0.315  13.971 -0.1410  0.5210 -0.0998
 3218SOL    HW121116   1.827   0.395  13.934 -0.6241 -0.0644 -0.8874
 3218SOL    HW221117   1.944   0.308  13.919 -1.0245 -0.2913 -1.3406
 3219SOL     OW21118   0.828   3.334   7.244  0.1471  0.5971 -0.4577
 3219SOL    HW121119   0.878   3.255   7.223 -1.2986  0.5186 -3.6457
 3219SOL    HW221120   0.772   3.314   7.319  0.5431 -0.5107 -0.4641
 3220SOL     OW21121   1.613   1.645   8.218 -0.6920 -0.2504  0.0392
 3220SOL    HW121122   1.644   1.732   8.243  0.4081 -0.9838  1.2207
 3220SOL    HW221123   1.576   1.667   8.133  0.8660  0.5719 -0.4344
 3221SOL     OW21124   0.944   1.228   9.912 -0.1614 -0.4448  0.4402
 3221SOL    HW121125   0.902   1.176   9.980 -0.8964  0.3523  0.6031
 3221SOL    HW221126   1.009   1.166   9.882  0.9418  1.7604 -1.7190
 3222SOL     OW21127   0.260   1.797  13.665  0.0470 -0.1982 -0.4031
 3222SOL    HW121128   0.316   1.862  13.708 -1.2186  0.2790  0.5179
 3222SOL    HW221129   0.251   1.723  13.726  0.2345  0.7883  0.8364
 3223SOL     OW21130   0.047   1.188   6.569  0.2439 -0.4456 -0.7876
 3223SOL    HW121131   0.083   1.172   6.481  1.2842  1.6907 -0.7567
 3223SOL    HW221132   0.039   1.096   6.596 -1.5487  1.0472  3.7871
 3224SOL     OW21133   3.512   2.698   9.271 -0.1831  0.0468 -0.0381
 3224SOL    HW121134   3.578   2.681   9.205 -2.0268 -0.3686 -1.7603
 3224SOL    HW221135   3.552   2.766   9.325 -2.1209  3.0712 -2.4119
 3225SOL     OW21136   3.850   1.429   9.471 -0.3375 -0.6668 -0.4705
 3225SOL    HW121137   3.792   1.505   9.467  0.0507 -0.3501 -0.1270
 3225SOL    HW221138   3.909   1.442   9.397  0.6546 -0.0997  0.4196
 3226SOL     OW21139   1.373   1.504   8.346  0.1392  0.4300  1.2966
 3226SOL    HW121140   1.420   1.558   8.282 -1.6430  2.6077  1.8209
 3226SOL    HW221141   1.404   1.414   8.331 -0.8084  0.7776 -2.9047
 3227SOL     OW21142   1.941   2.459   1.814 -0.0163 -0.2197 -0.2992
 3227SOL    HW121143   1.969   2.440   1.725 -1.5927  1.7476 -1.1951
 3227SOL    HW221144   1.918   2.551   1.799  1.3912  0.1126 -0.4366
 3228SOL     OW21145   0.128   4.564  13.201  0.0500 -0.5753 -0.2224
 3228SOL    HW121146   0.066   4.620  13.248 -0.3779 -0.3848 -1.0172
 3228SOL    HW221147   0.111   4.486  13.254  1.6213 -0.6063  0.2442
 3229SOL     OW21148   4.564   3.153  11.132 -0.7076 -0.1367  0.6502
 3229SOL    HW121149   4.635   3.207  11.168 -2.1243  1.6351  0.7642
 3229SOL    HW221150   4.543   3.115  11.217  0.8719  1.5591  1.7934
 3230SOL     OW21151   1.385   1.332   6.574  0.4223 -0.0561  0.6998
 3230SOL    HW121152   1.379   1.252   6.522 -1.8962  0.4529  0.1624
 3230SOL    HW221153   1.292   1.336   6.598  0.9455  0.0866  2.7230
 3231SOL     OW21154   3.744   1.223   2.297 -0.2974 -0.6638 -0.0137
 3231SOL    HW121155   3.823   1.196   2.251  0.7927 -0.3855  1.6658
 3231SOL    HW221156   3.725   1.140   2.342 -1.1632  0.1107  1.0727
 3232SOL     OW21157   4.174   0.581   3.879  0.4761  0.5187 -0.4310
 3232SOL    HW121158   4.253   0.625   3.847  1.4893 -1.9601 -1.2726
 3232SOL    HW221159   4.210   0.547   3.961  0.9293 -0.5313 -1.0626
 3233SOL     OW21160   2.488   1.812  16.720 -0.1292  0.3019 -0.0301
 3233SOL    HW121161   2.504   1.731  16.672  1.3142 -0.3235  1.5267
 3233SOL    HW221162   2.412   1.842  16.670  1.2368  0.5953 -1.9451
 3234SOL     OW21163   2.745   2.856   7.575  0.0785 -0.2935 -0.2130
 3234SOL    HW121164   2.655   2.886   7.587  0.7356  2.0610 -1.3607
 3234SOL    HW221165   2.752   2.849   7.480 -1.6740 -1.3756 -0.2688
 3235SOL     OW21166   1.478   2.894   8.075 -0.3481  0.1427  0.3869
 3235SOL    HW121167   1.505   2.981   8.047 -0.5696  0.0748 -0.0324
 3235SOL    HW221168   1.386   2.911   8.098 -0.5268 -0.1507 -0.1256
 3236SOL     OW21169   1.626   1.173   1.077 -0.3938  0.1362  0.0957
 3236SOL    HW121170   1.560   1.141   1.016 -0.7439 -1.6539  1.3724
 3236SOL    HW221171   1.703   1.163   1.020 -0.5363  2.1137 -0.4346
 3237SOL     OW21172   2.760   3.168   9.006  0.1575 -0.4796  0.2160
 3237SOL    HW121173   2.717   3.234   8.951 -0.3024 -1.0451 -0.1080
 3237SOL    HW221174   2.690   3.149   9.068 -2.2156  1.0997 -1.9776
 3238SOL     OW21175   2.365   1.388   2.257 -0.0946 -0.7456 -0.4964
 3238SOL    HW121176   2.431   1.347   2.201  0.5485  0.4089 -0.5889
 3238SOL    HW221177   2.321   1.311   2.291  0.1307 -0.9193 -0.5941
 3239SOL     OW21178   2.772   4.355   0.669 -0.2407  0.3137 -0.2281
 3239SOL    HW121179   2.854   4.389   0.703  0.4438 -1.2985 -0.2337
 3239SOL    HW221180   2.801   4.323   0.583  0.5188  2.4857 -0.7708
 3240SOL     OW21181   1.076   0.409   8.684 -0.8900 -0.0087  0.2807
 3240SOL    HW121182   1.038   0.348   8.620  2.3469 -0.1173 -1.5243
 3240SOL    HW221183   1.164   0.372   8.680 -1.0289 -0.4785  1.5122
 3241SOL     OW21184   4.430   1.332   5.890 -0.3170  0.0005 -0.7773
 3241SOL    HW121185   4.476   1.261   5.844  0.3820 -1.8849  2.7855
 3241SOL    HW221186   4.346   1.294   5.915  0.4088 -0.7826  0.4943
 3242SOL     OW21187   0.988   3.342  12.231  0.2104 -0.1472 -0.1902
 3242SOL    HW121188   0.951   3.255  12.220  0.7053 -0.5034  0.9898
 3242SOL    HW221189   0.944   3.381  12.156 -0.3996 -1.3073 -0.4373
 3243SOL     OW21190   3.899   4.149  10.167 -0.5869 -0.3752 -0.0217
 3243SOL    HW121191   3.906   4.170  10.260 -0.6979  0.2151 -0.1492
 3243SOL    HW221192   3.818   4.099  10.163 -1.3667  0.8595  0.6573
 3244SOL     OW21193   0.622   3.435   9.029 -0.7079  0.3532  0.3887
 3244SOL    HW121194   0.655   3.352   9.063  0.3334  0.7195  0.2706
 3244SOL    HW221195   0.669   3.434   8.946 -1.2112 -0.7969  0.1142
 3245SOL     OW21196   1.880   1.248   5.233  0.2311 -0.6650 -0.5009
 3245SOL    HW121197   1.785   1.235   5.234  0.1478 -0.0657 -0.4162
 3245SOL    HW221198   1.915   1.187   5.298 -1.2157 -0.6093  0.3294
 3246SOL     OW21199   1.709   2.214  15.224 -0.3867  0.5341  0.8920
 3246SOL    HW121200   1.782   2.273  15.205 -0.8873  0.7200 -0.4073
 3246SOL    HW221201   1.635   2.272  15.203  1.3903  1.8679 -1.6140
 3247SOL     OW21202   0.152   1.183  17.414  0.5999  0.3738  0.1957
 3247SOL    HW121203   0.075   1.227  17.380 -0.1517 -1.1923 -0.1542
 3247SOL    HW221204   0.221   1.247  17.397  1.8404 -1.0159 -0.0589
 3248SOL     OW21205   3.179   3.602   3.431  0.0840  0.9273 -0.7999
 3248SOL    HW121206   3.124   3.640   3.362  0.1895  0.2488 -1.2574
 3248SOL    HW221207   3.109   3.579   3.492 -1.1209 -0.3595 -2.6850
 3249SOL     OW21208   2.398   1.989   1.548 -0.8404  0.4110  0.1765
 3249SOL    HW121209   2.308   1.963   1.568 -0.2348 -1.7824  0.1189
 3249SOL    HW221210   2.386   2.075   1.508  0.6636  0.3535 -0.3861
 3250SOL     OW21211   3.254   1.106   8.721 -0.0829 -0.2119  0.1449
 3250SOL    HW121212   3.173   1.155   8.734 -0.2203  0.5464 -3.5086
 3250SOL    HW221213   3.314   1.174   8.751  0.3112 -0.4399 -0.1148
 3251SOL     OW21214   2.664   1.705   4.817 -0.2253 -0.2085  0.1716
 3251SOL    HW121215   2.571   1.728   4.818 -0.0719  0.4396  0.1764
 3251SOL    HW221216   2.651   1.631   4.759  0.5291 -0.7203  0.6621
 3252SOL     OW21217   2.131   3.739   8.915 -0.2134 -0.0695 -0.0409
 3252SOL    HW121218   2.057   3.683   8.937  0.0837  0.0653  1.2779
 3252SOL    HW221219   2.144   3.712   8.824 -0.7382  0.6758 -0.3329
 3253SOL     OW21220   2.344   0.061   5.896 -0.1204  0.1170 -0.3460
 3253SOL    HW121221   2.407   4.715   5.881  1.4713  1.1959  1.3706
 3253SOL    HW221222   2.369   0.130   5.836 -0.3299 -1.6227 -2.4269
 3254SOL     OW21223   2.278   1.455   4.060  0.2785  0.0149  0.4308
 3254SOL    HW121224   2.288   1.384   4.124  0.9901  0.8038  1.1875
 3254SOL    HW221225   2.185   1.472   4.077 -0.4983 -1.1223 -2.7385
 3255SOL     OW21226   0.215   0.596  10.297  0.2963  0.2058 -0.5057
 3255SOL    HW121227   0.237   0.528  10.360 -0.6294 -1.3409 -1.8672
 3255SOL    HW221228   0.164   0.657  10.350 -0.9921 -2.0925  0.8922
 3256SOL     OW21229   1.873   1.187   0.498  0.4893 -0.5242 -0.6221
 3256SOL    HW121230   1.956   1.229   0.520  0.7314 -1.2333 -0.1961
 3256SOL    HW221231   1.831   1.252   0.442 -0.1855 -0.3008  0.1384
 3257SOL     OW21232   2.950   3.352  14.912 -0.3073  0.5173 -0.0159
 3257SOL    HW121233   3.002   3.366  14.992 -0.1756 -2.0025  0.3125
 3257SOL    HW221234   3.001   3.409  14.854 -2.5030  3.0987  0.5743
 3258SOL     OW21235   0.564   0.548   1.559  0.0138  0.3189  0.1540
 3258SOL    HW121236   0.619   0.510   1.627  1.1634 -0.6278 -1.2925
 3258SOL    HW221237   0.630   0.597   1.509  1.2131 -0.2768  1.1618
 3259SOL     OW21238   2.756   1.627   4.227 -0.0663  0.6689  0.1598
 3259SOL    HW121239   2.811   1.702   4.249  0.7838  0.4102 -1.0905
 3259SOL    HW221240   2.681   1.640   4.286  0.0404  2.0805 -0.0210
 3260SOL     OW21241   3.218   4.047   8.383  0.5917 -0.6217 -0.2289
 3260SOL    HW121242   3.238   3.954   8.387  0.0552 -0.6884  0.8830
 3260SOL    HW221243   3.240   4.078   8.471  0.9236 -1.2330 -0.1004
 3261SOL     OW21244   0.057   2.753   0.476  0.1920  0.1502 -0.4417
 3261SOL    HW121245   0.084   2.824   0.535 -1.0406 -0.6475  1.0415
 3261SOL    HW221246   0.019   2.688   0.535 -1.2275  0.4745 -1.0085
 3262SOL     OW21247   2.845   4.504   8.377 -0.0146 -0.3606  0.7458
 3262SOL    HW121248   2.761   4.548   8.386 -0.1755 -0.5934  0.3356
 3262SOL    HW221249   2.879   4.518   8.289  1.0782  0.9149  1.3616
 3263SOL     OW21250   3.537   1.477   2.009  0.0249 -0.0731  0.1542
 3263SOL    HW121251   3.496   1.458   1.925  2.4408 -1.1146 -0.7521
 3263SOL    HW221252   3.544   1.573   2.008  0.2207 -0.0957 -0.3145
 3264SOL     OW21253   2.529   0.793  10.609 -0.6097 -0.2612  0.1576
 3264SOL    HW121254   2.576   0.710  10.605  0.2510  0.2715 -0.7069
 3264SOL    HW221255   2.550   0.823  10.520  0.6398  0.0444  0.5627
 3265SOL     OW21256   2.136   0.558  13.016 -0.5177 -0.0718  0.4343
 3265SOL    HW121257   2.058   0.596  13.057 -0.3514  0.2444  0.4626
 3265SOL    HW221258   2.148   0.620  12.944 -1.4654 -0.4820 -0.0828
 3266SOL     OW21259   0.378   2.699   8.445 -0.3820  0.0133  0.5233
 3266SOL    HW121260   0.426   2.618   8.460 -0.9529 -0.5228 -0.5581
 3266SOL    HW221261   0.297   2.673   8.489 -1.7003 -2.1161 -3.1644
 3267SOL     OW21262   4.343   3.077   1.986 -0.4604  0.0277  0.7444
 3267SOL    HW121263   4.319   3.010   1.921  1.9539 -1.0316  0.9310
 3267SOL    HW221264   4.413   3.125   1.942 -1.1492  0.0774 -0.3174
 3268SOL     OW21265   3.438   4.703   4.005 -0.2401  0.4848  0.3292
 3268SOL    HW121266   3.504   4.635   3.991  1.3157  2.1690 -0.5440
 3268SOL    HW221267   3.449   0.043   3.934  1.2799  1.8535  1.8239
 3269SOL     OW21268   0.751   3.012   3.874 -0.7926 -0.7475 -0.0698
 3269SOL    HW121269   0.748   3.104   3.900  0.4879 -0.5193 -0.7488
 3269SOL    HW221270   0.667   2.977   3.903  0.3361 -1.7549  2.0156
 3270SOL     OW21271   3.048   1.377   7.245 -0.2167  0.3386  0.7856
 3270SOL    HW121272   3.097   1.355   7.166 -0.4202  1.3553  0.3813
 3270SOL    HW221273   2.975   1.425   7.207  0.0728  0.2588  0.1390
 3271SOL     OW21274   1.621   4.166  10.961 -0.1972  0.4553 -0.1925
 3271SOL    HW121275   1.687   4.199  11.021 -1.2121 -0.0846  1.2350
 3271SOL    HW221276   1.600   4.250  10.920  0.9329  0.7003 -0.2459
 3272SOL     OW21277   4.455   0.971   8.734 -0.3295 -0.1115  0.0681
 3272SOL    HW121278   4.470   0.877   8.723  2.2760  0.4616 -1.3109
 3272SOL    HW221279   4.529   1.005   8.682 -0.2998 -0.6871 -0.2725
 3273SOL     OW21280   2.699   4.216   8.035 -0.0719 -0.2351 -0.2265
 3273SOL    HW121281   2.699   4.312   8.037 -0.4384 -0.2019 -1.8709
 3273SOL    HW221282   2.762   4.184   7.971 -1.2021  1.0392 -1.9542
 3274SOL     OW21283   1.375   3.226  11.471  0.3121 -0.0445  0.0641
 3274SOL    HW121284   1.452   3.170  11.463  0.8869  0.6290  0.7826
 3274SOL    HW221285   1.393   3.301  11.414 -0.0352  0.3202  0.4351
 3275SOL     OW21286   4.389   3.034   7.462 -0.0482 -0.2501  0.4049
 3275SOL    HW121287   4.406   2.946   7.497 -2.4015 -0.9650 -0.2111
 3275SOL    HW221288   4.471   3.046   7.415 -0.0120 -1.2230  0.2060
 3276SOL     OW21289   2.854   0.342  17.492  0.4612  0.2143 -0.1242
 3276SOL    HW121290   2.817   0.378  17.572 -0.8285  0.4796 -0.8426
 3276SOL    HW221291   2.887   0.265  17.539  2.8074  0.5904 -1.1268
 3277SOL     OW21292   3.350   3.915  10.442 -0.6567 -0.2044 -0.2720
 3277SOL    HW121293   3.330   4.005  10.418  0.3793 -0.1605 -0.9609
 3277SOL    HW221294   3.445   3.907  10.448 -0.4302  0.3769 -2.8831
 3278SOL     OW21295   3.502   1.165   0.717 -0.2770 -0.4872  0.6498
 3278SOL    HW121296   3.520   1.259   0.726  0.6188 -0.5919 -0.0645
 3278SOL    HW221297   3.410   1.157   0.695 -0.1314 -1.0127  0.2313
 3279SOL     OW21298   0.493   2.176   4.028  0.3138  0.1613  0.4080
 3279SOL    HW121299   0.574   2.149   4.071  1.6428  0.7418 -1.7213
 3279SOL    HW221300   0.528   2.248   3.974 -0.6806 -0.4083 -1.0089
 3280SOL     OW21301   3.602   4.666   1.929 -0.5316 -0.4664 -0.0272
 3280SOL    HW121302   3.597   0.028   1.970  0.8581 -1.0423  1.3566
 3280SOL    HW221303   3.676   4.680   1.870 -0.2037 -0.9278  0.2819
 3281SOL     OW21304   1.626   1.266   8.519  0.1246  0.6216  0.5504
 3281SOL    HW121305   1.553   1.241   8.575  0.0990 -1.9290 -0.6376
 3281SOL    HW221306   1.628   1.361   8.530 -0.5902  0.8118 -0.9905
 3282SOL     OW21307   2.366   3.556   8.878 -0.8282 -0.4115  0.6343
 3282SOL    HW121308   2.344   3.593   8.793  1.7314  0.7850  0.4916
 3282SOL    HW221309   2.293   3.598   8.923 -2.5065 -1.5785 -1.0394
 3283SOL     OW21310   2.812   1.544  14.709  0.1901  0.1007  0.3202
 3283SOL    HW121311   2.868   1.470  14.687 -1.2475 -0.5461 -1.1446
 3283SOL    HW221312   2.868   1.621  14.710  0.3436 -0.0097  0.1521
 3284SOL     OW21313   0.321   1.608  17.277 -0.8633  0.6653 -0.1062
 3284SOL    HW121314   0.273   1.686  17.305 -0.0680  1.2090 -0.2572
 3284SOL    HW221315   0.347   1.631  17.188  1.1110  0.1223  0.3457
 3285SOL     OW21316   1.800   2.098  12.873 -0.0545 -0.1723 -0.2968
 3285SOL    HW121317   1.772   2.130  12.958  1.7431  0.5739  0.0166
 3285SOL    HW221318   1.828   2.181  12.832 -2.0732  0.6715  0.0406
 3286SOL     OW21319   4.184   3.911   6.485  0.3294  0.0388 -0.0136
 3286SOL    HW121320   4.221   3.880   6.568  1.1220 -2.9137 -1.4578
 3286SOL    HW221321   4.195   4.001   6.515 -2.0432 -0.3183  1.9524
 3287SOL     OW21322   3.304   1.395  12.155  0.5619  0.3957  0.1680
 3287SOL    HW121323   3.268   1.310  12.128 -1.0914  0.9576  0.6201
 3287SOL    HW221324   3.262   1.416  12.238  0.5412  3.4580 -0.6165
 3288SOL     OW21325   1.166   4.705  12.786  0.2416 -0.3524  0.2009
 3288SOL    HW121326   1.224   0.016  12.718 -0.9873  0.8113 -0.2387
 3288SOL    HW221327   1.108   0.055  12.805 -0.0673 -0.6008  0.2144
 3289SOL     OW21328   2.807   0.609   2.252  0.2210 -0.4872 -0.5591
 3289SOL    HW121329   2.869   0.579   2.185  0.8074 -0.1353 -0.1669
 3289SOL    HW221330   2.727   0.574   2.212 -1.1885  2.2435 -0.1497
 3290SOL     OW21331   3.203   1.345   4.278  0.4357  0.3902  0.0857
 3290SOL    HW121332   3.107   1.348   4.280  0.5436  3.0299  0.8426
 3290SOL    HW221333   3.225   1.295   4.357 -0.3675 -1.4710 -0.8561
 3291SOL     OW21334   0.807   2.497  11.075  0.1106 -0.8702 -1.0318
 3291SOL    HW121335   0.889   2.502  11.027 -0.5878  1.1660 -2.0093
 3291SOL    HW221336   0.761   2.455  11.003 -2.0425  1.7482 -1.1667
 3292SOL     OW21337   0.533   4.385   4.570  0.3680  0.1234  0.0094
 3292SOL    HW121338   0.547   4.478   4.590 -0.8418  0.2898  0.0731
 3292SOL    HW221339   0.603   4.368   4.508  0.2963 -0.3224  0.0525
 3293SOL     OW21340   3.181   1.405   3.460  0.1584 -0.2755  0.0455
 3293SOL    HW121341   3.193   1.483   3.405  0.2789 -0.8080 -0.6820
 3293SOL    HW221342   3.125   1.357   3.399  1.0183 -0.9381 -0.2177
 3294SOL     OW21343   4.350   3.541   1.583  0.1860  0.1796 -0.3018
 3294SOL    HW121344   4.369   3.569   1.494  0.8435  0.1248 -0.1782
 3294SOL    HW221345   4.429   3.487   1.595  1.1948  1.8230  0.4266
 3295SOL     OW21346   3.663   0.836   7.294 -0.3646 -0.5002 -0.2598
 3295SOL    HW121347   3.654   0.888   7.374  1.9320  0.4135 -0.5914
 3295SOL    HW221348   3.576   0.800   7.278 -0.3190 -0.9610  0.5576
 3296SOL     OW21349   2.577   2.636   5.163  0.0403  0.2989  0.2674
 3296SOL    HW121350   2.491   2.614   5.127 -0.0764  0.4025  0.4795
 3296SOL    HW221351   2.604   2.713   5.113 -1.2208  0.8089  0.3741
 3297SOL     OW21352   4.413   0.139  10.391  0.0301  0.0747  0.0493
 3297SOL    HW121353   4.331   0.189  10.401  1.5767  2.2475  1.8977
 3297SOL    HW221354   4.484   0.192  10.428  0.2747 -0.1043 -0.1663
 3298SOL     OW21355   3.660   0.561   7.888  0.3627  0.1139 -0.3712
 3298SOL    HW121356   3.645   0.471   7.918 -1.1426  1.1489  1.9734
 3298SOL    HW221357   3.661   0.550   7.793  1.9250 -2.4371 -0.0752
 3299SOL     OW21358   4.398   2.063  16.266  0.1166  0.2886  0.4637
 3299SOL    HW121359   4.419   2.016  16.347  0.0976 -0.0854  0.2543
 3299SOL    HW221360   4.452   2.010  16.207  0.9265  1.4467  0.1783
 3300SOL     OW21361   2.552   4.451   1.379  0.0210 -0.2992 -0.1556
 3300SOL    HW121362   2.584   4.366   1.408 -3.1505 -0.1823  3.7042
 3300SOL    HW221363   2.505   4.437   1.297  1.8307 -0.4122 -1.1899
 3301SOL     OW21364   2.127   2.472  17.598 -0.5525  0.2498  0.1801
 3301SOL    HW121365   2.058   2.410  17.623 -1.3947  1.6935  1.4551
 3301SOL    HW221366   2.171   2.477  17.683  0.2035  0.4525 -0.2226
 3302SOL     OW21367   3.994   2.644   7.285  0.8812 -0.9954 -0.3404
 3302SOL    HW121368   3.959   2.730   7.308  2.8442  0.1906 -1.7718
 3302SOL    HW221369   4.085   2.665   7.263  0.1799  0.9522 -1.3339
 3303SOL     OW21370   2.522   1.260  10.803  0.2634  0.0066  0.1664
 3303SOL    HW121371   2.460   1.331  10.791  0.3321  0.1965  0.9445
 3303SOL    HW221372   2.476   1.180  10.778 -1.7774  0.8614  1.1627
 3304SOL     OW21373   1.610   4.622   7.096 -0.0627  0.0314 -0.0668
 3304SOL    HW121374   1.640   4.659   7.013  1.4756 -0.5254  0.2304
 3304SOL    HW221375   1.656   4.540   7.113 -1.9290 -1.2543 -1.2432
 3305SOL     OW21376   2.647   0.484   6.892  0.3030 -0.2907  0.0568
 3305SOL    HW121377   2.567   0.442   6.924 -1.9263  1.8198 -2.7947
 3305SOL    HW221378   2.663   0.559   6.950  0.7733  0.4490 -1.0414
 3306SOL     OW21379   2.766   1.830  16.082 -0.4190  0.3192 -0.2163
 3306SOL    HW121380   2.723   1.901  16.034 -1.4686  0.3727  0.8127
 3306SOL    HW221381   2.851   1.838  16.039  0.1048 -0.1608  0.7250
 3307SOL     OW21382   1.476   3.121  13.723  0.2402 -1.0440 -0.3771
 3307SOL    HW121383   1.415   3.154  13.658 -0.1698  0.6756  0.8909
 3307SOL    HW221384   1.560   3.166  13.715  0.0562 -0.2747  2.1508
 3308SOL     OW21385   0.603   0.178   8.046 -0.7099  0.3778  0.0565
 3308SOL    HW121386   0.556   0.227   7.979 -0.9645 -0.1929 -0.1854
 3308SOL    HW221387   0.668   0.241   8.076 -2.2501  2.8757 -1.8424
 3309SOL     OW21388   0.992   3.789   6.164 -0.1085  0.1056 -0.4542
 3309SOL    HW121389   0.925   3.834   6.112 -0.2754 -0.0481 -0.3694
 3309SOL    HW221390   1.064   3.852   6.169  1.2491 -1.5223  0.3165
 3310SOL     OW21391   3.747   1.069   0.556 -0.0437 -0.6149  0.4138
 3310SOL    HW121392   3.686   1.140   0.578 -0.6399 -1.5167  1.6866
 3310SOL    HW221393   3.709   0.994   0.602  0.7424 -1.5339 -0.4519
 3311SOL     OW21394   3.648   3.349   7.888 -0.2365 -0.0569 -0.4193
 3311SOL    HW121395   3.603   3.330   7.806  1.4355  1.2555 -1.6377
 3311SOL    HW221396   3.667   3.260   7.917 -0.4075 -0.1441 -0.5767
 3312SOL     OW21397   1.245   0.067   6.486 -0.2835 -0.2184 -0.0431
 3312SOL    HW121398   1.219   0.153   6.518  0.4171 -0.5594  1.4298
 3312SOL    HW221399   1.249   0.092   6.394  0.3123 -0.5398 -0.1068
 3313SOL     OW21400   2.216   3.695   8.640 -1.2114  0.3526 -0.2839
 3313SOL    HW121401   2.253   3.764   8.585 -0.1811  2.0302  2.5472
 3313SOL    HW221402   2.186   3.635   8.572  0.7675  1.8302 -2.4867
 3314SOL     OW21403   1.688   0.596   6.285  0.6693 -0.7939 -0.4295
 3314SOL    HW121404   1.762   0.566   6.338  0.2278  0.6325  0.9714
 3314SOL    HW221405   1.644   0.659   6.341  0.6597 -0.6515 -0.5963
 3315SOL     OW21406   3.324   4.215   7.199  0.0272 -0.5291 -0.3744
 3315SOL    HW121407   3.331   4.311   7.193  1.6296 -0.7308 -1.7266
 3315SOL    HW221408   3.281   4.196   7.115 -2.2189 -1.3449  0.9761
 3316SOL     OW21409   2.233   2.543  17.244  0.1028 -0.3624 -0.2156
 3316SOL    HW121410   2.327   2.524  17.248  0.3897  0.6007 -2.0818
 3316SOL    HW221411   2.240   2.638  17.234  1.7062 -0.4575 -0.0131
 3317SOL     OW21412   3.813   4.592   5.815 -0.3923 -0.4618  0.6060
 3317SOL    HW121413   3.845   4.560   5.730 -2.8359  4.2986 -2.0637
 3317SOL    HW221414   3.794   4.683   5.793  2.4787  0.4523  1.8526
 3318SOL     OW21415   0.008   0.814  13.734  0.1297  0.3696  0.0391
 3318SOL    HW121416   4.664   0.814  13.666  0.7085 -0.9271 -0.5419
 3318SOL    HW221417   0.084   0.820  13.676  0.5085  0.2989  0.5269
 3319SOL     OW21418   4.652   3.494   7.889 -0.3332 -0.2753  0.6909
 3319SOL    HW121419   0.018   3.520   7.909 -0.4620  0.7661 -0.0787
 3319SOL    HW221420   4.665   3.400   7.873  1.9000  0.3116 -0.9755
 3320SOL     OW21421   4.258   3.610  16.288  0.2866 -0.1772 -0.1783
 3320SOL    HW121422   4.214   3.655  16.360 -0.1965 -2.9141  1.2399
 3320SOL    HW221423   4.198   3.627  16.216  0.9677  4.8425  0.4791
 3321SOL     OW21424   2.263   2.339   0.792  0.5049 -0.2396  0.0887
 3321SOL    HW121425   2.205   2.298   0.856  0.4382 -3.9490 -2.3340
 3321SOL    HW221426   2.198   2.378   0.734 -0.9266 -1.6815  0.7168
 3322SOL     OW21427   1.222   4.562   3.516  0.4968  0.0908 -0.0424
 3322SOL    HW121428   1.188   4.651   3.501  0.0833  0.0363  0.5796
 3322SOL    HW221429   1.314   4.587   3.524  0.5431  0.7683 -2.7308
 3323SOL     OW21430   2.482   3.046  12.812 -0.3100  0.0210 -0.0033
 3323SOL    HW121431   2.441   2.975  12.764  1.4913 -2.0484  1.5446
 3323SOL    HW221432   2.569   3.050  12.771  0.7083  0.0943  2.1556
 3324SOL     OW21433   3.996   2.223   5.748 -0.0799 -0.1639 -0.0583
 3324SOL    HW121434   3.936   2.154   5.720 -1.4534  1.3124 -0.7315
 3324SOL    HW221435   4.035   2.244   5.663  1.1169  1.0055  0.7840
 3325SOL     OW21436   2.315   0.074   5.548  0.3324 -0.3884  0.3553
 3325SOL    HW121437   2.240   0.034   5.503  2.1347 -2.2639 -0.9743
 3325SOL    HW221438   2.366   0.099   5.471  0.3200 -1.2648  0.0578
 3326SOL     OW21439   0.791   4.586  11.680 -0.0720 -0.2468 -0.5016
 3326SOL    HW121440   0.805   4.670  11.635 -0.6249 -0.0403 -0.2926
 3326SOL    HW221441   0.834   4.596  11.764  1.6686 -0.9478 -1.3225
 3327SOL     OW21442   0.121   0.212  17.115 -0.2636  0.2336 -0.0153
 3327SOL    HW121443   0.198   0.261  17.087  0.4235 -0.9951 -0.2780
 3327SOL    HW221444   0.165   0.132  17.143  0.5145  0.1452 -1.5070
 3328SOL     OW21445   3.510   0.759   6.510 -0.3006 -0.4537  0.8023
 3328SOL    HW121446   3.533   0.760   6.417 -0.3323 -0.7224  0.7917
 3328SOL    HW221447   3.415   0.761   6.518 -0.1455  0.0272  2.5036
 3329SOL     OW21448   0.116   3.790   2.007  0.4290 -0.3051  0.0112
 3329SOL    HW121449   0.102   3.703   2.046 -2.1492 -0.6173 -1.5635
 3329SOL    HW221450   0.183   3.832   2.060  1.9801 -1.2680 -1.2055
 3330SOL     OW21451   2.741   4.210   4.130  0.4072 -0.1106 -0.0632
 3330SOL    HW121452   2.820   4.157   4.121 -0.3779 -1.4857  1.2846
 3330SOL    HW221453   2.754   4.252   4.215 -0.5929 -0.1785  0.1195
 3331SOL     OW21454   4.464   0.009   6.512 -0.0198  0.0592 -0.8403
 3331SOL    HW121455   4.498   0.001   6.601 -1.8081 -0.8046 -0.2272
 3331SOL    HW221456   4.391   0.071   6.524  1.3406  1.4161  0.4926
 3332SOL     OW21457   2.752   2.521   7.416  0.6428  0.5554  0.1325
 3332SOL    HW121458   2.692   2.498   7.487  0.8493 -1.5936 -0.3732
 3332SOL    HW221459   2.830   2.467   7.432  0.8908  0.2522 -2.1989
 3333SOL     OW21460   0.990   1.621   6.922  0.3556 -0.4979  0.2478
 3333SOL    HW121461   0.956   1.634   6.834  1.9923 -0.4936 -0.3723
 3333SOL    HW221462   0.966   1.530   6.939  2.4018 -0.7308  1.7765
 3334SOL     OW21463   2.277   0.101   7.419  0.5171 -1.0489 -0.3640
 3334SOL    HW121464   2.300   0.102   7.326 -0.2141  1.4170 -0.5059
 3334SOL    HW221465   2.266   0.008   7.439  1.4685 -0.8404  1.1384
 3335SOL     OW21466   4.396   0.433   7.610  0.8622  0.4233  0.1398
 3335SOL    HW121467   4.374   0.493   7.681  2.5382  0.0560  0.9761
 3335SOL    HW221468   4.435   0.355   7.650 -2.0908 -2.1161 -1.9299
 3336SOL     OW21469   1.202   1.056   4.663 -0.1494 -0.7240  0.4012
 3336SOL    HW121470   1.239   1.138   4.629  0.0259 -1.6084 -1.4948
 3336SOL    HW221471   1.268   0.994   4.634  0.9160  0.2653  0.7035
 3337SOL     OW21472   1.220   1.795   9.280  0.1780  0.0881  0.0279
 3337SOL    HW121473   1.137   1.746   9.271 -0.3224  0.8543  0.4818
 3337SOL    HW221474   1.186   1.867   9.333 -0.2662 -0.2621  0.2286
 3338SOL     OW21475   3.509   3.490   3.995  0.2112 -0.4110 -0.3222
 3338SOL    HW121476   3.516   3.538   3.913 -0.8571 -1.1875 -0.8668
 3338SOL    HW221477   3.600   3.485   4.026  0.7989  2.8150 -1.5891
 3339SOL     OW21478   1.942   2.690   0.734  0.0701 -0.2269 -0.3093
 3339SOL    HW121479   2.025   2.733   0.712 -0.2708  0.1957 -0.7694
 3339SOL    HW221480   1.932   2.714   0.826  1.1782  0.3149 -0.3238
 3340SOL     OW21481   2.926   3.650  15.234 -0.0238  0.2550 -0.4517
 3340SOL    HW121482   2.943   3.583  15.300  0.0368  0.6464 -0.0673
 3340SOL    HW221483   2.922   3.731  15.286 -3.0254 -0.1093 -0.1414
 3341SOL     OW21484   3.699   4.060  11.974  0.2312 -0.1212  0.6416
 3341SOL    HW121485   3.710   4.076  11.881 -2.3588  0.5715  0.4411
 3341SOL    HW221486   3.782   4.020  12.001  1.0733  0.1479 -1.6081
 3342SOL     OW21487   2.981   4.456   1.295 -0.2093  0.5599 -1.0166
 3342SOL    HW121488   3.038   4.493   1.362 -1.5456  2.9442 -1.1919
 3342SOL    HW221489   2.986   4.511   1.217 -1.2465  1.2075 -0.6339
 3343SOL     OW21490   4.372   1.584   8.031 -0.2157 -0.2398 -0.0099
 3343SOL    HW121491   4.421   1.532   8.094  2.5692  3.8830  1.2686
 3343SOL    HW221492   4.377   1.530   7.952 -1.3055  1.9199 -1.5557
 3344SOL     OW21493   3.016   3.848  11.633  0.6024 -0.3226  0.4003
 3344SOL    HW121494   3.085   3.847  11.566  0.0878 -0.1558 -0.1357
 3344SOL    HW221495   2.948   3.801  11.585  0.6376  0.7400 -0.7114
 3345SOL     OW21496   0.289   1.817   0.498  0.1999 -0.0726  0.1282
 3345SOL    HW121497   0.212   1.762   0.516  0.0701 -0.2979 -1.1211
 3345SOL    HW221498   0.349   1.771   0.557  0.7275  0.6704  0.1726
 3346SOL     OW21499   2.136   3.284  16.504 -0.6161 -0.8295  0.6812
 3346SOL    HW121500   2.058   3.232  16.482 -0.7294  0.6082 -2.2527
 3346SOL    HW221501   2.183   3.227  16.566 -1.1886 -0.3637  1.5271
 3347SOL     OW21502   4.432   2.673  13.557 -0.1291 -0.4986 -0.0337
 3347SOL    HW121503   4.496   2.612  13.521 -0.8898 -0.2675 -1.7476
 3347SOL    HW221504   4.381   2.621  13.620 -2.6416 -0.0246 -1.6932
 3348SOL     OW21505   4.599   4.140   5.328 -0.5090 -0.1702 -0.4296
 3348SOL    HW121506   4.667   4.149   5.395 -0.4181  0.4044 -0.5940
 3348SOL    HW221507   4.643   4.098   5.254 -0.2947 -2.3704  0.9729
 3349SOL     OW21508   4.559   2.117  15.864 -0.1363 -0.2559  0.3582
 3349SOL    HW121509   4.502   2.079  15.797 -2.7562 -1.7108  3.4417
 3349SOL    HW221510   4.505   2.170  15.922  0.9796 -0.5649  1.6718
 3350SOL     OW21511   3.642   1.739   6.103  0.0346  0.2490  0.4465
 3350SOL    HW121512   3.582   1.794   6.154  0.0775  0.7140 -0.0027
 3350SOL    HW221513   3.652   1.793   6.024 -0.0349  0.0987  0.3349
 3351SOL     OW21514   1.980   1.173   7.603  0.2844  0.4097  0.3744
 3351SOL    HW121515   1.986   1.209   7.691 -0.9743 -0.7537  0.9323
 3351SOL    HW221516   1.937   1.248   7.564 -0.5112  0.9019  2.2256
 3352SOL     OW21517   2.521   0.877   2.208 -0.4470  0.0649 -0.2301
 3352SOL    HW121518   2.536   0.828   2.289  2.0784  2.0644  0.5217
 3352SOL    HW221519   2.428   0.858   2.194 -0.2640 -0.9646 -0.0341
 3353SOL     OW21520   3.606   0.793   2.885  0.7562 -0.7991  0.0190
 3353SOL    HW121521   3.554   0.759   2.812  0.0480  1.9582 -0.7620
 3353SOL    HW221522   3.554   0.860   2.929  0.6239 -1.1369  0.3721
 3354SOL     OW21523   0.207   0.537   0.144  0.0316 -0.0936 -0.2880
 3354SOL    HW121524   0.253   0.511   0.224 -2.1711  2.3525  1.7922
 3354SOL    HW221525   0.224   0.631   0.148  1.2875 -0.3392 -0.0037
 3355SOL     OW21526   3.253   3.978   4.426  0.3742 -0.0853  0.1067
 3355SOL    HW121527   3.196   4.039   4.472 -0.2689 -0.5986 -0.0187
 3355SOL    HW221528   3.265   3.922   4.503  3.0440 -0.4178 -0.5362
 3356SOL     OW21529   0.291   1.193   8.796 -0.1544  0.1434  0.1202
 3356SOL    HW121530   0.369   1.164   8.748 -0.0582 -2.5082  1.8719
 3356SOL    HW221531   0.336   1.246   8.862  0.4017  0.3001 -0.3843
 3357SOL     OW21532   1.551   0.128   0.039 -0.4278  0.0989  0.1666
 3357SOL    HW121533   1.513   0.056  17.687 -0.9472  1.4364 -1.3254
 3357SOL    HW221534   1.522   0.203  17.686  4.2779  0.5719 -1.7427
 3358SOL     OW21535   3.939   2.749   4.063  0.1275  0.2171 -0.0621
 3358SOL    HW121536   3.851   2.723   4.037 -0.5021  0.6885  1.6160
 3358SOL    HW221537   3.927   2.832   4.110 -1.1710  0.9034 -1.6142
 3359SOL     OW21538   0.368   2.531  15.981  0.1271 -0.0880  0.1692
 3359SOL    HW121539   0.278   2.508  15.959  0.6264  0.6042 -2.5790
 3359SOL    HW221540   0.372   2.527  16.077  2.4432  2.2212  0.1558
 3360SOL     OW21541   3.103   2.302   8.093  0.5412  0.1722 -0.2018
 3360SOL    HW121542   3.036   2.369   8.078  1.1676  0.8100 -0.1361
 3360SOL    HW221543   3.054   2.223   8.115 -0.0517 -0.1431 -2.6793
 3361SOL     OW21544   3.048   2.104   7.158 -0.1780  0.5204  0.1491
 3361SOL    HW121545   3.109   2.072   7.092 -1.8572 -0.2292 -1.0656
 3361SOL    HW221546   3.006   2.020   7.176  1.6002 -0.5697 -0.7805
 3362SOL     OW21547   4.584   3.610  12.568  0.5949 -0.0952  0.1914
 3362SOL    HW121548   4.592   3.567  12.653 -1.2989 -1.3544 -0.2478
 3362SOL    HW221549   4.591   3.704  12.579 -0.9516 -0.1247  1.4514
 3363SOL     OW21550   1.160   4.530   3.812  0.3196 -0.4660  0.1992
 3363SOL    HW121551   1.167   4.550   3.719  0.0633  2.2293  0.7429
 3363SOL    HW221552   1.239   4.477   3.822 -0.1005 -1.1915 -0.3726
 3364SOL     OW21553   1.024   0.628   7.857 -0.4036  0.1076  0.0444
 3364SOL    HW121554   1.105   0.579   7.845 -0.2447  0.1376  1.0378
 3364SOL    HW221555   0.961   0.565   7.892 -1.8808  1.2947 -0.4655
 3365SOL     OW21556   1.086   0.070  12.034  0.6702  0.6804 -0.0024
 3365SOL    HW121557   1.117   0.157  12.059  0.2231  0.6729  0.5794
 3365SOL    HW221558   1.173   0.032  12.018  0.6406  1.1258 -1.1946
 3366SOL     OW21559   3.984   2.114  12.444  0.3479  0.3439  0.8508
 3366SOL    HW121560   3.937   2.187  12.482 -2.4282 -0.1377 -1.6317
 3366SOL    HW221561   3.957   2.112  12.352  0.1512  0.0571  0.9154
 3367SOL     OW21562   4.334   2.900  11.166  0.9886 -0.4071  0.6689
 3367SOL    HW121563   4.355   2.983  11.209  0.0796  0.2592 -0.1662
 3367SOL    HW221564   4.276   2.855  11.227  0.5434  0.5269  0.9369
 3368SOL     OW21565   4.240   4.701   6.229  0.0494 -0.5586  0.2615
 3368SOL    HW121566   4.187   4.621   6.226 -0.7627 -0.0411  0.8307
 3368SOL    HW221567   4.171   0.044   6.228  0.4405 -0.1577  0.0579
 3369SOL     OW21568   0.417   1.899  13.149  0.2206 -0.0202  0.0254
 3369SOL    HW121569   0.383   1.876  13.235 -0.6441 -0.8464 -0.5385
 3369SOL    HW221570   0.355   1.970  13.132 -0.9611 -0.6670  1.6143
 3370SOL     OW21571   0.057   0.887   4.736  0.6315 -0.3672 -0.4657
 3370SOL    HW121572   0.090   0.797   4.733  2.5454  0.2686  1.6844
 3370SOL    HW221573   0.030   0.895   4.644  1.3173 -0.6306 -0.6991
 3371SOL     OW21574   2.835   0.224   3.190  0.4929 -0.2347 -0.4168
 3371SOL    HW121575   2.763   0.192   3.246 -0.7037  0.3066 -1.6408
 3371SOL    HW221576   2.904   0.159   3.201  1.9473  1.3620 -0.1459
 3372SOL     OW21577   3.713   1.133  10.013  0.4287  0.0136 -0.1491
 3372SOL    HW121578   3.681   1.091  10.093 -0.7679  2.9309  0.9154
 3372SOL    HW221579   3.694   1.063   9.951  1.6145  0.0598 -0.5569
 3373SOL     OW21580   1.762   0.406  16.896  0.0045 -0.2452  0.0722
 3373SOL    HW121581   1.667   0.400  16.886 -0.0277 -1.0621  1.0085
 3373SOL    HW221582   1.778   0.415  16.802 -2.4390  0.1965 -0.2990
 3374SOL     OW21583   0.496   0.112  15.570  0.1454 -0.3118  0.1154
 3374SOL    HW121584   0.528   0.044  15.629 -1.5275 -0.8689  0.3695
 3374SOL    HW221585   0.411   0.078  15.543  0.5076 -1.3063  0.2430
 3375SOL     OW21586   0.701   1.357   2.651 -0.6081 -0.0448 -0.3400
 3375SOL    HW121587   0.653   1.419   2.596  0.7598  0.5447 -0.8764
 3375SOL    HW221588   0.674   1.275   2.611  0.8617  0.8174 -3.0420
 3376SOL     OW21589   3.345   1.190  15.664  0.4137  0.3158  0.0593
 3376SOL    HW121590   3.404   1.160  15.595 -0.4669 -0.0457 -0.5404
 3376SOL    HW221591   3.360   1.134  15.740 -3.2261  0.7835  1.1509
 3377SOL     OW21592   2.675   4.105  14.029  0.5916  0.3257  0.0033
 3377SOL    HW121593   2.752   4.156  14.003  0.1245  1.7916  1.4316
 3377SOL    HW221594   2.608   4.170  14.009  0.1627  0.0548  0.5707
 3378SOL     OW21595   1.306   1.580  15.293 -0.4918 -0.0221  0.4642
 3378SOL    HW121596   1.343   1.643  15.355 -0.2715 -2.3060  2.6371
 3378SOL    HW221597   1.226   1.626  15.266 -1.9270 -1.2292  2.5729
 3379SOL     OW21598   2.189   1.165   5.909  0.4401  0.3300  0.1123
 3379SOL    HW121599   2.252   1.145   5.978 -0.0538 -0.3156  0.3796
 3379SOL    HW221600   2.170   1.253   5.940  0.8550  0.7930 -0.9438
 3380SOL     OW21601   0.072   2.248  15.303 -0.2481 -0.4952  0.0210
 3380SOL    HW121602   4.724   2.292  15.258 -0.2900  1.1708  1.7375
 3380SOL    HW221603   0.139   2.280  15.243  0.5422  1.0438  1.7477
 3381SOL     OW21604   3.130   2.809   8.060 -0.2309  0.1765  0.2540
 3381SOL    HW121605   3.182   2.779   8.134  1.0239 -1.9542 -1.4919
 3381SOL    HW221606   3.113   2.901   8.078  0.0233  0.6199 -1.7676
 3382SOL     OW21607   3.171   0.049   5.842  0.1974 -0.2307 -0.2373
 3382SOL    HW121608   3.247   0.052   5.784 -0.2484  2.6496 -0.6715
 3382SOL    HW221609   3.206   4.712   5.907 -1.2319 -1.0342 -0.2003
 3383SOL     OW21610   1.668   3.829   0.941 -0.1797  0.0127  0.0590
 3383SOL    HW121611   1.615   3.905   0.964 -1.4075 -0.6069 -0.6993
 3383SOL    HW221612   1.679   3.849   0.849 -0.5537  0.4940  0.1180
 3384SOL     OW21613   0.612   4.295   8.436 -0.2357 -0.2178 -0.2185
 3384SOL    HW121614   0.682   4.250   8.388  0.7734  0.3141  0.7429
 3384SOL    HW221615   0.545   4.230   8.413  0.0206 -0.0386 -1.4672
 3385SOL     OW21616   0.492   1.302  10.677 -0.3509 -0.2740  0.3673
 3385SOL    HW121617   0.438   1.252  10.739 -1.7480  0.6181 -0.1347
 3385SOL    HW221618   0.558   1.353  10.724  0.7162  0.5129 -1.9647
 3386SOL     OW21619   2.704   0.014   3.327  0.0762 -0.5415  0.0121
 3386SOL    HW121620   2.734   4.685   3.401 -0.7597  1.7677  2.0350
 3386SOL    HW221621   2.771   0.002   3.260  0.9096 -0.8274  0.8949
 3387SOL     OW21622   4.507   0.620  10.047  0.3829  0.3702 -0.6821
 3387SOL    HW121623   4.563   0.557  10.001 -1.4279 -1.1332 -0.8101
 3387SOL    HW221624   4.457   0.564  10.106 -0.0704  1.1085 -0.3620
 3388SOL     OW21625   0.537   3.589  14.154 -0.0367  0.2425  0.8424
 3388SOL    HW121626   0.541   3.683  14.133 -1.8635  0.0669 -0.2894
 3388SOL    HW221627   0.458   3.572  14.103  0.0829 -0.4040  0.8797
 3389SOL     OW21628   4.605   3.346   8.558  0.0807 -0.6343  0.4116
 3389SOL    HW121629   4.554   3.427   8.551  1.2250 -0.1504 -2.6839
 3389SOL    HW221630   4.684   3.364   8.506 -0.2629 -0.6880 -0.1251
 3390SOL     OW21631   1.815   2.903  13.248 -0.0386 -0.1810 -0.1778
 3390SOL    HW121632   1.860   2.868  13.325 -1.9828 -0.6558  0.7462
 3390SOL    HW221633   1.730   2.918  13.289  0.0706  0.0851 -0.0529
 3391SOL     OW21634   1.378   2.314   4.631 -0.2483 -0.1578 -0.7957
 3391SOL    HW121635   1.338   2.352   4.710  0.5627 -0.9122 -0.0231
 3391SOL    HW221636   1.373   2.223   4.658  1.3293  0.2269  0.7838
 3392SOL     OW21637   3.969   0.394  10.481 -0.3516 -0.0023  0.0293
 3392SOL    HW121638   3.881   0.429  10.467 -0.0085  0.0774 -1.9019
 3392SOL    HW221639   3.999   0.456  10.548 -0.3668  0.5563 -0.4784
 3393SOL     OW21640   1.087   3.402   4.981 -0.2620  0.1899  0.0200
 3393SOL    HW121641   1.032   3.473   4.945  0.5492  0.3516 -0.9108
 3393SOL    HW221642   1.078   3.332   4.916 -1.1641 -1.9727  2.5178
 3394SOL     OW21643   4.152   1.276   6.582  0.1564  0.0139  0.1077
 3394SOL    HW121644   4.145   1.224   6.662 -2.1756 -0.1677 -0.2223
 3394SOL    HW221645   4.116   1.204   6.530  1.2326 -0.4698  0.0215
 3395SOL     OW21646   1.293   0.790   3.874 -0.3726 -0.2665  0.1229
 3395SOL    HW121647   1.297   0.758   3.963 -0.8633  2.5211  1.1576
 3395SOL    HW221648   1.328   0.708   3.840 -0.9939  0.1244 -1.4996
 3396SOL     OW21649   1.098   0.162  12.564 -0.0090  0.1317  0.8716
 3396SOL    HW121650   1.121   0.255  12.558 -0.5650 -0.0145 -3.5080
 3396SOL    HW221651   1.054   0.161  12.649 -0.0420 -0.8142  0.8513
 3397SOL     OW21652   4.459   4.437   7.481 -0.3408 -0.6787  0.0278
 3397SOL    HW121653   4.493   4.514   7.526  2.7191 -1.7407 -0.4783
 3397SOL    HW221654   4.445   4.463   7.389  2.5971  0.2286 -0.1543
 3398SOL     OW21655   2.416   2.934  10.851 -0.0690  0.2049  0.0120
 3398SOL    HW121656   2.405   2.920  10.945  3.1923  0.4472  0.3985
 3398SOL    HW221657   2.497   2.984  10.850  0.0715  0.0219  1.7060
 3399SOL     OW21658   3.561   2.127   5.567 -0.3024  0.0849  0.7510
 3399SOL    HW121659   3.542   2.075   5.488  1.6411 -1.0124  1.0035
 3399SOL    HW221660   3.476   2.170   5.577 -0.3197  0.1322  0.4079
 3400SOL     OW21661   2.147   1.312   4.657  0.0102  0.0532 -0.1034
 3400SOL    HW121662   2.219   1.285   4.714  1.5364  2.7919 -0.7747
 3400SOL    HW221663   2.098   1.367   4.717 -3.5054 -2.1462 -0.9334
 3401SOL     OW21664   3.113   1.325   9.758 -0.2556 -0.3256  0.0055
 3401SOL    HW121665   3.022   1.349   9.778  0.2708  1.5246  0.1076
 3401SOL    HW221666   3.093   1.254   9.696  0.0873 -0.3543 -0.0718
 3402SOL     OW21667   4.203   3.062   3.400  0.7616 -0.1197 -0.0204
 3402SOL    HW121668   4.113   3.045   3.374  0.6003  0.5451  0.1167
 3402SOL    HW221669   4.206   3.028   3.489  1.0048 -0.5863 -0.2052
 3403SOL     OW21670   2.138   3.263   6.206  0.0407  0.3088  0.1281
 3403SOL    HW121671   2.221   3.283   6.250 -0.7604  1.2635  1.2000
 3403SOL    HW221672   2.073   3.325   6.239 -1.4510  0.3299 -2.8960
 3404SOL     OW21673   0.074   1.583   2.231 -0.3706 -0.4924  0.0127
 3404SOL    HW121674   0.024   1.583   2.313  0.7065 -1.4800  0.6744
 3404SOL    HW221675   0.072   1.679   2.226 -1.7657 -0.4101  1.9010
 3405SOL     OW21676   3.743   2.713   1.377  0.0583 -0.4314 -0.1273
 3405SOL    HW121677   3.783   2.629   1.397  1.3462  0.1472 -0.2862
 3405SOL    HW221678   3.676   2.725   1.445  0.1355 -0.9092  0.0312
 3406SOL     OW21679   1.759   3.841   0.671  0.2124 -0.4324 -0.4113
 3406SOL    HW121680   1.751   3.936   0.657  1.3633  0.1892  3.1575
 3406SOL    HW221681   1.855   3.842   0.664  0.1540  0.7979 -1.1904
 3407SOL     OW21682   2.474   3.293   4.991  0.2293 -0.5951 -0.5563
 3407SOL    HW121683   2.547   3.321   5.047  0.6800 -0.6479 -1.1204
 3407SOL    HW221684   2.420   3.371   4.979  0.5159 -0.2318  0.4546
 3408SOL     OW21685   2.741   2.626  14.833 -0.5481  0.1220 -0.0060
 3408SOL    HW121686   2.657   2.671  14.822 -0.5060 -0.0565 -1.0535
 3408SOL    HW221687   2.791   2.701  14.865 -1.4410 -0.6039  3.0867
 3409SOL     OW21688   4.214   4.300   6.737 -0.3524 -0.3651 -0.0515
 3409SOL    HW121689   4.228   4.375   6.680 -1.3824 -0.8771 -0.9791
 3409SOL    HW221690   4.221   4.227   6.674 -0.2175  0.7111 -1.2818
 3410SOL     OW21691   3.170   4.348   3.097  0.2655 -0.3464 -0.1640
 3410SOL    HW121692   3.165   4.405   3.173 -0.5208 -1.6873  0.7786
 3410SOL    HW221693   3.264   4.357   3.081  0.6089 -0.9546  1.5417
 3411SOL     OW21694   1.446   1.816   1.083 -0.5739 -0.4776  0.3506
 3411SOL    HW121695   1.459   1.801   0.990 -1.5457  3.8757 -0.5034
 3411SOL    HW221696   1.460   1.911   1.084  1.4437 -0.7987  1.2326
 3412SOL     OW21697   2.038   1.656   7.496 -0.2042 -0.2443 -1.0517
 3412SOL    HW121698   2.112   1.679   7.441  0.6389 -0.3315  0.0471
 3412SOL    HW221699   2.088   1.653   7.578 -1.9625  1.0641  0.0657
 3413SOL     OW21700   1.442   3.228   2.537 -0.0150  0.1475 -0.3726
 3413SOL    HW121701   1.447   3.157   2.601  1.3728 -1.3649 -2.2055
 3413SOL    HW221702   1.528   3.270   2.538  0.4443 -0.8475  1.8895
 3414SOL     OW21703   3.091   2.957   7.246 -0.3912  0.3259 -0.2646
 3414SOL    HW121704   3.084   2.907   7.165  0.6957  0.7600 -0.6261
 3414SOL    HW221705   3.034   3.032   7.229 -2.1119 -1.0541 -0.5901
 3415SOL     OW21706   3.511   1.315  11.160  0.5077 -0.7884 -0.6482
 3415SOL    HW121707   3.472   1.253  11.221 -2.2221  1.2187 -0.3543
 3415SOL    HW221708   3.444   1.383  11.164 -0.5632 -1.8523 -0.5866
 3416SOL     OW21709   1.807   3.977   5.733  0.1942 -0.3183 -0.0413
 3416SOL    HW121710   1.827   4.032   5.658  1.7688  0.8981  1.2702
 3416SOL    HW221711   1.852   3.895   5.714  0.7798 -0.0509  0.1794
 3417SOL     OW21712   4.146   1.718   0.049 -0.2884  0.4219 -0.5929
 3417SOL    HW121713   4.151   1.660  17.671  1.0362 -1.8968  1.2535
 3417SOL    HW221714   4.170   1.801   0.009  0.5674 -0.9100 -2.8432
 3418SOL     OW21715   3.780   3.798   8.390  0.1932  0.2196 -0.0775
 3418SOL    HW121716   3.855   3.851   8.362  1.3787 -0.8912  0.9883
 3418SOL    HW221717   3.816   3.710   8.380  0.0558  0.1826 -0.2397
 3419SOL     OW21718   3.234   0.061   4.530  0.0250  0.6553  0.0563
 3419SOL    HW121719   3.300   0.025   4.470 -0.7361 -0.4755 -0.1097
 3419SOL    HW221720   3.189   4.708   4.564 -0.0237 -0.3626 -2.3225
 3420SOL     OW21721   0.546   2.619  15.538 -0.2451 -0.0344 -0.5392
 3420SOL    HW121722   0.598   2.542  15.516 -1.5774 -0.3023 -2.8043
 3420SOL    HW221723   0.590   2.645  15.619 -0.2712 -1.2132 -0.1435
 3421SOL     OW21724   3.502   3.354   9.393  0.4015  0.0716 -0.5642
 3421SOL    HW121725   3.541   3.407   9.462  0.5683  0.2088 -0.7662
 3421SOL    HW221726   3.484   3.420   9.327  1.1358  0.7970 -0.0302
 3422SOL     OW21727   2.278   3.092   4.610  0.3668 -0.0350 -0.1572
 3422SOL    HW121728   2.249   3.002   4.626  1.2155 -0.4823 -1.2062
 3422SOL    HW221729   2.373   3.082   4.618  0.2814 -1.2601 -0.7205
 3423SOL     OW21730   2.633   3.979  10.300 -0.8884  0.0522 -0.3785
 3423SOL    HW121731   2.681   4.049  10.256  1.7313  0.1497  2.6660
 3423SOL    HW221732   2.701   3.927  10.343  0.1397 -1.1655 -3.4589
 3424SOL     OW21733   1.991   0.187   7.079  0.4040 -0.2151 -0.2641
 3424SOL    HW121734   1.996   0.204   6.985  0.2144 -0.3006 -0.2898
 3424SOL    HW221735   2.006   0.093   7.084  1.0401 -0.0781  0.4349
 3425SOL     OW21736   0.329   0.501   0.389 -0.3651  0.0491 -0.0426
 3425SOL    HW121737   0.403   0.560   0.370 -0.2000 -0.2107 -0.2057
 3425SOL    HW221738   0.357   0.468   0.474  0.6612 -0.7746 -0.6927
 3426SOL     OW21739   0.596   0.763   7.812  0.0689 -0.2482  0.4847
 3426SOL    HW121740   0.650   0.841   7.800 -0.1019 -0.2593 -0.3564
 3426SOL    HW221741   0.582   0.759   7.907 -0.1816 -0.6423  0.4343
 3427SOL     OW21742   1.438   2.217   8.458  0.0789 -0.8850  0.1071
 3427SOL    HW121743   1.365   2.241   8.401  1.2429  2.5796  0.0983
 3427SOL    HW221744   1.514   2.248   8.408 -0.8423 -0.5497 -1.0652
 3428SOL     OW21745   0.201   4.493   9.557 -0.2640  0.2228  0.2376
 3428SOL    HW121746   0.225   4.410   9.598 -0.3197  0.9407  1.7424
 3428SOL    HW221747   0.126   4.453   9.513  1.5318  0.8319 -3.3487
 3429SOL     OW21748   0.261   3.266   2.222 -0.0707 -0.5977 -0.0989
 3429SOL    HW121749   0.277   3.172   2.213  0.5349 -0.4993  0.0047
 3429SOL    HW221750   0.212   3.266   2.304 -0.2782  0.5925 -0.2187
 3430SOL     OW21751   3.625   3.779   4.071  0.2810 -0.1716 -0.5464
 3430SOL    HW121752   3.716   3.794   4.099 -0.2806 -1.1706  1.8271
 3430SOL    HW221753   3.581   3.749   4.151  1.9149 -0.1519  0.3570
 3431SOL     OW21754   3.534   0.206  10.071 -0.3436  0.5645 -0.2761
 3431SOL    HW121755   3.541   0.163  10.156  0.6576  0.9992 -0.1418
 3431SOL    HW221756   3.517   0.299  10.084 -1.3846  0.0585  1.9504
 3432SOL     OW21757   1.302   2.988   7.554 -0.0058 -0.2943  0.4677
 3432SOL    HW121758   1.392   3.019   7.568 -0.5349  2.5204 -2.3867
 3432SOL    HW221759   1.271   3.055   7.493 -1.4094 -0.9186  0.5195
 3433SOL     OW21760   4.246   4.339   2.354  0.9242  0.0206  0.1385
 3433SOL    HW121761   4.262   4.429   2.381 -1.9384  0.0767  1.6212
 3433SOL    HW221762   4.327   4.328   2.303 -0.1691 -2.3205 -1.0871
 3434SOL     OW21763   3.912   1.316  17.152 -0.3529  0.1472  0.5617
 3434SOL    HW121764   3.934   1.257  17.224  1.7841  0.0298 -0.2072
 3434SOL    HW221765   3.950   1.268  17.079 -2.2704 -0.7231  0.1210
 3435SOL     OW21766   0.914   3.997   6.591 -0.2301  0.0693 -0.2845
 3435SOL    HW121767   0.916   3.926   6.528 -1.9120  0.5857 -0.9064
 3435SOL    HW221768   0.844   4.055   6.560 -0.8733 -0.5039  0.1153
 3436SOL     OW21769   3.497   0.222   6.167  0.0208  0.2765  0.2370
 3436SOL    HW121770   3.450   0.272   6.100 -3.0252 -0.4312  1.8340
 3436SOL    HW221771   3.588   0.248   6.151  0.2049 -2.4322 -2.8966
 3437SOL     OW21772   4.161   1.757   4.924  0.0812 -0.1962 -0.3170
 3437SOL    HW121773   4.125   1.708   4.849 -0.4483 -0.4847  0.1201
 3437SOL    HW221774   4.213   1.686   4.961  0.5824  0.6097  0.5103
 3438SOL     OW21775   3.222   0.002   8.698  0.4039  0.4825 -0.3695
 3438SOL    HW121776   3.298   4.677   8.726 -0.0579 -0.9188 -1.5900
 3438SOL    HW221777   3.179   4.672   8.631  0.5093 -0.3625  0.2577
 3439SOL     OW21778   1.407   2.600   9.263  0.5169 -0.2856 -0.0728
 3439SOL    HW121779   1.313   2.610   9.279  0.4117 -2.1818  0.5420
 3439SOL    HW221780   1.443   2.665   9.324 -0.1452  1.4402 -1.5057
 3440SOL     OW21781   4.554   3.124   2.616  0.0150 -0.6388 -0.1052
 3440SOL    HW121782   4.499   3.092   2.544 -0.8549  1.3552 -0.3240
 3440SOL    HW221783   4.513   3.086   2.693  0.0243 -0.5575 -0.0607
 3441SOL     OW21784   0.275   1.155   2.089  0.3595 -0.0430  0.0177
 3441SOL    HW121785   0.296   1.176   1.998 -2.0424  1.2246 -0.2538
 3441SOL    HW221786   0.249   1.243   2.117  1.5099  0.7029 -1.2530
 3442SOL     OW21787   3.160   4.585   4.695  0.2261 -0.1277 -0.4458
 3442SOL    HW121788   3.218   4.515   4.724 -0.9792 -0.5666  0.9193
 3442SOL    HW221789   3.177   4.658   4.756  0.9924 -0.0878 -0.7003
 3443SOL     OW21790   2.320   1.564   4.967  0.1186  0.0104 -0.2756
 3443SOL    HW121791   2.244   1.515   4.999  0.9530 -0.7023  0.6356
 3443SOL    HW221792   2.397   1.528   5.013  0.5578  1.3409  0.0266
 3444SOL     OW21793   3.367   4.083   0.795 -0.5002 -0.0148  0.2856
 3444SOL    HW121794   3.333   3.998   0.766 -0.8873  0.5112 -0.8099
 3444SOL    HW221795   3.373   4.123   0.709 -3.1935  0.8204  0.4829
 3445SOL     OW21796   2.790   1.099  14.874  0.0544 -0.1104 -0.4324
 3445SOL    HW121797   2.700   1.097  14.842 -0.1817 -0.5716  0.2746
 3445SOL    HW221798   2.818   1.190  14.886  1.4265 -0.5410 -0.3321
 3446SOL     OW21799   2.528   4.507   8.602  0.0991  0.1747  0.1219
 3446SOL    HW121800   2.590   4.475   8.668  0.1800 -0.6731 -0.3738
 3446SOL    HW221801   2.475   4.432   8.577  0.6836  1.1845 -4.0717
 3447SOL     OW21802   2.181   0.695  14.277  0.2687 -0.4052 -0.2252
 3447SOL    HW121803   2.090   0.673  14.259 -0.1145  0.5342  0.5761
 3447SOL    HW221804   2.222   0.610  14.293  0.7686 -0.6506 -2.8571
 3448SOL     OW21805   3.553   4.501   8.417  0.0964  0.8294 -0.1467
 3448SOL    HW121806   3.640   4.460   8.417  0.6998  2.1162 -0.5360
 3448SOL    HW221807   3.509   4.444   8.480 -2.1159  0.4334 -2.0844
 3449SOL     OW21808   4.685   3.734   8.701  0.4156  0.7045  0.9690
 3449SOL    HW121809   4.602   3.778   8.683 -1.6621 -3.0495  1.2120
 3449SOL    HW221810   0.021   3.807   8.713  1.4929 -0.1290  0.6552
 3450SOL     OW21811   1.255   1.903   5.402  0.9062 -0.0760  0.1951
 3450SOL    HW121812   1.328   1.850   5.369 -2.2422 -1.8973 -3.8954
 3450SOL    HW221813   1.269   1.985   5.354  2.8598 -0.6499 -0.2293
 3451SOL     OW21814   4.441   0.503   7.134 -0.2896  0.4631 -0.4231
 3451SOL    HW121815   4.501   0.523   7.063 -0.0353 -0.8689 -0.5956
 3451SOL    HW221816   4.499   0.445   7.184 -2.0818 -0.0252  1.1162
 3452SOL     OW21817   1.142   3.056   1.816  0.3345  0.0951 -0.1688
 3452SOL    HW121818   1.171   3.010   1.737 -0.1610  1.7379 -1.3173
 3452SOL    HW221819   1.095   2.991   1.868  0.2818 -0.0346 -0.3781
 3453SOL     OW21820   1.980   3.194   7.066 -0.2396 -0.2162  0.1272
 3453SOL    HW121821   1.975   3.127   7.135  0.0854  0.8348  1.1699
 3453SOL    HW221822   1.998   3.134   6.994  0.0661 -1.1760  0.9949
 3454SOL     OW21823   1.321   1.857   0.805 -0.8865  0.1125  0.3576
 3454SOL    HW121824   1.290   1.825   0.720  1.4659  0.9997 -0.8530
 3454SOL    HW221825   1.239   1.847   0.853 -0.9449 -2.5733 -0.2964
 3455SOL     OW21826   0.029   0.332  17.337  0.3092  0.4140 -0.0223
 3455SOL    HW121827   0.070   0.278  17.268 -0.0596  0.6808 -0.4473
 3455SOL    HW221828   4.683   0.374  17.289  0.1471 -0.4607 -0.5667
 3456SOL     OW21829   0.433   4.048   1.459 -0.3150 -0.0053  0.3567
 3456SOL    HW121830   0.498   4.044   1.529 -0.0767  0.1100  0.1417
 3456SOL    HW221831   0.478   4.003   1.388  0.8031 -0.4675  1.3468
 3457SOL     OW21832   0.925   3.408  14.303  0.0371  0.2098 -0.0256
 3457SOL    HW121833   0.956   3.498  14.313  0.3430  0.0230  0.7317
 3457SOL    HW221834   1.003   3.359  14.276 -0.1564 -2.2683  3.7918
 3458SOL     OW21835   2.327   3.958   4.267 -0.0975 -0.2720 -0.1366
 3458SOL    HW121836   2.412   3.946   4.225 -1.1464  0.4734 -2.4389
 3458SOL    HW221837   2.331   3.897   4.341 -0.8167 -1.7228 -1.2951
 3459SOL     OW21838   4.589   0.917   3.984  0.0010  0.4944 -0.4741
 3459SOL    HW121839   4.675   0.953   4.002  0.4031  0.0559 -1.5549
 3459SOL    HW221840   4.596   0.853   3.914  0.9652 -1.9565  1.8463
 3460SOL     OW21841   4.341   3.979   1.946 -0.1206 -1.0518 -0.2774
 3460SOL    HW121842   4.425   3.949   1.980  1.6056  2.2441 -1.6665
 3460SOL    HW221843   4.369   4.009   1.860 -1.0731 -0.8804 -0.5315
 3461SOL     OW21844   4.039   3.865   5.349  0.4630 -0.2348 -0.5365
 3461SOL    HW121845   4.072   3.870   5.439 -1.8145 -0.6072  0.2950
 3461SOL    HW221846   4.109   3.817   5.305  2.1279  0.2672  1.5172
 3462SOL     OW21847   0.162   2.598   0.160 -0.2684  0.5680 -0.1897
 3462SOL    HW121848   0.235   2.538   0.175 -0.6807 -0.0952 -0.8723
 3462SOL    HW221849   0.091   2.549   0.118  0.3490 -1.6286  1.3362
 3463SOL     OW21850   0.304   0.795   0.569  0.4699  0.7702  0.4044
 3463SOL    HW121851   0.387   0.754   0.594 -0.1858 -0.2971  0.8431
 3463SOL    HW221852   0.307   0.787   0.473  2.5355  1.5266  0.4128
 3464SOL     OW21853   2.074   3.906   1.028 -0.4450 -0.5307  0.6569
 3464SOL    HW121854   2.025   3.965   0.970  0.1398 -0.6392  0.0507
 3464SOL    HW221855   2.119   3.973   1.079  1.1898 -0.1088 -1.3766
 3465SOL     OW21856   3.814   3.086   5.303 -0.4289 -0.3119 -0.2994
 3465SOL    HW121857   3.752   3.072   5.231  0.1188 -3.6098 -0.1605
 3465SOL    HW221858   3.894   3.045   5.271 -0.6591 -1.4238  0.5591
 3466SOL     OW21859   1.066   1.850   9.651 -0.4571 -0.3031 -0.2849
 3466SOL    HW121860   1.093   1.875   9.563 -3.4736  1.1794 -0.7713
 3466SOL    HW221861   0.972   1.834   9.652 -0.8836  2.1053 -1.2366
 3467SOL     OW21862   1.827   1.455   6.059  0.3342 -0.3770 -0.4622
 3467SOL    HW121863   1.776   1.530   6.088  0.4918  0.0309 -1.2185
 3467SOL    HW221864   1.812   1.399   6.135 -0.9117  1.1558  0.4123
 3468SOL     OW21865   0.291   3.126   9.143  0.0505  0.4929 -0.1503
 3468SOL    HW121866   0.271   3.218   9.130 -0.3058  0.7867  2.4837
 3468SOL    HW221867   0.346   3.131   9.220 -0.9424  1.0001  0.5323
 3469SOL     OW21868   0.234   1.726   6.879  0.2460 -0.9850 -0.5130
 3469SOL    HW121869   0.172   1.657   6.858 -1.3519 -0.5453  2.7322
 3469SOL    HW221870   0.219   1.743   6.972  0.1971 -3.9673  0.0249
 3470SOL     OW21871   1.802   0.010   2.765  0.4369  0.3517  0.0168
 3470SOL    HW121872   1.751   4.663   2.728  0.2351  0.5974 -0.1766
 3470SOL    HW221873   1.770   0.015   2.855 -0.6469  1.5430 -0.4496
 3471SOL     OW21874   1.216   0.347   6.935  0.1073 -0.3087 -0.2453
 3471SOL    HW121875   1.205   0.262   6.978 -0.4570  1.2029  2.5793
 3471SOL    HW221876   1.158   0.341   6.859  1.4264 -0.6943 -1.2200
 3472SOL     OW21877   0.681   1.190  10.940 -0.1524  0.4519  0.5536
 3472SOL    HW121878   0.774   1.178  10.960  0.4610  2.2748 -1.2197
 3472SOL    HW221879   0.688   1.274  10.895 -3.7987  0.7935  0.5723
 3473SOL     OW21880   3.603   4.082   1.718  0.3828  0.4011 -0.0306
 3473SOL    HW121881   3.617   4.009   1.778  1.0260  2.3107  2.1384
 3473SOL    HW221882   3.560   4.032   1.648  0.6429 -0.1590  0.2066
 3474SOL     OW21883   4.055   3.968  10.004  0.4249  0.3394 -0.4448
 3474SOL    HW121884   4.118   3.999   9.939  0.4513 -0.3809 -0.7681
 3474SOL    HW221885   4.034   4.043  10.059 -1.7319 -0.1338 -0.6499
 3475SOL     OW21886   2.581   4.022  15.086  0.1194 -0.3688 -0.5982
 3475SOL    HW121887   2.674   3.999  15.091  0.1006  0.1804  2.2785
 3475SOL    HW221888   2.556   3.982  15.169 -0.1127 -0.9518 -0.9546
 3476SOL     OW21889   1.874   1.750   6.876 -0.1087 -0.3003  0.3831
 3476SOL    HW121890   1.961   1.783   6.856  0.7815 -2.8777 -0.0507
 3476SOL    HW221891   1.887   1.660   6.905 -3.3420 -1.4438 -1.6926
 3477SOL     OW21892   0.718   3.687   4.545 -0.4590  0.2999 -0.4795
 3477SOL    HW121893   0.777   3.715   4.615  0.2364  0.2072 -1.0189
 3477SOL    HW221894   0.720   3.772   4.500 -1.1463  0.1526 -0.7788
 3478SOL     OW21895   2.081   3.953   8.440 -0.2620 -0.2711  0.4792
 3478SOL    HW121896   2.106   4.003   8.518  2.4759  1.5165 -1.5298
 3478SOL    HW221897   2.152   3.974   8.380 -2.5627  0.8844 -1.8226
 3479SOL     OW21898   1.914   3.439   6.922  0.2660 -0.5610  0.0782
 3479SOL    HW121899   1.920   3.512   6.984 -1.2647 -3.0843  3.1806
 3479SOL    HW221900   1.922   3.369   6.987  1.4416  0.7768  1.3857
 3480SOL     OW21901   1.482   3.396  11.287 -0.4391 -0.4663 -0.5101
 3480SOL    HW121902   1.576   3.394  11.269  0.0829 -1.2676  2.3300
 3480SOL    HW221903   1.464   3.489  11.274  2.8014  0.3886  1.0539
 3481SOL     OW21904   3.357   3.665  12.140  0.5836 -0.4540  0.0157
 3481SOL    HW121905   3.439   3.710  12.160 -2.1137  4.1776  0.6793
 3481SOL    HW221906   3.302   3.736  12.105  1.1106  0.5345  1.1907
 3482SOL     OW21907   3.931   1.884   4.991  0.6214  0.3219  0.0831
 3482SOL    HW121908   4.011   1.840   4.962 -0.0370 -0.0867 -1.1503
 3482SOL    HW221909   3.934   1.857   5.082  0.0661 -1.1677 -0.3450
 3483SOL     OW21910   4.722   4.104   5.098  0.3156  0.4115  0.0566
 3483SOL    HW121911   0.001   4.008   5.094  2.8186  0.4737  0.9586
 3483SOL    HW221912   0.048   4.116   5.018  1.4318 -0.9920  0.5502
 3484SOL     OW21913   1.469   2.020  14.208  0.0322  0.2383  0.7027
 3484SOL    HW121914   1.508   1.940  14.172  1.0805  1.6895 -1.4184
 3484SOL    HW221915   1.524   2.080  14.157  0.4858  1.2460  2.3815
 3485SOL     OW21916   3.064   2.425  13.598 -0.2990 -0.0540 -0.1887
 3485SOL    HW121917   3.043   2.346  13.548 -1.9122  0.2490  0.0125
 3485SOL    HW221918   3.108   2.469  13.525  2.0853 -1.2239  0.5334
 3486SOL     OW21919   1.633   1.519   8.563 -0.0750 -0.2116 -0.0668
 3486SOL    HW121920   1.545   1.552   8.545 -0.0821 -0.7579 -1.0531
 3486SOL    HW221921   1.632   1.530   8.658  1.8457 -0.7481  0.0262
 3487SOL     OW21922   1.656   2.426   8.589 -0.5077 -0.6164  0.1318
 3487SOL    HW121923   1.690   2.366   8.655  2.1666  2.6644  1.7037
 3487SOL    HW221924   1.569   2.448   8.623 -0.4956  0.2510 -0.4049
 3488SOL     OW21925   0.750   1.860   8.818  0.4916 -0.6029 -0.1734
 3488SOL    HW121926   0.734   1.832   8.908 -0.6976 -1.6709 -0.7105
 3488SOL    HW221927   0.839   1.827   8.807  0.6657  0.3294 -1.4463
 3489SOL     OW21928   0.414   3.837  12.739  0.5054  0.0215 -0.0367
 3489SOL    HW121929   0.379   3.786  12.812 -0.5017 -0.2871 -0.7302
 3489SOL    HW221930   0.509   3.835  12.750  0.7296 -0.4003 -2.0657
 3490SOL     OW21931   2.432   4.603   7.048 -0.1079 -0.1008 -0.3116
 3490SOL    HW121932   2.375   4.528   7.034 -1.3930  0.8393 -0.1671
 3490SOL    HW221933   2.464   4.620   6.959  0.8238 -1.1472 -0.1722
 3491SOL     OW21934   4.613   4.017   2.057 -0.0384  0.3694 -0.1160
 3491SOL    HW121935   4.643   3.963   2.129  1.3210  0.3617 -0.6920
 3491SOL    HW221936   4.695   4.056   2.025 -0.8973 -0.0926 -2.9211
 3492SOL     OW21937   3.034   0.939  13.275 -0.4268  0.4243  0.5168
 3492SOL    HW121938   3.108   0.902  13.226 -1.5085 -1.1215  0.0479
 3492SOL    HW221939   2.962   0.899  13.228  0.4303  0.0041 -0.4310
 3493SOL     OW21940   3.113   0.884   0.357  0.6819  0.2154  0.4069
 3493SOL    HW121941   3.083   0.793   0.358  1.7109 -0.1245 -0.7210
 3493SOL    HW221942   3.194   0.859   0.314 -0.5269 -2.1204 -0.5133
 3494SOL     OW21943   4.046   3.344   8.309  0.2999 -0.4162 -0.2126
 3494SOL    HW121944   4.133   3.358   8.347 -0.4711  3.1823  0.1720
 3494SOL    HW221945   4.056   3.262   8.260  1.1856 -0.1925 -0.4161
 3495SOL     OW21946   0.446   2.476   5.824  0.3919  0.3431  0.3486
 3495SOL    HW121947   0.443   2.505   5.733 -0.0742 -0.9916 -0.0747
 3495SOL    HW221948   0.425   2.556   5.871 -0.2493 -0.7023  1.8415
 3496SOL     OW21949   3.877   4.573   7.570  0.4452  0.6324  0.5038
 3496SOL    HW121950   3.910   4.516   7.640 -0.6449 -0.3997  0.1825
 3496SOL    HW221951   3.816   4.517   7.523  0.8910 -0.4124  1.1679
 3497SOL     OW21952   2.695   2.514   3.575  0.3266 -0.1690 -0.5518
 3497SOL    HW121953   2.618   2.570   3.587 -0.6032 -1.5571 -0.0526
 3497SOL    HW221954   2.686   2.445   3.640 -0.0116 -0.3318 -0.7739
 3498SOL     OW21955   1.784   3.211   2.838 -0.3267 -0.2582 -0.0059
 3498SOL    HW121956   1.875   3.228   2.862 -0.4214  0.1591  0.0610
 3498SOL    HW221957   1.732   3.267   2.895 -0.0580 -1.3177  1.2687
 3499SOL     OW21958   0.603   2.160   7.205 -0.0202 -0.0630 -0.3547
 3499SOL    HW121959   0.608   2.149   7.300 -1.4377  1.0010 -0.1655
 3499SOL    HW221960   0.638   2.077   7.173  0.0077  0.1336 -0.8477
 3500SOL     OW21961   3.631   0.592   7.155 -0.0336  0.1020  0.0922
 3500SOL    HW121962   3.646   0.624   7.066 -3.7997  0.5168 -0.4129
 3500SOL    HW221963   3.702   0.631   7.205 -1.1879  0.6633  1.2856
 3501SOL     OW21964   0.466   2.321  17.041 -0.1854  0.3257  1.1792
 3501SOL    HW121965   0.560   2.321  17.025 -0.3766  0.1768  0.0938
 3501SOL    HW221966   0.429   2.326  16.953 -0.8120  3.0893  1.5798
 3502SOL     OW21967   2.318   0.166  12.658 -0.0282 -0.0159  0.6197
 3502SOL    HW121968   2.401   0.201  12.691 -0.4633  0.6083  1.0428
 3502SOL    HW221969   2.347   0.163  12.567 -0.5621  1.7399  0.4008
 3503SOL     OW21970   1.553   1.975   4.988  0.3300  0.2122 -0.0027
 3503SOL    HW121971   1.626   2.013   4.939  1.1126  0.5308  1.4327
 3503SOL    HW221972   1.601   1.977   5.070 -1.3138  1.2538  0.9181
 3504SOL     OW21973   3.744   2.678   3.417  0.6019  0.0126 -0.4680
 3504SOL    HW121974   3.722   2.589   3.445 -1.1146  0.9520  1.1385
 3504SOL    HW221975   3.834   2.688   3.449  0.8677 -1.3765 -0.7732
 3505SOL     OW21976   3.279   3.960   6.626  0.5077  0.3483  0.6244
 3505SOL    HW121977   3.320   3.999   6.703  0.6965 -1.1882  1.3114
 3505SOL    HW221978   3.207   3.914   6.670 -0.6212  1.9525  0.4532
 3506SOL     OW21979   3.069   0.310   4.558 -0.0172  1.2480 -0.3509
 3506SOL    HW121980   3.123   0.239   4.522 -0.8069  0.3669  0.2208
 3506SOL    HW221981   3.031   0.353   4.481  2.4511 -0.3171 -2.4437
 3507SOL     OW21982   1.409   0.260   2.760 -0.0278 -0.5624  0.1536
 3507SOL    HW121983   1.358   0.253   2.679  0.7316  0.2094 -0.3915
 3507SOL    HW221984   1.495   0.290   2.731 -1.5128  1.3030 -2.2992
 3508SOL     OW21985   1.042   3.060   5.265 -0.1917  0.2951  0.0424
 3508SOL    HW121986   1.094   3.131   5.302  0.1253  0.0493  0.0643
 3508SOL    HW221987   1.113   3.033   5.207 -0.2796 -1.3578  0.6981
 3509SOL     OW21988   3.767   4.278   9.406 -0.4393  0.0129 -0.1679
 3509SOL    HW121989   3.735   4.297   9.495 -0.5325 -1.3897  0.0975
 3509SOL    HW221990   3.713   4.344   9.362  2.7051  1.6690 -1.4593
 3510SOL     OW21991   2.473   2.713   4.736 -0.5299 -0.1378 -0.4976
 3510SOL    HW121992   2.402   2.758   4.782 -1.6097 -1.1921 -1.1236
 3510SOL    HW221993   2.475   2.622   4.766  0.0339 -0.0061 -0.1472
 3511SOL     OW21994   3.018   4.148   7.621  1.0416  0.0148 -1.1822
 3511SOL    HW121995   3.069   4.075   7.656  0.1515 -0.1038 -0.1397
 3511SOL    HW221996   3.086   4.198   7.576  0.5979  0.0163 -1.8578
 3512SOL     OW21997   1.727   1.433   1.090  0.2451 -0.3786 -0.0812
 3512SOL    HW121998   1.677   1.352   1.105 -0.2058 -0.2898 -1.0708
 3512SOL    HW221999   1.657   1.496   1.107  0.9016 -0.0908  1.5650
 3513SOL     OW22000   3.528   1.223   6.650 -0.4283 -0.1025  0.1619
 3513SOL    HW122001   3.450   1.175   6.623  0.2734 -0.3822 -1.3440
 3513SOL    HW222002   3.493   1.310   6.633 -1.3563 -0.5968 -0.4421
 3514SOL     OW22003   1.303   2.595   4.459 -0.1791  0.1952 -0.4737
 3514SOL    HW122004   1.223   2.568   4.414  0.9700 -2.2035 -1.0976
 3514SOL    HW222005   1.333   2.506   4.479 -1.7560 -0.4719 -1.1187
 3515SOL     OW22006   3.885   0.870  16.196 -0.0861  0.2236  0.0205
 3515SOL    HW122007   3.919   0.832  16.115  0.1173 -0.9384  0.6475
 3515SOL    HW222008   3.958   0.910  16.243 -0.5933  3.7056 -2.1206
 3516SOL     OW22009   1.373   1.605   9.836  0.5564  0.2086 -0.3480
 3516SOL    HW122010   1.340   1.695   9.843 -0.9689 -0.4107  0.1911
 3516SOL    HW222011   1.321   1.565   9.767  0.1873 -2.1108  1.2685
 3517SOL     OW22012   3.222   4.542   1.385  0.2744 -1.0221  0.1655
 3517SOL    HW122013   3.267   4.609   1.437  1.2705 -0.8770 -0.8855
 3517SOL    HW222014   3.287   4.471   1.393 -0.8027 -1.9597  0.5529
 3518SOL     OW22015   1.035   2.518   5.234  0.2281 -0.3582  0.4062
 3518SOL    HW122016   1.016   2.600   5.188  4.3735 -0.6120 -1.6615
 3518SOL    HW222017   1.071   2.472   5.159  0.8862 -2.4673  2.0306
 3519SOL     OW22018   4.101   4.054   7.664  0.0190 -0.0588 -0.0639
 3519SOL    HW122019   4.050   4.085   7.740  0.9734 -2.6218  1.6183
 3519SOL    HW222020   4.181   4.102   7.684 -0.1246  0.7354 -1.4088
 3520SOL     OW22021   2.302   3.985   9.258 -0.3408  0.0025  0.6840
 3520SOL    HW122022   2.282   3.933   9.336 -0.4092 -0.1293  0.5799
 3520SOL    HW222023   2.265   4.068   9.285  1.1922  0.9924 -0.2094
 3521SOL     OW22024   2.610   4.664   6.498  0.0876  0.5526  0.3018
 3521SOL    HW122025   2.610   4.686   6.405  2.0077 -2.3248 -0.3747
 3521SOL    HW222026   2.676   0.005   6.522 -0.1912  1.5542 -1.7331
 3522SOL     OW22027   3.471   0.226   4.613 -0.0667 -0.0171 -0.0222
 3522SOL    HW122028   3.492   0.261   4.526  0.9639  2.2529  1.1261
 3522SOL    HW222029   3.397   0.167   4.600  0.9558 -0.7379 -2.6274
 3523SOL     OW22030   1.481   0.003   8.772  1.2648 -0.2065  0.0360
 3523SOL    HW122031   1.446   0.065   8.836  0.1419 -1.3421  0.5147
 3523SOL    HW222032   1.529   0.066   8.718 -0.2646  1.0614  0.1511
 3524SOL     OW22033   2.140   2.083  16.487 -0.5498  0.1489  0.0719
 3524SOL    HW122034   2.188   2.040  16.415 -1.3800  0.4425 -0.6590
 3524SOL    HW222035   2.049   2.067  16.464 -0.9805  1.7262  0.6993
 3525SOL     OW22036   4.319   0.311   4.305  0.6818  0.2528  0.1232
 3525SOL    HW122037   4.251   0.243   4.302  1.3549 -0.5394  2.3572
 3525SOL    HW222038   4.382   0.265   4.360  1.0058 -2.0106 -2.1606
 3526SOL     OW22039   3.401   0.237   4.939  0.2110 -0.3060 -0.0878
 3526SOL    HW122040   3.356   0.319   4.920 -0.5730 -0.4806  1.0550
 3526SOL    HW222041   3.471   0.248   4.874 -0.9218  1.2811 -1.0356
 3527SOL     OW22042   2.542   0.202   1.909 -0.3419  0.0449 -0.4142
 3527SOL    HW122043   2.522   0.108   1.916  1.0055 -0.2997 -0.9963
 3527SOL    HW222044   2.460   0.249   1.922 -0.3787 -0.0269 -0.3883
 3528SOL     OW22045   2.781   0.312   2.023 -0.6203 -0.4434 -0.6133
 3528SOL    HW122046   2.706   0.260   1.995 -0.1213 -0.4887 -1.8545
 3528SOL    HW222047   2.825   0.314   1.938  0.0457  1.7389 -0.2082
 3529SOL     OW22048   1.669   3.491   8.104  0.0462  0.6662  0.0360
 3529SOL    HW122049   1.724   3.505   8.027  0.1670 -1.3328 -0.2519
 3529SOL    HW222050   1.697   3.570   8.150  0.9453  1.4325 -1.8197
 3530SOL     OW22051   0.057   3.303  17.448 -0.2368  0.2995 -0.0607
 3530SOL    HW122052   0.029   3.214  17.429 -0.6864  0.8061 -1.7958
 3530SOL    HW222053   4.717   3.361  17.406  1.8366  1.4516 -1.6140
 3531SOL     OW22054   3.620   3.487   2.488 -0.1010  0.0334  0.2666
 3531SOL    HW122055   3.609   3.460   2.397 -1.9440 -0.3929  0.6232
 3531SOL    HW222056   3.682   3.424   2.526 -0.8843 -1.3993 -0.8523
 3532SOL     OW22057   0.178   3.227  10.606 -0.0034  0.1435  0.2639
 3532SOL    HW122058   0.213   3.138  10.604 -2.1480 -0.6600 -1.3642
 3532SOL    HW222059   0.189   3.264  10.519  2.0414 -1.3706 -0.1105
 3533SOL     OW22060   3.946   2.760   5.905 -0.2359  0.0651 -0.2623
 3533SOL    HW122061   3.904   2.845   5.895 -1.8701 -0.6112  0.9268
 3533SOL    HW222062   3.893   2.711   5.842 -0.2718 -0.2544  0.0195
 3534SOL     OW22063   4.571   4.417   9.135 -0.5112 -0.0815 -0.1899
 3534SOL    HW122064   4.606   4.465   9.210 -1.1247 -0.4786  0.3462
 3534SOL    HW222065   4.603   4.469   9.061  1.7283  0.8085  1.3874
 3535SOL     OW22066   1.362   2.585   2.609  0.2571  0.5829 -0.3362
 3535SOL    HW122067   1.431   2.644   2.578  1.2707 -0.3888  0.1091
 3535SOL    HW222068   1.418   2.520   2.651 -0.9940  0.6936  1.5134
 3536SOL     OW22069   2.694   3.208   4.130 -0.4871 -0.1037 -0.1197
 3536SOL    HW122070   2.651   3.139   4.080  0.1386 -0.4846 -0.1330
 3536SOL    HW222071   2.628   3.212   4.199  0.0590  0.7922  0.3520
 3537SOL     OW22072   0.661   1.995   0.011 -0.0736  0.0757  0.0346
 3537SOL    HW122073   0.595   2.061  17.688 -0.7990  0.4740  3.4306
 3537SOL    HW222074   0.608   1.927   0.053 -1.4878 -0.6122 -2.8722
 3538SOL     OW22075   1.346   0.755  17.135  0.1019 -1.3460 -0.5000
 3538SOL    HW122076   1.333   0.844  17.168  1.3716 -0.8539 -1.3609
 3538SOL    HW222077   1.277   0.712  17.187 -1.9329  0.7805 -1.4190
 3539SOL     OW22078   0.430   3.886   0.784  0.1790  0.0631 -0.2939
 3539SOL    HW122079   0.365   3.815   0.783 -0.2645  0.5392 -4.0069
 3539SOL    HW222080   0.444   3.895   0.690  1.0988 -0.0962 -0.1691
 3540SOL     OW22081   4.256   1.320   3.140  0.2229  0.4323  0.3148
 3540SOL    HW122082   4.260   1.231   3.106 -1.2345  0.4817 -0.0043
 3540SOL    HW222083   4.179   1.321   3.198 -0.0095 -1.3036  0.0340
 3541SOL     OW22084   0.731   4.237   3.802 -0.0117  0.1226  0.2297
 3541SOL    HW122085   0.661   4.190   3.758 -0.5500  1.6761 -0.5876
 3541SOL    HW222086   0.815   4.205   3.769 -0.8856  1.4035 -3.2441
 3542SOL     OW22087   3.732   3.633  10.464 -0.3431  0.2170 -0.0912
 3542SOL    HW122088   3.807   3.652  10.520 -0.9722 -1.0944  1.2008
 3542SOL    HW222089   3.673   3.691  10.512  0.5571 -1.9782  3.6635
 3543SOL     OW22090   4.555   1.814   6.502  0.1190  0.3539  0.0077
 3543SOL    HW122091   4.523   1.741   6.449 -0.9134  1.6671 -1.1876
 3543SOL    HW222092   4.538   1.793   6.594  1.0497  0.3572  0.1816
 3544SOL     OW22093   1.195   2.229   8.303  0.0038  0.4873  0.7777
 3544SOL    HW122094   1.173   2.321   8.289  0.1926  0.2990 -0.7722
 3544SOL    HW222095   1.115   2.195   8.344  0.3986 -3.2879 -1.5794
 3545SOL     OW22096   4.465   1.872   4.833  0.0929  0.4514 -0.2058
 3545SOL    HW122097   4.508   1.827   4.761 -2.1568  2.1321 -2.6068
 3545SOL    HW222098   4.414   1.799   4.869 -0.1601 -0.1104 -1.7264
 3546SOL     OW22099   1.860   2.858   6.144 -0.2047  0.1072 -0.4373
 3546SOL    HW122100   1.936   2.910   6.171 -0.3728  0.3451 -0.4261
 3546SOL    HW222101   1.788   2.921   6.144  0.5567  0.9769 -1.2606
 3547SOL     OW22102   0.333   3.507   5.714 -0.2176  0.8309 -0.0074
 3547SOL    HW122103   0.244   3.541   5.728 -1.3277 -1.3687 -1.7219
 3547SOL    HW222104   0.328   3.434   5.775  0.3907  0.0358 -0.9099
 3548SOL     OW22105   1.820   3.624   1.035 -0.5244  0.0779  0.1284
 3548SOL    HW122106   1.762   3.684   0.989 -0.6288 -0.7032 -0.7586
 3548SOL    HW222107   1.834   3.563   0.962 -0.1407  0.8633 -0.4534
 3549SOL     OW22108   2.032   3.438   4.848  0.3742 -0.2798  0.4231
 3549SOL    HW122109   2.086   3.479   4.781 -0.8557  2.1123  0.9031
 3549SOL    HW222110   2.044   3.349   4.815 -1.8454  0.2944 -1.8993
 3550SOL     OW22111   0.457   0.200   2.263 -0.4221 -0.0894  0.1452
 3550SOL    HW122112   0.540   0.202   2.215  0.1712 -0.4833  1.1481
 3550SOL    HW222113   0.408   0.134   2.214 -0.2543  1.4706 -2.1408
 3551SOL     OW22114   3.818   3.198  12.287  0.0501  0.1617  0.3228
 3551SOL    HW122115   3.904   3.180  12.324 -0.1475 -1.2282  0.0846
 3551SOL    HW222116   3.814   3.291  12.311  1.7867  0.8035 -1.8140
 3552SOL     OW22117   3.052   1.806   9.013 -0.4908 -0.2858  0.1784
 3552SOL    HW122118   3.104   1.837   9.086 -0.6751 -1.7631  0.9343
 3552SOL    HW222119   2.994   1.734   9.039  0.3107  0.1391  3.0589
 3553SOL     OW22120   2.687   1.679   2.730  0.1476  0.3175  0.3825
 3553SOL    HW122121   2.677   1.639   2.643 -0.0812  1.8458 -0.2885
 3553SOL    HW222122   2.765   1.636   2.766  0.3834 -1.1752 -1.9208
 3554SOL     OW22123   3.043   0.726   8.404  0.3130  0.0227 -0.3370
 3554SOL    HW122124   2.980   0.689   8.343 -0.0122 -0.7953  0.5025
 3554SOL    HW222125   3.046   0.817   8.372 -1.0559  0.9071  2.1030
 3555SOL     OW22126   4.350   1.848   8.023 -0.0593  0.0418 -0.2586
 3555SOL    HW122127   4.305   1.862   8.106 -0.5423 -1.0262 -0.3510
 3555SOL    HW222128   4.356   1.753   8.018 -0.2735  0.1343 -2.5166
 3556SOL     OW22129   1.610   1.195  10.696  0.4334  0.1930 -0.4384
 3556SOL    HW122130   1.541   1.145  10.651  0.4766  0.2501 -0.5673
 3556SOL    HW222131   1.627   1.249  10.620  2.6258 -0.5069 -0.4438
 3557SOL     OW22132   1.089   4.017   0.898 -0.3396 -0.2412  0.1762
 3557SOL    HW122133   1.164   3.991   0.844 -1.4557 -1.8312 -0.5883
 3557SOL    HW222134   1.104   4.112   0.899 -0.5096 -0.2269  1.0901
 3558SOL     OW22135   0.014   2.978   4.144  0.5144  0.0879 -0.0935
 3558SOL    HW122136   4.678   3.005   4.075  0.9450  2.0743  0.2811
 3558SOL    HW222137   4.689   2.920   4.202  1.1257  0.9217  1.2498
 3559SOL     OW22138   3.458   0.762   4.206 -0.0453  0.0929  0.4179
 3559SOL    HW122139   3.447   0.675   4.245  3.3354 -0.2479  0.5820
 3559SOL    HW222140   3.367   0.760   4.178  0.0745  0.0820  0.0262
 3560SOL     OW22141   0.532   1.960  13.648  0.5368 -0.4007  0.1860
 3560SOL    HW122142   0.547   1.880  13.699  0.2952  0.9443  2.3443
 3560SOL    HW222143   0.621   1.994  13.637 -0.0067  0.7425 -0.5767
 3561SOL     OW22144   2.213   3.078   1.625  0.2950  0.1137  0.5037
 3561SOL    HW122145   2.152   3.010   1.598  1.7427  0.2239 -3.1108
 3561SOL    HW222146   2.157   3.156   1.624  1.8006  1.1934 -2.8237
 3562SOL     OW22147   2.332   3.342   7.847  0.5497 -0.3162  0.6195
 3562SOL    HW122148   2.400   3.332   7.781 -0.9734 -0.9321 -0.8514
 3562SOL    HW222149   2.321   3.253   7.881  1.1470 -0.7027 -0.2155
 3563SOL     OW22150   1.072   2.630   1.134  0.2014  0.2943  0.4625
 3563SOL    HW122151   1.024   2.689   1.192  1.6429  1.5273  0.3829
 3563SOL    HW222152   0.996   2.572   1.125  0.0956  0.6594 -1.1616
 3564SOL     OW22153   2.590   4.624  13.083 -0.8437  0.0942 -0.3415
 3564SOL    HW122154   2.682   4.650  13.071 -1.4994  1.9251 -1.4393
 3564SOL    HW222155   2.597   4.585  13.170 -0.8915  2.3608  0.6845
 3565SOL     OW22156   4.059   3.477   5.387 -0.4810  0.4200 -0.1059
 3565SOL    HW122157   3.966   3.487   5.364 -0.4485 -3.8109 -2.0231
 3565SOL    HW222158   4.054   3.506   5.478  0.6831  1.3025 -0.3325
 3566SOL     OW22159   1.635   1.473   5.108 -0.1734 -0.6397  0.8246
 3566SOL    HW122160   1.722   1.496   5.076 -0.5746 -2.2247 -1.4572
 3566SOL    HW222161   1.625   1.384   5.074 -5.0866  0.0071  0.5973
 3567SOL     OW22162   0.781   1.321  17.245  0.3315  0.7416 -0.0755
 3567SOL    HW122163   0.752   1.380  17.314 -0.8700  0.9069 -0.7244
 3567SOL    HW222164   0.739   1.240  17.273  0.7437  0.5822  0.0786
 3568SOL     OW22165   3.888   3.755   5.084 -0.4760 -0.5578 -0.1385
 3568SOL    HW122166   3.932   3.784   5.004 -3.0212 -0.3088 -1.4589
 3568SOL    HW222167   3.964   3.759   5.141  0.7320 -1.2098 -1.7119
 3569SOL     OW22168   3.696   4.074   2.785 -0.2847  0.0267  0.4445
 3569SOL    HW122169   3.791   4.087   2.778 -0.6808  1.8205 -1.5816
 3569SOL    HW222170   3.693   3.978   2.789  0.1412 -0.1524 -3.0600
 3570SOL     OW22171   2.442   1.765   5.455  0.3642  0.1505  0.3140
 3570SOL    HW122172   2.490   1.682   5.451 -0.3903 -0.2627 -0.1780
 3570SOL    HW222173   2.415   1.763   5.363  1.7808  0.1556 -0.0985
 3571SOL     OW22174   0.242   3.488  12.262 -0.1636  0.0563  0.0350
 3571SOL    HW122175   0.299   3.523  12.330  1.2537 -0.7866 -0.7100
 3571SOL    HW222176   0.161   3.493  12.312  0.0667 -0.3415  0.4498
 3572SOL     OW22177   3.159   4.329  10.219  0.2682 -0.1177 -0.6169
 3572SOL    HW122178   3.120   4.254  10.173  0.2841 -0.2458 -0.4226
 3572SOL    HW222179   3.084   4.389  10.214  0.4204  0.0367 -1.0614
 3573SOL     OW22180   0.360   0.887   2.174  0.5048  0.1505 -0.1123
 3573SOL    HW122181   0.370   0.853   2.085  3.2482  1.9368 -0.5008
 3573SOL    HW222182   0.347   0.981   2.162 -1.2547 -0.2536 -1.3212
 3574SOL     OW22183   2.424   0.217  12.416  0.5835 -0.7278 -0.3129
 3574SOL    HW122184   2.343   0.202  12.368 -0.0026 -1.4536  0.8973
 3574SOL    HW222185   2.471   0.258  12.343 -1.9923  1.5800 -0.6797
 3575SOL     OW22186   3.375   3.571  16.155 -0.1180 -0.5579  0.2028
 3575SOL    HW122187   3.459   3.602  16.187 -0.9840 -0.5930  2.4813
 3575SOL    HW222188   3.382   3.594  16.062  0.0590 -2.3074 -0.2170
 3576SOL     OW22189   0.248   0.488  17.476 -0.1682 -0.0053 -0.0290
 3576SOL    HW122190   0.195   0.446  17.408  0.4920  0.1179 -0.6165
 3576SOL    HW222191   0.206   0.451  17.554 -0.5068  2.4340  0.9685
 3577SOL     OW22192   2.163   2.799   6.707  0.3156 -0.3392 -0.5052
 3577SOL    HW122193   2.122   2.722   6.669  0.4958 -1.8868  2.4689
 3577SOL    HW222194   2.095   2.852   6.748  2.5315  0.5960  1.9240
 3578SOL     OW22195   0.407   2.676   7.035  0.3362 -0.1942  0.3506
 3578SOL    HW122196   0.407   2.596   7.087  1.1388  1.1419  2.3545
 3578SOL    HW222197   0.432   2.741   7.100  0.9645 -1.7598  1.6622
 3579SOL     OW22198   3.432   2.995   0.737  0.5423  0.0242 -0.8536
 3579SOL    HW122199   3.388   3.066   0.784 -2.7410 -1.3815 -1.7834
 3579SOL    HW222200   3.379   2.927   0.778 -0.4576  1.3379  0.0285
 3580SOL     OW22201   3.082   1.259   5.117 -0.2257  0.0295  0.2644
 3580SOL    HW122202   3.008   1.270   5.177 -0.9074 -0.4220 -0.4926
 3580SOL    HW222203   3.096   1.348   5.082  0.0575 -0.4030 -0.7218
 3581SOL     OW22204   4.562   0.471  16.380  0.3983 -0.0585  0.3460
 3581SOL    HW122205   4.552   0.390  16.429 -0.3231  0.0083  0.3142
 3581SOL    HW222206   4.502   0.536  16.417 -1.5354 -2.0254  0.6755
 3582SOL     OW22207   1.712   3.608  10.258  0.2835  0.9042 -0.4023
 3582SOL    HW122208   1.804   3.624  10.280 -0.3924  1.1012  2.2484
 3582SOL    HW222209   1.673   3.616  10.345 -0.3746  1.0743 -0.7190
 3583SOL     OW22210   1.500   3.517   7.338  0.9378  0.2990  0.3312
 3583SOL    HW122211   1.441   3.476   7.274  0.8453  0.6952  0.1676
 3583SOL    HW222212   1.519   3.603   7.301 -1.2081 -0.3700 -2.3098
 3584SOL     OW22213   2.125   2.656   5.479 -0.2975  0.0904  0.4280
 3584SOL    HW122214   2.102   2.749   5.472  2.9811  1.1171  3.0898
 3584SOL    HW222215   2.078   2.632   5.559  0.4524  2.0307  1.4678
 3585SOL     OW22216   1.391   3.241   6.241  0.3233 -0.3690 -0.2601
 3585SOL    HW122217   1.302   3.270   6.221  0.2117 -1.6289 -1.5930
 3585SOL    HW222218   1.411   3.204   6.155  1.9469 -0.9819  0.3891
 3586SOL     OW22219   0.807   2.828   8.461 -0.3214 -0.0173  0.5069
 3586SOL    HW122220   0.733   2.877   8.495 -1.1984 -1.1564  0.2496
 3586SOL    HW222221   0.765   2.745   8.437  0.0670 -0.5593  1.7348
 3587SOL     OW22222   3.716   0.696   9.489  0.3167  0.3384 -0.1761
 3587SOL    HW122223   3.693   0.624   9.430 -3.9795  0.8534  0.8324
 3587SOL    HW222224   3.721   0.665   9.579  0.5810 -2.1515 -1.0526
 3588SOL     OW22225   4.196   3.304   8.658  0.3565 -0.1585  0.0612
 3588SOL    HW122226   4.109   3.295   8.619  1.2295 -0.7237 -1.7676
 3588SOL    HW222227   4.241   3.327   8.577 -0.7603  1.7161 -0.0103
 3589SOL     OW22228   2.030   1.283   7.845 -0.0905  0.4243  0.4281
 3589SOL    HW122229   2.117   1.270   7.883 -0.5453 -1.0291  0.9499
 3589SOL    HW222230   1.992   1.349   7.904 -0.1705 -0.9337  1.8939
 3590SOL     OW22231   0.366   4.126   8.213 -0.7164 -0.1484 -0.5043
 3590SOL    HW122232   0.336   4.055   8.157  1.1286 -0.8946 -0.5422
 3590SOL    HW222233   0.441   4.158   8.163 -0.3499  0.2437  0.2771
 3591SOL     OW22234   3.740   2.585  13.355  0.6902  0.6595  0.6490
 3591SOL    HW122235   3.766   2.607  13.445  1.9308 -0.4738  0.5592
 3591SOL    HW222236   3.744   2.674  13.318 -0.7888  0.8465  0.9425
 3592SOL     OW22237   4.517   0.351   0.611 -0.0682  0.2892 -0.4356
 3592SOL    HW122238   4.479   0.398   0.685 -3.1246 -1.1114 -1.0893
 3592SOL    HW222239   4.491   0.406   0.537  0.2233  0.8921 -0.0867
 3593SOL     OW22240   2.656   4.619   3.661  0.2735  0.0771  0.3045
 3593SOL    HW122241   2.698   4.536   3.683  0.5950 -0.5327 -2.5358
 3593SOL    HW222242   2.737   4.665   3.640  0.1422  0.4639  0.6415
 3594SOL     OW22243   2.817   3.772   6.780  0.4415  0.0786 -0.0759
 3594SOL    HW122244   2.727   3.739   6.780  0.0821  1.0602 -0.0532
 3594SOL    HW222245   2.810   3.824   6.700  1.0954 -0.2912 -0.3786
 3595SOL     OW22246   1.900   3.761  15.685 -0.2605 -0.2253  0.0321
 3595SOL    HW122247   1.843   3.804  15.621 -1.1072  1.1114  1.6968
 3595SOL    HW222248   1.836   3.710  15.736 -0.8218 -1.1200 -1.5701
 3596SOL     OW22249   3.014   1.047  13.556 -0.0398  0.2391 -0.2744
 3596SOL    HW122250   3.104   1.065  13.529 -0.2671 -1.8529 -2.3517
 3596SOL    HW222251   2.988   1.008  13.472 -1.9017 -0.4473  0.6219
 3597SOL     OW22252   0.342   2.760   8.023 -0.6578 -1.0550 -0.0873
 3597SOL    HW122253   0.274   2.826   8.007 -1.1465 -1.7638 -0.9466
 3597SOL    HW222254   0.371   2.728   7.937 -1.3057 -1.4142 -0.1713
 3598SOL     OW22255   2.557   3.519  17.131 -0.6969 -0.6058 -0.4642
 3598SOL    HW122256   2.572   3.521  17.226 -1.2621  0.3043 -0.3974
 3598SOL    HW222257   2.618   3.582  17.092 -0.9974  0.0370  0.0905
 3599SOL     OW22258   3.268   3.839   2.580 -0.8237 -0.0193  0.5537
 3599SOL    HW122259   3.273   3.933   2.596 -0.1147  0.2732 -1.4305
 3599SOL    HW222260   3.360   3.814   2.586 -1.0058 -0.6801  0.6237
 3600SOL     OW22261   1.037   3.842  16.676 -0.1068  0.6312  0.5650
 3600SOL    HW122262   0.978   3.780  16.720 -0.9859  0.0006 -1.4842
 3600SOL    HW222263   1.053   3.787  16.599 -1.0934 -0.2212  0.9605
 3601SOL     OW22264   1.047   4.137   9.797 -0.4395  0.0047  0.1884
 3601SOL    HW122265   1.042   4.232   9.799  0.2370  0.0722 -0.9182
 3601SOL    HW222266   1.088   4.120   9.882 -0.4937  0.3310  0.2789
 3602SOL     OW22267   0.222   3.093   6.305  0.3694 -0.0409 -0.2093
 3602SOL    HW122268   0.307   3.137   6.310 -0.0320  0.5259  1.5404
 3602SOL    HW222269   0.165   3.161   6.268  2.3135  1.2976 -0.7361
 3603SOL     OW22270   2.606   0.015   4.978 -0.3722  0.1014 -0.2700
 3603SOL    HW122271   2.636   0.004   5.068  2.1416 -0.5589 -1.1843
 3603SOL    HW222272   2.689   0.011   4.930  0.4893 -3.2460  1.5309
 3604SOL     OW22273   4.088   0.601   9.588  0.4964  0.2682 -0.8004
 3604SOL    HW122274   4.004   0.573   9.624  0.2624  1.0696 -0.7353
 3604SOL    HW222275   4.078   0.691   9.556 -0.1575 -0.6962 -3.3598
 3605SOL     OW22276   2.772   2.570   7.082 -0.4942  0.2138  0.3164
 3605SOL    HW122277   2.702   2.546   7.021  0.6164 -0.7934 -0.5610
 3605SOL    HW222278   2.846   2.511   7.067 -1.2782 -0.6006 -0.3042
 3606SOL     OW22279   0.112   1.244   8.527  0.0653 -0.1914 -0.2270
 3606SOL    HW122280   0.102   1.338   8.535 -0.4791 -0.2756  0.0201
 3606SOL    HW222281   0.206   1.232   8.512  0.1875  2.2918 -1.3334
 3607SOL     OW22282   1.992   2.912   8.039  0.3349 -0.3665  0.1398
 3607SOL    HW122283   2.077   2.878   8.069  0.6274  2.3636  2.3675
 3607SOL    HW222284   1.931   2.869   8.099  0.3603  0.8493  1.0312
 3608SOL     OW22285   0.667   1.135   4.771 -0.1306 -0.6875  0.4021
 3608SOL    HW122286   0.760   1.157   4.772  0.3979 -2.8833 -0.0738
 3608SOL    HW222287   0.661   1.104   4.861 -1.2153 -1.0823  0.1983
 3609SOL     OW22288   4.240   0.185   6.497  0.0925 -0.2809  0.0905
 3609SOL    HW122289   4.191   0.262   6.469 -2.3500 -0.5417  3.6023
 3609SOL    HW222290   4.171   0.139   6.544 -0.8268 -1.5438 -2.5461
 3610SOL     OW22291   0.403   4.636   2.628 -0.7228 -0.3128 -0.3902
 3610SOL    HW122292   0.421   4.724   2.596 -2.6171  0.2685  0.1401
 3610SOL    HW222293   0.354   4.597   2.556 -1.2322  1.4862 -1.0063
 3611SOL     OW22294   3.588   3.474   2.213 -0.4044 -0.0359  0.0004
 3611SOL    HW122295   3.629   3.429   2.139 -0.6988 -0.3880  0.0522
 3611SOL    HW222296   3.500   3.437   2.220 -0.1599 -0.6046  0.1067
 3612SOL     OW22297   3.711   0.308   4.843 -0.4539 -0.1782  0.0748
 3612SOL    HW122298   3.805   0.295   4.859 -0.4176 -0.4253 -0.3443
 3612SOL    HW222299   3.699   0.258   4.762  1.6909 -1.2670  0.4038
 3613SOL     OW22300   4.297   0.035   7.499  0.4116 -0.5194  0.7645
 3613SOL    HW122301   4.377   0.007   7.544 -1.0687 -1.3698  2.8597
 3613SOL    HW222302   4.243   4.681   7.516  2.1285 -1.5135  1.6597
 3614SOL     OW22303   2.927   0.823   3.901  0.3886 -0.7093  0.5326
 3614SOL    HW122304   2.966   0.767   3.834  1.0954 -1.4119  1.5445
 3614SOL    HW222305   2.845   0.836   3.853 -0.0593  0.3727  1.5708
 3615SOL     OW22306   3.643   2.811   0.658 -0.9006  0.1438 -0.8584
 3615SOL    HW122307   3.640   2.905   0.640  1.5058  0.0875 -1.5242
 3615SOL    HW222308   3.737   2.798   0.670 -0.6035  1.5638 -1.7161
 3616SOL     OW22309   1.753   0.495   4.735 -0.2950  0.5557 -0.3574
 3616SOL    HW122310   1.700   0.551   4.792 -0.3404  0.2232 -0.0771
 3616SOL    HW222311   1.754   0.419   4.793 -0.6374 -1.0499 -2.4922
 3617SOL     OW22312   0.604   2.031   5.036  0.0886 -0.8273 -0.4569
 3617SOL    HW122313   0.686   2.073   5.010 -1.1310  2.1609  0.5932
 3617SOL    HW222314   0.551   2.104   5.067  0.8785 -1.0314  1.3710
 3618SOL     OW22315   2.354   4.246  15.844 -0.1540  0.2338  0.5750
 3618SOL    HW122316   2.355   4.337  15.814 -2.8725  0.4826  1.1782
 3618SOL    HW222317   2.375   4.192  15.768  1.2611 -0.4005  1.4309
 3619SOL     OW22318   1.523   0.947   8.354 -0.4043  0.3125 -0.4418
 3619SOL    HW122319   1.495   0.969   8.265 -0.0538  1.5562 -0.2581
 3619SOL    HW222320   1.442   0.918   8.395  0.1001  0.2962  0.5463
 3620SOL     OW22321   2.321   2.457   2.477 -0.2866 -0.0034  0.3806
 3620SOL    HW122322   2.299   2.539   2.434 -1.4931 -0.3174  0.3875
 3620SOL    HW222323   2.393   2.417   2.429 -1.7833  1.0169 -2.6521
 3621SOL     OW22324   0.306   1.108   5.044  0.0931  0.0091  0.5235
 3621SOL    HW122325   0.393   1.115   5.084  0.1098  1.5469  0.2096
 3621SOL    HW222326   0.313   1.014   5.025 -0.4849  0.2707 -0.9513
 3622SOL     OW22327   0.124   1.990  13.063  0.2419 -0.5974 -0.0841
 3622SOL    HW122328   0.033   2.017  13.048  0.0362  0.1457  2.4720
 3622SOL    HW222329   0.109   1.898  13.044  1.1365 -0.8057  0.2256
 3623SOL     OW22330   3.311   4.262   2.025  0.5900  0.4314 -0.3114
 3623SOL    HW122331   3.270   4.234   2.107 -0.8665 -1.8789 -1.8234
 3623SOL    HW222332   3.337   4.350   2.051  0.6269  0.5813 -0.8724
 3624SOL     OW22333   3.802   2.046   5.667  0.2380 -0.1591  0.4365
 3624SOL    HW122334   3.773   1.965   5.710 -0.1992 -0.3825 -0.2588
 3624SOL    HW222335   3.722   2.065   5.617  0.3504  1.0417  0.7216
 3625SOL     OW22336   2.373   3.460   3.240  0.1138 -0.3691  0.6739
 3625SOL    HW122337   2.457   3.486   3.203  1.1023 -2.1333  1.6151
 3625SOL    HW222338   2.332   3.452   3.155  1.1310  1.7913 -0.0191
 3626SOL     OW22339   1.858   3.044   0.814  0.2057  0.0813 -0.2375
 3626SOL    HW122340   1.833   3.135   0.798 -1.2563 -0.3486 -0.3084
 3626SOL    HW222341   1.833   2.999   0.733 -0.1383 -2.2733  1.1765
 3627SOL     OW22342   3.925   0.064   4.534 -0.0017  0.0858  0.1359
 3627SOL    HW122343   3.894   0.017   4.457  0.2053  0.9082 -0.4420
 3627SOL    HW222344   3.902   0.007   4.608  1.0684  1.4186  1.5027
 3628SOL     OW22345   3.905   1.490   7.829  0.6160 -0.0538  0.0692
 3628SOL    HW122346   3.972   1.500   7.762  2.4445  0.6313  2.0244
 3628SOL    HW222347   3.918   1.570   7.879  0.6951 -0.0258  0.0029
 3629SOL     OW22348   3.060   2.606   4.837 -0.8232 -0.2179  0.3910
 3629SOL    HW122349   2.983   2.640   4.792 -1.5792  0.2241  2.0161
 3629SOL    HW222350   3.124   2.677   4.840  1.5512 -2.4056  1.5848
 3630SOL     OW22351   0.725   3.200   8.612 -1.0389 -0.7760 -0.3366
 3630SOL    HW122352   0.646   3.236   8.571 -1.0107 -1.5983 -1.1052
 3630SOL    HW222353   0.691   3.111   8.620 -1.2186 -0.7383 -0.6731
 3631SOL     OW22354   1.425   1.192  14.143 -0.4358  0.1394 -0.0140
 3631SOL    HW122355   1.356   1.249  14.110 -0.1048  0.9851  0.7727
 3631SOL    HW222356   1.499   1.209  14.084  0.9213 -2.5925  0.8851
 3632SOL     OW22357   3.905   1.582   8.374 -0.6378 -0.8000  0.4046
 3632SOL    HW122358   3.926   1.674   8.392 -1.6712 -0.6802  1.0227
 3632SOL    HW222359   3.851   1.604   8.298 -0.3905  2.2262  1.0815
 3633SOL     OW22360   4.178   1.415   0.682 -0.2513 -0.0422 -0.0770
 3633SOL    HW122361   4.124   1.493   0.668 -0.7526 -0.3646  0.0438
 3633SOL    HW222362   4.118   1.342   0.668 -1.0054  0.5612 -0.0253
 3634SOL     OW22363   1.802   3.893   5.344  0.1308 -0.1132 -0.0019
 3634SOL    HW122364   1.894   3.908   5.323  0.4910  1.8444  2.9451
 3634SOL    HW222365   1.761   3.868   5.262 -0.4441 -1.4198  0.6862
 3635SOL     OW22366   3.959   3.463   6.630 -0.0971 -0.2325  0.3976
 3635SOL    HW122367   4.041   3.459   6.681  0.8924 -0.2153 -1.1991
 3635SOL    HW222368   3.986   3.544   6.587  0.6778 -1.3610 -1.2609
 3636SOL     OW22369   0.751   4.013   9.209  0.0619 -0.2671 -0.3361
 3636SOL    HW122370   0.745   3.923   9.241  0.7306  0.2502  1.2938
 3636SOL    HW222371   0.847   4.016   9.214 -0.0249 -0.6600  1.7874
 3637SOL     OW22372   1.647   2.547   4.993 -0.7107 -0.1754 -0.7734
 3637SOL    HW122373   1.686   2.541   5.081 -2.0699 -0.6446 -0.2066
 3637SOL    HW222374   1.721   2.558   4.934  0.4437  1.2049  0.9328
 3638SOL     OW22375   3.799   3.906   7.536  0.5204  0.3674 -0.0423
 3638SOL    HW122376   3.769   3.866   7.454  1.6895  1.5703 -1.0696
 3638SOL    HW222377   3.858   3.975   7.507  1.4847 -0.1143  0.7833
 3639SOL     OW22378   1.530   2.708   7.577 -0.0722  0.2338 -0.4066
 3639SOL    HW122379   1.527   2.804   7.580 -2.5309  0.2145 -1.7791
 3639SOL    HW222380   1.596   2.677   7.638  0.9527  1.3024 -0.9682
 3640SOL     OW22381   1.491   4.438   4.960 -0.7412 -0.0949 -0.6731
 3640SOL    HW122382   1.439   4.394   5.027  2.9127 -1.2727  1.3829
 3640SOL    HW222383   1.577   4.421   4.997  0.8216 -0.6451 -4.5166
 3641SOL     OW22384   2.099   2.020   3.486 -0.3614 -0.6382  0.1226
 3641SOL    HW122385   2.049   1.940   3.502 -0.7194 -0.2774  0.8335
 3641SOL    HW222386   2.042   2.088   3.523  0.6550  0.2237  0.0861
 3642SOL     OW22387   4.116   0.035   6.920 -0.0383  0.3547  0.7587
 3642SOL    HW122388   4.109   0.124   6.954  0.3823 -0.6185  3.3928
 3642SOL    HW222389   4.121   4.701   6.996 -1.1072  1.0214  1.3321
 3643SOL     OW22390   2.719   1.376   8.155 -0.0608 -0.8044 -0.2719
 3643SOL    HW122391   2.687   1.464   8.172  1.5660 -0.0461 -1.1913
 3643SOL    HW222392   2.752   1.389   8.066  0.1382  3.5788  0.4339
 3644SOL     OW22393   4.283   2.045   8.831 -0.5060 -0.2293  0.1203
 3644SOL    HW122394   4.216   2.075   8.892 -0.6640 -0.0412 -0.1491
 3644SOL    HW222395   4.276   1.949   8.832  3.6730 -0.5347  2.4896
 3645SOL     OW22396   0.831   3.953   6.010 -0.1430  0.3921  0.2647
 3645SOL    HW122397   0.853   3.925   5.921  0.5592 -0.4690  0.7071
 3645SOL    HW222398   0.790   4.038   5.995 -1.6196 -0.7708 -2.1615
 3646SOL     OW22399   1.586   4.436  13.592  0.4332  0.2053 -0.5623
 3646SOL    HW122400   1.589   4.532  13.591 -0.5323  0.2278 -1.8575
 3646SOL    HW222401   1.663   4.409  13.542  0.8479  0.1724  0.0856
 3647SOL     OW22402   0.375   2.563   6.456  0.5555  0.0342  0.5422
 3647SOL    HW122403   0.309   2.493   6.467 -0.5794  0.9495 -0.4214
 3647SOL    HW222404   0.365   2.575   6.361  0.6943  2.1506  0.8143
 3648SOL     OW22405   2.599   0.101  14.407 -0.0725 -0.0303 -0.0810
 3648SOL    HW122406   2.548   0.180  14.393  1.8354  1.5307  1.8636
 3648SOL    HW222407   2.684   0.142  14.397 -0.9390  1.9392  0.7328
 3649SOL     OW22408   0.683   3.740   7.200  0.1108 -0.1510  0.7631
 3649SOL    HW122409   0.641   3.684   7.265 -0.4958  0.4081  0.8594
 3649SOL    HW222410   0.646   3.826   7.222  0.1445 -1.1873  4.9039
 3650SOL     OW22411   1.498   3.494   3.589 -0.6538  0.6369  0.0694
 3650SOL    HW122412   1.563   3.539   3.644  0.7262 -2.0704  0.6131
 3650SOL    HW222413   1.421   3.510   3.644  1.3611  1.4307  2.7123
 3651SOL     OW22414   3.649   3.526   9.561 -0.3825 -0.2975  0.1083
 3651SOL    HW122415   3.691   3.449   9.599 -0.3057  0.0531  0.7424
 3651SOL    HW222416   3.722   3.588   9.564 -0.8492  0.0777  3.3812
 3652SOL     OW22417   4.423   2.246   7.277  0.8710 -0.2107  0.7102
 3652SOL    HW122418   4.377   2.329   7.281  1.2570  0.0924 -1.2619
 3652SOL    HW222419   4.512   2.270   7.303  0.9732 -0.3621  0.5078
 3653SOL     OW22420   1.256   1.294   5.723  0.0037 -0.4785  0.1406
 3653SOL    HW122421   1.257   1.370   5.782 -0.8802 -0.8384  0.6247
 3653SOL    HW222422   1.211   1.333   5.648  0.1040  0.0460  0.3568
 3654SOL     OW22423   1.450   4.391   9.202  0.0311  0.3488  0.4693
 3654SOL    HW122424   1.491   4.473   9.175  1.6403 -0.9284 -0.9132
 3654SOL    HW222425   1.396   4.423   9.275 -1.9071  2.6835 -1.9560
 3655SOL     OW22426   1.569   3.913   9.195  0.5047 -0.1117 -0.3489
 3655SOL    HW122427   1.615   3.980   9.246  2.3589 -1.0766 -0.7380
 3655SOL    HW222428   1.632   3.843   9.183  1.2292  0.2602  1.2622
 3656SOL     OW22429   1.028   4.093   8.960  0.0298  0.2653 -0.0886
 3656SOL    HW122430   1.021   4.083   9.055  0.8342  2.1264  0.1751
 3656SOL    HW222431   1.065   4.009   8.934 -2.5369 -0.6171 -0.8688
 3657SOL     OW22432   3.588   1.302  12.096 -0.4561 -0.2157  0.2999
 3657SOL    HW122433   3.512   1.292  12.154 -0.3194 -2.2514  0.1249
 3657SOL    HW222434   3.620   1.384  12.135  0.5011  1.0591 -3.1643
 3658SOL     OW22435   3.388   4.295  10.830  0.1151 -0.8956 -0.2245
 3658SOL    HW122436   3.464   4.303  10.772 -1.3369  2.6439 -1.6519
 3658SOL    HW222437   3.399   4.207  10.865  0.5788 -0.8085 -0.1420
 3659SOL     OW22438   0.141   1.978  13.499 -0.0822 -0.0554 -0.0967
 3659SOL    HW122439   0.151   1.896  13.549  0.3676  0.3424  0.4679
 3659SOL    HW222440   0.100   2.036  13.564 -0.1462 -1.5233  1.2045
 3660SOL     OW22441   0.480   2.910   7.200 -0.0851  0.8952 -0.4412
 3660SOL    HW122442   0.543   2.982   7.192 -0.0003  0.5126 -3.2342
 3660SOL    HW222443   0.406   2.962   7.168 -0.6342  1.2251  1.3895
 3661SOL     OW22444   0.869   2.450   1.136  0.0837 -0.2565 -0.1809
 3661SOL    HW122445   0.823   2.459   1.052 -1.1396 -0.1017  0.5110
 3661SOL    HW222446   0.852   2.357   1.152 -3.2163  0.0519 -1.8643
 3662SOL     OW22447   2.046   1.073   2.709  0.4924 -0.6474  0.3111
 3662SOL    HW122448   2.050   1.001   2.646 -2.8195  1.3137 -2.1470
 3662SOL    HW222449   2.071   1.139   2.644 -0.9830  0.7143  1.1527
 3663SOL     OW22450   0.658   1.254   5.385  0.2452  0.4456  0.4171
 3663SOL    HW122451   0.656   1.305   5.304  2.4110  1.0258  0.7197
 3663SOL    HW222452   0.753   1.247   5.393  0.3171  1.7750  0.7031
 3664SOL     OW22453   4.289   2.709  12.358 -0.5811 -0.1113 -0.1996
 3664SOL    HW122454   4.234   2.720  12.281  1.4217 -2.4599 -1.9857
 3664SOL    HW222455   4.233   2.650  12.408 -0.7565 -1.9052 -2.4651
 3665SOL     OW22456   4.293   0.401  13.209 -0.1271 -0.7368 -0.4702
 3665SOL    HW122457   4.264   0.363  13.126 -3.3348  0.9585 -0.1413
 3665SOL    HW222458   4.331   0.483  13.177  0.7939 -0.7731  0.5397
 3666SOL     OW22459   0.386   1.183  10.344  0.5379  0.2252  0.3605
 3666SOL    HW122460   0.303   1.138  10.332  1.5241 -1.8921  1.5715
 3666SOL    HW222461   0.350   1.255  10.396 -0.5703 -0.3957  0.4380
 3667SOL     OW22462   2.180   2.605   3.436 -0.4287  0.2439  0.2783
 3667SOL    HW122463   2.220   2.617   3.351  0.4825  1.7643  0.9243
 3667SOL    HW222464   2.108   2.669   3.433 -2.7931 -2.2680  2.6222
 3668SOL     OW22465   3.042   4.180   1.318 -0.1847 -0.4304 -0.3019
 3668SOL    HW122466   2.980   4.187   1.391  0.2365 -2.0340  0.2043
 3668SOL    HW222467   3.045   4.272   1.292 -0.6803 -0.9154 -2.0432
 3669SOL     OW22468   2.938   0.563   8.960 -0.1993  0.3847  0.3156
 3669SOL    HW122469   2.873   0.616   8.914 -1.2061 -0.9287  0.2202
 3669SOL    HW222470   2.883   0.525   9.029 -0.6337 -0.9646 -0.7683
 3670SOL     OW22471   4.241   3.602   8.044 -0.2525 -0.0882 -0.5220
 3670SOL    HW122472   4.170   3.653   8.004  0.4598  1.8642  0.6958
 3670SOL    HW222473   4.228   3.517   8.002 -1.4777  0.1458 -0.6129
 3671SOL     OW22474   4.453   3.530   7.300  0.9266  0.3430 -0.2329
 3671SOL    HW122475   4.404   3.473   7.359  1.8561 -0.3987 -0.1726
 3671SOL    HW222476   4.410   3.505   7.219 -1.3991  2.3792  0.3698
 3672SOL     OW22477   1.356   1.535   3.823  0.2171 -0.1689 -0.2302
 3672SOL    HW122478   1.297   1.610   3.811  0.6932  0.4227  1.1996
 3672SOL    HW222479   1.356   1.494   3.737 -0.8027 -1.4394  0.3709
 3673SOL     OW22480   0.186   0.419   5.715  0.1338 -0.5766 -0.1990
 3673SOL    HW122481   0.097   0.408   5.749  0.1791  0.7954  0.3785
 3673SOL    HW222482   0.195   0.513   5.732 -1.1442 -1.1185  3.5894
 3674SOL     OW22483   1.075   1.705   6.195 -0.0278  0.2270  0.1824
 3674SOL    HW122484   1.086   1.681   6.287 -1.7354  0.7215  0.5017
 3674SOL    HW222485   0.980   1.713   6.188 -0.1560 -1.8145 -0.3121
 3675SOL     OW22486   0.235   0.331  14.744 -0.1237  0.2099  0.1116
 3675SOL    HW122487   0.243   0.244  14.784 -1.8908  0.2766  0.5898
 3675SOL    HW222488   0.303   0.335  14.677  0.9580  0.3429  1.2034
 3676SOL     OW22489   2.141   3.381   1.175 -0.4241 -0.3333  0.0532
 3676SOL    HW122490   2.110   3.472   1.183 -1.2807 -0.5120 -1.2356
 3676SOL    HW222491   2.064   3.334   1.144  0.2998 -0.6075 -1.3551
 3677SOL     OW22492   4.481   2.464  15.759 -0.0784  0.0299  0.4567
 3677SOL    HW122493   4.573   2.439  15.747 -0.9252 -2.6223 -0.4588
 3677SOL    HW222494   4.475   2.551  15.718 -0.1108  0.1357  0.6847
 3678SOL     OW22495   2.963   0.076  11.460  0.1275 -0.2954  0.2289
 3678SOL    HW122496   3.016   0.013  11.411 -0.3582  1.3228 -2.3857
 3678SOL    HW222497   3.008   0.082  11.544  0.0518  0.4473  0.2149
 3679SOL     OW22498   3.048   2.141  13.923  0.3051 -0.3707  0.1024
 3679SOL    HW122499   3.086   2.223  13.893  1.2702 -0.1877  1.8202
 3679SOL    HW222500   2.969   2.125  13.871 -1.2158  0.6256  2.1402
 3680SOL     OW22501   4.566   2.061  17.388  1.2192  0.2227 -0.1284
 3680SOL    HW122502   4.591   2.029  17.302 -1.5409 -1.1537 -0.4192
 3680SOL    HW222503   4.475   2.074  17.359  1.0917 -0.8504 -0.2042
 3681SOL     OW22504   3.995   3.182   3.732 -0.1016 -0.5692  0.4461
 3681SOL    HW122505   3.974   3.135   3.651 -0.2844 -0.4888  0.4488
 3681SOL    HW222506   4.032   3.114   3.789  1.6174 -1.0693 -1.2681
 3682SOL     OW22507   2.299   2.313  16.465 -0.4437  0.6188  0.3419
 3682SOL    HW122508   2.385   2.275  16.449  0.8762  3.7666 -0.0578
 3682SOL    HW222509   2.242   2.239  16.485  1.5039 -0.8103  0.5072
 3683SOL     OW22510   3.056   0.097   6.663 -0.1472  0.3912 -0.6161
 3683SOL    HW122511   3.022   0.168   6.716 -0.1127  1.5701 -2.1828
 3683SOL    HW222512   3.124   0.062   6.720  1.0713  1.4174 -1.4442
 3684SOL     OW22513   2.097   3.181  11.462  0.5468  0.5308 -0.1990
 3684SOL    HW122514   2.042   3.259  11.451  0.6777  0.2431 -2.7781
 3684SOL    HW222515   2.046   3.142  11.533  1.4770 -1.6865 -0.7700
 3685SOL     OW22516   3.557   2.557  15.892 -0.5371  0.6233  0.1196
 3685SOL    HW122517   3.606   2.533  15.813 -0.0624  0.7967  0.3616
 3685SOL    HW222518   3.624   2.519  15.950 -1.9537  2.2720  2.8266
 3686SOL     OW22519   3.070   3.568   1.158 -0.1566  0.0346 -0.6613
 3686SOL    HW122520   3.077   3.657   1.123  0.1884 -0.1423 -1.0446
 3686SOL    HW222521   3.035   3.522   1.081 -0.2257 -2.9363  1.1637
 3687SOL     OW22522   4.201   0.663  11.578  0.0227  0.1436  0.2570
 3687SOL    HW122523   4.150   0.585  11.554 -1.2918  1.2316 -0.5069
 3687SOL    HW222524   4.274   0.633  11.524 -1.4154 -1.6820 -0.6753
 3688SOL     OW22525   3.949   2.071  12.186  0.2994 -0.2172 -0.4010
 3688SOL    HW122526   3.976   1.979  12.188  2.4219  0.4485  1.6866
 3688SOL    HW222527   3.913   2.088  12.098 -0.2786 -0.4272 -0.2044
 3689SOL     OW22528   3.452   0.852   3.683 -0.1340 -0.0641 -0.3044
 3689SOL    HW122529   3.388   0.849   3.755 -1.7247  2.8449 -1.5686
 3689SOL    HW222530   3.518   0.913   3.716 -2.8485  1.1406  2.9520
 3690SOL     OW22531   4.254   2.014  15.450 -0.3775 -0.0919  0.0923
 3690SOL    HW122532   4.330   2.056  15.409  0.1143 -3.0866 -2.0872
 3690SOL    HW222533   4.212   1.990  15.368 -2.3573  1.7839  0.5724
 3691SOL     OW22534   3.181   0.529   3.378  0.0755 -0.3616  0.0558
 3691SOL    HW122535   3.199   0.620   3.401 -0.1738 -0.5805  1.1284
 3691SOL    HW222536   3.181   0.499   3.469 -2.6808 -0.0357  0.1528
 3692SOL     OW22537   0.461   1.804  11.930 -0.0939 -0.3863  0.5445
 3692SOL    HW122538   0.417   1.738  11.876  2.5040 -0.0620 -1.9671
 3692SOL    HW222539   0.418   1.793  12.014 -0.4158 -1.0877  0.2892
 3693SOL     OW22540   1.086   1.974   8.954 -0.3057 -0.1239  0.0579
 3693SOL    HW122541   1.066   1.916   9.027 -1.1167 -0.6360 -0.5651
 3693SOL    HW222542   1.073   1.909   8.885  1.1715  1.4496 -1.7099
 3694SOL     OW22543   4.294   2.143   4.504  0.0496  0.6163  0.0974
 3694SOL    HW122544   4.308   2.227   4.548  2.7958  0.9917 -1.4857
 3694SOL    HW222545   4.378   2.102   4.525 -0.8970  0.1377  2.8619
 3695SOL     OW22546   2.618   0.514  10.847  0.6735 -0.9697 -0.6511
 3695SOL    HW122547   2.666   0.513  10.930  0.8868  1.6833 -0.7443
 3695SOL    HW222548   2.681   0.536  10.778  0.6320 -2.4567 -1.1583
 3696SOL     OW22549   2.138   3.669   4.724  0.1058  0.2975  0.1336
 3696SOL    HW122550   2.044   3.673   4.741  0.2465  0.2494  0.9176
 3696SOL    HW222551   2.152   3.762   4.708  1.2262  0.6196  3.1088
 3697SOL     OW22552   0.874   0.754  11.382 -0.3940 -0.2775  0.3069
 3697SOL    HW122553   0.861   0.807  11.304  1.5604 -2.3458 -1.4302
 3697SOL    HW222554   0.812   0.794  11.443  0.2891  1.6133 -0.2474
 3698SOL     OW22555   3.295   1.668  10.975  0.2223  0.3029  0.3732
 3698SOL    HW122556   3.215   1.631  10.939  1.0594 -1.2827  0.1424
 3698SOL    HW222557   3.314   1.612  11.051  1.3784 -0.9613 -0.8564
 3699SOL     OW22558   3.863   0.885   5.822  0.0287  0.3766 -0.4950
 3699SOL    HW122559   3.784   0.847   5.862 -0.4223  2.3046  0.4343
 3699SOL    HW222560   3.844   0.863   5.731  2.3702  1.7990 -1.3144
 3700SOL     OW22561   4.410   0.943   8.107 -0.4351  0.0224  0.1042
 3700SOL    HW122562   4.499   0.964   8.077 -0.5137 -0.4516 -0.4885
 3700SOL    HW222563   4.421   0.936   8.202 -1.7811  1.3329  0.3365
 3701SOL     OW22564   0.979   4.583   5.885  0.1607 -0.5015  0.0933
 3701SOL    HW122565   0.948   4.593   5.795 -0.0995  1.9241  0.4515
 3701SOL    HW222566   1.062   4.630   5.873  0.1567 -0.1127  1.4915
 3702SOL     OW22567   2.940   4.269   8.499  0.6380 -0.5225  0.1143
 3702SOL    HW122568   2.885   4.345   8.482 -1.6519 -2.1895  0.0717
 3702SOL    HW222569   2.903   4.194   8.452 -0.4205  0.5620 -0.7642
 3703SOL     OW22570   2.034   4.632   7.165  0.4401  0.1708  0.4063
 3703SOL    HW122571   2.119   4.602   7.195  1.3220  1.5284 -0.7526
 3703SOL    HW222572   1.990   4.645   7.249 -1.8924  0.5511 -0.8620
 3704SOL     OW22573   0.233   1.695   7.175  0.2028 -0.7746  0.1162
 3704SOL    HW122574   0.303   1.757   7.157 -0.4596 -0.4277 -1.2871
 3704SOL    HW222575   0.285   1.619   7.199  1.7991  0.6203  1.0550
 3705SOL     OW22576   2.855   2.764   4.476  0.3805  0.2013 -0.8117
 3705SOL    HW122577   2.914   2.689   4.469  0.2648 -0.0843  1.0927
 3705SOL    HW222578   2.780   2.714   4.444  0.1046 -0.3999  0.7513
 3706SOL     OW22579   4.132   0.068  13.118 -0.1036 -0.5036  0.1507
 3706SOL    HW122580   4.172   0.146  13.078  1.4529 -1.4737 -0.1818
 3706SOL    HW222581   4.201   0.056  13.184  0.8810  1.2382 -0.5594
 3707SOL     OW22582   1.231   0.744  15.954 -0.0717  0.1569  0.2762
 3707SOL    HW122583   1.282   0.753  15.873  0.7886  0.9345  0.9055
 3707SOL    HW222584   1.198   0.830  15.978 -0.1867  0.3440 -0.5302
 3708SOL     OW22585   3.569   3.403   5.399  0.2760  0.2176 -0.2563
 3708SOL    HW122586   3.557   3.310   5.415 -1.0696  0.8862  2.5600
 3708SOL    HW222587   3.497   3.419   5.337 -1.0789 -0.1315  1.2392
 3709SOL     OW22588   3.238   0.581   5.696  0.0630  0.2361  0.0413
 3709SOL    HW122589   3.212   0.669   5.671  1.5472  1.0401  1.3267
 3709SOL    HW222590   3.173   0.563   5.763 -4.0591 -0.6828 -4.2186
 3710SOL     OW22591   2.478   2.369   8.787 -0.3523 -0.2466  0.2955
 3710SOL    HW122592   2.411   2.313   8.829 -0.3675  1.0427  1.9771
 3710SOL    HW222593   2.416   2.414   8.729  0.0395 -0.2330 -0.1091
 3711SOL     OW22594   4.093   4.552   7.785  0.1155 -0.6760 -0.5499
 3711SOL    HW122595   4.104   4.466   7.825  1.2890 -0.2531  0.0395
 3711SOL    HW222596   4.153   4.607   7.835  0.1882 -0.3805 -0.9612
 3712SOL     OW22597   3.913   3.313   7.623 -0.2911  0.2827 -0.5993
 3712SOL    HW122598   3.872   3.330   7.538  0.6369  0.8008 -0.9399
 3712SOL    HW222599   3.930   3.400   7.658 -0.6879 -0.2995  1.0227
 3713SOL     OW22600   1.204   2.163   9.827  0.5974  0.1552 -0.3772
 3713SOL    HW122601   1.228   2.224   9.757 -0.2417 -1.7871 -2.3540
 3713SOL    HW222602   1.280   2.189   9.879 -0.0921  0.9149  0.2496
 3714SOL     OW22603   1.493   1.247   8.257  0.2254 -0.3172 -0.1989
 3714SOL    HW122604   1.536   1.216   8.177  0.6834  2.7140 -1.1440
 3714SOL    HW222605   1.553   1.243   8.331 -0.1560 -3.6879 -0.0852
 3715SOL     OW22606   3.779   1.185   8.175  0.4929  0.2701  0.5079
 3715SOL    HW122607   3.783   1.108   8.117 -2.4671  0.1249  0.5116
 3715SOL    HW222608   3.787   1.250   8.106  1.7741  0.2715  0.6641
 3716SOL     OW22609   3.186   3.588   8.316 -0.0254 -0.3099  0.1040
 3716SOL    HW122610   3.188   3.503   8.273  1.0574  1.6905 -3.7666
 3716SOL    HW222611   3.093   3.610   8.310  0.1131  0.0066 -0.9006
 3717SOL     OW22612   2.077   4.464   8.496  0.2217 -0.1891  0.2941
 3717SOL    HW122613   2.042   4.378   8.475  1.4862 -0.3095 -1.3672
 3717SOL    HW222614   1.997   4.514   8.511 -0.2866 -1.4449  1.7469
 3718SOL     OW22615   2.858   0.062   3.587  0.0518 -0.2773 -0.3738
 3718SOL    HW122616   2.902   0.076   3.503  1.7900 -0.8488  0.4366
 3718SOL    HW222617   2.883   0.143   3.631 -0.2812 -1.1727  1.4381
 3719SOL     OW22618   2.680   1.370   6.917 -0.5652 -0.0181  0.1123
 3719SOL    HW122619   2.616   1.319   6.866  0.0972  0.5607 -1.2993
 3719SOL    HW222620   2.621   1.405   6.984  1.2120  0.9028  1.1852
 3720SOL     OW22621   1.719   0.652   5.714  0.3562 -0.1991  0.0097
 3720SOL    HW122622   1.752   0.563   5.702 -1.0153 -0.6703 -0.1946
 3720SOL    HW222623   1.804   0.692   5.733 -0.7397  2.4775 -0.7481
 3721SOL     OW22624   2.877   4.425   7.444  0.4695  0.0206 -0.4172
 3721SOL    HW122625   2.945   4.358   7.439 -0.2427 -0.8346  1.2531
 3721SOL    HW222626   2.814   4.373   7.493  1.4192  0.7659  1.6166
 3722SOL     OW22627   2.006   2.997   1.229  0.1656 -0.3041  0.4205
 3722SOL    HW122628   1.935   2.952   1.276 -0.1473 -0.8572 -0.5801
 3722SOL    HW222629   2.056   2.924   1.192  1.2068 -0.0172  1.2657
 3723SOL     OW22630   2.150   4.343  17.204 -0.3830 -0.4340 -0.6637
 3723SOL    HW122631   2.101   4.425  17.195 -0.6242 -0.8600 -3.2127
 3723SOL    HW222632   2.230   4.389  17.178  0.1232 -1.6175 -1.1789
 3724SOL     OW22633   0.241   3.302  13.958  0.0395  0.0658  0.1914
 3724SOL    HW122634   0.261   3.396  13.962  0.6317 -0.0024 -1.2184
 3724SOL    HW222635   0.215   3.283  14.049 -1.4565  2.6832  0.3363
 3725SOL     OW22636   1.945   1.422   5.654 -0.0040  0.3810  0.3325
 3725SOL    HW122637   1.913   1.412   5.565  3.4755  0.2573 -0.8970
 3725SOL    HW222638   1.958   1.516   5.648  3.1688 -0.1654 -1.3431
 3726SOL     OW22639   0.891   2.269   8.588  0.3792 -0.0473 -0.2165
 3726SOL    HW122640   0.945   2.341   8.555  1.3413 -0.2633  0.8852
 3726SOL    HW222641   0.951   2.229   8.651  1.0273  2.0650  0.5267
 3727SOL     OW22642   2.484   2.619  13.850  0.4141 -0.2451 -0.1888
 3727SOL    HW122643   2.469   2.527  13.870 -0.3868 -0.3153 -1.1271
 3727SOL    HW222644   2.467   2.662  13.934 -1.6388  0.2100 -0.8315
 3728SOL     OW22645   0.966   0.576   2.544  0.4691 -0.0286 -0.0063
 3728SOL    HW122646   0.971   0.633   2.621 -1.1456 -1.6501  1.2924
 3728SOL    HW222647   0.871   0.564   2.541  0.3734  0.3537  1.4737
 3729SOL     OW22648   0.088   1.575  12.177 -0.4615 -0.2937  0.5795
 3729SOL    HW122649   0.104   1.523  12.256 -0.1715 -0.0806  0.6601
 3729SOL    HW222650   4.723   1.602  12.197 -0.8922 -1.8274  0.7150
 3730SOL     OW22651   4.536   3.341   4.867 -0.4648  0.0651  0.5013
 3730SOL    HW122652   4.479   3.330   4.791 -2.5349 -0.4913  2.1218
 3730SOL    HW222653   4.601   3.271   4.862 -1.1824 -0.6129  0.7146
 3731SOL     OW22654   0.887   3.239  13.748  0.1943  0.1224 -0.4265
 3731SOL    HW122655   0.969   3.207  13.710 -1.2891 -1.9857 -1.8215
 3731SOL    HW222656   0.830   3.164  13.732 -0.9971  0.6538  1.2515
 3732SOL     OW22657   3.600   0.827   2.256  0.1316  0.0631  0.2377
 3732SOL    HW122658   3.686   0.836   2.298  0.4829  4.0486 -1.3185
 3732SOL    HW222659   3.613   0.879   2.177  0.1247 -1.4023 -0.7434
 3733SOL     OW22660   2.269   0.185   6.614 -0.2108  0.0674 -0.0679
 3733SOL    HW122661   2.273   0.157   6.522  0.5031 -1.2811  0.3741
 3733SOL    HW222662   2.246   0.104   6.660  2.8872 -0.3067  0.8005
 3734SOL     OW22663   0.519   3.804   4.128 -0.3158 -0.0875 -0.1037
 3734SOL    HW122664   0.536   3.723   4.080 -0.3637 -1.1698  1.6945
 3734SOL    HW222665   0.435   3.784   4.170 -1.1770  0.2545 -1.6435
 3735SOL     OW22666   3.348   4.192   8.047  0.2695  0.3632 -0.1246
 3735SOL    HW122667   3.323   4.100   8.051  4.2514 -0.7761 -1.6059
 3735SOL    HW222668   3.285   4.222   8.114  1.5970 -0.0798  1.3130
 3736SOL     OW22669   1.035   1.623  15.048 -0.6554 -0.3116 -0.4681
 3736SOL    HW122670   1.029   1.532  15.079 -1.3052  0.2650  1.0614
 3736SOL    HW222671   1.030   1.605  14.954 -1.4292 -1.1157 -0.2805
 3737SOL     OW22672   1.701   1.655   5.520 -0.3589 -0.5458  0.5709
 3737SOL    HW122673   1.759   1.614   5.456 -0.3494 -0.4706  0.5319
 3737SOL    HW222674   1.657   1.578   5.555 -2.2286 -0.7214 -2.2480
 3738SOL     OW22675   0.785   3.263  17.204  0.3163 -0.5837 -0.5770
 3738SOL    HW122676   0.696   3.233  17.219  0.3603  0.0552  1.0445
 3738SOL    HW222677   0.828   3.233  17.284 -1.4966  1.0011  1.0040
 3739SOL     OW22678   3.298   0.453   6.382 -0.5927 -0.1666 -0.4213
 3739SOL    HW122679   3.332   0.473   6.469 -0.4915 -1.4198 -0.1813
 3739SOL    HW222680   3.326   0.362   6.371  2.6627  0.6214  1.6881
 3740SOL     OW22681   0.118   4.306  14.228  0.3229 -0.4129 -0.3068
 3740SOL    HW122682   0.201   4.342  14.197  1.1937 -0.0528  2.4715
 3740SOL    HW222683   0.133   4.219  14.191 -0.8024  0.8454 -3.6976
 3741SOL     OW22684   0.408   2.196   5.138 -0.5550 -0.1645  0.2816
 3741SOL    HW122685   0.393   2.263   5.071 -0.7508  0.0594  0.5490
 3741SOL    HW222686   0.318   2.176   5.162 -1.0426 -0.6996 -1.9714
 3742SOL     OW22687   2.037   2.610   3.990  0.4297  0.8147 -0.3143
 3742SOL    HW122688   1.980   2.631   3.916  0.7336 -1.1414 -1.0989
 3742SOL    HW222689   2.097   2.683   4.008  0.0801  0.8725  0.6307
 3743SOL     OW22690   0.637   2.695  17.400 -0.2791  0.8503 -0.2579
 3743SOL    HW122691   0.702   2.764  17.415  0.5796 -0.2792  1.2845
 3743SOL    HW222692   0.568   2.739  17.350 -0.7412  0.7795  0.3193
 3744SOL     OW22693   0.098   0.653   3.385  0.2621 -0.1582  0.1100
 3744SOL    HW122694   0.153   0.695   3.319  1.4307 -1.3067  0.3463
 3744SOL    HW222695   0.015   0.652   3.338  0.7214  0.9904 -0.7031
 3745SOL     OW22696   3.221   4.649  11.987 -0.1320 -0.5319  0.2161
 3745SOL    HW122697   3.130   4.631  11.962  0.0489  1.9931 -2.2405
 3745SOL    HW222698   3.213   4.601  12.069 -0.2449 -0.8345  0.0301
 3746SOL     OW22699   0.341   4.249   5.585  0.0217 -0.3605 -0.5306
 3746SOL    HW122700   0.378   4.312   5.647 -2.4674  1.1712 -0.5716
 3746SOL    HW222701   0.291   4.319   5.542 -2.7267 -2.1578 -0.2458
 3747SOL     OW22702   3.654   3.905   3.805  0.0396  0.1423 -0.0770
 3747SOL    HW122703   3.678   3.867   3.890 -2.1504  0.2634  0.5947
 3747SOL    HW222704   3.593   3.839   3.772 -1.3800  0.4458  1.9808
 3748SOL     OW22705   2.957   3.817  12.152  0.1595 -0.1696  0.4079
 3748SOL    HW122706   2.937   3.851  12.065 -1.0488 -0.3572  0.6172
 3748SOL    HW222707   2.996   3.731  12.133  0.8173  0.4049 -0.8100
 3749SOL     OW22708   0.040   1.274   5.734  0.2886  0.4275 -0.2415
 3749SOL    HW122709   4.681   1.226   5.730  0.6428 -0.3362  1.5180
 3749SOL    HW222710   0.011   1.365   5.728  0.2917  0.3453 -1.5632
 3750SOL     OW22711   1.561   3.568   4.360  0.2290 -0.8502 -0.0983
 3750SOL    HW122712   1.467   3.580   4.379  0.6445  1.3862  0.5197
 3750SOL    HW222713   1.553   3.546   4.267 -0.4393 -1.2523  0.0574
 3751SOL     OW22714   3.003   0.547   2.730 -0.0412  0.2191 -0.0826
 3751SOL    HW122715   3.085   0.556   2.779 -0.2101  0.7133  0.1083
 3751SOL    HW222716   3.040   0.527   2.644 -0.3977  0.9715 -0.4133
 3752SOL     OW22717   0.808   1.229   8.338  0.1650  0.0295 -0.0392
 3752SOL    HW122718   0.811   1.278   8.256 -2.7969 -2.7113 -1.7508
 3752SOL    HW222719   0.825   1.307   8.392  0.1166  0.3949 -0.5516
 3753SOL     OW22720   4.070   1.361   5.404  0.1483 -0.2688  0.0537
 3753SOL    HW122721   4.116   1.445   5.403  2.2013 -1.4104 -1.9016
 3753SOL    HW222722   4.101   1.324   5.322  0.0788 -1.2968  0.4908
 3754SOL     OW22723   1.488   0.515   7.975 -0.2701  0.2099  0.5444
 3754SOL    HW122724   1.580   0.508   7.951  0.1816 -2.0297  2.9424
 3754SOL    HW222725   1.497   0.556   8.061 -1.2133  0.3521  0.5795
 3755SOL     OW22726   4.704   0.393   1.508  0.0390 -0.3605 -0.0970
 3755SOL    HW122727   4.643   0.459   1.541  0.4720 -1.3136  2.6021
 3755SOL    HW222728   4.671   0.314   1.550 -0.7054  0.0548  0.0971
 3756SOL     OW22729   3.064   0.548   2.022  0.3373 -0.3625 -0.2426
 3756SOL    HW122730   3.134   0.543   1.957  0.7032  0.0385  0.1243
 3756SOL    HW222731   2.985   0.578   1.976  0.2380 -0.0801  0.1210
 3757SOL     OW22732   4.348   2.420  17.519 -0.5658  0.0745 -0.1575
 3757SOL    HW122733   4.263   2.437  17.560  0.1461  0.8399  0.9881
 3757SOL    HW222734   4.408   2.433  17.593 -0.7621 -1.2553  0.2425
 3758SOL     OW22735   3.913   4.068   3.901  0.3446  0.1625 -0.3558
 3758SOL    HW122736   3.949   4.127   3.835 -0.7287  0.4996 -0.6402
 3758SOL    HW222737   3.860   4.005   3.852 -2.5736  2.1473  0.2107
 3759SOL     OW22738   3.299   4.007  17.530 -0.1661 -0.1155  0.3800
 3759SOL    HW122739   3.365   3.960  17.581 -0.5629 -0.6181  0.4233
 3759SOL    HW222740   3.243   4.034  17.603  1.1369  0.7676  1.0589
 3760SOL     OW22741   0.110   2.426  16.387  0.2375 -0.0067  0.9328
 3760SOL    HW122742   0.020   2.394  16.389 -0.3535  1.6240 -0.1168
 3760SOL    HW222743   0.091   2.509  16.431  0.2664  0.4850  0.0083
 3761SOL     OW22744   4.443   1.782   4.411 -0.6802  0.1232 -0.3821
 3761SOL    HW122745   4.470   1.756   4.323 -0.1599 -0.9409  0.0988
 3761SOL    HW222746   4.370   1.838   4.385 -0.6901 -0.2940 -1.2533
 3762SOL     OW22747   4.244   3.440   8.942  0.0400 -0.1121 -0.5507
 3762SOL    HW122748   4.202   3.361   8.907 -0.8880 -0.0696  0.4620
 3762SOL    HW222749   4.296   3.405   9.015 -1.9911 -2.1942 -0.1064
 3763SOL     OW22750   2.871   3.128   7.145 -0.1825 -0.2979 -0.6080
 3763SOL    HW122751   2.907   3.096   7.063  0.7398  1.7071 -0.9807
 3763SOL    HW222752   2.883   3.222   7.129  1.3561 -0.1029  1.6655
 3764SOL     OW22753   1.184   3.851   4.730  0.4354 -0.0780  0.3015
 3764SOL    HW122754   1.265   3.880   4.690  0.7834 -1.1663  0.2042
 3764SOL    HW222755   1.220   3.806   4.807  0.5889  1.5029  1.1449
 3765SOL     OW22756   0.478   2.406  13.572  0.4515 -0.1770  0.0138
 3765SOL    HW122757   0.439   2.473  13.515 -0.2053 -2.3875 -2.1187
 3765SOL    HW222758   0.434   2.428  13.654  1.4579  0.8972  0.2764
 3766SOL     OW22759   1.379   3.318   7.796 -0.3861 -0.6787 -0.7259
 3766SOL    HW122760   1.296   3.272   7.803 -0.4900 -0.4460 -0.4459
 3766SOL    HW222761   1.376   3.367   7.878  3.3448 -1.8323  0.1171
 3767SOL     OW22762   1.408   4.152   7.803  0.6345  0.3368  0.1058
 3767SOL    HW122763   1.352   4.106   7.741  2.7774  0.3598 -1.8617
 3767SOL    HW222764   1.342   4.149   7.872  0.8721 -0.9186  0.2795
 3768SOL     OW22765   3.961   1.586   8.887  0.0636  0.0951 -0.2527
 3768SOL    HW122766   3.906   1.554   8.816 -0.8572  1.3935 -0.1189
 3768SOL    HW222767   4.046   1.557   8.856  0.6497 -0.1034  1.5473
 3769SOL     OW22768   3.495   4.527   4.643 -0.3659 -0.1932 -0.3174
 3769SOL    HW122769   3.562   4.481   4.692  0.0638  1.0263  0.2423
 3769SOL    HW222770   3.423   4.465   4.655 -0.6041 -0.2345 -1.9614
 3770SOL     OW22771   4.559   3.647   9.820 -0.1843 -0.1584  0.3495
 3770SOL    HW122772   4.548   3.598   9.902  0.0848  0.3717  0.7027
 3770SOL    HW222773   4.536   3.578   9.758 -0.7206  0.1696  0.1821
 3771SOL     OW22774   2.634   1.056   7.267 -0.3046 -0.2275  0.0960
 3771SOL    HW122775   2.621   1.150   7.255  1.0783 -0.3046 -1.9774
 3771SOL    HW222776   2.709   1.031   7.213 -0.7925 -2.4068  0.4245
 3772SOL     OW22777   2.249   2.991   4.288 -0.7213 -0.0212  0.2401
 3772SOL    HW122778   2.249   2.925   4.357  0.6747 -1.4848 -1.1687
 3772SOL    HW222779   2.183   3.053   4.318 -0.3311 -0.1247  1.3337
 3773SOL     OW22780   3.173   0.594   4.041 -0.3449  0.2224 -0.4102
 3773SOL    HW122781   3.159   0.660   4.108  0.7552  0.7024 -0.6413
 3773SOL    HW222782   3.196   0.646   3.964  0.5968  0.6648  0.1576
 3774SOL     OW22783   0.235   1.203  15.850  0.3122 -0.1352  0.0156
 3774SOL    HW122784   0.289   1.147  15.795 -0.9761 -0.0604 -1.3459
 3774SOL    HW222785   0.302   1.260  15.888  0.2215  0.2348 -0.3807
 3775SOL     OW22786   2.897   4.475  11.563 -0.4270 -0.0306 -0.3161
 3775SOL    HW122787   2.870   4.546  11.622 -0.2361 -1.1549  1.1394
 3775SOL    HW222788   2.951   4.526  11.503  0.5184  1.1378  1.5208
 3776SOL     OW22789   3.732   0.762   1.958  0.0334 -0.1343  0.1262
 3776SOL    HW122790   3.776   0.750   1.873  2.5280  1.1891  1.2416
 3776SOL    HW222791   3.671   0.828   1.925  0.2587 -0.3380 -0.7166
 3777SOL     OW22792   2.917   1.815   7.481  0.1457  0.5505 -0.2095
 3777SOL    HW122793   2.969   1.849   7.408 -2.5530  1.7906 -1.5318
 3777SOL    HW222794   2.939   1.722   7.468  0.6325  0.4846  1.0748
 3778SOL     OW22795   0.727   3.464  13.799  0.3658 -0.0101  0.1560
 3778SOL    HW122796   0.778   3.384  13.810 -0.0135 -0.2037  0.5081
 3778SOL    HW222797   0.664   3.420  13.743  0.0621 -1.0889  1.3541
 3779SOL     OW22798   0.292   2.699  14.043 -0.2363  0.8015  0.7940
 3779SOL    HW122799   0.258   2.640  14.109  0.7773  2.1578  2.5149
 3779SOL    HW222800   0.233   2.677  13.971 -2.1449 -0.8344  2.8718
 3780SOL     OW22801   2.966   3.252   3.484  1.2088 -0.3235  0.2345
 3780SOL    HW122802   3.041   3.256   3.544  0.4814 -0.8085  1.1698
 3780SOL    HW222803   3.005   3.208   3.408  0.5822  1.4030 -1.0873
 3781SOL     OW22804   3.837   0.047   5.421 -0.2991  0.0461  0.3464
 3781SOL    HW122805   3.768   0.073   5.360  0.1453  1.5572  0.4660
 3781SOL    HW222806   3.842   4.679   5.400 -1.5084  0.1700 -0.4419
 3782SOL     OW22807   0.662   4.599   3.186  0.7259 -0.0893  0.3970
 3782SOL    HW122808   0.599   4.671   3.196 -0.6451 -1.1534 -0.4790
 3782SOL    HW222809   0.746   4.641   3.206 -0.1767  0.6342  2.6680
 3783SOL     OW22810   2.635   0.983   8.177 -0.3330 -0.2853 -0.0389
 3783SOL    HW122811   2.633   0.889   8.198  2.3692 -0.5953 -1.1515
 3783SOL    HW222812   2.723   0.990   8.140 -0.2651 -0.0337  0.1716
 3784SOL     OW22813   3.702   0.525  17.287  0.5716 -0.0351 -0.2767
 3784SOL    HW122814   3.650   0.545  17.210  0.5117  0.2556 -0.1633
 3784SOL    HW222815   3.655   0.458  17.336  1.1087 -0.0179  0.2782
 3785SOL     OW22816   1.214   4.720   5.855  0.1324  0.2284  0.5199
 3785SOL    HW122817   1.211   0.091   5.859  2.0788  0.2897  0.2110
 3785SOL    HW222818   1.291   4.700   5.801 -0.0565  2.0636 -0.4390
 3786SOL     OW22819   3.085   1.665   3.651 -0.0346 -0.4852 -0.4559
 3786SOL    HW122820   3.062   1.683   3.560  2.4103  2.3388 -0.5064
 3786SOL    HW222821   3.149   1.736   3.655 -0.7983  0.2422 -1.0336
 3787SOL     OW22822   2.527   1.629  15.463 -0.1093  0.2877  0.6992
 3787SOL    HW122823   2.558   1.693  15.526 -1.6766 -1.2295  3.0293
 3787SOL    HW222824   2.569   1.663  15.384 -0.0889  0.5122  0.8081
 3788SOL     OW22825   0.894   3.982  14.562  0.7057 -0.3677  0.0647
 3788SOL    HW122826   0.875   3.913  14.627  0.6828  0.7640  1.2639
 3788SOL    HW222827   0.978   3.949  14.531  0.1970  1.5628 -3.2929
 3789SOL     OW22828   4.383   3.548   3.834 -0.0651 -0.1523 -0.3653
 3789SOL    HW122829   4.365   3.598   3.755 -2.5481  0.6981  0.7520
 3789SOL    HW222830   4.439   3.478   3.799 -0.1234 -1.1511  1.5376
 3790SOL     OW22831   0.238   0.113   0.656 -0.5736  0.5787  0.1437
 3790SOL    HW122832   0.169   0.132   0.592 -1.3275  2.2413  1.4638
 3790SOL    HW222833   0.198   0.137   0.740  1.0357  1.1512  0.7375
 3791SOL     OW22834   0.155   4.439   9.194  0.7595  0.8127 -0.1554
 3791SOL    HW122835   0.194   4.433   9.281  2.5832  1.1546 -0.9466
 3791SOL    HW222836   0.119   4.527   9.205 -1.4405  0.0831 -1.5346
 3792SOL     OW22837   0.185   0.472   0.732 -0.0002  0.0021  0.0636
 3792SOL    HW122838   0.268   0.460   0.686  0.7179  1.1681  1.0605
 3792SOL    HW222839   0.212   0.522   0.809 -1.4019  2.0772 -0.7937
 3793SOL     OW22840   4.055   4.552   9.826  0.2088  0.5626 -0.0965
 3793SOL    HW122841   4.018   4.604   9.898 -1.4073  2.1138 -2.0190
 3793SOL    HW222842   4.033   4.464   9.856 -0.6461  0.9766  0.5171
 3794SOL     OW22843   4.683   2.501   9.641 -0.2873 -0.6974  0.0324
 3794SOL    HW122844   0.002   2.440   9.701  2.6520  0.9411 -0.3985
 3794SOL    HW222845   4.709   2.467   9.555 -1.1777  0.6739 -0.7640
 3795SOL     OW22846   3.747   0.094   6.924 -0.7978 -0.3423  0.0128
 3795SOL    HW122847   3.820   0.064   6.979 -0.5747  0.3964  0.1300
 3795SOL    HW222848   3.719   0.167   6.980 -0.2416 -0.0967 -0.0334
 3796SOL     OW22849   4.222   0.573   6.819 -0.4380 -0.1954  0.5667
 3796SOL    HW122850   4.201   0.657   6.861  1.0698  0.2416  0.4301
 3796SOL    HW222851   4.177   0.572   6.734 -0.0405  0.4374  0.3558
 3797SOL     OW22852   0.634   1.061   4.279 -0.4492 -0.5562 -0.5165
 3797SOL    HW122853   0.639   1.115   4.358  2.4494  1.1034 -1.8218
 3797SOL    HW222854   0.622   0.971   4.309  2.3841 -0.8459 -0.3170
 3798SOL     OW22855   3.501   1.114   3.825  0.0807  0.2841  0.2659
 3798SOL    HW122856   3.521   1.169   3.749 -0.4476 -2.1096 -1.5825
 3798SOL    HW222857   3.408   1.127   3.841  0.3795  0.8240  1.5710
 3799SOL     OW22858   3.483   3.620   9.757 -0.5900  0.0953 -0.1263
 3799SOL    HW122859   3.481   3.546   9.818 -0.5530 -0.7901 -1.2008
 3799SOL    HW222860   3.528   3.583   9.681  0.4233  0.9795  0.0448
 3800SOL     OW22861   0.596   2.961   8.607 -0.6446  0.0324 -0.0059
 3800SOL    HW122862   0.604   2.900   8.681  0.2847  1.3484  0.9764
 3800SOL    HW222863   0.503   2.959   8.585 -0.3081  0.7269 -1.5213
 3801SOL     OW22864   3.513   3.361   6.400  0.5273 -0.5558  0.4663
 3801SOL    HW122865   3.588   3.328   6.449  0.7872 -0.4617  0.1277
 3801SOL    HW222866   3.550   3.388   6.316 -0.9313 -1.9256 -0.6187
 3802SOL     OW22867   2.178   3.156  15.630 -0.3304  0.2344  0.5679
 3802SOL    HW122868   2.181   3.075  15.580 -2.5226  0.6536 -0.2585
 3802SOL    HW222869   2.131   3.129  15.709 -1.7980 -0.0301 -0.3975
 3803SOL     OW22870   2.803   1.554   8.423  0.1220  0.4433 -0.6097
 3803SOL    HW122871   2.731   1.588   8.370  0.9583  1.2293 -1.2323
 3803SOL    HW222872   2.830   1.479   8.369  1.4649  0.0271  0.6311
 3804SOL     OW22873   1.584   2.900   5.935  0.3251  0.3501  0.6592
 3804SOL    HW122874   1.637   2.825   5.962  1.4663  1.3680  1.2758
 3804SOL    HW222875   1.547   2.882   5.848 -1.8362 -1.1889  1.8949
 3805SOL     OW22876   3.246   1.005   9.005  0.0128  0.3943 -0.0966
 3805SOL    HW122877   3.214   1.000   8.915 -0.2907 -1.6725  0.1358
 3805SOL    HW222878   3.165   1.031   9.050 -0.3424  0.8602 -1.0162
 3806SOL     OW22879   3.334   2.803   8.243 -0.1446  0.0944  0.2440
 3806SOL    HW122880   3.404   2.866   8.257  0.2353 -0.3761  0.4635
 3806SOL    HW222881   3.376   2.723   8.213  0.0026  0.1000  0.4344
 3807SOL     OW22882   4.409   0.769   7.795  0.1735  0.1589 -0.3230
 3807SOL    HW122883   4.444   0.794   7.880  1.8192 -0.9393 -0.6775
 3807SOL    HW222884   4.490   0.780   7.744 -0.6003  2.3333 -1.0930
 3808SOL     OW22885   0.649   4.189   2.959 -0.0788  0.1529  0.3550
 3808SOL    HW122886   0.559   4.185   2.927  0.1656  0.5161 -0.3617
 3808SOL    HW222887   0.682   4.272   2.923 -0.1672 -0.2276 -0.5818
 3809SOL     OW22888   3.139   0.834   2.315  0.3718  0.0795  0.9223
 3809SOL    HW122889   3.055   0.820   2.358 -0.0642  0.2991  0.1496
 3809SOL    HW222890   3.197   0.786   2.374  1.8857  1.7425  0.8132
 3810SOL     OW22891   0.009   1.058  14.892  0.0054  0.5207  0.6247
 3810SOL    HW122892   4.693   0.989  14.839 -1.7257  1.8895  0.1317
 3810SOL    HW222893   4.667   1.128  14.889  2.9066  3.2927  1.5610
 3811SOL     OW22894   0.098   2.657   6.621 -0.0607 -0.3094 -0.0520
 3811SOL    HW122895   0.139   2.744   6.622  1.7280 -1.1262 -1.6351
 3811SOL    HW222896   0.142   2.612   6.694 -1.2835 -1.9755 -0.3513
 3812SOL     OW22897   1.584   1.415   9.890 -0.0947  0.2128 -0.0877
 3812SOL    HW122898   1.603   1.423   9.797  0.2652  1.7166  0.1195
 3812SOL    HW222899   1.529   1.489   9.916  0.6004  0.9303 -0.7047
 3813SOL     OW22900   0.357   0.587   3.540  0.0313 -0.0796  0.0385
 3813SOL    HW122901   0.341   0.604   3.447  1.6279  2.9004  0.3232
 3813SOL    HW222902   0.449   0.605   3.558 -0.3599  2.5145 -0.4760
 3814SOL     OW22903   3.223   3.781   4.232 -0.3646 -0.2316  0.0018
 3814SOL    HW122904   3.128   3.786   4.246 -0.3444  0.1661 -0.0171
 3814SOL    HW222905   3.249   3.833   4.307  0.6543  1.3797 -1.4864
 3815SOL     OW22906   3.051   2.555   5.165  0.3674 -0.0739  0.7821
 3815SOL    HW122907   3.000   2.510   5.097  1.4899  0.5990 -0.4793
 3815SOL    HW222908   3.056   2.483   5.229  0.1678  0.4726  1.4102
 3816SOL     OW22909   2.192   2.487  11.300 -0.7853 -0.1528 -0.5996
 3816SOL    HW122910   2.114   2.529  11.264 -0.6437  1.1428  0.5666
 3816SOL    HW222911   2.167   2.490  11.393 -2.2948 -1.0803 -0.9759
 3817SOL     OW22912   2.778   1.757  12.633 -0.4441 -0.0323 -0.3327
 3817SOL    HW122913   2.711   1.779  12.698 -2.1160  0.4376 -2.1982
 3817SOL    HW222914   2.739   1.691  12.576  1.6693 -2.5303  1.1063
 3818SOL     OW22915   0.427   4.024   2.393  0.4928  0.3663  0.2436
 3818SOL    HW122916   0.365   4.034   2.321 -1.1127 -2.1861  1.2747
 3818SOL    HW222917   0.503   4.046   2.340  0.9459  0.1877  0.8162
 3819SOL     OW22918   1.146   4.698   7.494 -0.7311  0.2356 -0.1016
 3819SOL    HW122919   1.088   0.002   7.564  2.4310 -1.2819  3.1298
 3819SOL    HW222920   1.084   0.000   7.425 -2.2144 -2.7882  0.0927
 3820SOL     OW22921   4.268   1.219  10.129 -0.1102  0.0205  0.2814
 3820SOL    HW122922   4.327   1.162  10.178 -0.2583  0.1968  0.6731
 3820SOL    HW222923   4.216   1.150  10.087 -0.8685  0.0657  1.1339
 3821SOL     OW22924   3.158   1.378  15.710  0.5327  0.0345 -0.1152
 3821SOL    HW122925   3.112   1.363  15.793  1.9889  0.1141  0.7031
 3821SOL    HW222926   3.219   1.305  15.704  1.0197  0.5609 -1.4735
 3822SOL     OW22927   0.817   3.609   8.593  0.2311  0.1363  0.7917
 3822SOL    HW122928   0.889   3.585   8.534  0.6975  1.1955  0.9437
 3822SOL    HW222929   0.771   3.667   8.532  3.3571 -0.9454 -2.5818
 3823SOL     OW22930   4.625   2.030  15.343 -0.3380  0.3915  0.4474
 3823SOL    HW122931   4.686   1.959  15.364  0.3936  1.0191  0.4482
 3823SOL    HW222932   4.682   2.092  15.297 -0.8341  0.2417 -0.3604
 3824SOL     OW22933   2.062   3.223   5.966 -0.3642 -0.3743 -0.0997
 3824SOL    HW122934   1.987   3.279   5.986 -1.2179 -0.6020 -2.7744
 3824SOL    HW222935   2.093   3.211   6.056  1.8847  1.3401 -0.6472
 3825SOL     OW22936   4.617   4.107   4.640  0.1701  0.1733  0.0793
 3825SOL    HW122937   4.661   4.032   4.680  2.0440  0.5220 -1.3101
 3825SOL    HW222938   4.589   4.156   4.717  0.0273  1.0034 -0.4991
 3826SOL     OW22939   0.196   4.090  10.138  0.1629 -1.3424 -0.1359
 3826SOL    HW122940   0.219   4.181  10.119  0.7449 -1.5554 -0.4558
 3826SOL    HW222941   0.115   4.096  10.188  0.7881  0.4042  0.6745
 3827SOL     OW22942   3.250   1.945   4.738 -0.4046  0.5198  0.2277
 3827SOL    HW122943   3.314   1.990   4.682  0.3322 -0.3735  0.3571
 3827SOL    HW222944   3.206   2.024   4.770  0.3272  0.8989  0.3136
 3828SOL     OW22945   2.601   1.539   7.812 -0.0295  0.4567  0.0537
 3828SOL    HW122946   2.613   1.600   7.740  0.1450 -0.0320 -0.3304
 3828SOL    HW222947   2.682   1.488   7.813 -2.3838 -3.2978  0.2139
 3829SOL     OW22948   2.534   3.417   2.487  0.1112 -0.0021 -0.4687
 3829SOL    HW122949   2.533   3.507   2.454  0.9602  0.9129  1.9282
 3829SOL    HW222950   2.606   3.380   2.437 -0.1441 -0.2878 -0.6240
 3830SOL     OW22951   3.519   2.154   4.851 -0.1678 -0.1262  0.3966
 3830SOL    HW122952   3.464   2.185   4.780  0.6110 -0.6459 -0.4458
 3830SOL    HW222953   3.600   2.202   4.833 -1.2227  0.6589 -2.1857
 3831SOL     OW22954   3.846   3.297   5.727  0.3422 -0.3805 -0.0731
 3831SOL    HW122955   3.804   3.253   5.800  0.2486  1.8305  1.2015
 3831SOL    HW222956   3.823   3.243   5.651 -0.3128  0.0036 -0.1436
 3832SOL     OW22957   2.599   2.665   5.446  0.0566 -0.1860 -0.3697
 3832SOL    HW122958   2.542   2.656   5.370  1.8626  1.4482 -1.9094
 3832SOL    HW222959   2.683   2.651   5.403  1.4252  1.5656  1.7158
 3833SOL     OW22960   1.229   4.512  13.070 -0.2698 -0.8905  0.2962
 3833SOL    HW122961   1.302   4.479  13.122  0.3288 -1.7508 -1.0915
 3833SOL    HW222962   1.208   4.434  13.020 -1.1334 -0.8090  0.5409
 3834SOL     OW22963   3.977   2.435   2.793 -0.4829 -0.4358 -0.4577
 3834SOL    HW122964   3.937   2.505   2.742  1.9404  1.9571  0.9385
 3834SOL    HW222965   4.069   2.448   2.770 -0.2091  0.6049  1.1906
 3835SOL     OW22966   1.318   0.076   7.168 -0.5535  0.4507  0.1130
 3835SOL    HW122967   1.329   0.087   7.263 -2.8399  1.2478  0.2863
 3835SOL    HW222968   1.397   0.028   7.145 -0.8870 -1.4662  2.8724
 3836SOL     OW22969   1.370   1.139   0.928 -0.5496 -0.0412  0.1123
 3836SOL    HW122970   1.327   1.053   0.933 -0.2207 -0.1271  1.4880
 3836SOL    HW222971   1.410   1.133   0.841 -0.5109 -1.6724  0.2284
 3837SOL     OW22972   2.255   1.578   3.287  0.1234  0.1954 -0.6331
 3837SOL    HW122973   2.334   1.561   3.339 -0.5946 -1.0862  0.0434
 3837SOL    HW222974   2.288   1.620   3.207 -1.6955 -2.1871 -2.6379
 3838SOL     OW22975   3.301   0.504   1.907 -0.2436 -0.8431 -0.8093
 3838SOL    HW122976   3.314   0.545   1.993  1.5263 -0.0772 -1.4371
 3838SOL    HW222977   3.387   0.512   1.866  0.1047 -0.4375 -0.0104
 3839SOL     OW22978   1.349   0.306   8.690  0.5078  0.1324 -0.3740
 3839SOL    HW122979   1.439   0.279   8.669  0.7473 -0.2590  1.0946
 3839SOL    HW222980   1.312   0.231   8.644 -1.1486 -0.7715  2.4087
 3840SOL     OW22981   4.696   3.034   7.111  0.1623  0.0319  0.0942
 3840SOL    HW122982   4.687   2.939   7.108 -2.5171  0.2425  1.8051
 3840SOL    HW222983   4.681   3.054   7.018  0.5449 -0.4241 -0.0635
 3841SOL     OW22984   3.972   2.592   3.763  0.6396 -0.5542  0.3529
 3841SOL    HW122985   3.950   2.505   3.731  0.5852 -0.6929  0.7589
 3841SOL    HW222986   3.895   2.606   3.819 -1.1302 -2.8678 -1.5177
 3842SOL     OW22987   3.400   0.088  17.363  0.3644  0.3980 -0.1054
 3842SOL    HW122988   3.401   0.169  17.412 -1.0002 -0.8351  1.9649
 3842SOL    HW222989   3.425   0.114  17.274 -0.8847  2.0061  0.0177
 3843SOL     OW22990   1.462   2.336   5.199 -0.5593 -0.1174 -0.1383
 3843SOL    HW122991   1.549   2.362   5.166 -0.6786  0.0417 -0.3271
 3843SOL    HW222992   1.402   2.357   5.127  0.1259 -1.2161 -1.0370
 3844SOL     OW22993   1.324   3.300   9.204  0.3573 -0.1394 -0.2959
 3844SOL    HW122994   1.297   3.310   9.113  1.0010  3.8315 -0.0281
 3844SOL    HW222995   1.382   3.228   9.180  0.2740 -0.3597  0.1499
 3845SOL     OW22996   2.622   0.628   2.893 -0.4475  0.2216 -0.2435
 3845SOL    HW122997   2.651   0.547   2.935 -0.9180  0.7639  1.0980
 3845SOL    HW222998   2.579   0.675   2.964 -0.0195  0.2771 -0.0272
 3846SOL     OW22999   0.613   3.336   1.324  0.5020 -0.3693 -0.4589
 3846SOL    HW123000   0.650   3.400   1.385 -1.5070 -1.1986  1.6217
 3846SOL    HW223001   0.530   3.382   1.311  1.2782  0.8361 -1.1735
 3847SOL     OW23002   0.478   2.922   4.722  0.0099  0.7161  0.7916
 3847SOL    HW123003   0.385   2.901   4.733 -0.2033 -0.1704 -2.6614
 3847SOL    HW223004   0.485   2.962   4.635  1.7114 -0.7921  0.2064
 3848SOL     OW23005   1.809   1.061   8.798  0.4071  0.2815  0.0766
 3848SOL    HW123006   1.865   1.090   8.726 -2.9485  3.1512 -1.3630
 3848SOL    HW223007   1.755   0.992   8.760  0.4382 -0.3412  1.1584
 3849SOL     OW23008   1.352   3.964   0.809 -0.0998 -0.0006  0.4381
 3849SOL    HW123009   1.434   3.990   0.852 -0.5406 -0.4021  1.5310
 3849SOL    HW223010   1.346   4.026   0.737  0.4911  0.3366  0.6730
 3850SOL     OW23011   1.723   2.089  17.442  0.0877 -0.1465 -0.6988
 3850SOL    HW123012   1.633   2.060  17.425 -0.1833  0.8469 -0.9603
 3850SOL    HW223013   1.702   2.182  17.449  3.2227  0.5145 -0.2956
 3851SOL     OW23014   1.438   0.088   2.166 -0.1618  0.3099 -0.4225
 3851SOL    HW123015   1.374   0.043   2.112 -2.4001  0.6007  1.9861
 3851SOL    HW223016   1.486   0.012   2.201  0.0823  0.7163  0.1252
 3852SOL     OW23017   1.758   3.586  16.142 -0.3495  0.3056  1.0719
 3852SOL    HW123018   1.707   3.535  16.206  0.8071 -1.9136  0.2249
 3852SOL    HW223019   1.734   3.532  16.067 -2.2307  2.0212  0.4363
 3853SOL     OW23020   4.423   2.712   5.539 -0.3825  0.0295 -0.5737
 3853SOL    HW123021   4.330   2.689   5.541 -0.4645  0.3959 -0.2304
 3853SOL    HW223022   4.427   2.743   5.630 -2.3283 -0.2403 -0.3785
 3854SOL     OW23023   2.049   3.720   2.340 -0.0008 -0.3541 -0.2939
 3854SOL    HW123024   1.979   3.731   2.404 -1.2049 -0.3922 -1.6136
 3854SOL    HW223025   2.113   3.780   2.378  0.3398 -1.1434  0.3873
 3855SOL     OW23026   2.026   1.435   3.000 -0.7305 -1.0790 -0.7318
 3855SOL    HW123027   1.969   1.370   2.958  0.7163 -2.2431 -0.8806
 3855SOL    HW223028   2.051   1.478   2.918 -1.3039 -1.9590 -1.3674
 3856SOL     OW23029   1.063   4.231  15.212  0.2916 -0.0773 -0.5055
 3856SOL    HW123030   1.148   4.213  15.171  1.4905  2.4367  0.9023
 3856SOL    HW223031   1.020   4.146  15.205 -0.1879  0.1370 -0.2065
 3857SOL     OW23032   2.247   2.810  11.520 -0.1375 -0.0668  0.6596
 3857SOL    HW123033   2.171   2.831  11.465  2.2500  0.3542 -2.4538
 3857SOL    HW223034   2.259   2.884  11.580  1.2666 -1.3079  1.9233
 3858SOL     OW23035   3.966   1.172   3.788 -0.5487 -0.2096 -0.2624
 3858SOL    HW123036   4.029   1.112   3.828  0.8446  0.9246 -0.7448
 3858SOL    HW223037   3.890   1.158   3.844 -0.3899 -0.3992 -0.0900
 3859SOL     OW23038   3.751   2.306  13.442 -0.3933 -0.2457 -0.6047
 3859SOL    HW123039   3.733   2.399  13.428  0.1679 -0.0342  0.1388
 3859SOL    HW223040   3.724   2.282  13.531  0.5818 -3.3166 -1.1418
 3860SOL     OW23041   0.124   0.655   4.638  0.0679 -0.4050  0.3734
 3860SOL    HW123042   0.220   0.657   4.642  0.1021  0.1221 -0.6978
 3860SOL    HW223043   0.104   0.561   4.632  2.8677 -1.0458  1.0398
 3861SOL     OW23044   1.963   0.445   0.790  0.1626 -0.5783  0.0169
 3861SOL    HW123045   2.047   0.410   0.761  0.7663  1.4646 -0.7499
 3861SOL    HW223046   1.897   0.382   0.761 -0.2895  0.1530 -0.5521
 3862SOL     OW23047   2.585   1.468   4.723  0.0892 -0.2001  0.4011
 3862SOL    HW123048   2.627   1.385   4.701 -1.9834 -1.4817  1.2584
 3862SOL    HW223049   2.505   1.457   4.671  1.4193 -1.3034 -1.4010
 3863SOL     OW23050   3.967   3.032   6.545  0.0349 -0.1478 -0.4591
 3863SOL    HW123051   3.908   3.073   6.609  0.6370  0.6895 -0.4449
 3863SOL    HW223052   3.913   2.955   6.524 -0.8288  0.7296 -1.4304
 3864SOL     OW23053   3.189   0.971   8.385  0.0927 -0.7305  0.2213
 3864SOL    HW123054   3.245   1.008   8.317  0.5265  0.9294  1.4736
 3864SOL    HW223055   3.149   1.056   8.408  0.8215 -0.0546 -0.9958
 3865SOL     OW23056   1.908   1.556   9.816 -0.3928  0.2561 -0.4426
 3865SOL    HW123057   1.879   1.545   9.725 -1.1056 -0.4673 -0.1280
 3865SOL    HW223058   1.838   1.609   9.855 -0.2253  1.5066 -1.8499
 3866SOL     OW23059   0.951   0.373  13.604 -0.4157  0.1518  0.0145
 3866SOL    HW123060   0.907   0.401  13.523  1.7304  1.9160 -0.5449
 3866SOL    HW223061   0.939   0.279  13.598  0.1549  0.1920 -1.6947
 3867SOL     OW23062   3.328   2.941   7.660 -0.4868 -0.5037  0.6892
 3867SOL    HW123063   3.265   3.010   7.680 -0.2744 -0.8306  2.5343
 3867SOL    HW223064   3.292   2.862   7.701  0.1806 -0.3935  1.4784
 3868SOL     OW23065   2.139   1.895  10.310 -0.2598  0.3443  0.6070
 3868SOL    HW123066   2.078   1.838  10.356  1.8877 -2.6235 -0.2187
 3868SOL    HW223067   2.140   1.961  10.379 -0.0201  2.3192 -1.2783
 3869SOL     OW23068   4.434   1.654   4.996  0.2735 -0.2357  0.9368
 3869SOL    HW123069   4.467   1.719   5.058 -0.0864 -0.7300  1.6505
 3869SOL    HW223070   4.443   1.574   5.047  2.7076 -1.1044 -0.8315
 3870SOL     OW23071   4.578   0.862  10.159  0.0791 -0.0009  0.6190
 3870SOL    HW123072   4.566   0.778  10.115 -3.3045  0.9772 -0.2999
 3870SOL    HW223073   4.673   0.870  10.167  0.0422  1.3919 -0.3608
 3871SOL     OW23074   4.237   1.426   0.347  0.3987 -0.1722 -0.1197
 3871SOL    HW123075   4.207   1.517   0.347 -0.6098 -0.4991 -0.2057
 3871SOL    HW223076   4.303   1.431   0.417 -1.4544  1.7053  1.5134
 3872SOL     OW23077   4.571   1.791   6.117 -0.0425 -0.5176 -0.8847
 3872SOL    HW123078   4.560   1.699   6.141 -1.0925 -1.2257 -4.1431
 3872SOL    HW223079   4.553   1.790   6.023  1.2855 -0.2697 -1.1446
 3873SOL     OW23080   3.313   2.199   9.221 -0.0701 -0.8015 -0.3179
 3873SOL    HW123081   3.273   2.257   9.286 -1.1975  0.7204 -2.3868
 3873SOL    HW223082   3.251   2.181   9.150 -0.3137  3.1324 -1.1154
 3874SOL     OW23083   2.037   3.766  14.669 -0.2414 -0.2614 -0.2019
 3874SOL    HW123084   2.031   3.799  14.579 -1.2983  1.2673  0.4157
 3874SOL    HW223085   2.112   3.813  14.705 -0.6253 -0.7108  1.1663
 3875SOL     OW23086   2.531   3.755   8.455  0.5910  0.0046 -0.4802
 3875SOL    HW123087   2.530   3.678   8.513 -0.6702  1.2528  1.1630
 3875SOL    HW223088   2.486   3.714   8.381  0.1459  1.7576 -1.1674
 3876SOL     OW23089   0.949   0.715   3.489  0.4755  0.2863 -0.6027
 3876SOL    HW123090   1.014   0.785   3.480  1.9433 -0.6849  2.3657
 3876SOL    HW223091   1.003   0.642   3.521 -1.3959 -0.3510  1.0710
 3877SOL     OW23092   0.432   2.735   2.748 -0.4313 -0.4885 -0.6394
 3877SOL    HW123093   0.513   2.756   2.794 -0.4351  0.2570 -0.9697
 3877SOL    HW223094   0.444   2.642   2.730 -1.3706 -1.0667  1.6771
 3878SOL     OW23095   4.273   0.239   2.991 -0.0399  0.2894 -0.0820
 3878SOL    HW123096   4.312   0.160   2.952  0.8423  0.5579  0.2558
 3878SOL    HW223097   4.275   0.210   3.082  0.7073 -1.6517 -0.7064
 3879SOL     OW23098   3.602   1.647  10.967 -0.6295  0.5458  0.1725
 3879SOL    HW123099   3.616   1.574  10.906 -0.8986 -0.9665  1.9259
 3879SOL    HW223100   3.511   1.627  10.989  0.2551 -3.2711  0.4406
 3880SOL     OW23101   4.186   1.943   4.364 -0.1776  0.2151  0.5710
 3880SOL    HW123102   4.227   2.013   4.417 -1.6934  0.2440  1.7010
 3880SOL    HW223103   4.104   1.986   4.343 -0.4508 -1.2281 -1.2547
 3881SOL     OW23104   2.118   4.176   6.995 -0.1553 -0.3905 -0.1770
 3881SOL    HW123105   2.063   4.100   7.013 -2.0221  0.8805 -0.4740
 3881SOL    HW223106   2.180   4.148   6.927  0.9842  2.0496 -0.1430
 3882SOL     OW23107   4.507   1.855   9.622 -0.1223 -0.6724 -0.4112
 3882SOL    HW123108   4.448   1.926   9.600  1.2395  0.7613  0.5651
 3882SOL    HW223109   4.453   1.777   9.608 -1.1152  0.0364 -0.4846
 3883SOL     OW23110   3.923   0.153   4.992  0.1820 -0.0543 -0.1257
 3883SOL    HW123111   3.946   0.060   4.986 -0.5503 -0.1482 -1.6216
 3883SOL    HW223112   3.836   0.148   5.033 -0.3152  1.6577 -0.9931
 3884SOL     OW23113   4.646   1.132   3.199  0.0611 -0.2991 -1.1363
 3884SOL    HW123114   0.003   1.085   3.219 -1.2379 -1.3523  1.6758
 3884SOL    HW223115   4.586   1.058   3.197  1.0021 -1.1328  2.4065
 3885SOL     OW23116   3.982   2.572   3.242 -0.1163 -0.1040  0.7779
 3885SOL    HW123117   3.926   2.496   3.259 -0.3400  0.1867  1.3443
 3885SOL    HW223118   3.927   2.643   3.276 -1.0186  0.7184 -2.4402
 3886SOL     OW23119   1.702   0.814   8.674  0.8075 -0.1983  0.0842
 3886SOL    HW123120   1.780   0.816   8.618  0.9538  0.8695  0.3180
 3886SOL    HW223121   1.721   0.742   8.734  0.1475  0.7175  1.3905
 3887SOL     OW23122   0.182   1.948   6.716  0.2494 -0.9309  0.1940
 3887SOL    HW123123   0.128   1.896   6.657  1.9183  0.6121 -2.7191
 3887SOL    HW223124   0.222   1.879   6.769  1.4732 -1.4201 -1.3701
 3888SOL     OW23125   3.890   3.820   5.645  0.7231  0.2742 -0.1121
 3888SOL    HW123126   3.831   3.835   5.571 -0.1802 -0.4315  0.4666
 3888SOL    HW223127   3.853   3.739   5.679  2.0995 -0.5057 -0.4680
 3889SOL     OW23128   3.654   0.892   6.703  0.4294 -0.2893 -0.4100
 3889SOL    HW123129   3.674   0.974   6.658  0.4361  0.8578  1.6720
 3889SOL    HW223130   3.618   0.841   6.631  0.4387 -0.9944  0.0873
 3890SOL     OW23131   0.964   3.809  10.237 -0.3576  0.0039 -0.0343
 3890SOL    HW123132   0.893   3.777  10.181  0.9232  0.6304 -2.0226
 3890SOL    HW223133   0.974   3.740  10.303 -1.1838 -0.6821 -0.6324
 3891SOL     OW23134   2.868   3.668   5.594  0.1950 -0.3941 -0.5280
 3891SOL    HW123135   2.823   3.586   5.614  2.1422 -1.3712 -0.1704
 3891SOL    HW223136   2.875   3.709   5.680 -3.3663 -2.1915  0.6347
 3892SOL     OW23137   1.725   0.173   4.192  0.2037  0.1500 -0.0470
 3892SOL    HW123138   1.802   0.229   4.197  1.4306 -1.5126 -0.4438
 3892SOL    HW223139   1.752   0.111   4.124 -0.5237  0.0676 -0.2705
 3893SOL     OW23140   1.920   2.560  12.570 -0.1809 -0.2758 -0.4389
 3893SOL    HW123141   1.924   2.611  12.489 -0.1380  1.0896  0.4110
 3893SOL    HW223142   1.944   2.471  12.545 -0.7675 -0.2490 -1.0906
 3894SOL     OW23143   1.449   1.325   8.889 -0.1920 -0.0773  0.3151
 3894SOL    HW123144   1.422   1.269   8.816  1.7077 -0.7076  0.1060
 3894SOL    HW223145   1.496   1.262   8.943  0.3388  1.7625  2.0216
 3895SOL     OW23146   1.474   0.832   7.166  0.1811 -0.1820  0.4363
 3895SOL    HW123147   1.466   0.757   7.225  1.3765 -0.3719  0.3527
 3895SOL    HW223148   1.433   0.904   7.215 -1.3231 -0.0235 -1.0497
 3896SOL     OW23149   4.473   0.553   0.426  0.2503  0.4673 -0.2693
 3896SOL    HW123150   4.446   0.622   0.487 -2.8637 -0.4289 -0.6590
 3896SOL    HW223151   4.568   0.565   0.418  0.4971 -1.1918  0.1226
 3897SOL     OW23152   0.731   0.691   3.307 -0.1152 -0.2713 -0.7360
 3897SOL    HW123153   0.674   0.616   3.326  1.0001 -1.2084 -1.0572
 3897SOL    HW223154   0.805   0.665   3.362  0.2587 -1.3234 -1.7435
 3898SOL     OW23155   2.352   0.444   5.911 -0.1210 -0.1482  0.1738
 3898SOL    HW123156   2.265   0.447   5.869  0.7609 -1.1033 -1.7468
 3898SOL    HW223157   2.403   0.428   5.831  0.4168 -1.0706  0.7174
 3899SOL     OW23158   3.103   1.425   7.888  0.0589 -0.3150  0.6631
 3899SOL    HW123159   3.114   1.519   7.872  2.3097 -0.7952 -0.7225
 3899SOL    HW223160   3.175   1.396   7.831  0.1205  0.7329  0.1953
 3900SOL     OW23161   0.384   3.840   6.894 -0.0311 -0.1396  0.3714
 3900SOL    HW123162   0.477   3.818   6.883 -0.1186  0.3861 -1.3971
 3900SOL    HW223163   0.353   3.781   6.964 -1.2269  0.3547  0.2544
 3901SOL     OW23164   1.577   0.392   2.569  0.0264  0.0576 -0.0443
 3901SOL    HW123165   1.606   0.475   2.530 -1.6434  0.8888  0.4753
 3901SOL    HW223166   1.665   0.356   2.577 -0.1379 -0.5977 -1.1847
 3902SOL     OW23167   0.520   1.718   3.692 -0.1881  0.4788 -0.6152
 3902SOL    HW123168   0.590   1.713   3.628  0.4038 -0.5691  0.1225
 3902SOL    HW223169   0.438   1.684   3.655 -1.0704  1.6302  0.2544
 3903SOL     OW23170   2.065   1.902   7.169  0.0181  0.3010 -0.0771
 3903SOL    HW123171   2.152   1.941   7.160 -0.1046  0.5203 -0.3116
 3903SOL    HW223172   2.000   1.972   7.170  0.3577  0.6127  0.0999
 3904SOL     OW23173   0.624   4.621   4.642  0.4271 -0.4519  0.1849
 3904SOL    HW123174   0.600   4.671   4.564  1.0794  0.1358  0.3560
 3904SOL    HW223175   0.660   4.695   4.692 -0.2947 -0.6728  1.0379
 3905SOL     OW23176   2.676   3.546   8.240  0.3175 -0.3718 -0.6488
 3905SOL    HW123177   2.587   3.576   8.259  0.1993  0.5717 -2.7884
 3905SOL    HW223178   2.662   3.455   8.215 -4.6726 -0.1677  1.4569
 3906SOL     OW23179   3.563   0.962   1.246  0.0285 -0.1977 -0.9901
 3906SOL    HW123180   3.563   1.057   1.261  0.9024 -0.1278 -1.4700
 3906SOL    HW223181   3.627   0.947   1.177  0.0846 -0.3467 -0.9049
 3907SOL     OW23182   3.096   1.970   3.816 -0.3723  0.0567  0.0182
 3907SOL    HW123183   3.035   1.906   3.780 -0.3159 -0.2657  0.5003
 3907SOL    HW223184   3.076   1.956   3.908  0.0107 -1.0387 -0.0644
 3908SOL     OW23185   1.068   3.883   7.757  0.2188  0.1827 -0.0553
 3908SOL    HW123186   1.053   3.924   7.672  3.8758  1.9050  0.1493
 3908SOL    HW223187   1.162   3.870   7.756  0.3360  0.9949  0.5266
 3909SOL     OW23188   4.400   2.122   1.306  0.5265  0.1549  0.0280
 3909SOL    HW123189   4.321   2.152   1.351  0.8034  0.1975  0.4857
 3909SOL    HW223190   4.360   2.056   1.249 -0.1158 -0.1593  0.8368
 3910SOL     OW23191   1.429   0.913   8.092 -0.6999  0.3514 -0.8493
 3910SOL    HW123192   1.391   0.998   8.072 -0.5912  0.5818 -0.0863
 3910SOL    HW223193   1.356   0.853   8.078 -2.0544  1.9315 -0.4601
 3911SOL     OW23194   2.792   3.336   2.882 -0.1326  0.2879 -0.6717
 3911SOL    HW123195   2.791   3.394   2.806  2.7838 -0.1149 -1.0243
 3911SOL    HW223196   2.726   3.273   2.855 -0.1004  0.5216 -1.2986
 3912SOL     OW23197   3.962   2.352   1.743 -0.4261 -0.5626  0.5872
 3912SOL    HW123198   4.033   2.403   1.782  0.0044  1.2181 -2.4353
 3912SOL    HW223199   4.008   2.273   1.716 -0.9906 -0.4060 -0.8562
 3913SOL     OW23200   4.557   2.082   8.900 -0.3009 -0.0717  0.0560
 3913SOL    HW123201   4.532   2.086   8.992 -0.0156  1.6257  0.0585
 3913SOL    HW223202   4.469   2.057   8.871 -0.6071  0.7568  0.2674
 3914SOL     OW23203   1.644   2.088   4.190 -0.2767 -0.2086  0.6825
 3914SOL    HW123204   1.625   2.147   4.263  0.9705  0.8463  0.1625
 3914SOL    HW223205   1.720   2.049   4.233  0.4065  0.6121  0.2336
 3915SOL     OW23206   2.541   0.198   3.532  0.1317 -0.0437 -0.0510
 3915SOL    HW123207   2.463   0.144   3.530  0.8587 -1.1470  1.2787
 3915SOL    HW223208   2.603   0.142   3.485  1.0089  1.8969 -1.1790
 3916SOL     OW23209   4.367   4.576   5.375 -0.2772  0.1752 -0.1998
 3916SOL    HW123210   4.452   4.618   5.386  0.5087 -1.0225 -1.7861
 3916SOL    HW223211   4.380   4.543   5.286 -1.7861 -0.3097 -0.2363
 3917SOL     OW23212   3.795   0.449  16.502  0.5057  0.6720 -0.3272
 3917SOL    HW123213   3.768   0.419  16.589  0.1352 -0.0127 -0.6815
 3917SOL    HW223214   3.755   0.536  16.498 -1.0305  0.0577  1.5740
 3918SOL     OW23215   3.042   1.214   7.482 -0.3716  0.5110 -0.3993
 3918SOL    HW123216   3.125   1.239   7.523 -0.1771 -0.5849 -0.1112
 3918SOL    HW223217   3.052   1.254   7.395  1.0043  1.0822  0.0245
 3919SOL     OW23218   2.510   4.256   5.103  0.0336 -0.3910 -0.0745
 3919SOL    HW123219   2.548   4.182   5.150  1.7290  2.3959  2.9846
 3919SOL    HW223220   2.515   4.329   5.166 -0.8005 -2.6666  2.6354
 3920SOL     OW23221   3.267   4.182  14.929 -0.1960 -0.2128  1.1106
 3920SOL    HW123222   3.182   4.150  14.899  1.4136  0.0958 -3.7675
 3920SOL    HW223223   3.260   4.253  14.992  1.2287  0.6783  0.2659
 3921SOL     OW23224   2.098   1.940   9.339  0.8790  0.4849 -0.2165
 3921SOL    HW123225   2.085   1.858   9.387  1.7157 -0.9936 -2.5402
 3921SOL    HW223226   2.021   1.942   9.283  1.4374  1.2451 -0.9598
 3922SOL     OW23227   2.205   3.953  13.899 -0.1332  0.3743  0.5299
 3922SOL    HW123228   2.254   3.941  13.818 -1.7862  0.7950 -0.5246
 3922SOL    HW223229   2.171   4.042  13.895 -2.7409 -0.7253 -1.1655
 3923SOL     OW23230   3.394   1.278   9.347  0.1355 -0.5468 -0.2207
 3923SOL    HW123231   3.460   1.337   9.311  0.6247 -0.0815  1.4383
 3923SOL    HW223232   3.385   1.220   9.271 -1.8498  1.4670 -1.5008
 3924SOL     OW23233   1.479   0.731  15.331 -0.3005  0.4683  0.0287
 3924SOL    HW123234   1.473   0.638  15.355 -1.0861  0.3225 -0.7294
 3924SOL    HW223235   1.503   0.729  15.238 -0.7984  0.2672 -0.0997
 3925SOL     OW23236   0.224   0.095   9.095  0.1114 -0.0874 -0.4116
 3925SOL    HW123237   0.295   0.035   9.072  0.8444  0.7364 -0.3363
 3925SOL    HW223238   0.170   0.045   9.155  0.6406  0.2528  0.3449
 3926SOL     OW23239   2.699   2.147  17.631 -0.1244 -0.5120  0.0918
 3926SOL    HW123240   2.732   2.134   0.022  0.4716 -0.7448 -0.1682
 3926SOL    HW223241   2.621   2.093  17.648 -0.0030 -1.1197 -1.2891
 3927SOL     OW23242   0.382   1.755  16.124 -0.0312 -0.5292  0.3814
 3927SOL    HW123243   0.412   1.793  16.041 -1.2893 -0.9645 -0.2736
 3927SOL    HW223244   0.465   1.727  16.161 -0.7902 -0.5765  2.0268
 3928SOL     OW23245   1.821   0.263   7.778 -0.2391  0.0320 -0.0844
 3928SOL    HW123246   1.905   0.235   7.814 -2.0108 -3.3827  1.4114
 3928SOL    HW223247   1.819   0.202   7.704  1.6276 -0.1105  0.0037
 3929SOL     OW23248   1.355   0.344  13.551 -0.2292 -0.2755  0.0283
 3929SOL    HW123249   1.437   0.336  13.502  0.4921 -2.7792  1.6214
 3929SOL    HW223250   1.327   0.253  13.564 -1.9507  0.3497  0.6246
 3930SOL     OW23251   3.971   1.382   3.011 -0.5259  0.2452 -0.5818
 3930SOL    HW123252   3.889   1.417   2.975 -0.6858 -0.6478 -1.0655
 3930SOL    HW223253   3.961   1.292   2.981 -1.2290 -0.5963  2.1584
 3931SOL     OW23254   1.303   2.779  13.640 -0.0808 -0.1470 -0.3801
 3931SOL    HW123255   1.318   2.824  13.557 -1.3871 -0.2343 -0.6547
 3931SOL    HW223256   1.230   2.721  13.621  0.1547 -0.2091 -1.0846
 3932SOL     OW23257   4.084   0.870   1.818 -0.1985  0.4079 -0.5268
 3932SOL    HW123258   4.149   0.862   1.889 -1.1968 -1.3785  0.1723
 3932SOL    HW223259   4.031   0.945   1.845  0.0792  0.2434  0.4985
 3933SOL     OW23260   2.251   0.336   1.957 -0.0452 -0.2675  0.4432
 3933SOL    HW123261   2.195   0.401   1.914  0.0563  0.5026  1.4814
 3933SOL    HW223262   2.206   0.253   1.940 -0.5854 -0.6611  3.7298
 3934SOL     OW23263   0.323   4.700   9.414 -0.1065 -0.3222 -0.0539
 3934SOL    HW123264   0.260   4.699   9.342 -2.2909 -0.0956  1.8495
 3934SOL    HW223265   0.288   4.636   9.476 -2.0776  0.9955  0.1840
 3935SOL     OW23266   2.727   4.360   2.120  0.6033  0.4022  0.1565
 3935SOL    HW123267   2.685   4.400   2.044 -1.3663 -0.7179  0.6305
 3935SOL    HW223268   2.721   4.428   2.187  1.4886  1.4955 -0.9046
 3936SOL     OW23269   0.009   1.446   6.316 -0.4301  0.4861  0.4086
 3936SOL    HW123270   4.710   1.353   6.317  3.0126 -0.3782 -0.7294
 3936SOL    HW223271   4.653   1.477   6.359 -1.5168 -0.9158 -0.5944
 3937SOL     OW23272   1.541   1.820   3.323 -0.0795 -0.2147  0.7464
 3937SOL    HW123273   1.478   1.873   3.274 -1.2006  0.0750  2.5114
 3937SOL    HW223274   1.532   1.862   3.409 -1.5568  0.0901  0.4471
 3938SOL     OW23275   0.160   1.165   8.116  0.2952  0.8218 -0.2484
 3938SOL    HW123276   0.205   1.144   8.198 -1.0453  0.3486  0.3660
 3938SOL    HW223277   0.194   1.254   8.106  2.5617 -0.2688 -2.4757
 3939SOL     OW23278   1.358   0.166   5.269  0.1600 -0.2476  0.1482
 3939SOL    HW123279   1.339   0.190   5.178  0.7755 -3.1698 -0.7596
 3939SOL    HW223280   1.412   0.244   5.284 -0.2993  0.1882 -0.4450
 3940SOL     OW23281   0.890   0.464   9.205  0.6321  0.1332  0.7360
 3940SOL    HW123282   0.910   0.471   9.111  0.7416  2.5740  0.9393
 3940SOL    HW223283   0.923   0.551   9.227  3.0118  0.1290 -2.6477
 3941SOL     OW23284   0.863   3.434   3.074 -0.1905 -0.0070 -0.0493
 3941SOL    HW123285   0.878   3.442   2.980 -1.9754 -0.9196 -0.4212
 3941SOL    HW223286   0.849   3.340   3.085 -1.6733  0.4295  1.8424
 3942SOL     OW23287   0.991   4.306  12.668 -1.0907  0.5202 -0.3440
 3942SOL    HW123288   1.037   4.275  12.591  0.7474 -1.0690  1.3830
 3942SOL    HW223289   0.969   4.395  12.641 -3.3241  0.1248  0.1586
 3943SOL     OW23290   2.195   4.156   4.431 -0.4054  0.0519 -0.1401
 3943SOL    HW123291   2.273   4.101   4.418 -0.1627  0.1261  1.0122
 3943SOL    HW223292   2.225   4.244   4.410  2.2475 -0.5748  1.0151
 3944SOL     OW23293   2.691   1.958   2.845  0.7305  0.1387 -0.1724
 3944SOL    HW123294   2.718   1.891   2.907 -2.0820 -2.0256 -1.3026
 3944SOL    HW223295   2.658   1.902   2.774 -0.9826 -0.0639  0.7923
 3945SOL     OW23296   1.048   3.444   4.237  0.3711 -0.7028  0.4048
 3945SOL    HW123297   1.005   3.439   4.152  1.5136 -1.3986 -0.1302
 3945SOL    HW223298   0.999   3.388   4.297  0.1086 -2.4364 -1.4369
 3946SOL     OW23299   1.860   2.702   5.891  0.2035 -0.9527 -0.0180
 3946SOL    HW123300   1.904   2.768   5.838  0.1901 -0.6623  0.3379
 3946SOL    HW223301   1.867   2.754   5.971 -1.7106 -0.7154 -0.0020
 3947SOL     OW23302   1.245   2.941   8.869 -0.8133  0.2276 -0.0910
 3947SOL    HW123303   1.295   2.884   8.928 -1.9004 -2.3713 -1.7261
 3947SOL    HW223304   1.321   2.961   8.814 -1.3650  0.3825 -0.8045
 3948SOL     OW23305   2.563   4.351  11.600  0.0480 -0.0312  0.0121
 3948SOL    HW123306   2.524   4.264  11.601  1.6269 -0.7613 -1.0324
 3948SOL    HW223307   2.526   4.392  11.678 -0.2939 -1.2937  0.4997
 3949SOL     OW23308   0.940   2.633   7.399 -0.5594 -1.0249  0.4109
 3949SOL    HW123309   1.025   2.675   7.410  0.7039 -3.3723 -0.4423
 3949SOL    HW223310   0.904   2.632   7.488 -0.6548 -1.0299  0.3721
 3950SOL     OW23311   0.778   0.156   2.216 -0.2073 -0.1271  0.1038
 3950SOL    HW123312   0.829   0.205   2.280  0.9501  0.6555 -1.4120
 3950SOL    HW223313   0.820   0.190   2.137  0.6068 -1.6179 -0.1014
 3951SOL     OW23314   0.414   2.204   8.230 -0.2934  0.0247 -0.4514
 3951SOL    HW123315   0.399   2.171   8.141  0.1234  0.4868 -0.6939
 3951SOL    HW223316   0.367   2.138   8.280  1.0414  0.0951  0.8934
 3952SOL     OW23317   4.093   0.687   3.077  0.4563  0.0032  0.6865
 3952SOL    HW123318   4.117   0.750   3.009 -0.0353 -2.2030 -1.5246
 3952SOL    HW223319   4.000   0.708   3.082  0.0531 -1.7479  0.6413
 3953SOL     OW23320   0.661   0.084   3.767 -0.2618  0.4289 -0.0102
 3953SOL    HW123321   0.572   0.059   3.791  0.7625 -0.3177  3.0240
 3953SOL    HW223322   0.695   0.021   3.704  3.8296  1.3326  1.3013
 3954SOL     OW23323   3.609   0.280   7.991  0.1440 -0.0675 -0.3640
 3954SOL    HW123324   3.528   0.244   8.029  0.3950 -0.2327  0.0177
 3954SOL    HW223325   3.616   0.241   7.904  0.7747 -0.1678 -0.2695
 3955SOL     OW23326   0.728   2.465   6.000 -0.0246  0.3136 -0.6748
 3955SOL    HW123327   0.778   2.423   5.929 -1.2880 -0.4705 -1.0893
 3955SOL    HW223328   0.724   2.553   5.963 -0.7365  0.4166 -0.3472
 3956SOL     OW23329   4.640   2.086   3.448 -0.3398  0.4316 -0.2738
 3956SOL    HW123330   4.709   2.022   3.428  0.5963  1.7101 -1.1026
 3956SOL    HW223331   4.572   2.062   3.385  0.1049  0.0732 -0.6218
 3957SOL     OW23332   0.349   1.824  11.531  0.1177 -0.3562  0.6893
 3957SOL    HW123333   0.312   1.897  11.482  1.1181 -0.2979  0.0435
 3957SOL    HW223334   0.393   1.785  11.456 -0.0846  2.7919 -1.0426
 3958SOL     OW23335   4.272   1.139   2.181 -0.7129  0.6662 -0.4148
 3958SOL    HW123336   4.223   1.090   2.246 -1.1679  2.0507  0.2997
 3958SOL    HW223337   4.298   1.070   2.120 -0.5209  1.1862 -0.9349
 3959SOL     OW23338   0.524   4.301   2.422  0.0945 -0.1297 -0.1591
 3959SOL    HW123339   0.600   4.245   2.443  0.1060 -0.2354 -0.4858
 3959SOL    HW223340   0.554   4.377   2.471 -1.7813  0.3737  0.1973
 3960SOL     OW23341   0.071   2.301  10.712  0.8327 -0.4668 -0.5453
 3960SOL    HW123342   0.134   2.330  10.777 -0.3284  2.8088 -0.8733
 3960SOL    HW223343   0.043   2.213  10.735  0.0076  0.0439  0.3995
 3961SOL     OW23344   1.451   3.109   5.995 -0.1621 -0.0034  0.7593
 3961SOL    HW123345   1.403   3.109   5.911  1.2200 -0.6065 -0.0341
 3961SOL    HW223346   1.498   3.026   5.983  0.2992  0.2236  0.9968
 3962SOL     OW23347   1.893   3.245   5.682 -0.0246 -0.0096  0.2072
 3962SOL    HW123348   1.903   3.340   5.691 -1.7715  0.0965  1.0135
 3962SOL    HW223349   1.838   3.210   5.752  1.1533 -0.4794  0.8784
 3963SOL     OW23350   2.564   3.278  17.648  0.2137 -0.1675 -0.7813
 3963SOL    HW123351   2.604   3.211  17.593 -0.1244 -2.0428  1.2575
 3963SOL    HW223352   2.512   3.235   0.018 -1.2699  0.7768 -1.3109
 3964SOL     OW23353   1.834   2.744  12.781 -0.1405  0.2139 -0.0499
 3964SOL    HW123354   1.893   2.819  12.786  0.2192  0.1226 -2.7776
 3964SOL    HW223355   1.853   2.692  12.703  1.4538  2.0008 -0.8500
 3965SOL     OW23356   0.710   3.401   6.153 -0.1136 -0.2522  0.0426
 3965SOL    HW123357   0.700   3.445   6.237 -2.8547 -2.9375  1.1553
 3965SOL    HW223358   0.788   3.438   6.113 -0.0937 -0.2341  0.0998
 3966SOL     OW23359   0.248   4.568   2.429 -0.1433 -0.4315 -0.3596
 3966SOL    HW123360   0.265   4.474   2.423 -2.2744 -0.8116 -0.5598
 3966SOL    HW223361   0.258   4.594   2.337  0.3607  0.8529  0.0623
 3967SOL     OW23362   2.498   1.668   7.573 -0.1018  0.1811  0.0493
 3967SOL    HW123363   2.527   1.589   7.527  1.8923  2.1672 -2.1008
 3967SOL    HW223364   2.412   1.691   7.536  0.1947  0.3760 -0.5308
 3968SOL     OW23365   1.116   0.636   5.693 -0.6835  0.2365 -0.1953
 3968SOL    HW123366   1.149   0.655   5.605 -0.3795 -1.5274 -0.4574
 3968SOL    HW223367   1.093   0.727   5.712 -0.7993  0.3758 -1.0087
 3969SOL     OW23368   0.254   2.148   4.304  0.0116 -0.8935  0.2325
 3969SOL    HW123369   0.209   2.066   4.321 -0.7156  0.3146  4.0365
 3969SOL    HW223370   0.204   2.183   4.230  1.1444  1.1602  0.4107
 3970SOL     OW23371   3.407   3.125   6.579 -0.0192  0.1433  0.7266
 3970SOL    HW123372   3.399   3.163   6.666  0.6073 -1.2763  1.4131
 3970SOL    HW223373   3.328   3.073   6.566  1.5268 -1.7466 -1.3197
 3971SOL     OW23374   2.909   1.820  14.683 -1.0012  0.1711  0.0879
 3971SOL    HW123375   2.833   1.876  14.694 -1.6034 -1.2187  2.7883
 3971SOL    HW223376   2.924   1.824  14.588 -1.5309  1.8625  0.0744
 3972SOL     OW23377   0.135   1.507   2.520 -0.5754  0.4941  0.2579
 3972SOL    HW123378   0.068   1.505   2.588 -1.8187  0.6717 -0.9776
 3972SOL    HW223379   0.121   1.430   2.466 -2.0171  2.6145 -2.4045
 3973SOL     OW23380   0.926   3.693   9.330  0.2875 -0.2153 -0.5807
 3973SOL    HW123381   0.857   3.709   9.395  1.0433 -0.0954  0.2031
 3973SOL    HW223382   0.864   3.704   9.258  0.7997  0.6222 -0.8896
 3974SOL     OW23383   0.539   4.371   7.762  0.3018  0.2373 -0.5106
 3974SOL    HW123384   0.586   4.405   7.686  0.4081  0.3321 -0.4018
 3974SOL    HW223385   0.565   4.279   7.759  1.6277  0.6138 -0.3660
 3975SOL     OW23386   0.754   1.742   2.742 -0.1090  0.2758  0.3606
 3975SOL    HW123387   0.662   1.743   2.714 -0.9364 -1.3649  3.0240
 3975SOL    HW223388   0.793   1.672   2.690 -1.2458 -0.7648  0.8952
 3976SOL     OW23389   4.405   4.309   0.064  0.8467  0.1201 -0.2609
 3976SOL    HW123390   4.412   4.217   0.042  2.8369  0.0656  0.6245
 3976SOL    HW223391   4.479   4.311   0.124  1.4876  1.4433 -1.0929
 3977SOL     OW23392   2.588   0.805  13.567 -0.0617 -0.2016  0.5004
 3977SOL    HW123393   2.591   0.897  13.543  1.5593 -0.4725 -0.3686
 3977SOL    HW223394   2.577   0.799  13.662 -0.7472 -2.1048  0.3137
 3978SOL     OW23395   1.122   1.916   7.632  0.1067 -0.1285 -0.3046
 3978SOL    HW123396   1.058   1.847   7.650  0.0968  0.4358  1.7969
 3978SOL    HW223397   1.156   1.953   7.713  1.9088 -2.0344 -0.1884
 3979SOL     OW23398   4.255   4.154   8.556  0.0812 -0.1977  0.2052
 3979SOL    HW123399   4.229   4.073   8.601  2.0131 -0.1343  1.4330
 3979SOL    HW223400   4.342   4.123   8.531  0.3209  0.6280  0.0296
 3980SOL     OW23401   1.359   2.655   5.938  0.1462  0.3290  0.1796
 3980SOL    HW123402   1.432   2.663   5.999 -2.0923 -1.3453  3.0670
 3980SOL    HW223403   1.285   2.620   5.988  0.4429 -3.6770 -2.1376
 3981SOL     OW23404   4.019   1.936   8.817 -0.1578 -0.5575 -0.4317
 3981SOL    HW123405   4.086   1.869   8.831  0.4917 -0.2999 -2.3420
 3981SOL    HW223406   4.045   2.004   8.879  0.0924 -0.7555 -0.3182
 3982SOL     OW23407   1.026   2.544   3.896  0.0331 -0.2368  0.1498
 3982SOL    HW123408   0.967   2.596   3.842 -0.9205 -1.7505 -0.2722
 3982SOL    HW223409   0.990   2.557   3.984  1.6102 -1.2615  0.9460
 3983SOL     OW23410   2.465   0.563   9.058  0.2845  0.2673 -0.0858
 3983SOL    HW123411   2.418   0.481   9.074  0.2528  0.0403 -1.2775
 3983SOL    HW223412   2.418   0.615   9.122 -1.8482 -0.3283 -1.1670
 3984SOL     OW23413   0.037   3.246   8.142  0.4537 -0.0360  0.2763
 3984SOL    HW123414   0.125   3.208   8.142 -0.7811 -2.8531  1.7144
 3984SOL    HW223415   0.047   3.335   8.175  3.4131 -0.0705 -0.4725
 3985SOL     OW23416   1.995   3.867  16.965  0.1351 -0.5246 -0.0409
 3985SOL    HW123417   2.047   3.807  17.018 -0.9773 -2.2164 -0.8605
 3985SOL    HW223418   2.030   3.952  16.990  1.8594 -1.6228  1.3100
 3986SOL     OW23419   1.528   1.236   7.427  0.0550 -0.0819  0.5902
 3986SOL    HW123420   1.528   1.179   7.504 -3.0162 -0.9103 -0.0153
 3986SOL    HW223421   1.466   1.179   7.382  2.1655 -1.6564 -0.3111
 3987SOL     OW23422   2.724   4.018  17.528 -0.2591 -0.2955 -0.1037
 3987SOL    HW123423   2.718   3.940  17.583  3.4548 -0.1052  0.5928
 3987SOL    HW223424   2.787   3.981  17.466  1.4089  0.9494  0.8429
 3988SOL     OW23425   1.120   0.891   4.871 -0.4672 -0.2976 -0.1445
 3988SOL    HW123426   1.151   0.959   4.811  0.2394 -0.4636  0.0256
 3988SOL    HW223427   1.197   0.835   4.856  0.5959  1.8590 -2.5990
 3989SOL     OW23428   1.130   3.285   6.067  0.0761 -0.2131 -0.1976
 3989SOL    HW123429   1.137   3.189   6.070  0.0697 -0.2104 -0.1066
 3989SOL    HW223430   1.049   3.292   6.117  0.6806  2.0938  0.4431
 3990SOL     OW23431   2.164   1.405   2.046  0.0118 -0.2282  0.4427
 3990SOL    HW123432   2.174   1.485   1.995 -1.1595 -0.5504 -0.2920
 3990SOL    HW223433   2.241   1.398   2.102  0.9490 -0.2861 -0.8571
 3991SOL     OW23434   3.625   3.715   6.905  0.0150 -0.1590 -0.5888
 3991SOL    HW123435   3.701   3.744   6.855  0.2487  1.5650  0.7774
 3991SOL    HW223436   3.677   3.663   6.966 -0.9038  1.9020  1.9939
 3992SOL     OW23437   2.452   2.683   5.985 -0.6667 -0.5298  0.9159
 3992SOL    HW123438   2.360   2.687   6.011 -0.6162  2.4654  0.6712
 3992SOL    HW223439   2.478   2.591   5.987 -1.6303 -0.7872  1.5638
 3993SOL     OW23440   1.758   1.805   3.792 -0.4846 -0.2441 -0.0549
 3993SOL    HW123441   1.715   1.729   3.832 -3.2106  1.6740  0.6098
 3993SOL    HW223442   1.692   1.872   3.806 -1.3559 -1.1376  0.0840
 3994SOL     OW23443   0.790   4.185   4.355 -0.0121 -0.4028  0.2842
 3994SOL    HW123444   0.792   4.225   4.267 -1.3208  1.2800  1.0182
 3994SOL    HW223445   0.806   4.254   4.419 -0.1770 -2.1520  2.1897
 3995SOL     OW23446   0.873   1.263   2.837 -0.0789  0.1274  0.6436
 3995SOL    HW123447   0.809   1.298   2.774 -2.2273 -2.5435  1.3178
 3995SOL    HW223448   0.831   1.181   2.862  0.9596 -1.0177 -1.3693
 3996SOL     OW23449   0.718   0.735  14.365  0.0385  0.7713  0.1204
 3996SOL    HW123450   0.810   0.717  14.383 -0.0739 -0.9134 -1.0917
 3996SOL    HW223451   0.680   0.649  14.349  0.9199  0.2672  0.8208
 3997SOL     OW23452   1.060   0.706   8.607 -0.6013 -0.4721 -0.0077
 3997SOL    HW123453   1.070   0.614   8.630  0.2244 -0.0524  1.3524
 3997SOL    HW223454   1.087   0.753   8.686 -1.5205 -1.5506  0.9638
 3998SOL     OW23455   2.204   2.775   7.675 -0.0260 -0.3796 -0.0568
 3998SOL    HW123456   2.253   2.748   7.752  0.2295  1.8646  0.5624
 3998SOL    HW223457   2.112   2.779   7.700  0.7917 -0.3576  2.9531
 3999SOL     OW23458   2.943   3.053   4.258 -0.1545 -0.3986  0.5119
 3999SOL    HW123459   3.019   3.082   4.208 -1.3945  1.7116 -0.1785
 3999SOL    HW223460   2.906   2.986   4.201  1.1246 -1.3002  0.7638
 4000SOL     OW23461   0.412   4.455   7.062 -0.3268 -0.5372  0.6559
 4000SOL    HW123462   0.335   4.454   7.005 -0.5170 -0.2892  0.9066
 4000SOL    HW223463   0.482   4.451   6.997  0.0421  1.5115  0.9425
 4001SOL     OW23464   2.253   0.667   6.360 -0.2896  0.0184 -0.5218
 4001SOL    HW123465   2.288   0.744   6.407 -3.1729 -0.8075  2.9427
 4001SOL    HW223466   2.306   0.603   6.407 -1.6608  0.4035  1.5703
 4002SOL     OW23467   3.968   1.725   7.955 -0.3277 -0.0281 -0.2461
 4002SOL    HW123468   3.992   1.816   7.970  0.2111  0.0045 -1.3076
 4002SOL    HW223469   4.015   1.682   8.027 -1.7480  1.3746  1.5337
 4003SOL     OW23470   1.542   0.216   7.068 -0.0120 -0.3939 -0.0623
 4003SOL    HW123471   1.584   0.186   7.149  1.2486 -1.2218 -1.0325
 4003SOL    HW223472   1.454   0.178   7.073  0.7141 -2.1887 -0.9342
 4004SOL     OW23473   1.081   1.785  15.401 -0.4089  0.1167 -0.1842
 4004SOL    HW123474   1.119   1.810  15.317 -0.3428 -0.5087 -0.3406
 4004SOL    HW223475   1.025   1.711  15.376 -0.0546 -0.5688  1.0143
 4005SOL     OW23476   1.349   2.922  13.400  0.3984 -0.1882 -0.2226
 4005SOL    HW123477   1.289   2.984  13.359  0.1341  0.9270  1.8354
 4005SOL    HW223478   1.429   2.960  13.363  1.5443 -0.4957  1.9435
 4006SOL     OW23479   1.615   2.292   4.879  0.6041  0.2563  0.5557
 4006SOL    HW123480   1.634   2.385   4.889 -0.5961  0.6543 -0.8640
 4006SOL    HW223481   1.524   2.297   4.908  0.6876  3.3779  0.2489
 4007SOL     OW23482   0.807   1.941   6.348  0.0106 -0.0858  0.5403
 4007SOL    HW123483   0.799   1.953   6.442  0.0888 -0.2992  0.5752
 4007SOL    HW223484   0.724   1.965   6.308 -0.2082  0.4874  1.3396
 4008SOL     OW23485   1.190   1.039  13.946  0.0147 -0.0334 -0.2859
 4008SOL    HW123486   1.278   1.069  13.972  0.7272 -2.0302 -0.4144
 4008SOL    HW223487   1.142   1.113  13.983  2.4209  0.9412  0.8613
 4009SOL     OW23488   0.528   0.205   6.329 -0.0570  0.2633 -0.2356
 4009SOL    HW123489   0.524   0.126   6.383 -1.8018  0.5977  0.1114
 4009SOL    HW223490   0.621   0.227   6.332  0.4111 -1.7828  0.1456
 4010SOL     OW23491   2.397   1.013  12.099 -0.0692 -1.0343 -0.1618
 4010SOL    HW123492   2.432   1.097  12.129  1.0158 -1.5310 -0.0238
 4010SOL    HW223493   2.364   0.972  12.179 -2.1742 -1.3245 -1.2048
 4011SOL     OW23494   3.534   2.290  10.514  0.9535 -0.1364  0.1150
 4011SOL    HW123495   3.627   2.281  10.534  0.8624 -2.0512 -0.2928
 4011SOL    HW223496   3.524   2.309  10.421 -1.2874 -1.9488 -0.0304
 4012SOL     OW23497   2.384   1.308   6.651  0.5484 -0.4156 -0.9531
 4012SOL    HW123498   2.302   1.274   6.616  0.8871 -0.1414 -2.0177
 4012SOL    HW223499   2.423   1.349   6.574 -0.0491  1.5221 -0.2239
 4013SOL     OW23500   4.556   2.927  17.052  0.4776 -0.3101  0.3049
 4013SOL    HW123501   4.470   2.939  17.090 -0.5214 -0.8045 -1.7825
 4013SOL    HW223502   4.583   2.848  17.098 -1.1810 -1.9317 -1.5264
 4014SOL     OW23503   3.404   1.687   5.133  0.2584 -0.4286  0.5098
 4014SOL    HW123504   3.361   1.673   5.218  0.3318  2.0744  0.9765
 4014SOL    HW223505   3.392   1.782   5.126 -2.8633 -0.7793  0.8417
 4015SOL     OW23506   3.541   0.386   1.766  0.3163 -0.2648  0.8287
 4015SOL    HW123507   3.614   0.331   1.797  1.3165  1.5150  1.6470
 4015SOL    HW223508   3.470   0.322   1.764  1.2426 -1.2650 -0.2223
 4016SOL     OW23509   3.506   2.687  11.668  0.1991  0.2097 -0.0595
 4016SOL    HW123510   3.524   2.698  11.761 -3.6669 -0.9465  0.8074
 4016SOL    HW223511   3.486   2.777  11.642  0.1905  0.1340 -0.3100
 4017SOL     OW23512   2.549   1.119   2.339 -0.1744  0.6133 -0.1541
 4017SOL    HW123513   2.530   1.063   2.264 -1.5159 -0.5154  1.0313
 4017SOL    HW223514   2.460   1.127   2.373 -0.4857 -1.2238 -0.5670
 4018SOL     OW23515   1.781   2.332   3.948 -0.2744  0.6017 -0.4036
 4018SOL    HW123516   1.730   2.410   3.925  0.4168  0.9172 -0.8596
 4018SOL    HW223517   1.713   2.265   3.934  0.8829 -0.6198 -0.2465
 4019SOL     OW23518   4.312   1.492   6.574 -0.2393  0.3329 -0.0018
 4019SOL    HW123519   4.254   1.419   6.554  0.1964 -0.1404  0.4434
 4019SOL    HW223520   4.391   1.453   6.613 -0.7173 -1.5986 -0.9605
 4020SOL     OW23521   2.130   3.171   5.459  0.1117 -0.1498 -0.2410
 4020SOL    HW123522   2.110   3.262   5.435  0.7787 -0.0518 -0.4227
 4020SOL    HW223523   2.210   3.149   5.412  0.0896  2.3227 -1.4589
 4021SOL     OW23524   0.812   2.885   2.593  0.4476 -0.0554  0.8464
 4021SOL    HW123525   0.809   2.910   2.686  0.7773 -1.0374  1.1182
 4021SOL    HW223526   0.902   2.890   2.562 -0.2559  0.6692 -1.0791
 4022SOL     OW23527   1.675   2.974  12.971  0.0292 -0.9738  0.3901
 4022SOL    HW123528   1.706   2.941  13.055  2.6300 -2.2784 -1.1036
 4022SOL    HW223529   1.626   2.901  12.933 -2.7215  0.7791  0.4809
 4023SOL     OW23530   0.750   3.935   8.737 -0.0296  0.1247 -0.2214
 4023SOL    HW123531   0.775   3.888   8.817  4.3379 -0.5468 -1.9590
 4023SOL    HW223532   0.659   3.956   8.754 -0.8059 -4.4693  1.2607
 4024SOL     OW23533   2.848   2.256  10.843  0.0771 -0.3015 -0.4231
 4024SOL    HW123534   2.813   2.344  10.859 -0.1367 -0.5003  0.1766
 4024SOL    HW223535   2.823   2.242  10.751 -0.5814 -1.9877  0.0262
 4025SOL     OW23536   0.774   1.904   6.630  0.2924 -0.7068  0.1281
 4025SOL    HW123537   0.691   1.950   6.616  1.6712  0.9326 -2.4671
 4025SOL    HW223538   0.830   1.976   6.656  1.0980 -1.0159 -0.7764
 4026SOL     OW23539   4.436   4.627   4.243  0.1734  0.1645  0.4755
 4026SOL    HW123540   4.496   4.666   4.306  1.0412  1.9860 -1.4795
 4026SOL    HW223541   4.354   4.609   4.289  0.4926  2.1898  1.8091
 4027SOL     OW23542   2.019   4.677   4.293 -0.7390 -0.2386 -0.1520
 4027SOL    HW123543   1.936   4.640   4.263  0.0540 -1.4677 -0.8409
 4027SOL    HW223544   1.976   4.699   4.375 -2.0066 -0.1286 -0.8408
 4028SOL     OW23545   0.515   2.442   8.414  0.0906 -0.3963  0.1013
 4028SOL    HW123546   0.440   2.438   8.356  0.8220 -1.1094 -0.7809
 4028SOL    HW223547   0.490   2.374   8.477  0.4089  0.2596  0.9434
 4029SOL     OW23548   3.720   2.558   8.258 -0.2850  0.3529 -0.1800
 4029SOL    HW123549   3.792   2.571   8.319  1.7531 -1.1349 -2.2607
 4029SOL    HW223550   3.649   2.563   8.322  1.6682  0.2557  1.9883
 4030SOL     OW23551   1.696   2.803   7.368 -0.1293  0.0032  0.4545
 4030SOL    HW123552   1.730   2.724   7.326  2.0979  1.5570 -0.6349
 4030SOL    HW223553   1.641   2.767   7.438 -0.3684 -2.4615 -0.9920
 4031SOL     OW23554   0.100   0.403   8.212  0.4128 -0.2096 -0.7464
 4031SOL    HW123555   0.082   0.487   8.254 -0.5720 -1.8778  2.1755
 4031SOL    HW223556   0.009   0.374   8.200 -0.0758  0.9252  0.2655
 4032SOL     OW23557   1.396   2.177   8.758  0.5266 -0.3714  0.2613
 4032SOL    HW123558   1.404   2.198   8.665 -0.8263  0.2044  0.2680
 4032SOL    HW223559   1.408   2.083   8.760  1.9038 -0.1636  2.3446
 4033SOL     OW23560   1.179   3.669   8.659 -0.3638  0.1784  0.2201
 4033SOL    HW123561   1.214   3.727   8.591  0.0355  1.0026  1.1337
 4033SOL    HW223562   1.142   3.733   8.720  0.2328 -0.3980  1.1743
 4034SOL     OW23563   4.690   4.415   3.089  0.0983  0.0332  0.3429
 4034SOL    HW123564   0.005   4.490   3.045  0.9767 -1.0251 -0.6829
 4034SOL    HW223565   4.680   4.357   3.013 -1.0384  0.2008  0.3747
 4035SOL     OW23566   2.179   2.493  11.807 -0.1956  0.0686 -0.3465
 4035SOL    HW123567   2.270   2.522  11.792 -0.6425  1.0627 -1.1331
 4035SOL    HW223568   2.138   2.565  11.855 -0.2698  0.5618 -1.1501
 4036SOL     OW23569   4.674   0.041  12.017 -0.1537  0.0720 -0.0007
 4036SOL    HW123570   4.704   0.130  11.996  0.1145 -0.2814 -1.1219
 4036SOL    HW223571   4.650   0.017  11.928 -0.6816  2.6359 -0.5437
 4037SOL     OW23572   4.088   0.377   8.068  0.1974  0.0459 -0.6476
 4037SOL    HW123573   4.167   0.420   8.102  0.0672 -0.5413  0.4116
 4037SOL    HW223574   4.016   0.416   8.119  0.1533 -1.0171  0.0923
 4038SOL     OW23575   3.932   0.861   1.464  0.1305  0.2094  0.0376
 4038SOL    HW123576   3.872   0.832   1.533 -0.2746 -2.0143 -1.2711
 4038SOL    HW223577   3.984   0.930   1.505  0.4335  0.1557 -0.2553
 4039SOL     OW23578   4.128   0.313   1.774 -0.0225 -0.1909  0.5834
 4039SOL    HW123579   4.215   0.292   1.809  0.1109  0.0976  0.4326
 4039SOL    HW223580   4.132   0.407   1.755 -0.9696  0.2479  2.5826
 4040SOL     OW23581   0.886   1.062   3.054  0.0666 -0.3110 -0.1323
 4040SOL    HW123582   0.903   0.979   3.010 -0.7661 -2.1808  3.0214
 4040SOL    HW223583   0.852   1.026   3.136 -3.4139  0.7795 -1.1034
 4041SOL     OW23584   0.684   4.249   1.347  0.0123 -0.4733  0.0375
 4041SOL    HW123585   0.747   4.252   1.275 -0.3151  1.3969 -0.1675
 4041SOL    HW223586   0.631   4.174   1.319 -0.1366 -0.9947  1.7028
 4042SOL     OW23587   1.496   0.405   5.287  0.2083 -0.1065  0.5183
 4042SOL    HW123588   1.537   0.458   5.355  1.7345  1.0971 -1.3601
 4042SOL    HW223589   1.482   0.465   5.214 -0.6715  1.1500  1.7276
 4043SOL     OW23590   3.046   4.554  11.358  0.0259 -0.3676  0.1514
 4043SOL    HW123591   3.126   4.508  11.382  1.9956  1.7915 -2.2679
 4043SOL    HW223592   3.050   4.558  11.263 -0.2856  1.2127  0.1939
 4044SOL     OW23593   4.318   0.091   5.695 -0.4920  0.1901 -0.1832
 4044SOL    HW123594   4.404   0.126   5.672  0.2464 -2.9374 -2.2249
 4044SOL    HW223595   4.321   0.094   5.791 -1.7972 -2.7363 -0.0546
 4045SOL     OW23596   0.066   2.120   9.356  0.0712 -0.1190 -0.3112
 4045SOL    HW123597   0.030   2.090   9.439 -2.4061 -0.1656 -1.4185
 4045SOL    HW223598   4.713   2.142   9.304  1.8152 -0.1332 -2.9203
 4046SOL     OW23599   1.647   4.617  11.818  0.5065  0.3642  0.1868
 4046SOL    HW123600   1.719   4.678  11.809  1.5504 -1.1012 -1.3324
 4046SOL    HW223601   1.633   4.609  11.912 -0.2166 -0.1310  0.0477
 4047SOL     OW23602   4.449   1.578   6.355  0.2152  0.2557 -0.0385
 4047SOL    HW123603   4.389   1.563   6.428  1.5036  0.2172  1.0106
 4047SOL    HW223604   4.404   1.571   6.271  0.4928 -0.1267 -0.1548
 4048SOL     OW23605   4.453   3.791   4.245 -0.1302  0.0602  0.1756
 4048SOL    HW123606   4.499   3.859   4.294  0.0578  0.9649 -1.2658
 4048SOL    HW223607   4.394   3.756   4.312 -0.0648 -0.7433 -0.1897
 4049SOL     OW23608   2.123   2.033   5.830  0.6967 -0.1154  0.0648
 4049SOL    HW123609   2.127   1.970   5.758  1.9837  0.2393 -0.1792
 4049SOL    HW223610   2.060   1.982   5.881  0.2132 -1.6327 -2.0300
 4050SOL     OW23611   1.963   1.525  16.391  0.0287 -0.4445 -0.3205
 4050SOL    HW123612   1.959   1.452  16.329  2.9037 -0.7989 -0.1164
 4050SOL    HW223613   1.872   1.552  16.401  0.5543  0.9975  0.6679
 4051SOL     OW23614   4.148   2.568   2.410  0.1856 -0.1318  0.4200
 4051SOL    HW123615   4.090   2.499   2.378 -0.3432  0.2197  0.6218
 4051SOL    HW223616   4.188   2.595   2.327 -0.5841 -0.5505 -0.0859
 4052SOL     OW23617   4.059   2.649   8.701 -0.5192  0.3741  0.6211
 4052SOL    HW123618   3.976   2.692   8.724 -1.0590 -0.5439  0.4138
 4052SOL    HW223619   4.084   2.592   8.774 -2.2976 -0.6125  0.4636
 4053SOL     OW23620   0.263   4.320   2.803  0.7149 -0.3145  0.4233
 4053SOL    HW123621   0.328   4.282   2.744 -1.8304 -1.1368 -1.9042
 4053SOL    HW223622   0.306   4.382   2.861 -0.1649  2.5676 -1.9826
 4054SOL     OW23623   0.810   4.020   3.098  0.5814 -0.5441  0.0889
 4054SOL    HW123624   0.745   4.069   3.048  0.9322  0.2517  0.4100
 4054SOL    HW223625   0.814   4.089   3.164  2.3374  0.8150 -1.4306
 4055SOL     OW23626   1.992   4.231   7.566  0.3720  0.0544 -0.4022
 4055SOL    HW123627   1.952   4.314   7.589  0.6088 -0.4990  2.0744
 4055SOL    HW223628   1.918   4.176   7.541 -0.1092  0.0774  0.9748
 4056SOL     OW23629   0.858   4.407   4.151  0.2980  0.1429 -0.0673
 4056SOL    HW123630   0.835   4.321   4.116  0.9618 -0.5129  1.1025
 4056SOL    HW223631   0.869   4.454   4.068  2.2284 -0.8616 -0.3747
 4057SOL     OW23632   0.751   1.319   6.829  0.5038  0.0591 -0.1824
 4057SOL    HW123633   0.752   1.371   6.749 -2.8389 -1.8199 -1.4346
 4057SOL    HW223634   0.832   1.333   6.877  0.5366 -0.1209 -0.1826
 4058SOL     OW23635   3.441   3.113   5.204 -0.3506 -0.1580 -0.1667
 4058SOL    HW123636   3.499   3.142   5.133 -0.9814  0.2920 -0.4961
 4058SOL    HW223637   3.435   3.018   5.197 -1.8679 -0.1409  1.1110
 4059SOL     OW23638   1.269   0.726   3.249  0.7307 -0.1973 -0.3330
 4059SOL    HW123639   1.239   0.816   3.265  0.4792 -0.2795 -0.3323
 4059SOL    HW223640   1.363   0.732   3.235  0.6138  1.2800 -0.5326
 4060SOL     OW23641   2.963   4.023  16.141  0.3608 -0.7388 -0.6523
 4060SOL    HW123642   3.015   3.943  16.150 -0.0392 -0.7812  1.1976
 4060SOL    HW223643   2.873   3.995  16.158  0.6865 -1.0343  0.5704
 4061SOL     OW23644   4.461   4.299   5.135  0.5035 -0.6996  0.6954
 4061SOL    HW123645   4.532   4.275   5.195  0.5994 -0.0351  0.8396
 4061SOL    HW223646   4.463   4.225   5.073 -0.2451  1.1516 -1.5547
 4062SOL     OW23647   1.184   3.979   6.633  0.5586  0.5341 -0.1173
 4062SOL    HW123648   1.224   4.031   6.563 -0.7266 -0.3425 -1.5137
 4062SOL    HW223649   1.092   4.000   6.615  1.0580  0.3314 -2.8721
 4063SOL     OW23650   4.386   0.993   9.983 -0.2597  0.1291  0.0481
 4063SOL    HW123651   4.458   1.034   9.934  1.7287 -1.7634  1.3825
 4063SOL    HW223652   4.435   0.966  10.061  3.1063  0.7004 -1.8482
 4064SOL     OW23653   3.752   2.462  16.072 -0.6699 -0.1245 -0.3744
 4064SOL    HW123654   3.725   2.522  16.142  2.0020  0.1821  0.4217
 4064SOL    HW223655   3.846   2.481  16.070 -0.2801 -2.0957 -0.1461
 4065SOL     OW23656   4.173   4.152  17.554 -0.4096  0.0971  0.8892
 4065SOL    HW123657   4.197   4.059  17.554  3.1997  1.0223 -0.4578
 4065SOL    HW223658   4.124   4.154  17.472 -0.5666  1.3470  1.0207
 4066SOL     OW23659   0.931   1.907   4.023 -0.7068  0.2388 -0.3267
 4066SOL    HW123660   0.863   1.952   3.973 -0.3470 -1.0032 -1.9476
 4066SOL    HW223661   0.881   1.878   4.099  0.7389  1.5633  1.1294
 4067SOL     OW23662   1.362   1.020   7.329 -0.7105 -0.2585 -0.7823
 4067SOL    HW123663   1.358   0.980   7.416  2.9083  2.8167  0.7369
 4067SOL    HW223664   1.269   1.029   7.306 -0.5815  0.6746 -0.9156
 4068SOL     OW23665   0.459   0.138  10.402 -0.7364  0.5570 -0.1667
 4068SOL    HW123666   0.553   0.143  10.418 -0.6433  0.4302 -0.6900
 4068SOL    HW223667   0.434   0.050  10.432  0.8953  0.4107  0.7461
 4069SOL     OW23668   0.643   1.375  12.691 -0.3006  0.3447 -0.2498
 4069SOL    HW123669   0.651   1.285  12.659 -1.3438 -0.0372  0.5456
 4069SOL    HW223670   0.625   1.365  12.785  1.6115 -3.3119 -0.2772
 4070SOL     OW23671   2.419   2.226  12.531 -0.1154 -0.1679 -0.0426
 4070SOL    HW123672   2.369   2.300  12.497  1.1261  0.0511 -1.3923
 4070SOL    HW223673   2.385   2.159  12.472 -0.1117 -1.7652  1.7630
 4071SOL     OW23674   1.633   4.236   5.326 -0.1261  0.4873 -0.3539
 4071SOL    HW123675   1.664   4.299   5.261 -0.0612 -1.5293 -2.2816
 4071SOL    HW223676   1.539   4.233   5.306  0.0076  1.5492 -1.1121
 4072SOL     OW23677   2.795   1.970   3.705  0.0504  0.1677  0.2894
 4072SOL    HW123678   2.746   1.888   3.701 -0.6233  0.6163 -0.7904
 4072SOL    HW223679   2.750   2.026   3.642 -0.5735  0.6269  1.1402
 4073SOL     OW23680   0.933   2.731   3.646  0.0867 -0.0892 -0.2727
 4073SOL    HW123681   0.951   2.809   3.594 -1.3890 -0.1931 -0.9446
 4073SOL    HW223682   0.879   2.683   3.582 -1.9617  2.3945 -0.4253
 4074SOL     OW23683   0.033   2.461   2.266  0.4868  0.1116  0.0276
 4074SOL    HW123684   0.012   2.473   2.174  1.3746  1.4962  0.0270
 4074SOL    HW223685   0.059   2.548   2.294 -0.6979  0.9781 -1.5924
 4075SOL     OW23686   1.265   2.383  11.922  0.1153 -0.2620  0.0475
 4075SOL    HW123687   1.354   2.375  11.956 -0.2072 -0.9083  0.7697
 4075SOL    HW223688   1.222   2.352  12.002 -2.3056  0.2544 -1.0502
 4076SOL     OW23689   4.604   0.806  11.526  0.1064  0.2411 -0.9505
 4076SOL    HW123690   4.553   0.746  11.471  0.6024 -0.7207 -0.3527
 4076SOL    HW223691   4.692   0.788  11.494  1.2235  0.8261  1.8573
 4077SOL     OW23692   1.282   3.740   4.954 -0.0694 -0.5452  0.3306
 4077SOL    HW123693   1.230   3.723   5.032 -0.9991 -2.4587 -0.7094
 4077SOL    HW223694   1.364   3.768   4.996 -0.0516  1.4290 -1.0236
 4078SOL     OW23695   2.662   0.564   2.016 -0.2432 -1.1315 -0.2353
 4078SOL    HW123696   2.715   0.486   1.997 -0.8744 -1.6246  0.0254
 4078SOL    HW223697   2.572   0.532   2.013  0.1513 -2.2537 -0.2771
 4079SOL     OW23698   4.574   2.507   3.733  0.2456  0.3777 -0.2330
 4079SOL    HW123699   4.636   2.451   3.688  1.9501  1.8423  0.2768
 4079SOL    HW223700   4.539   2.449   3.800 -2.6714  3.3981  0.8804
 4080SOL     OW23701   1.296   0.355   7.385 -0.1214  1.1902  0.0225
 4080SOL    HW123702   1.346   0.335   7.465  0.6673 -0.0296 -0.7732
 4080SOL    HW223703   1.209   0.322   7.408 -0.5499  1.0948 -1.7784
 4081SOL     OW23704   2.365   2.121  13.825  0.2646 -0.1506  0.0784
 4081SOL    HW123705   2.395   2.030  13.828  1.7491  0.2920 -1.7507
 4081SOL    HW223706   2.280   2.111  13.782  1.2909 -0.2765 -1.8862
 4082SOL     OW23707   1.309   2.844   5.200  0.0841 -0.0063 -0.2456
 4082SOL    HW123708   1.349   2.798   5.126  2.4896  0.0767  1.0203
 4082SOL    HW223709   1.290   2.928   5.158 -0.7609  0.3529  0.8453
 4083SOL     OW23710   1.863   1.608  13.149  0.1396 -0.1244  0.1917
 4083SOL    HW123711   1.818   1.682  13.108  0.0120 -0.0980  0.3794
 4083SOL    HW223712   1.839   1.633  13.238  1.6654  0.5032  0.4309
 4084SOL     OW23713   0.317   0.017   8.545  0.2848  0.1954 -0.4539
 4084SOL    HW123714   0.284   0.104   8.523  0.1278  0.0216 -0.9038
 4084SOL    HW223715   0.400   0.028   8.499  0.2676 -0.2640 -0.5901
 4085SOL     OW23716   4.000   2.215   9.687 -0.0665  0.1074 -0.2529
 4085SOL    HW123717   4.011   2.128   9.649 -0.0419 -0.7191  1.6459
 4085SOL    HW223718   4.042   2.272   9.621 -0.2776  1.3030  0.6393
 4086SOL     OW23719   3.015   2.770  16.891  0.1010 -0.0539  0.0595
 4086SOL    HW123720   2.986   2.688  16.932 -0.6550  0.6601  0.9557
 4086SOL    HW223721   3.058   2.814  16.965 -1.8319  0.7082  0.7319
 4087SOL     OW23722   0.015   0.492   0.477 -0.3953  0.0853 -0.4910
 4087SOL    HW123723   0.080   0.457   0.538 -1.2500 -0.8226 -0.1113
 4087SOL    HW223724   0.058   0.569   0.439  0.3423 -0.7715 -1.4011
 4088SOL     OW23725   3.490   4.255   7.814  0.2087  0.4477  0.1136
 4088SOL    HW123726   3.443   4.250   7.898 -0.1633 -1.9976 -0.2496
 4088SOL    HW223727   3.498   4.349   7.797  0.6550  0.2287 -0.8801
 4089SOL     OW23728   3.416   0.765   3.182  0.1012 -0.2862  0.4513
 4089SOL    HW123729   3.428   0.727   3.269  3.8775  1.9901  0.9231
 4089SOL    HW223730   3.331   0.810   3.183  0.8744  1.2667 -2.4401
 4090SOL     OW23731   2.023   0.739   3.930 -0.0365 -0.3118  0.2424
 4090SOL    HW123732   1.938   0.784   3.931  0.6248  0.9559 -0.7543
 4090SOL    HW223733   2.079   0.791   3.987  2.0333  0.0493 -2.0946
 4091SOL     OW23734   3.095   0.672   3.745 -0.5986 -0.1115  0.7319
 4091SOL    HW123735   3.086   0.735   3.674  0.6416 -1.6402 -0.7751
 4091SOL    HW223736   3.155   0.606   3.710 -1.5685 -2.5578  3.6243
 4092SOL     OW23737   0.487   0.653  15.701 -0.3554 -0.2494  0.2399
 4092SOL    HW123738   0.400   0.624  15.673 -0.7432  0.9331  0.2085
 4092SOL    HW223739   0.540   0.574  15.698  0.7144  0.4229  1.4102
 4093SOL     OW23740   4.580   1.415   8.855 -0.4307 -0.0479 -0.5161
 4093SOL    HW123741   4.676   1.418   8.847 -0.2040 -1.3946  1.7050
 4093SOL    HW223742   4.555   1.327   8.884 -2.0810  0.1264 -1.4139
 4094SOL     OW23743   4.512   3.038   4.786 -0.0983  0.0345  0.6216
 4094SOL    HW123744   4.494   2.945   4.770  0.3753 -0.1063  0.9192
 4094SOL    HW223745   4.426   3.065   4.819 -0.0577  0.6276  0.2482
 4095SOL     OW23746   0.692   1.991  16.000  0.3492 -0.4669 -0.2643
 4095SOL    HW123747   0.750   1.926  15.960 -1.4098 -1.9063 -0.4394
 4095SOL    HW223748   0.706   1.969  16.092 -2.0229  2.1243  0.7106
 4096SOL     OW23749   4.461   2.700   0.987  0.1290 -0.1402 -0.2523
 4096SOL    HW123750   4.502   2.669   1.067 -1.2092  0.0052  0.4744
 4096SOL    HW223751   4.398   2.762   1.024  0.6983  0.3702 -0.1484
 4097SOL     OW23752   3.308   0.665   7.126 -0.0559  0.0968 -0.4357
 4097SOL    HW123753   3.372   0.731   7.100 -1.7319  2.2616  0.9201
 4097SOL    HW223754   3.365   0.589   7.113  0.1722 -0.0679  1.5799
 4098SOL     OW23755   0.979   2.332   4.228 -0.2152  0.1734 -0.1314
 4098SOL    HW123756   0.984   2.346   4.323  2.1533 -0.3852 -0.1597
 4098SOL    HW223757   0.887   2.346   4.207 -0.1383  0.6766 -0.1435
 4099SOL     OW23758   0.243   2.593   1.888  0.6160 -0.3727  0.2211
 4099SOL    HW123759   0.302   2.618   1.818 -0.2266 -0.3279 -0.4800
 4099SOL    HW223760   0.214   2.681   1.914  0.4565 -0.0005 -1.2199
 4100SOL     OW23761   1.288   2.906  16.060  0.1266  0.2753  0.5218
 4100SOL    HW123762   1.287   2.846  15.986  0.9608  0.5795  0.2645
 4100SOL    HW223763   1.201   2.886  16.094 -0.3910  0.7318 -0.5253
 4101SOL     OW23764   1.985   4.644   1.877 -0.2610 -0.2375  0.0991
 4101SOL    HW123765   1.893   4.670   1.883 -0.0484  0.5247  0.0828
 4101SOL    HW223766   1.982   4.607   1.788  0.9558 -2.1264  0.8394
 4102SOL     OW23767   2.856   3.801  11.875 -0.5239  0.0268 -0.2828
 4102SOL    HW123768   2.785   3.862  11.856 -0.5519  0.1345  0.1753
 4102SOL    HW223769   2.923   3.823  11.810  0.2028 -0.5256  0.2740
 4103SOL     OW23770   3.485   3.863   5.247 -0.1808 -0.3494 -0.3627
 4103SOL    HW123771   3.483   3.778   5.204  1.9264 -0.1398 -0.8837
 4103SOL    HW223772   3.497   3.922   5.172  0.5117 -0.8390 -0.6335
 4104SOL     OW23773   0.273   3.561  16.372  0.1955  0.0795 -0.3958
 4104SOL    HW123774   0.205   3.600  16.428 -0.2496  0.4739 -1.2168
 4104SOL    HW223775   0.347   3.593  16.425  0.7777 -1.1197 -0.5059
 4105SOL     OW23776   3.965   4.416   5.653  0.1018 -0.1062 -0.1139
 4105SOL    HW123777   3.951   4.344   5.592 -1.7980 -0.3336  0.5916
 4105SOL    HW223778   4.047   4.451   5.619  0.7336 -2.5390 -1.1215
 4106SOL     OW23779   1.729   1.902  10.544 -0.3291  0.1891 -0.3595
 4106SOL    HW123780   1.786   1.949  10.483  4.3796 -2.7689  1.7797
 4106SOL    HW223781   1.793   1.856  10.599  0.5509  0.1573 -1.4083
 4107SOL     OW23782   1.690   3.993  16.927  0.0374 -0.1515 -0.2467
 4107SOL    HW123783   1.634   3.991  16.849  0.8296 -0.4104 -0.8173
 4107SOL    HW223784   1.765   3.938  16.902 -0.7839 -0.9882 -0.8533
 4108SOL     OW23785   1.345   2.264   2.155 -0.0663  0.7810 -0.4616
 4108SOL    HW123786   1.362   2.228   2.068  0.6811 -0.6492  0.2711
 4108SOL    HW223787   1.411   2.332   2.169 -0.0415  0.4339  1.1227
 4109SOL     OW23788   4.528   0.335   8.266 -0.3397  0.0509  0.3601
 4109SOL    HW123789   4.511   0.241   8.269  2.3396 -0.4397 -0.3609
 4109SOL    HW223790   4.505   0.358   8.356 -0.0930 -1.2990  0.7582
 4110SOL     OW23791   1.700   3.809   2.302 -0.2678  0.3331 -0.6296
 4110SOL    HW123792   1.682   3.902   2.293 -0.6378  0.4274  1.0931
 4110SOL    HW223793   1.741   3.812   2.388  2.0178 -0.9036 -1.6497
 4111SOL     OW23794   0.625   1.910   8.075  0.0402  0.7935  0.6686
 4111SOL    HW123795   0.599   1.874   8.160 -0.7669 -1.0605 -0.3782
 4111SOL    HW223796   0.553   1.973   8.072 -1.1044 -0.6545 -2.2044
 4112SOL     OW23797   0.175   1.550  13.520 -0.7231 -0.3345  0.0634
 4112SOL    HW123798   0.100   1.567  13.577 -1.4995 -2.5725 -0.3117
 4112SOL    HW223799   0.164   1.603  13.441 -1.9424 -0.4485  0.1506
 4113SOL     OW23800   4.165   2.409   7.573 -0.8020  0.3809  0.4444
 4113SOL    HW123801   4.163   2.433   7.480 -0.2519  1.2523  0.6497
 4113SOL    HW223802   4.090   2.464   7.595 -0.8916  0.2732  0.4010
 4114SOL     OW23803   4.108   1.063   6.391  0.3197 -0.0460  0.4054
 4114SOL    HW123804   4.131   1.017   6.310  0.3431  0.8888 -0.1164
 4114SOL    HW223805   4.177   1.035   6.452  0.0898  0.4573  0.8938
 4115SOL     OW23806   0.831   4.348   2.746  0.0758 -0.1321  0.1361
 4115SOL    HW123807   0.777   4.408   2.797  1.4295 -0.2713  1.7618
 4115SOL    HW223808   0.883   4.314   2.819  0.8374  0.5843 -0.0797
 4116SOL     OW23809   4.221   2.107   5.451 -0.6185 -0.2083  0.2728
 4116SOL    HW123810   4.283   2.128   5.381  0.0547  1.9803  1.5211
 4116SOL    HW223811   4.174   2.189   5.469  1.2890  1.6115 -2.9272
 4117SOL     OW23812   3.303   0.636  12.888  0.3953 -0.3163 -0.8230
 4117SOL    HW123813   3.339   0.658  12.803  0.2957 -0.9500 -1.0280
 4117SOL    HW223814   3.210   0.630  12.865  0.4453 -0.2773 -1.0358
 4118SOL     OW23815   3.917   1.589   6.790  0.3520  0.4917  0.0006
 4118SOL    HW123816   3.878   1.502   6.789 -1.2294  1.2194 -0.8398
 4118SOL    HW223817   3.945   1.611   6.700 -2.5550  1.9936 -0.5331
 4119SOL     OW23818   3.266   0.756  16.708 -0.0452  0.0384 -0.1077
 4119SOL    HW123819   3.290   0.823  16.644  1.2733  1.0914  1.4957
 4119SOL    HW223820   3.231   0.689  16.649  0.0820 -0.2425  0.1387
 4120SOL     OW23821   4.608   0.120   0.962 -0.3473  0.2725  0.0422
 4120SOL    HW123822   4.649   0.179   0.899 -2.2063  2.6156  1.0388
 4120SOL    HW223823   4.683   0.074   1.000 -0.5297  0.9790  1.2884
 4121SOL     OW23824   1.411   2.905   2.256  0.2835  0.7211 -0.1080
 4121SOL    HW123825   1.457   2.985   2.280  1.9891 -0.9195  2.0376
 4121SOL    HW223826   1.480   2.855   2.211 -0.0771  0.9049 -0.8707
 4122SOL     OW23827   2.346   2.774   8.820 -0.1357 -0.3974 -0.3957
 4122SOL    HW123828   2.418   2.756   8.881 -0.0077  1.0743 -0.1071
 4122SOL    HW223829   2.271   2.777   8.880  0.9970  1.0718  0.9898
 4123SOL     OW23830   2.241   1.858   1.259 -0.1531 -0.0450  0.0138
 4123SOL    HW123831   2.220   1.774   1.219  2.8358  0.1457 -1.9604
 4123SOL    HW223832   2.335   1.864   1.276 -0.0511 -1.3563 -0.1426
 4124SOL     OW23833   4.521   4.139  13.433 -0.4528 -0.0434 -0.2408
 4124SOL    HW123834   4.609   4.109  13.412 -0.0152  0.7601  0.4521
 4124SOL    HW223835   4.535   4.227  13.469  1.8053 -1.0102  1.2608
 4125SOL     OW23836   1.628   2.271   1.882 -0.2015  0.7985  0.4506
 4125SOL    HW123837   1.540   2.232   1.880  0.1561 -0.0604  1.1077
 4125SOL    HW223838   1.628   2.318   1.799  0.5473 -3.5795 -2.0192
 4126SOL     OW23839   4.304   4.686   1.599  0.1859 -0.1416 -0.0799
 4126SOL    HW123840   4.229   0.020   1.586 -0.2432 -0.0333  2.9390
 4126SOL    HW223841   4.268   4.600   1.620 -0.1720 -0.4020 -1.7848
 4127SOL     OW23842   2.615   0.722   8.096  0.3899 -0.0300  0.2287
 4127SOL    HW123843   2.545   0.659   8.109  0.2479  0.2225  0.6959
 4127SOL    HW223844   2.580   0.755   8.014 -0.9538 -1.5468  0.2024
 4128SOL     OW23845   2.375   0.430  11.057  0.0642  0.5455 -0.2022
 4128SOL    HW123846   2.367   0.355  11.116 -4.4879  1.2613  0.0877
 4128SOL    HW223847   2.458   0.461  11.094 -0.1791  0.7023  0.2148
 4129SOL     OW23848   2.175   2.742   6.032 -0.0432 -0.4978 -0.5797
 4129SOL    HW123849   2.150   2.820   6.082  0.0134 -0.1962 -1.0247
 4129SOL    HW223850   2.179   2.777   5.943 -1.9064  0.6966 -0.2080
 4130SOL     OW23851   4.294   2.004   3.783  0.7314  0.0403 -0.2671
 4130SOL    HW123852   4.246   2.056   3.719 -1.1049  1.9950  2.7100
 4130SOL    HW223853   4.380   2.018   3.744  0.8435  0.2316  0.0493
 4131SOL     OW23854   1.370   4.243   4.589 -0.3499 -0.0066  0.3798
 4131SOL    HW123855   1.332   4.331   4.596 -1.0525 -0.3060  0.2924
 4131SOL    HW223856   1.293   4.195   4.617 -0.8890 -0.0249 -1.1397
 4132SOL     OW23857   0.037   3.666  17.513 -0.4652  0.4350  0.0043
 4132SOL    HW123858   0.125   3.634  17.534 -1.4904 -1.8569  0.7105
 4132SOL    HW223859   4.714   3.589  17.484  0.9061 -0.8787  1.2598
 4133SOL     OW23860   2.047   0.883   2.517 -0.6152  0.1555  0.4965
 4133SOL    HW123861   2.102   0.808   2.495 -0.0157  0.9680 -0.7221
 4133SOL    HW223862   1.961   0.857   2.483 -0.1040  0.1859 -0.8182
 4134SOL     OW23863   2.222   2.722   2.393  0.0010 -0.2491 -0.1562
 4134SOL    HW123864   2.235   2.805   2.347 -0.2425 -0.1907 -0.1163
 4134SOL    HW223865   2.127   2.718   2.403 -0.1869  1.7378 -1.0295
 4135SOL     OW23866   0.964   4.665  13.030 -0.1516 -0.0279 -0.0615
 4135SOL    HW123867   0.954   4.658  13.125 -2.5473  4.3796 -0.0044
 4135SOL    HW223868   0.880   4.630  13.002 -0.1200 -0.7227  0.7073
 4136SOL     OW23869   0.891   4.474   3.896  0.0607 -0.1325  0.0818
 4136SOL    HW123870   0.861   4.439   3.813 -0.7197 -2.9752  1.5558
 4136SOL    HW223871   0.981   4.496   3.873  0.3630 -0.2374  1.1524
 4137SOL     OW23872   1.778   4.114   8.228 -0.0440  0.1184  0.4700
 4137SOL    HW123873   1.747   4.084   8.143 -0.8706  2.1013  0.0687
 4137SOL    HW223874   1.708   4.175   8.250  1.2604  0.9845  2.2316
 4138SOL     OW23875   0.452   4.185  11.269 -0.6217  0.1768 -0.1925
 4138SOL    HW123876   0.531   4.184  11.323  0.5797 -1.4562 -1.9691
 4138SOL    HW223877   0.405   4.116  11.317 -0.3682  1.3505  1.7368
 4139SOL     OW23878   1.937   2.813   9.725  0.3293  0.3217 -0.0127
 4139SOL    HW123879   1.957   2.905   9.741 -1.9000  0.5995  1.1083
 4139SOL    HW223880   1.963   2.764   9.803 -0.0392 -1.6164 -1.1165
 4140SOL     OW23881   2.255   2.265  12.187 -0.1512 -0.1641 -0.2507
 4140SOL    HW123882   2.343   2.273  12.153 -0.0720 -1.6253 -0.3628
 4140SOL    HW223883   2.236   2.354  12.219 -2.0845 -0.3615 -0.8024
 4141SOL     OW23884   3.165   2.521   6.160  0.5334 -0.0747  0.1443
 4141SOL    HW123885   3.084   2.564   6.189 -0.0155 -0.9046 -0.1537
 4141SOL    HW223886   3.144   2.524   6.066 -1.3393 -2.0986  0.4977
 4142SOL     OW23887   0.529   1.067   5.195  0.0074 -0.0724  0.2515
 4142SOL    HW123888   0.511   0.979   5.229  1.7985 -1.0009 -1.1853
 4142SOL    HW223889   0.570   1.110   5.269 -1.9441  0.8870  0.7773
 4143SOL     OW23890   1.529   0.347   6.677 -0.1436 -0.4200  0.5410
 4143SOL    HW123891   1.497   0.259   6.695 -1.8419  0.4897  2.0323
 4143SOL    HW223892   1.545   0.343   6.583  1.9766  1.8219  0.7890
 4144SOL     OW23893   1.286   1.132   7.987  0.1427  0.3528 -0.3898
 4144SOL    HW123894   1.287   1.228   7.986  2.4995  0.2979 -1.6558
 4144SOL    HW223895   1.251   1.124   7.898  0.4477  0.5942 -0.5291
 4145SOL     OW23896   3.457   0.180   3.819 -0.3537  0.5281 -0.3369
 4145SOL    HW123897   3.392   0.201   3.752 -1.0299  2.3259  0.8856
 4145SOL    HW223898   3.460   0.259   3.872 -2.7066 -1.1192  2.2732
 4146SOL     OW23899   3.848   0.335   4.339  0.4254  0.4437  0.8076
 4146SOL    HW123900   3.877   0.371   4.255 -1.4349  0.3658  0.1275
 4146SOL    HW223901   3.770   0.289   4.306  2.5019 -1.7638 -0.9885
 4147SOL     OW23902   3.596   1.961   3.332 -0.7032  0.1312 -0.0190
 4147SOL    HW123903   3.641   1.930   3.410  1.1699  1.7553 -0.4560
 4147SOL    HW223904   3.507   1.930   3.346  0.4628 -3.2540 -0.2094
 4148SOL     OW23905   1.509   3.987  16.044  0.6864 -0.2134 -0.0026
 4148SOL    HW123906   1.482   3.901  16.074 -0.9609  0.4990  0.5349
 4148SOL    HW223907   1.511   3.987  15.948 -1.2567  1.3809 -0.0534
 4149SOL     OW23908   1.931   0.528   2.882  1.0719 -0.2627 -0.1292
 4149SOL    HW123909   1.845   0.571   2.885  0.3838 -1.6080 -0.7626
 4149SOL    HW223910   1.927   0.477   2.964 -2.5635 -1.5793 -1.1118
 4150SOL     OW23911   3.420   1.119  11.301 -0.1874 -0.3072 -0.1249
 4150SOL    HW123912   3.466   1.038  11.325  0.3569  0.3772  1.1271
 4150SOL    HW223913   3.343   1.092  11.251 -1.5986  0.8308  1.4338
 4151SOL     OW23914   3.311   2.276   8.290 -0.6314 -0.0726  0.4893
 4151SOL    HW123915   3.385   2.285   8.230 -1.9339  0.7705 -1.0163
 4151SOL    HW223916   3.236   2.265   8.231 -1.2480  1.8992  0.8997
 4152SOL     OW23917   4.220   1.961   8.257 -0.3083  0.2505 -0.1319
 4152SOL    HW123918   4.150   1.985   8.317  0.7978  2.0183  0.4525
 4152SOL    HW223919   4.274   2.040   8.256  0.7568 -0.5025 -2.8116
 4153SOL     OW23920   4.592   2.001   3.721  0.0140 -0.2230 -1.1062
 4153SOL    HW123921   4.626   2.077   3.768 -1.3876 -0.1953 -0.1414
 4153SOL    HW223922   4.613   2.024   3.630  1.5692  1.8359 -0.2124
 4154SOL     OW23923   0.714   4.003  11.723 -0.7077  0.5379  0.3458
 4154SOL    HW123924   0.809   3.998  11.730 -0.6947 -0.0836 -0.3325
 4154SOL    HW223925   0.693   4.048  11.805  3.0812  1.0464  1.0128
 4155SOL     OW23926   4.692   0.545  12.046  0.3091  0.1236  0.3734
 4155SOL    HW123927   4.613   0.597  12.063 -0.0420 -0.3863  0.3215
 4155SOL    HW223928   0.036   0.580  12.103  0.8844  0.6918 -0.6761
 4156SOL     OW23929   1.571   2.653   4.165 -0.3361  0.2103 -0.4466
 4156SOL    HW123930   1.661   2.620   4.167  0.0965  1.4995  1.1384
 4156SOL    HW223931   1.521   2.605   4.099 -1.0576  1.0919 -0.5390
 4157SOL     OW23932   4.339   2.578  16.456  0.4189  0.0536  0.0641
 4157SOL    HW123933   4.326   2.534  16.540  0.5902 -0.7512 -0.3303
 4157SOL    HW223934   4.338   2.671  16.478  0.7575  0.0260  0.1879
 4158SOL     OW23935   3.603   0.872   8.278  0.2334  0.3176  0.1125
 4158SOL    HW123936   3.623   0.837   8.192  1.8896  0.1326  0.5674
 4158SOL    HW223937   3.547   0.942   8.245 -1.5736 -2.1530 -2.0122
 4159SOL     OW23938   3.200   3.322   2.843  0.7196  0.1088  0.8368
 4159SOL    HW123939   3.186   3.227   2.838  0.4963  0.2117 -0.6830
 4159SOL    HW223940   3.209   3.326   2.938 -1.8643 -1.7435  1.1629
 4160SOL     OW23941   1.794   0.219  11.530  0.2485 -0.2894 -0.6575
 4160SOL    HW123942   1.724   0.283  11.538  0.7625  0.0908  0.8047
 4160SOL    HW223943   1.813   0.212  11.436  0.9833  0.8063 -0.5829
 4161SOL     OW23944   1.010   3.787   5.703  0.3267  0.2455  0.1291
 4161SOL    HW123945   0.972   3.818   5.621 -1.6066  1.4666  1.4685
 4161SOL    HW223946   1.004   3.875   5.740 -0.2812  0.6563 -0.9441
 4162SOL     OW23947   2.623   2.257   3.049 -0.2745  0.0017 -0.2586
 4162SOL    HW123948   2.579   2.188   3.099 -2.8555  1.1109 -1.0294
 4162SOL    HW223949   2.657   2.309   3.122 -0.6482 -0.0860 -0.0249
 4163SOL     OW23950   0.128   3.591   8.511 -0.3601 -0.0909 -0.0761
 4163SOL    HW123951   0.059   3.615   8.573 -1.6173  0.9001 -1.8693
 4163SOL    HW223952   0.177   3.531   8.568  0.8366  0.6705 -0.3102
 4164SOL     OW23953   2.473   0.634  16.937 -0.0739 -0.3863 -0.1042
 4164SOL    HW123954   2.421   0.571  16.986  2.0090 -2.9574 -1.2072
 4164SOL    HW223955   2.544   0.641  17.001  0.6470 -1.4244 -0.7881
 4165SOL     OW23956   4.664   1.745  15.780  0.4191 -0.7030 -0.1743
 4165SOL    HW123957   0.008   1.681  15.803 -0.6260 -0.4583  3.6915
 4165SOL    HW223958   4.598   1.712  15.841  0.1905 -0.4394 -0.2852
 4166SOL     OW23959   0.210   3.473   0.818  0.3673 -0.3642 -0.3690
 4166SOL    HW123960   0.120   3.454   0.793 -0.8048 -0.2685  3.7886
 4166SOL    HW223961   0.223   3.568   0.812 -1.4279 -0.0945 -0.0290
 4167SOL     OW23962   4.394   0.374   8.673 -0.3090 -0.8329 -0.0460
 4167SOL    HW123963   4.414   0.429   8.597  2.0101 -0.0660  1.1159
 4167SOL    HW223964   4.345   0.299   8.641 -2.2788  0.1928  0.5275
 4168SOL     OW23965   4.723   2.265  12.912 -0.1775  0.0164  0.0732
 4168SOL    HW123966   0.013   2.302  13.000 -0.2053 -1.5022  0.7250
 4168SOL    HW223967   4.669   2.191  12.941 -1.9625  1.6097  0.7733
 4169SOL     OW23968   2.091   1.587   8.892  0.2255 -0.1007 -0.1800
 4169SOL    HW123969   2.144   1.589   8.972 -2.7489  0.8580  1.7647
 4169SOL    HW223970   2.153   1.607   8.821  1.8774 -0.6420  1.1067
 4170SOL     OW23971   2.491   4.694   4.653 -0.7741 -0.3704 -0.4246
 4170SOL    HW123972   2.516   4.678   4.562  1.6296 -1.7662  0.4847
 4170SOL    HW223973   2.478   0.064   4.655  0.5394 -0.1525 -2.4406
 4171SOL     OW23974   1.627   0.683   4.917  0.3271  0.0557  0.2357
 4171SOL    HW123975   1.714   0.687   4.955  0.7473  1.7152 -0.8931
 4171SOL    HW223976   1.567   0.651   4.985 -0.4229 -0.0922 -0.4951
 4172SOL     OW23977   1.055   0.170   8.907 -0.0112 -0.1062 -0.1144
 4172SOL    HW123978   1.030   0.159   8.999 -0.6685  1.1997 -0.1324
 4172SOL    HW223979   1.088   0.085   8.879 -1.7507 -0.7767 -0.1262
 4173SOL     OW23980   0.671   1.186   3.366  0.3361 -0.2245 -0.1257
 4173SOL    HW123981   0.705   1.175   3.455 -1.2366  1.1643  0.6582
 4173SOL    HW223982   0.721   1.116   3.325  1.5535  0.2047  0.5958
 4174SOL     OW23983   2.654   2.805   3.208  0.1022 -0.0550  0.4745
 4174SOL    HW123984   2.734   2.769   3.247 -0.7262  0.3717  2.5704
 4174SOL    HW223985   2.614   2.852   3.280  0.2443  0.2064  0.3836
 4175SOL     OW23986   2.778   3.157   3.685  0.1226 -0.1641  0.5143
 4175SOL    HW123987   2.847   3.166   3.618 -0.4262  0.7278  0.0636
 4175SOL    HW223988   2.740   3.245   3.691 -0.2267 -0.2715 -0.0852
 4176SOL     OW23989   0.303   1.601   8.947 -0.5449 -0.1876  0.5149
 4176SOL    HW123990   0.362   1.640   8.882 -2.1326 -0.9896 -1.4113
 4176SOL    HW223991   0.317   1.659   9.022  1.2135  2.7748 -2.0842
 4177SOL     OW23992   2.337   3.622   2.651 -0.4860  0.0858 -0.4606
 4177SOL    HW123993   2.374   3.535   2.639 -0.2131  0.0310  0.8765
 4177SOL    HW223994   2.375   3.677   2.582  1.9968 -1.3680 -0.2311
 4178SOL     OW23995   4.382   0.187  15.972 -0.0787 -0.4053  0.1623
 4178SOL    HW123996   4.310   0.247  15.955  1.5762  1.2581 -0.8557
 4178SOL    HW223997   4.403   0.157  15.884 -0.6650 -1.8599  0.5139
 4179SOL     OW23998   4.572   1.722   2.966  0.0957  0.4577 -0.1795
 4179SOL    HW123999   4.661   1.690   2.954  0.1365  0.6976 -0.5372
 4179SOL    HW224000   4.558   1.698   3.057 -1.1777  1.4817 -0.1006
 4180SOL     OW24001   4.307   4.430   3.232 -0.1324  0.3168 -0.2726
 4180SOL    HW124002   4.220   4.422   3.195 -0.4758 -0.4874  0.6915
 4180SOL    HW224003   4.295   4.506   3.289  0.9608  0.1964  0.1354
 4181SOL     OW24004   2.632   0.700  11.825  0.3739  0.1529 -0.2744
 4181SOL    HW124005   2.585   0.779  11.800  0.8040  0.3197 -0.5458
 4181SOL    HW224006   2.692   0.693  11.751 -0.6688  0.7546 -1.1639
 4182SOL     OW24007   2.051   1.588   6.292 -0.6929  0.0454  0.0253
 4182SOL    HW124008   2.044   1.648   6.367  0.2725  0.8397 -0.5318
 4182SOL    HW224009   1.962   1.553   6.299  0.6609 -3.5457 -0.7380
 4183SOL     OW24010   3.312   0.184   5.199  0.2694  0.0117  0.0715
 4183SOL    HW124011   3.340   0.168   5.109 -1.6319 -2.4109 -0.0732
 4183SOL    HW224012   3.343   0.102   5.238 -1.1552  0.5458  2.3736
 4184SOL     OW24013   1.064   0.460   6.323  0.1509  0.3374 -0.7700
 4184SOL    HW124014   1.019   0.537   6.357  1.2853 -0.0988  1.6855
 4184SOL    HW224015   1.069   0.472   6.228  0.4943  1.6003 -0.5907
 4185SOL     OW24016   1.987   4.484   4.957  0.5068 -0.4252 -0.0624
 4185SOL    HW124017   2.008   4.441   5.040  0.4161 -0.2954  0.0263
 4185SOL    HW224018   1.933   4.421   4.908 -0.7154  1.1284 -0.6912
 4186SOL     OW24019   3.904   1.864   8.409 -0.2616 -0.0727 -0.2826
 4186SOL    HW124020   3.844   1.917   8.356 -1.2849 -0.3001  0.6487
 4186SOL    HW224021   3.946   1.932   8.462  1.7908 -1.4893 -0.1162
 4187SOL     OW24022   3.936   1.122   6.181 -0.1111 -0.3991 -0.1784
 4187SOL    HW124023   3.894   1.048   6.225 -0.5449 -0.4128 -0.6200
 4187SOL    HW224024   3.996   1.141   6.253  0.3706 -3.1286  0.1441
 4188SOL     OW24025   3.173   0.227   5.573 -0.2845  0.2631 -0.9219
 4188SOL    HW124026   3.256   0.209   5.618 -0.9159  0.3031  0.2499
 4188SOL    HW224027   3.114   0.159   5.606  0.0879  0.4692  0.1548
 4189SOL     OW24028   4.050   0.094   3.114 -0.3473  0.3127 -0.2750
 4189SOL    HW124029   4.048   0.178   3.069  0.8504  0.5922  0.1925
 4189SOL    HW224030   4.062   0.038   3.038 -0.0176 -0.5960  0.4439
 4190SOL     OW24031   2.384   2.661  11.741 -0.1318  0.3353 -0.1316
 4190SOL    HW124032   2.450   2.636  11.677  0.0068 -1.0822  0.5595
 4190SOL    HW224033   2.305   2.667  11.686 -0.1619 -3.9939 -0.6196
 4191SOL     OW24034   2.146   0.201   5.997 -0.5114  0.0561  1.5032
 4191SOL    HW124035   2.204   0.128   5.974 -0.5523 -0.1420  2.0330
 4191SOL    HW224036   2.208   0.251   6.050  1.3989 -1.7989  1.0496
 4192SOL     OW24037   0.914   1.673   4.736 -0.5319  0.1221 -0.2439
 4192SOL    HW124038   0.982   1.615   4.770 -0.4573  1.4458  1.8406
 4192SOL    HW224039   0.961   1.719   4.666  0.5200  1.3375  1.2776
 4193SOL     OW24040   4.200   3.933   0.039 -0.3162  0.5049 -0.2615
 4193SOL    HW124041   4.289   3.954   0.067  0.2584 -1.3613 -0.6717
 4193SOL    HW224042   4.149   3.975   0.108  1.5270 -1.3625  2.2005
 4194SOL     OW24043   3.723   4.364  15.409 -0.7065 -0.0213  0.2248
 4194SOL    HW124044   3.731   4.270  15.394 -2.7090 -0.0696 -0.4524
 4194SOL    HW224045   3.703   4.393  15.320 -0.0605  0.6838  0.3036
 4195SOL     OW24046   4.521   0.583   7.416 -0.3194 -0.4257  0.1166
 4195SOL    HW124047   4.558   0.507   7.370 -1.2353 -0.6504 -0.2592
 4195SOL    HW224048   4.451   0.548   7.472  0.7559 -0.5017  1.4040
 4196SOL     OW24049   2.195   2.533   9.240  0.1747  0.1263  0.2533
 4196SOL    HW124050   2.277   2.488   9.218 -0.1027  0.8164 -2.1870
 4196SOL    HW224051   2.147   2.517   9.159 -0.0032 -1.1516  0.6297
 4197SOL     OW24052   1.303   1.640   0.265  0.1718 -0.0187 -0.4478
 4197SOL    HW124053   1.224   1.640   0.212  0.9386 -0.3553 -1.5933
 4197SOL    HW224054   1.327   1.548   0.253 -0.3142 -0.4211  1.7466
 4198SOL     OW24055   1.204   0.032   4.920 -0.3723  0.1847  0.3652
 4198SOL    HW124056   1.216   0.041   4.826 -1.8374 -0.5505  0.1197
 4198SOL    HW224057   1.110   0.026   4.936  0.0170 -2.1172  1.8168
 4199SOL     OW24058   3.394   0.343  17.502 -0.1129  0.6396  0.3864
 4199SOL    HW124059   3.330   0.374  17.566 -1.0760 -1.2308  0.3356
 4199SOL    HW224060   3.479   0.361  17.542  0.7298 -0.5490 -0.9086
 4200SOL     OW24061   3.086   0.445   8.766 -0.3422 -0.5285 -0.1643
 4200SOL    HW124062   3.115   0.527   8.725 -1.2151 -1.4828 -2.6732
 4200SOL    HW224063   3.038   0.482   8.840  1.3147 -0.7456  1.0090
 4201SOL     OW24064   0.310   2.713   9.100 -0.1935 -0.2320 -0.5045
 4201SOL    HW124065   0.325   2.802   9.133 -1.9746 -0.3388  0.6369
 4201SOL    HW224066   0.227   2.731   9.057  0.4074 -1.9436 -2.3668
 4202SOL     OW24067   2.258   0.026   0.708 -0.6355  0.2376  0.3226
 4202SOL    HW124068   2.207   0.107   0.702 -1.0827  0.1105  2.5561
 4202SOL    HW224069   2.340   0.064   0.738 -2.0012  1.1485  2.8734
 4203SOL     OW24070   0.114   4.146   1.986  0.5375  0.3307  0.5590
 4203SOL    HW124071   0.182   4.153   1.919  2.0841  3.2689  2.4617
 4203SOL    HW224072   0.085   4.237   1.977 -0.1962 -0.1871 -2.4810
 4204SOL     OW24073   2.874   0.857  11.924 -0.1966  0.0919 -0.0334
 4204SOL    HW124074   2.804   0.800  11.892  0.1428 -0.3314 -0.0208
 4204SOL    HW224075   2.942   0.859  11.857  0.1157  0.5474  0.3018
 4205SOL     OW24076   2.006   4.127   5.960  0.7008 -0.1204 -0.6042
 4205SOL    HW124077   1.973   4.187   6.027  2.5079  0.9590 -0.6764
 4205SOL    HW224078   1.924   4.102   5.919  1.2861  0.4560 -2.1293
 4206SOL     OW24079   2.841   0.871   1.286  0.0238 -0.1956 -0.1368
 4206SOL    HW124080   2.898   0.859   1.362  2.4071 -1.5311 -2.1185
 4206SOL    HW224081   2.841   0.967   1.280  2.9046  0.0148  3.2105
 4207SOL     OW24082   4.340   4.571   3.762  0.7318 -1.1544 -0.5249
 4207SOL    HW124083   4.372   4.606   3.845  0.1253 -1.2460 -0.2513
 4207SOL    HW224084   4.344   4.481   3.795  0.7992 -0.5245  1.1972
 4208SOL     OW24085   3.846   1.987   7.464 -0.0575  0.2459  0.2304
 4208SOL    HW124086   3.811   2.074   7.486  1.0362  1.3297 -2.2605
 4208SOL    HW224087   3.767   1.942   7.437  0.4647 -0.4058 -0.2071
 4209SOL     OW24088   3.427   1.045   1.472 -0.4957 -0.0144 -0.4009
 4209SOL    HW124089   3.375   0.971   1.504 -1.4198  0.7527 -0.1598
 4209SOL    HW224090   3.483   0.990   1.417  0.6123 -0.2987  1.0111
 4210SOL     OW24091   2.741   1.813   6.421  0.0691  0.4289  0.0821
 4210SOL    HW124092   2.822   1.861   6.408 -1.2197  2.4015 -0.6674
 4210SOL    HW224093   2.750   1.739   6.361  3.9990  0.8659  0.1979
 4211SOL     OW24094   1.127   2.498   8.267  0.4708  0.4646 -0.2660
 4211SOL    HW124095   1.060   2.478   8.202  0.3722 -0.8285  0.2220
 4211SOL    HW224096   1.191   2.550   8.218  1.1837  0.9143  1.1400
 4212SOL     OW24097   1.889   1.807  16.478 -0.0803 -0.0387 -0.5444
 4212SOL    HW124098   1.880   1.891  16.432  1.5901  0.1989 -0.4234
 4212SOL    HW224099   1.847   1.834  16.560  0.2394  1.8823 -1.0166
 4213SOL     OW24100   0.526   0.190  14.848 -0.1536 -0.1997 -0.1017
 4213SOL    HW124101   0.529   0.259  14.915  0.4923 -0.5128  0.1899
 4213SOL    HW224102   0.555   0.238  14.771  0.0592  0.1009  0.1640
 4214SOL     OW24103   3.011   2.137   6.822 -0.2120  0.5544 -0.2768
 4214SOL    HW124104   3.028   2.044   6.829 -2.4103  0.0750 -1.3121
 4214SOL    HW224105   2.984   2.138   6.731 -2.2106  3.0637  0.3352
 4215SOL     OW24106   0.499   0.446   7.177  0.0384 -0.1157 -0.0022
 4215SOL    HW124107   0.428   0.463   7.239  1.6412  0.5637  1.6370
 4215SOL    HW224108   0.505   0.529   7.129  1.8861  0.0965  0.6122
 4216SOL     OW24109   3.880   2.330   4.948 -0.2949 -0.4682  0.2061
 4216SOL    HW124110   3.848   2.380   5.023 -0.3468  1.0847 -0.8411
 4216SOL    HW224111   3.830   2.254   4.977 -0.8478 -0.2975 -0.2963
 4217SOL     OW24112   4.597   1.212  14.297  0.7930  0.5234  0.3457
 4217SOL    HW124113   4.687   1.225  14.267  0.4338  0.3063 -0.8138
 4217SOL    HW224114   4.556   1.178  14.218  0.4488  2.8591 -0.5022
 4218SOL     OW24115   1.523   3.030  12.119 -0.0882  0.0103 -0.1309
 4218SOL    HW124116   1.460   2.961  12.099 -0.3002 -0.0330  0.7142
 4218SOL    HW224117   1.498   3.104  12.063  1.7822  1.2676  0.7099
 4219SOL     OW24118   4.208   2.055   7.934 -0.4716  0.1046  0.6234
 4219SOL    HW124119   4.274   2.124   7.939  3.5898 -3.6743 -1.7692
 4219SOL    HW224120   4.269   1.987   7.964 -0.5342 -0.3937 -0.4013
 4220SOL     OW24121   0.189   1.883   1.867  0.0084  0.1108  0.5004
 4220SOL    HW124122   0.153   1.967   1.838 -0.2795 -0.3457 -0.4755
 4220SOL    HW224123   0.105   1.837   1.876 -0.9535  1.7470 -0.0048
 4221SOL     OW24124   0.056   3.459   7.322 -0.1986  0.1637  0.0710
 4221SOL    HW124125   4.723   3.446   7.247 -0.7472  1.1022  0.3274
 4221SOL    HW224126   0.010   3.523   7.376  0.9684  0.7373  0.3662
 4222SOL     OW24127   4.609   0.217   4.066 -0.4569  0.2738  0.0683
 4222SOL    HW124128   4.650   0.130   4.069  0.5862  0.6979 -1.5493
 4222SOL    HW224129   4.643   0.257   4.145 -2.0549 -0.8050  1.2998
 4223SOL     OW24130   1.766   4.601   4.244 -0.1290  0.2287 -0.4628
 4223SOL    HW124131   1.690   4.657   4.255 -0.0388  0.6827 -2.1287
 4223SOL    HW224132   1.742   4.519   4.288 -0.1600  0.4969  0.0156
 4224SOL     OW24133   0.971   0.395   5.788 -0.0162  0.1723  0.1153
 4224SOL    HW124134   0.938   0.454   5.856 -0.8802  1.1688 -1.1591
 4224SOL    HW224135   1.015   0.450   5.723  0.9176 -0.2603  0.3842
 4225SOL     OW24136   3.632   0.933   0.788  0.5910 -0.1940  0.5553
 4225SOL    HW124137   3.591   1.019   0.796 -0.3724 -0.7378  1.4777
 4225SOL    HW224138   3.666   0.928   0.878  2.0974 -1.3991 -0.0907
 4226SOL     OW24139   0.628   4.401  16.658 -0.3394  0.1664  0.0079
 4226SOL    HW124140   0.675   4.482  16.681  1.1009  0.0093 -2.3845
 4226SOL    HW224141   0.646   4.338  16.727  0.4417  1.0977  0.6669
 4227SOL     OW24142   1.960   3.079   9.766  0.4681  0.0693 -0.1772
 4227SOL    HW124143   2.030   3.069   9.831 -1.2356 -1.0035  1.4514
 4227SOL    HW224144   1.909   3.153   9.798 -1.7894 -0.8585 -1.6586
 4228SOL     OW24145   2.767   0.694   8.797 -0.0327  0.0103 -0.4705
 4228SOL    HW124146   2.774   0.647   8.714  0.6144  2.1545 -1.6224
 4228SOL    HW224147   2.691   0.750   8.785 -0.1061  0.1768  0.8094
 4229SOL     OW24148   3.714   1.217   1.992 -0.1414  0.0588 -0.2223
 4229SOL    HW124149   3.695   1.311   1.995  1.8726  0.5505 -2.5603
 4229SOL    HW224150   3.687   1.193   2.080 -0.1203  2.6664  0.5218
 4230SOL     OW24151   3.128   4.141   1.893 -0.5678  0.2132 -0.2916
 4230SOL    HW124152   3.210   4.190   1.899  0.4513 -1.7003  1.3374
 4230SOL    HW224153   3.147   4.093   1.812 -1.1269  0.0547 -0.3277
 4231SOL     OW24154   3.075   1.552   7.447  0.4172 -0.2225 -0.0629
 4231SOL    HW124155   3.081   1.498   7.368 -0.2883  0.0523 -0.3075
 4231SOL    HW224156   3.158   1.595   7.464  0.0073  0.4673  0.2278
 4232SOL     OW24157   4.292   4.536  12.440  0.5148 -0.0169 -0.0754
 4232SOL    HW124158   4.273   4.444  12.456  0.0098  0.4143  1.8275
 4232SOL    HW224159   4.311   4.534  12.346 -1.2659 -1.6412 -0.3835
 4233SOL     OW24160   2.189   1.640   6.738  0.3152  0.4954 -0.1340
 4233SOL    HW124161   2.231   1.583   6.802  1.3634  2.0307  0.5555
 4233SOL    HW224162   2.181   1.724   6.784 -2.1785 -0.4438  1.1308
 4234SOL     OW24163   2.363   2.032   9.282  0.3144  0.8856 -0.1198
 4234SOL    HW124164   2.399   1.981   9.210 -1.3918 -1.8291  0.9516
 4234SOL    HW224165   2.282   1.989   9.309  1.5525  0.3909  2.8675
 4235SOL     OW24166   4.468   1.335   0.643  0.3583 -0.1284 -0.1985
 4235SOL    HW124167   4.373   1.326   0.651  0.4206  0.8753  1.7021
 4235SOL    HW224168   4.487   1.261   0.587 -0.5918 -0.4850 -0.0477
 4236SOL     OW24169   1.895   0.363  14.816  0.5301  0.0494 -0.1542
 4236SOL    HW124170   1.813   0.318  14.835 -1.1034  3.0055 -0.2567
 4236SOL    HW224171   1.887   0.436  14.876 -0.3752  0.3876 -0.6908
 4237SOL     OW24172   4.628   1.075  13.789 -0.3127  0.0082  0.6943
 4237SOL    HW124173   4.629   1.000  13.730  0.9156  2.2985 -2.1723
 4237SOL    HW224174   4.647   1.147  13.729  1.8321  0.0562  1.4197
 4238SOL     OW24175   1.131   2.996   1.426  0.3864 -0.3469 -0.6982
 4238SOL    HW124176   1.215   3.026   1.461 -0.0075 -2.4753  2.0909
 4238SOL    HW224177   1.077   3.071   1.450  1.9564  0.6128 -0.2143
 4239SOL     OW24178   3.740   2.988   8.632  0.2519  0.4383  0.6254
 4239SOL    HW124179   3.737   3.010   8.539 -0.4931 -1.4103  0.2132
 4239SOL    HW224180   3.652   3.011   8.662  0.5950  2.0011  0.4670
 4240SOL     OW24181   2.951   2.872  17.271 -0.4219 -0.1999 -0.0570
 4240SOL    HW124182   2.981   2.955  17.308 -0.7456  0.0105 -0.2805
 4240SOL    HW224183   2.994   2.877  17.185  0.5816  0.0772  0.4527
 4241SOL     OW24184   4.641   0.878   6.878 -0.2730  0.0188 -0.1310
 4241SOL    HW124185   4.566   0.868   6.936  1.3516  1.4494  2.2514
 4241SOL    HW224186   4.631   0.802   6.822 -0.4939 -0.2226  0.2386
 4242SOL     OW24187   0.382   2.693  13.290  0.3412  0.5842  0.2522
 4242SOL    HW124188   0.477   2.688  13.290  0.2912 -0.4656  0.1081
 4242SOL    HW224189   0.379   2.763  13.225 -0.1630  0.6037  0.2939
 4243SOL     OW24190   2.103   0.721   5.361  0.4947  0.5903 -0.1749
 4243SOL    HW124191   2.122   0.723   5.455 -1.2917  0.4584  0.1934
 4243SOL    HW224192   2.109   0.627   5.346 -3.6281  0.4321 -0.8626
 4244SOL     OW24193   3.790   3.579   9.322  0.1899  0.4710  0.2599
 4244SOL    HW124194   3.859   3.613   9.380 -1.9119  3.5242  0.8993
 4244SOL    HW224195   3.753   3.512   9.380 -0.0150 -0.1080 -0.5452
 4245SOL     OW24196   3.753   1.975   0.935 -0.5318 -0.6237 -0.2663
 4245SOL    HW124197   3.705   1.999   1.015  1.9995  2.5978  0.3089
 4245SOL    HW224198   3.747   1.880   0.939 -1.0345 -0.6286 -1.1275
 4246SOL     OW24199   4.716   0.325   5.419 -0.1655 -0.2622 -0.3331
 4246SOL    HW124200   4.719   0.358   5.329  1.7168 -3.0833 -1.3072
 4246SOL    HW224201   4.699   0.407   5.466 -1.1341 -0.2250 -0.7420
 4247SOL     OW24202   3.488   3.870   9.686 -0.1881 -0.3978 -0.2742
 4247SOL    HW124203   3.486   3.775   9.695  2.0704 -0.4506 -0.1973
 4247SOL    HW224204   3.558   3.892   9.748 -0.6547  0.3717 -0.0183
 4248SOL     OW24205   2.434   0.034  14.103  0.4040  0.0032  0.6233
 4248SOL    HW124206   2.496   0.071  14.040 -1.2775 -0.7579 -1.4498
 4248SOL    HW224207   2.403   0.113  14.147 -0.7120 -0.9536  1.5387
 4249SOL     OW24208   2.787   0.641   4.130 -0.3158 -0.4145  1.0999
 4249SOL    HW124209   2.715   0.586   4.161 -0.7002 -0.8535 -0.6001
 4249SOL    HW224210   2.745   0.725   4.111  1.9340  0.7507  1.2274
 4250SOL     OW24211   3.814   0.205   1.613 -0.0983 -0.7044 -0.5187
 4250SOL    HW124212   3.811   0.229   1.521 -0.5364  0.6047 -0.1637
 4250SOL    HW224213   3.858   0.280   1.653  1.9258 -2.9196  1.4217
 4251SOL     OW24214   0.301   3.471   3.590 -0.3913  0.0851 -0.1956
 4251SOL    HW124215   0.237   3.506   3.652 -1.5482 -1.4411 -0.5404
 4251SOL    HW224216   0.271   3.504   3.506 -0.3598  0.6158  0.0012
 4252SOL     OW24217   2.980   0.469   5.169  0.0644  0.4611  0.5406
 4252SOL    HW124218   3.004   0.562   5.170  0.8613  0.2394  1.1631
 4252SOL    HW224219   3.048   0.424   5.219 -0.2071  0.5570  0.9985
 4253SOL     OW24220   4.536   1.103  14.039 -0.5367 -0.0914 -0.1327
 4253SOL    HW124221   4.441   1.101  14.026 -0.6776 -1.0490  1.1333
 4253SOL    HW224222   4.572   1.080  13.953  0.2967 -1.2344  0.5171
 4254SOL     OW24223   4.616   0.151   3.119 -0.6580 -0.3338  0.2252
 4254SOL    HW124224   4.562   0.108   3.185 -0.4038  3.1952  2.7627
 4254SOL    HW224225   4.674   0.209   3.168  0.1887 -1.5546  0.6410
 4255SOL     OW24226   0.946   2.112   8.119 -0.1905 -0.7110 -0.1720
 4255SOL    HW124227   0.865   2.163   8.125  0.2132 -0.0794 -0.0943
 4255SOL    HW224228   0.954   2.109   8.215 -0.3436 -2.0922 -0.2047
 4256SOL     OW24229   3.797   1.049   3.468 -0.6666 -0.6405  0.1085
 4256SOL    HW124230   3.876   0.998   3.486  0.9953  1.8323 -0.1473
 4256SOL    HW224231   3.743   0.989   3.417 -1.3398 -0.5309  0.6903
 4257SOL     OW24232   2.976   1.955   6.335  0.6294 -0.3070 -0.2530
 4257SOL    HW124233   2.923   2.021   6.290 -0.3003 -0.3929  0.7225
 4257SOL    HW224234   3.036   2.009   6.385 -0.9990  0.9733  0.2987
 4258SOL     OW24235   3.515   3.290   7.644 -0.0013 -0.2903 -0.0882
 4258SOL    HW124236   3.546   3.308   7.555  1.1176 -2.3072 -0.1041
 4258SOL    HW224237   3.431   3.337   7.641  0.3021  0.1208 -2.0997
 4259SOL     OW24238   0.515   4.214  13.451  0.2074  0.0296  0.7553
 4259SOL    HW124239   0.433   4.165  13.459  0.2863 -0.4706 -1.2924
 4259SOL    HW224240   0.486   4.300  13.480 -3.1053 -0.5454 -0.9058
 4260SOL     OW24241   0.609   4.534  16.055 -0.4780 -0.4637 -0.1969
 4260SOL    HW124242   0.556   4.461  16.022  0.5677 -1.4151  0.2274
 4260SOL    HW224243   0.695   4.505  16.024 -0.1808 -2.5709  2.5964
 4261SOL     OW24244   3.620   2.465  16.721  0.4489 -0.5200  0.3432
 4261SOL    HW124245   3.604   2.385  16.771  2.0289 -1.2068 -0.2413
 4261SOL    HW224246   3.601   2.428  16.634  0.9496 -2.1949  0.9378
 4262SOL     OW24247   2.952   1.311  17.495  0.3671  0.2482  0.1638
 4262SOL    HW124248   2.977   1.253  17.424  0.6524  1.7762 -1.0003
 4262SOL    HW224249   2.959   1.393  17.445 -1.5221 -0.1772 -0.7868
 4263SOL     OW24250   1.998   4.616   1.492 -0.0988 -0.9575 -0.2874
 4263SOL    HW124251   1.959   4.605   1.406  0.6124  0.7372 -0.8270
 4263SOL    HW224252   2.090   4.624   1.467 -0.8176  0.1183 -2.5309
 4264SOL     OW24253   0.249   2.091  13.291  0.1007 -0.0006  0.0952
 4264SOL    HW124254   0.197   2.055  13.220  0.6652 -2.6195  0.9891
 4264SOL    HW224255   0.216   2.045  13.369 -2.3972 -1.5293 -1.8694
 4265SOL     OW24256   2.006   4.326   5.199  0.2265  0.0783  0.3712
 4265SOL    HW124257   2.068   4.254   5.189 -0.4839 -0.5993  0.8272
 4265SOL    HW224258   1.993   4.317   5.293  1.1338 -1.5340  0.3314
 4266SOL     OW24259   1.785   0.551   7.888 -0.9148 -0.6444 -0.0009
 4266SOL    HW124260   1.823   0.465   7.872 -0.7150 -1.1120  2.9154
 4266SOL    HW224261   1.782   0.576   7.796 -2.0731 -1.4089 -0.1740
 4267SOL     OW24262   0.461   0.124   8.779 -0.3017 -0.5053  0.2987
 4267SOL    HW124263   0.553   0.106   8.761  0.2538  3.7492 -0.9084
 4267SOL    HW224264   0.413   0.068   8.717  0.0798  0.6900 -1.0785
 4268SOL     OW24265   3.115   2.509   6.664 -0.1153 -0.9955 -0.4436
 4268SOL    HW124266   3.054   2.488   6.734 -0.5254  0.1827 -0.4356
 4268SOL    HW224267   3.059   2.503   6.586 -1.1602 -1.1257  0.3241
 4269SOL     OW24268   3.406   1.044   7.661  0.6491  0.5520 -0.0927
 4269SOL    HW124269   3.423   1.062   7.754 -0.4875 -0.1681  0.2569
 4269SOL    HW224270   3.311   1.033   7.663  0.8897 -1.3258  0.6755
 4270SOL     OW24271   0.274   3.031   4.199  0.0087  0.3116 -0.6614
 4270SOL    HW124272   0.191   3.005   4.159 -0.0858  0.1253 -0.3479
 4270SOL    HW224273   0.271   3.001   4.290 -0.8779  1.3272 -0.3617
 4271SOL     OW24274   1.281   1.874   4.266 -0.1580  0.1624  0.4724
 4271SOL    HW124275   1.371   1.845   4.279  0.2488  1.2893  0.1832
 4271SOL    HW224276   1.234   1.810   4.320 -2.0352  0.0629 -1.3054
 4272SOL     OW24277   0.147   4.121   7.260 -0.0030 -0.2821  0.2536
 4272SOL    HW124278   0.146   4.044   7.317 -1.1727 -0.5701 -0.1606
 4272SOL    HW224279   0.059   4.154   7.281 -0.7451 -1.5770 -0.8981
 4273SOL     OW24280   0.355   4.135   7.525 -0.4612 -0.2880 -0.2225
 4273SOL    HW124281   0.390   4.201   7.465  0.7827 -0.0467  0.7777
 4273SOL    HW224282   0.419   4.134   7.596  0.2672  1.9227 -0.8311
 4274SOL     OW24283   2.963   3.099   7.469  0.3103 -0.3614  0.3483
 4274SOL    HW124284   3.024   3.089   7.542  1.4774  0.9438 -0.4756
 4274SOL    HW224285   2.968   3.010   7.434 -2.9928 -0.6647  0.6005
 4275SOL     OW24286   1.912   2.802   0.994 -0.1213 -0.0442  0.1096
 4275SOL    HW124287   2.003   2.830   1.005  0.4310 -2.0651  0.6548
 4275SOL    HW224288   1.874   2.880   0.953  0.1438  1.9996  3.8014
 4276SOL     OW24289   0.028   2.064   2.777  0.0584 -0.1382  0.1976
 4276SOL    HW124290   4.669   2.018   2.787  1.0475 -2.0278 -0.2335
 4276SOL    HW224291   0.076   1.982   2.765 -1.5125 -0.8071 -1.5290
 4277SOL     OW24292   1.827   1.608   9.493  0.2034  0.4311 -0.2530
 4277SOL    HW124293   1.746   1.653   9.517  0.9178  1.3221  0.4584
 4277SOL    HW224294   1.788   1.520   9.493 -0.9464  0.9419  0.3291
 4278SOL     OW24295   0.247   0.228   7.495  0.0466  0.4826 -0.3258
 4278SOL    HW124296   0.340   0.209   7.504 -0.1234 -0.6307 -1.0768
 4278SOL    HW224297   0.220   0.169   7.426  0.9883  0.7196 -0.8894
 4279SOL     OW24298   3.593   4.326  14.761 -0.6711  0.1913 -0.3443
 4279SOL    HW124299   3.675   4.361  14.725  0.1814 -0.4502  0.9623
 4279SOL    HW224300   3.529   4.382  14.717  0.4076  2.2541  0.6877
 4280SOL     OW24301   2.822   2.474   6.006 -0.4043  0.4365  0.2316
 4280SOL    HW124302   2.808   2.557   6.052  0.7760  0.7143  0.1144
 4280SOL    HW224303   2.812   2.494   5.913  3.3246  0.3192 -0.2041
 4281SOL     OW24304   1.670   1.689   4.910  1.2109  0.1067  0.1085
 4281SOL    HW124305   1.609   1.741   4.962  1.9773  1.3902 -0.2737
 4281SOL    HW224306   1.622   1.691   4.828 -4.4345  1.3632  3.4553
 4282SOL     OW24307   2.089   3.584   9.899 -0.0228 -0.4763 -0.4786
 4282SOL    HW124308   2.150   3.643   9.855 -2.0258  1.5021 -0.6298
 4282SOL    HW224309   2.064   3.633   9.978  1.3055  0.2750 -0.5129
 4283SOL     OW24310   2.585   2.079   3.509  0.2157  0.0438  0.2461
 4283SOL    HW124311   2.525   2.138   3.553 -1.1856 -0.5820 -0.8561
 4283SOL    HW224312   2.590   2.114   3.421  0.1481  1.2187  0.7101
 4284SOL     OW24313   0.979   2.171   6.270  0.2037  0.1398 -0.0189
 4284SOL    HW124314   0.922   2.093   6.272  1.0786 -0.5414 -1.6185
 4284SOL    HW224315   0.970   2.200   6.179  0.7188  0.9386  0.1931
 4285SOL     OW24316   2.837   1.245  11.736  0.1080 -0.2560  0.4665
 4285SOL    HW124317   2.757   1.193  11.744  0.1269 -0.5739 -1.6050
 4285SOL    HW224318   2.845   1.253  11.641  1.5272 -2.3130  0.4073
 4286SOL     OW24319   2.138   0.139  17.202  0.4129  0.2295  0.1855
 4286SOL    HW124320   2.070   0.181  17.255  1.6030  1.2918  0.8899
 4286SOL    HW224321   2.215   0.191  17.225  0.6389  1.6864 -3.8090
 4287SOL     OW24322   1.360   4.386  14.540  0.0303 -0.2248  0.0346
 4287SOL    HW124323   1.296   4.391  14.611 -0.5193  2.5762 -0.6413
 4287SOL    HW224324   1.319   4.445  14.477  0.1069  0.6570  0.8036
 4288SOL     OW24325   0.860   2.373   2.397  0.3375 -0.6429 -0.1723
 4288SOL    HW124326   0.839   2.466   2.406 -1.5452 -1.3181  2.6887
 4288SOL    HW224327   0.898   2.378   2.310 -1.5614  1.8303 -0.8465
 4289SOL     OW24328   0.309   4.156  14.856  0.1082 -0.4822  0.0899
 4289SOL    HW124329   0.357   4.117  14.782 -0.4278 -2.0774  0.5676
 4289SOL    HW224330   0.355   4.238  14.874  1.1741 -1.2419  0.8382
 4290SOL     OW24331   2.786   1.371  12.875 -0.0616  0.0795  0.5687
 4290SOL    HW124332   2.725   1.445  12.869  1.2605  0.9893 -1.5114
 4290SOL    HW224333   2.753   1.290  12.837 -1.5772  1.2819 -0.6561
 4291SOL     OW24334   2.800   4.446  13.314  0.3620 -0.7764  0.0633
 4291SOL    HW124335   2.748   4.366  13.312  1.8751 -1.8098  2.4597
 4291SOL    HW224336   2.731   4.511  13.328  2.3060  1.7339 -2.0293
 4292SOL     OW24337   4.166   4.473   5.057 -0.1577 -0.1133  0.0848
 4292SOL    HW124338   4.158   4.393   5.108  1.9754 -0.6080 -0.3543
 4292SOL    HW224339   4.252   4.499   5.091  0.1553 -1.6854  0.4567
 4293SOL     OW24340   4.653   0.448   5.798  0.0304  0.2361 -0.2280
 4293SOL    HW124341   4.641   0.374   5.857  0.8184  1.7427  1.7970
 4293SOL    HW224342   4.589   0.422   5.732  2.2459 -2.0586 -1.4565
 4294SOL     OW24343   1.054   2.249   9.566  0.1894  0.0367 -0.1583
 4294SOL    HW124344   1.028   2.224   9.655 -1.5229 -2.0264 -1.2203
 4294SOL    HW224345   1.124   2.312   9.577  0.8274 -0.8634  0.9173
 4295SOL     OW24346   4.652   2.355   4.900 -0.0712 -0.2432  0.3663
 4295SOL    HW124347   4.669   2.261   4.908 -0.1832 -0.8192 -6.0252
 4295SOL    HW224348   0.020   2.379   4.906 -0.0913 -0.3032  0.8806
 4296SOL     OW24349   3.771   2.817   5.455 -0.0628  0.6818 -0.2861
 4296SOL    HW124350   3.810   2.800   5.369 -1.4139  0.5236 -0.8746
 4296SOL    HW224351   3.829   2.885   5.490  0.1871  0.6659 -0.6767
 4297SOL     OW24352   1.320   1.973   6.635  0.2337 -0.5679 -0.3638
 4297SOL    HW124353   1.273   1.912   6.692 -1.2127  0.3719 -0.5320
 4297SOL    HW224354   1.393   1.924   6.597 -0.5321 -0.9531 -1.3435
 4298SOL     OW24355   2.322   2.668   0.662  0.1169 -0.4355  0.3632
 4298SOL    HW124356   2.337   2.710   0.577 -0.0491  1.8527  1.4531
 4298SOL    HW224357   2.411   2.658   0.697  0.0276  3.0375  1.5416
 4299SOL     OW24358   0.449   1.877  16.437 -0.2575 -0.0554  0.0188
 4299SOL    HW124359   0.413   1.832  16.360  0.5954  0.2756 -0.5773
 4299SOL    HW224360   0.467   1.811  16.504 -2.9263  1.3964  2.1585
 4300SOL     OW24361   2.658   3.654   3.473  0.1668  0.1897  0.0881
 4300SOL    HW124362   2.730   3.597   3.496  0.8649  0.8317 -0.5113
 4300SOL    HW224363   2.683   3.679   3.384 -0.4355 -1.3931 -0.5224
 4301SOL     OW24364   3.366   0.788   4.578  0.1834  0.6571  0.1512
 4301SOL    HW124365   3.404   0.700   4.569  1.0079  1.1337 -0.9982
 4301SOL    HW224366   3.386   0.815   4.668 -1.7832  2.7413 -0.0479
 4302SOL     OW24367   2.848   0.330   1.716  0.0333  0.1369  0.1072
 4302SOL    HW124368   2.921   0.268   1.711 -2.2078 -2.4280 -0.7533
 4302SOL    HW224369   2.784   0.286   1.659 -0.7307  0.2156  0.9154
 4303SOL     OW24370   0.302   2.255  14.135  0.1516 -0.1484  0.1469
 4303SOL    HW124371   0.269   2.215  14.054  2.3284 -4.2543  1.3093
 4303SOL    HW224372   0.394   2.275  14.115 -0.0986  1.3392  0.4831
 4304SOL     OW24373   3.553   1.586  11.414  1.0197 -0.4458 -0.7121
 4304SOL    HW124374   3.556   1.673  11.454  2.1613 -0.0672 -1.6066
 4304SOL    HW224375   3.575   1.531  11.489  1.3043  1.3834  0.5500
 4305SOL     OW24376   3.345   1.833   3.343  0.2340 -0.0299  0.1888
 4305SOL    HW124377   3.308   1.833   3.432 -1.8067  0.9434 -0.6724
 4305SOL    HW224378   3.273   1.873   3.296 -0.2122 -0.0545  0.8461
 4306SOL     OW24379   2.320   1.819   0.766  0.0787  0.5379 -0.4177
 4306SOL    HW124380   2.375   1.785   0.837  0.4822 -0.9668 -1.4602
 4306SOL    HW224381   2.262   1.888   0.799 -0.8392 -1.1598  1.5380
 4307SOL     OW24382   2.639   1.961   6.636  0.1068 -0.2203 -0.0997
 4307SOL    HW124383   2.581   2.029   6.671  2.1809  1.2721  0.4489
 4307SOL    HW224384   2.614   1.950   6.545  0.0753 -0.7722 -0.0238
 4308SOL     OW24385   2.783   4.014   4.378 -0.2314  0.4380 -0.4980
 4308SOL    HW124386   2.847   3.993   4.446 -0.2511  0.0628 -0.5941
 4308SOL    HW224387   2.842   4.019   4.303  0.2449 -2.4421 -0.3177
 4309SOL     OW24388   1.241   4.178   3.836 -0.4250  0.4757 -0.1961
 4309SOL    HW124389   1.327   4.138   3.848 -0.8286  0.1678  1.6228
 4309SOL    HW224390   1.231   4.212   3.925  0.5449 -0.1438  0.1468
 4310SOL     OW24391   2.575   2.357  16.405  0.3864  0.4800 -0.2632
 4310SOL    HW124392   2.606   2.429  16.461  0.2023  0.0145  0.4364
 4310SOL    HW224393   2.602   2.298  16.475  0.4081  1.0879  0.2379
 4311SOL     OW24394   3.968   3.952   7.144  0.0379 -0.6277  0.1092
 4311SOL    HW124395   3.920   4.000   7.077  1.0217  2.1336  1.3517
 4311SOL    HW224396   4.036   3.909   7.092 -1.0965  0.9799 -2.6609
 4312SOL     OW24397   1.428   1.014   6.058  0.1395  0.3168  0.2641
 4312SOL    HW124398   1.436   1.101   6.097 -1.0966 -0.0805  1.3852
 4312SOL    HW224399   1.507   1.015   6.004 -2.2278 -0.7558 -3.1741
 4313SOL     OW24400   2.249   2.231   6.892 -0.2301  0.0752 -0.1653
 4313SOL    HW124401   2.312   2.298   6.866  0.5672 -0.8042 -0.4955
 4313SOL    HW224402   2.299   2.150   6.878 -0.6375 -0.2761  0.4082
 4314SOL     OW24403   2.304   3.781   3.665 -0.4419 -0.7160  0.2177
 4314SOL    HW124404   2.303   3.862   3.615 -0.4160 -0.6451  0.3306
 4314SOL    HW224405   2.320   3.715   3.598 -0.7945  0.8986 -1.4579
 4315SOL     OW24406   4.286   2.893  13.557 -0.0092 -0.0908  0.0510
 4315SOL    HW124407   4.345   2.821  13.581 -0.7146 -0.1235  1.6713
 4315SOL    HW224408   4.204   2.846  13.553  0.2426 -0.4697 -0.6579
 4316SOL     OW24409   1.399   0.560   5.035 -0.1635  0.3203  0.1417
 4316SOL    HW124410   1.339   0.587   5.104  0.0466 -0.6884  0.7130
 4316SOL    HW224411   1.372   0.469   5.019  1.4242 -0.1668  0.2755
 4317SOL     OW24412   3.530   4.021   2.535 -0.2474  0.1496 -0.2382
 4317SOL    HW124413   3.566   4.038   2.622  1.2947 -2.5636 -0.3430
 4317SOL    HW224414   3.609   4.010   2.483 -0.1927  1.2015 -0.3582
 4318SOL     OW24415   0.899   4.158   1.775 -0.3740  0.1989  0.1699
 4318SOL    HW124416   0.854   4.223   1.722 -0.4114  0.4459  0.5043
 4318SOL    HW224417   0.960   4.216   1.820  2.2352 -1.3644 -1.3252
 4319SOL     OW24418   2.219   3.531   0.561 -0.0852 -0.5009 -0.3822
 4319SOL    HW124419   2.254   3.451   0.521  5.4758  1.1469  1.1044
 4319SOL    HW224420   2.127   3.507   0.552 -0.0244 -1.2460  1.0248
 4320SOL     OW24421   1.164   1.901   4.827  0.0680 -0.7003 -0.3535
 4320SOL    HW124422   1.205   1.814   4.823  1.2102 -0.2821  1.6110
 4320SOL    HW224423   1.126   1.891   4.915 -0.9292 -0.0899 -0.7239
 4321SOL     OW24424   1.521   1.561  16.617 -0.0753 -0.3342  0.2445
 4321SOL    HW124425   1.524   1.537  16.710  0.1823  0.8834  0.5540
 4321SOL    HW224426   1.510   1.473  16.580  1.3144 -0.4765  0.1645
 4322SOL     OW24427   0.546   4.110   3.666 -1.0526  0.0468 -0.4567
 4322SOL    HW124428   0.547   4.050   3.591  1.3978 -0.6336  0.1262
 4322SOL    HW224429   0.461   4.152   3.663  0.0876  2.2791 -1.2179
 4323SOL     OW24430   2.656   0.039  13.890 -0.0629 -0.1760  0.0950
 4323SOL    HW124431   2.632   0.017  13.800  3.9294  1.5560 -1.4130
 4323SOL    HW224432   2.734   0.093  13.878 -0.0981  0.2177  1.6486
 4324SOL     OW24433   4.357   1.843   1.628 -0.2042  0.2597 -0.1083
 4324SOL    HW124434   4.400   1.770   1.585  0.6445  0.5538  0.2454
 4324SOL    HW224435   4.412   1.918   1.607 -1.6927  0.5926 -2.7342
 4325SOL     OW24436   2.509   1.975  17.687 -0.3380  0.3085  0.0257
 4325SOL    HW124437   2.448   1.976   0.062 -0.7013 -4.0325 -0.2680
 4325SOL    HW224438   2.448   1.926  17.632  1.5473 -0.1325 -1.6998
 4326SOL     OW24439   4.416   4.501   7.839  0.2699 -0.3117  0.3502
 4326SOL    HW124440   4.489   4.455   7.881  0.7039  0.6074  0.6079
 4326SOL    HW224441   4.340   4.471   7.890 -1.2251 -0.9104 -2.2488
 4327SOL     OW24442   1.127   2.146   9.202 -0.2714  0.2222  0.4159
 4327SOL    HW124443   1.220   2.163   9.214  0.1806 -0.9503 -1.5347
 4327SOL    HW224444   1.129   2.096   9.121  1.0756 -2.1498  1.8968
 4328SOL     OW24445   0.576   2.098   6.603 -0.0972 -0.0471 -0.3637
 4328SOL    HW124446   0.488   2.108   6.568 -0.6869 -0.6864  0.9635
 4328SOL    HW224447   0.607   2.182   6.570  0.1386 -1.3124 -3.3737
 4329SOL     OW24448   4.603   2.368   5.517 -0.0320  0.5350  0.0063
 4329SOL    HW124449   4.662   2.314   5.569  0.6044  0.9040 -0.3382
 4329SOL    HW224450   4.642   2.456   5.513 -0.0286  0.5042 -0.6933
 4330SOL     OW24451   0.097   2.471  11.787 -0.1343  0.1355 -0.6717
 4330SOL    HW124452   0.125   2.510  11.705  0.8245  0.2717 -0.2782
 4330SOL    HW224453   0.044   2.399  11.753  1.7459 -0.5256 -2.2224
 4331SOL     OW24454   0.393   4.100   3.398 -0.3149 -0.6014  0.0068
 4331SOL    HW124455   0.308   4.140   3.418 -0.7460 -1.4801 -0.0747
 4331SOL    HW224456   0.456   4.171   3.412 -0.1004 -0.6663 -0.6357
 4332SOL     OW24457   3.269   1.485  13.520  0.3242 -0.1339  0.0347
 4332SOL    HW124458   3.325   1.552  13.560 -1.1605 -0.0415  2.0068
 4332SOL    HW224459   3.305   1.482  13.432  0.2252 -3.1256  0.0953
 4333SOL     OW24460   4.177   2.746   3.112 -0.0539  0.0039 -0.8194
 4333SOL    HW124461   4.116   2.721   3.182 -1.1192  0.2953 -1.6415
 4333SOL    HW224462   4.124   2.764   3.034  0.7135  0.9792 -1.1059
 4334SOL     OW24463   1.312   3.836   5.649 -0.5651 -0.0080  0.4354
 4334SOL    HW124464   1.238   3.825   5.709 -2.7053  1.2982 -1.9461
 4334SOL    HW224465   1.384   3.877   5.697  0.6179 -0.2898 -1.0952
 4335SOL     OW24466   3.546   3.599   1.659 -0.4081  0.0943 -0.3760
 4335SOL    HW124467   3.613   3.544   1.619 -0.3079  0.4416 -0.6855
 4335SOL    HW224468   3.493   3.625   1.584  2.0478  2.3243 -1.3210
 4336SOL     OW24469   4.060   1.565   6.291  0.4548 -0.3163 -0.3455
 4336SOL    HW124470   4.136   1.600   6.246  1.0136  0.9407  1.5623
 4336SOL    HW224471   3.994   1.568   6.221 -0.7340  2.8691  0.9236
 4337SOL     OW24472   3.185   1.856   5.022  0.0513  0.8369 -0.0384
 4337SOL    HW124473   3.199   1.832   4.931  2.0280  1.4212  0.0977
 4337SOL    HW224474   3.199   1.950   5.015  2.4522  0.7960  3.9526
 4338SOL     OW24475   3.964   3.862   4.802  0.0494  0.1478 -0.1530
 4338SOL    HW124476   4.034   3.916   4.839 -0.0821 -0.5750  1.1417
 4338SOL    HW224477   4.008   3.815   4.731  0.0248  0.8471 -0.6339
 4339SOL     OW24478   2.864   3.618  15.511  0.3369 -1.0599 -0.2125
 4339SOL    HW124479   2.955   3.642  15.491  0.6533 -0.6397  1.7519
 4339SOL    HW224480   2.873   3.563  15.589  1.9425 -0.9401 -0.3065
 4340SOL     OW24481   3.000   3.231  13.291 -0.2463  0.1972  0.2175
 4340SOL    HW124482   3.096   3.239  13.289 -0.2060 -0.3591 -0.1369
 4340SOL    HW224483   2.991   3.202  13.382 -0.8318 -1.4607 -0.3752
 4341SOL     OW24484   4.135   3.661   3.240  0.3944 -0.5251  0.0869
 4341SOL    HW124485   4.150   3.602   3.166  3.0827  0.4380 -0.1427
 4341SOL    HW224486   4.209   3.721   3.229 -1.8565  2.3493  0.7057
 4342SOL     OW24487   0.794   3.527   2.525  0.0397 -0.5121  0.0585
 4342SOL    HW124488   0.876   3.512   2.479 -0.6920  0.4878 -1.5794
 4342SOL    HW224489   0.738   3.515   2.448 -0.4638  0.7074  0.2393
 4343SOL     OW24490   0.624   4.529   2.538 -0.3037  0.0256 -0.7107
 4343SOL    HW124491   0.686   4.514   2.609  0.6190 -1.5024 -1.8335
 4343SOL    HW224492   0.569   4.593   2.582 -1.2603  0.3922 -2.4289
 4344SOL     OW24493   3.527   1.849   8.022  0.4354  0.1084 -0.1394
 4344SOL    HW124494   3.603   1.884   7.975  1.0245 -3.4021 -1.8112
 4344SOL    HW224495   3.456   1.902   7.986 -0.4189  1.2198  3.2702
 4345SOL     OW24496   4.049   1.772  14.047  0.1123 -0.2671 -0.2611
 4345SOL    HW124497   4.097   1.800  13.970  0.3021 -0.4371 -0.2048
 4345SOL    HW224498   3.986   1.842  14.063 -1.5488 -1.8480  0.0882
 4346SOL     OW24499   3.309   3.423   6.589  0.6786  0.2893  0.1366
 4346SOL    HW124500   3.372   3.352   6.574  0.7292  0.5387 -0.8534
 4346SOL    HW224501   3.344   3.492   6.533  0.5337 -0.4433 -0.8619
 4347SOL     OW24502   1.572   2.391   4.491  0.0983 -0.1073 -0.2904
 4347SOL    HW124503   1.628   2.443   4.549 -0.4674  1.3312 -1.0465
 4347SOL    HW224504   1.487   2.385   4.536 -0.1448  0.3506 -0.6928
 4348SOL     OW24505   0.578   2.303  14.093 -0.3903  0.5650  0.9176
 4348SOL    HW124506   0.597   2.335  14.004  0.9213 -4.5026 -0.6429
 4348SOL    HW224507   0.639   2.229  14.092  2.9225  3.3187  0.3591
 4349SOL     OW24508   3.894   4.604   5.037 -0.1617  0.2942 -0.0726
 4349SOL    HW124509   3.942   4.521   5.027  1.1339  1.0762 -0.4229
 4349SOL    HW224510   3.921   4.630   5.125  2.1780 -0.2013 -0.6151
 4350SOL     OW24511   2.297   3.393   1.844  0.1140 -0.1702 -0.3253
 4350SOL    HW124512   2.231   3.462   1.856  0.2908 -0.0835  0.1398
 4350SOL    HW224513   2.273   3.376   1.752  0.9743 -1.4610 -0.3132
 4351SOL     OW24514   1.491   1.318  16.176  0.1701  0.6102 -0.3366
 4351SOL    HW124515   1.411   1.274  16.204 -0.6501  2.0973 -0.3030
 4351SOL    HW224516   1.559   1.252  16.188  3.4997  4.1513  0.3326
 4352SOL     OW24517   1.188   4.368   8.191 -0.2986  0.2408  0.1791
 4352SOL    HW124518   1.183   4.441   8.253 -1.7159 -1.3149  1.8618
 4352SOL    HW224519   1.229   4.301   8.246  0.0586 -0.5895 -1.0951
 4353SOL     OW24520   1.148   2.841   7.961 -0.0810 -0.8267 -0.1081
 4353SOL    HW124521   1.144   2.936   7.967 -0.9190 -0.7587 -1.9596
 4353SOL    HW224522   1.139   2.814   8.053  2.8424  0.9453  0.7179
 4354SOL     OW24523   2.639   3.514   7.537 -0.1368 -0.3549  0.3230
 4354SOL    HW124524   2.618   3.593   7.488  1.4599 -1.3755 -2.0048
 4354SOL    HW224525   2.627   3.442   7.475 -0.5244 -0.4867  0.5517
 4355SOL     OW24526   4.245   1.267   6.187  0.2281  0.4307  0.0491
 4355SOL    HW124527   4.220   1.218   6.108 -2.2986  0.2898  0.9431
 4355SOL    HW224528   4.171   1.326   6.198 -1.9320 -2.0763 -0.8716
 4356SOL     OW24529   2.240   3.455   8.106  0.0599 -0.1609 -0.4070
 4356SOL    HW124530   2.275   3.414   8.028 -0.0063 -2.3994  0.7341
 4356SOL    HW224531   2.148   3.467   8.083  0.1208  0.8665 -0.1340
 4357SOL     OW24532   0.039   2.267   6.931 -0.2526  0.0121 -0.1263
 4357SOL    HW124533   0.095   2.211   6.984  0.0152 -0.2801 -0.7133
 4357SOL    HW224534   4.678   2.239   6.966 -0.2705  0.4710  0.1934
 4358SOL     OW24535   2.139   3.944   6.323 -0.4343 -0.1765 -0.2887
 4358SOL    HW124536   2.148   3.986   6.409 -0.7842 -0.5261 -0.0793
 4358SOL    HW224537   2.220   3.969   6.279 -1.3927 -0.3959 -2.1527
 4359SOL     OW24538   3.815   0.252   2.852 -0.8340 -0.1308 -0.2114
 4359SOL    HW124539   3.781   0.219   2.768  0.4076 -4.1714  0.8905
 4359SOL    HW224540   3.883   0.189   2.876 -2.4016 -2.0976 -0.8743
 4360SOL     OW24541   2.946   4.617  11.917 -0.3170  0.0929  1.0602
 4360SOL    HW124542   2.903   4.533  11.928  0.2661 -0.2019  1.0849
 4360SOL    HW224543   2.883   4.650  11.852 -2.2170 -0.2951  2.7293
 4361SOL     OW24544   2.637   1.198   8.346  0.1060  0.2049  0.1789
 4361SOL    HW124545   2.651   1.277   8.295  1.8706 -1.4100 -1.8305
 4361SOL    HW224546   2.653   1.129   8.281  0.7649 -0.0952  0.6577
 4362SOL     OW24547   3.430   2.403   5.257  0.6080  0.0156 -0.2289
 4362SOL    HW124548   3.466   2.446   5.335 -0.6988  2.5055 -0.9871
 4362SOL    HW224549   3.414   2.322   5.305  1.5599 -1.5159 -2.5155
 4363SOL     OW24550   4.525   1.297   6.952  0.5309  0.3111  0.1580
 4363SOL    HW124551   4.562   1.364   7.010  0.0173  1.6733 -1.0862
 4363SOL    HW224552   4.594   1.272   6.890  2.3743  2.0437  1.5144
 4364SOL     OW24553   2.781   1.168  13.643  0.1256  0.6165 -0.1279
 4364SOL    HW124554   2.742   1.131  13.564 -0.9790 -0.1516  0.7858
 4364SOL    HW224555   2.870   1.133  13.634 -0.2880 -0.7818  1.2145
 4365SOL     OW24556   2.661   0.213   7.920 -0.1045 -0.5728 -0.0682
 4365SOL    HW124557   2.712   0.189   7.843  0.8517 -1.0045  0.6980
 4365SOL    HW224558   2.602   0.138   7.916 -0.1902 -0.5081 -0.0207
 4366SOL     OW24559   3.458   2.385   5.804  0.2913 -0.3381 -0.3238
 4366SOL    HW124560   3.450   2.443   5.880 -1.7786  1.2819 -1.7675
 4366SOL    HW224561   3.539   2.338   5.823  0.0048 -0.9157 -0.5401
 4367SOL     OW24562   4.375   1.466   5.413  0.1623 -0.2461 -0.3971
 4367SOL    HW124563   4.301   1.523   5.392  0.1521 -0.8508 -2.0138
 4367SOL    HW224564   4.424   1.522   5.472 -0.9040  0.2260  0.0530
 4368SOL     OW24565   3.030   4.223   4.522  0.3294 -0.2731  0.5851
 4368SOL    HW124566   3.009   4.314   4.504 -1.3388 -0.4871  1.4418
 4368SOL    HW224567   2.995   4.199   4.437 -0.2047  0.1841  0.6726
 4369SOL     OW24568   0.430   2.229   8.567 -0.1902 -0.7989  0.0652
 4369SOL    HW124569   0.432   2.167   8.493  2.0430 -1.6943  0.8881
 4369SOL    HW224570   0.338   2.230   8.592 -0.5435  1.0935 -1.2999
 4370SOL     OW24571   2.008   2.792   0.412  0.5418  0.2455 -0.1522
 4370SOL    HW124572   1.949   2.722   0.441 -0.0518  0.1029 -1.7348
 4370SOL    HW224573   1.948   2.856   0.375 -1.5640 -1.2154  0.6899
 4371SOL     OW24574   1.219   1.978  14.128 -0.6788  0.5742  0.3025
 4371SOL    HW124575   1.303   2.001  14.168 -0.6576  3.0548 -1.1684
 4371SOL    HW224576   1.189   1.902  14.179  2.0921  0.5725  1.9453
 4372SOL     OW24577   3.233   1.673   4.463 -0.0644 -0.1570 -0.1478
 4372SOL    HW124578   3.220   1.654   4.556  0.8297  1.1855  0.2560
 4372SOL    HW224579   3.283   1.595   4.437  3.6818  2.9599 -2.4152
 4373SOL     OW24580   2.974   1.181   2.627 -0.1920 -0.0059 -1.0229
 4373SOL    HW124581   2.926   1.115   2.677  1.6292  0.2715  1.1392
 4373SOL    HW224582   2.915   1.182   2.552 -0.2008  0.3045 -1.0122
 4374SOL     OW24583   0.993   2.939   2.028 -0.0245 -0.6238 -0.3387
 4374SOL    HW124584   1.051   2.946   2.103 -1.7248  0.4656  0.8819
 4374SOL    HW224585   0.973   2.845   2.033  0.0798 -0.5705  1.0714
 4375SOL     OW24586   3.703   3.414   5.026  0.1729  0.0036 -0.8689
 4375SOL    HW124587   3.776   3.357   5.002  0.0857 -0.3357 -0.3269
 4375SOL    HW224588   3.626   3.365   4.998 -0.1714 -0.7504  1.4932
 4376SOL     OW24589   4.271   1.044   3.010  0.4205  0.4707 -0.2232
 4376SOL    HW124590   4.206   0.982   2.978  1.6917 -1.4380  0.9333
 4376SOL    HW224591   4.275   1.101   2.933 -0.3079  0.2220 -0.4420
 4377SOL     OW24592   2.964   3.926  15.345  0.7554  0.4095  0.0052
 4377SOL    HW124593   2.940   3.926  15.438 -1.0503 -2.4675 -0.4568
 4377SOL    HW224594   3.059   3.938  15.352  0.7957  1.1739 -1.7220
 4378SOL     OW24595   0.270   1.080   0.182  0.0023 -0.7491 -0.4064
 4378SOL    HW124596   0.274   1.135   0.103  2.4023 -0.6714 -0.2259
 4378SOL    HW224597   0.295   1.154   0.237 -0.2197 -1.7875  1.0735
 4379SOL     OW24598   3.767   2.413   5.456 -0.2255  0.1953 -0.1975
 4379SOL    HW124599   3.695   2.361   5.491 -0.4525  0.3615 -0.4086
 4379SOL    HW224600   3.747   2.436   5.365 -1.3464 -0.6693 -0.1622
 4380SOL     OW24601   2.574   1.323   7.260 -1.0529  0.4621  0.2205
 4380SOL    HW124602   2.547   1.335   7.351 -0.0658 -0.1784  0.5915
 4380SOL    HW224603   2.500   1.360   7.211 -0.8439 -1.8673 -1.8470
 4381SOL     OW24604   2.210   2.978  15.424 -0.4266 -0.1573  0.0948
 4381SOL    HW124605   2.294   2.964  15.382 -0.1540  1.8539 -0.0593
 4381SOL    HW224606   2.198   2.888  15.452 -1.7323  0.0929  0.3851
 4382SOL     OW24607   0.025   3.625   6.422 -0.4915 -0.0804  0.4243
 4382SOL    HW124608   0.045   3.612   6.514 -0.0622  0.5714  0.4238
 4382SOL    HW224609   4.692   3.701   6.435  1.0905  1.0726  0.6859
 4383SOL     OW24610   2.523   4.724   8.410  0.1520 -0.1823  0.7153
 4383SOL    HW124611   2.432   4.701   8.394  0.5546 -0.1178 -1.6416
 4383SOL    HW224612   2.560   4.652   8.463 -2.0886 -0.3579  2.0138
 4384SOL     OW24613   2.992   0.948   9.307 -0.0858  0.2121  0.2614
 4384SOL    HW124614   3.015   0.908   9.391  1.0121 -2.2020 -1.1994
 4384SOL    HW224615   2.968   1.033   9.345  0.4713  1.5121 -2.2999
 4385SOL     OW24616   0.195   0.810   4.142 -0.0413 -0.5160 -0.1897
 4385SOL    HW124617   0.232   0.797   4.054 -1.8721 -4.0134 -0.4250
 4385SOL    HW224618   0.134   0.880   4.120 -0.5759 -1.4380 -1.6358
 4386SOL     OW24619   1.863   2.813   7.043 -0.6796  0.0363  0.0808
 4386SOL    HW124620   1.785   2.759   7.032  0.1579 -1.0459 -0.4822
 4386SOL    HW224621   1.930   2.745   7.041 -0.5935  0.1565 -0.8281
 4387SOL     OW24622   3.697   1.944   2.766  0.0719 -0.2570 -0.6891
 4387SOL    HW124623   3.710   2.028   2.721 -0.7811  1.3641  2.0776
 4387SOL    HW224624   3.779   1.901   2.744  1.3670  1.7755  0.2009
 4388SOL     OW24625   3.215   2.983  11.834  0.2775 -0.1105 -0.2682
 4388SOL    HW124626   3.306   2.991  11.863  0.1016  1.9151 -0.2325
 4388SOL    HW224627   3.179   3.054  11.888 -0.6473  0.5892 -1.7987
 4389SOL     OW24628   2.388   3.126   5.379 -0.1838  0.1055  0.3125
 4389SOL    HW124629   2.412   3.062   5.312 -1.8069 -0.3310  0.1644
 4389SOL    HW224630   2.472   3.123   5.426 -0.6196 -0.2844  1.0643
 4390SOL     OW24631   2.003   0.842   4.198  0.1895 -0.4395  0.4850
 4390SOL    HW124632   2.055   0.910   4.241 -0.8749  0.9349 -0.4128
 4390SOL    HW224633   1.946   0.891   4.139  0.1410 -2.1079 -0.8478
 4391SOL     OW24634   3.876   0.127   7.734 -0.3550 -0.5827 -0.2089
 4391SOL    HW124635   3.844   0.062   7.796 -1.4815 -0.9154 -1.1605
 4391SOL    HW224636   3.857   0.069   7.661  0.9583 -1.1929 -0.0798
 4392SOL     OW24637   1.782   3.041   5.519  0.1319  0.2392 -0.2762
 4392SOL    HW124638   1.850   2.976   5.509 -0.1093 -0.0570  0.0043
 4392SOL    HW224639   1.831   3.122   5.534  2.0179 -1.0477  0.4516
 4393SOL     OW24640   3.398   0.302   3.196 -0.4610 -0.6073 -0.7916
 4393SOL    HW124641   3.316   0.344   3.223 -0.1445  0.6530 -1.8080
 4393SOL    HW224642   3.421   0.339   3.111  0.0995 -0.4348 -0.5636
 4394SOL     OW24643   3.290   0.774   9.607  0.8082  0.6565  1.0986
 4394SOL    HW124644   3.340   0.720   9.669 -0.5598 -1.9065 -0.0281
 4394SOL    HW224645   3.315   0.735   9.523 -1.0284  2.9143 -0.4900
 4395SOL     OW24646   2.325   3.617  12.430 -0.3546  0.2932 -0.1145
 4395SOL    HW124647   2.292   3.664  12.506  1.3831  1.4106 -0.0663
 4395SOL    HW224648   2.238   3.622  12.390  0.0282 -1.5180 -1.1922
 4396SOL     OW24649   1.026   0.575   3.106  0.0958 -0.3646 -0.3457
 4396SOL    HW124650   1.100   0.617   3.149 -0.4991  1.1526 -0.8053
 4396SOL    HW224651   0.957   0.641   3.113 -0.1064 -0.5639 -0.4594
 4397SOL     OW24652   2.312   3.162   2.706  0.1843  0.1141 -0.3601
 4397SOL    HW124653   2.236   3.181   2.651 -0.0466  2.9379  0.9259
 4397SOL    HW224654   2.366   3.114   2.643  1.0106  0.7843 -0.1674
 4398SOL     OW24655   3.453   3.314   2.755 -0.1537 -0.3820 -0.5137
 4398SOL    HW124656   3.360   3.310   2.781 -0.2679  0.3655 -0.8120
 4398SOL    HW224657   3.446   3.333   2.662 -1.0892 -2.0567 -0.7823
 4399SOL     OW24658   4.198   2.370   6.794 -0.5530 -0.6325  0.4851
 4399SOL    HW124659   4.192   2.331   6.707 -0.1874 -2.9724  1.5296
 4399SOL    HW224660   4.240   2.294   6.834 -0.7106 -0.1894  1.5125
 4400SOL     OW24661   1.861   2.344   8.233 -0.0758  0.3923 -0.6384
 4400SOL    HW124662   1.892   2.279   8.169 -2.0114 -0.2428 -0.9247
 4400SOL    HW224663   1.925   2.415   8.225  0.1524  0.2258 -0.2627
 4401SOL     OW24664   0.409   1.402   3.028 -0.2284 -0.2279 -0.3518
 4401SOL    HW124665   0.371   1.388   3.115 -0.1341 -1.0144 -0.4395
 4401SOL    HW224666   0.500   1.382   3.051 -0.0432  0.6483 -0.3365
 4402SOL     OW24667   2.801   0.884   5.479  0.6274  0.1379 -0.1673
 4402SOL    HW124668   2.890   0.904   5.448  0.5569 -0.1803 -0.5879
 4402SOL    HW224669   2.748   0.903   5.402 -0.4683  1.4137  0.9135
 4403SOL     OW24670   2.115   0.337   3.049  0.3181 -0.2182  0.6783
 4403SOL    HW124671   2.128   0.425   3.083  1.1941 -0.1921  0.2694
 4403SOL    HW224672   2.175   0.336   2.975 -0.4780 -0.1996  0.0275
 4404SOL     OW24673   0.704   3.070   6.844  0.0725  0.1242  0.2237
 4404SOL    HW124674   0.752   3.107   6.769 -2.5619  0.4684 -1.2774
 4404SOL    HW224675   0.739   2.981   6.842 -0.7673 -0.2267  1.3078
 4405SOL     OW24676   3.756   3.288   9.634  0.4579 -0.0315  0.2764
 4405SOL    HW124677   3.822   3.299   9.702  0.2007 -2.4813  0.9348
 4405SOL    HW224678   3.711   3.206   9.656  1.4865 -0.7759 -0.3927
 4406SOL     OW24679   2.141   1.729   3.538  0.2020  0.2661  0.2378
 4406SOL    HW124680   2.200   1.776   3.596  0.0631 -0.6154  1.0923
 4406SOL    HW224681   2.205   1.708   3.470 -1.2971 -1.5005 -0.6267
 4407SOL     OW24682   2.044   2.467   3.656  0.4227 -0.3851  0.4193
 4407SOL    HW124683   2.013   2.544   3.704 -0.8058 -0.1566 -0.7325
 4407SOL    HW224684   2.073   2.500   3.571 -0.7653  0.4272  0.3310
 4408SOL     OW24685   1.967   3.733   7.213  0.0451  0.1182  0.1167
 4408SOL    HW124686   2.044   3.677   7.206  1.5471  2.1173  0.5539
 4408SOL    HW224687   1.893   3.672   7.206  0.5956 -0.4395 -0.8458
 4409SOL     OW24688   0.375   0.644   9.736 -0.5362  0.2706  0.0643
 4409SOL    HW124689   0.440   0.695   9.785  0.5184 -0.0274 -1.0175
 4409SOL    HW224690   0.416   0.558   9.747  0.2971  0.5535 -0.8292
 4410SOL     OW24691   1.558   3.593   3.261  0.3299  0.0180  0.1672
 4410SOL    HW124692   1.558   3.675   3.213  1.5070 -1.0857 -1.7312
 4410SOL    HW224693   1.469   3.561   3.275 -0.1288  0.7899 -1.0738
 4411SOL     OW24694   3.783   2.920   8.218  0.3914  0.5335  0.5506
 4411SOL    HW124695   3.874   2.898   8.237  0.5093  0.3273 -0.2378
 4411SOL    HW224696   3.742   2.839   8.246 -1.9771  1.2949 -0.6762
 4412SOL     OW24697   1.807   2.776   5.182 -0.1984  0.4552  0.2121
 4412SOL    HW124698   1.781   2.687   5.160 -2.2099  1.1873 -0.4028
 4412SOL    HW224699   1.848   2.758   5.267  1.1321  1.9715 -0.1043
 4413SOL     OW24700   2.147   1.271   0.573  0.0747  0.3167  0.2297
 4413SOL    HW124701   2.125   1.301   0.661 -1.0623 -2.0036  0.7232
 4413SOL    HW224702   2.202   1.196   0.594 -2.0119 -1.5054 -0.8750
 4414SOL     OW24703   2.637   0.813   3.497 -0.6376  0.0949 -0.0012
 4414SOL    HW124704   2.720   0.794   3.454  0.1789  0.3811  1.4425
 4414SOL    HW224705   2.585   0.742   3.458 -0.0225  0.4985 -1.5359
 4415SOL     OW24706   0.618   4.006   6.221 -0.5117  0.0170  0.4228
 4415SOL    HW124707   0.684   3.978   6.157 -0.3925  0.7644  0.2139
 4415SOL    HW224708   0.668   4.083   6.249 -1.6176  0.1821  1.9325
 4416SOL     OW24709   2.469   1.700  10.682  0.4136  0.0253 -0.0441
 4416SOL    HW124710   2.551   1.654  10.699  0.4980  0.1175 -0.2009
 4416SOL    HW224711   2.480   1.775  10.740 -0.0532  0.1708 -0.1471
 4417SOL     OW24712   0.814   1.344   2.288  0.0407  0.0250 -0.1465
 4417SOL    HW124713   0.816   1.249   2.280 -2.1509  0.0364 -0.8483
 4417SOL    HW224714   0.766   1.367   2.368 -0.1303  0.4981 -0.3866
 4418SOL     OW24715   2.283   0.785  15.070  0.3365 -0.2855 -0.1396
 4418SOL    HW124716   2.241   0.771  14.985 -1.0252 -1.9013  0.8058
 4418SOL    HW224717   2.239   0.863  15.105  1.0501  1.1309 -2.4541
 4419SOL     OW24718   0.312   3.604   2.492 -0.1677  0.0927  0.1210
 4419SOL    HW124719   0.251   3.593   2.566 -0.8953  0.7819 -0.3801
 4419SOL    HW224720   0.346   3.691   2.510  0.2311 -0.1872  0.7373
 4420SOL     OW24721   0.437   3.568  15.100 -0.2029  0.0413 -0.7599
 4420SOL    HW124722   0.436   3.621  15.179  2.5669 -0.4894 -0.3494
 4420SOL    HW224723   0.377   3.496  15.119  1.1056 -1.1043 -0.9518
 4421SOL     OW24724   0.225   0.836   7.221  0.0112  0.1139 -0.0008
 4421SOL    HW124725   0.299   0.823   7.279 -1.1692 -0.1148  1.4655
 4421SOL    HW224726   0.169   0.763   7.244  3.5011 -1.5948  2.9172
 4422SOL     OW24727   1.900   0.199   6.118  0.2063  0.0580  0.2941
 4422SOL    HW124728   1.985   0.189   6.074 -0.8725 -0.3976 -1.6574
 4422SOL    HW224729   1.929   0.184   6.208 -2.1942  0.7075  1.1678
 4423SOL     OW24730   4.629   3.339   7.032 -0.0584  0.3408 -0.0752
 4423SOL    HW124731   4.655   3.267   6.975 -2.0168 -1.8335  1.7236
 4423SOL    HW224732   4.547   3.300   7.065 -0.4043  1.5689  0.5179
 4424SOL     OW24733   0.693   0.745   6.741  0.0368  0.3939 -0.3495
 4424SOL    HW124734   0.704   0.806   6.668  0.6972  0.8953  0.1685
 4424SOL    HW224735   0.725   0.796   6.816  3.0822 -1.0260 -0.6657
 4425SOL     OW24736   2.589   4.339   8.339 -0.0245 -0.1621  0.1062
 4425SOL    HW124737   2.532   4.312   8.411  0.0197 -0.1171  0.1576
 4425SOL    HW224738   2.649   4.264   8.344  0.0891 -0.1162 -0.5904
 4426SOL     OW24739   0.963   0.822   7.669  0.8874 -0.1217 -0.0895
 4426SOL    HW124740   0.979   0.737   7.711 -1.0631 -0.5047 -0.1449
 4426SOL    HW224741   0.901   0.793   7.603  0.6654 -2.1282  1.0136
 4427SOL     OW24742   1.516   3.575  10.525  0.1458  0.2847 -0.2122
 4427SOL    HW124743   1.606   3.545  10.536 -0.7337 -2.5998 -0.7344
 4427SOL    HW224744   1.462   3.501  10.554 -0.2981 -0.0972 -1.9902
 4428SOL     OW24745   0.800   4.499   4.402 -0.8972 -0.9137  0.7448
 4428SOL    HW124746   0.754   4.583   4.398  2.7352  0.9801 -1.3813
 4428SOL    HW224747   0.815   4.477   4.310  1.4893  2.0041  0.4232
 4429SOL     OW24748   0.749   1.856   0.485  0.1448 -0.2899 -0.0986
 4429SOL    HW124749   0.757   1.932   0.541  0.6738 -0.7673  0.4651
 4429SOL    HW224750   0.663   1.867   0.442  0.9868  0.4617 -1.6059
 4430SOL     OW24751   2.854   1.062   6.425 -0.3805  0.1052  0.0406
 4430SOL    HW124752   2.871   1.073   6.332 -0.9835 -3.7500 -0.5259
 4430SOL    HW224753   2.887   0.972   6.436 -1.6152 -0.1205  2.0182
 4431SOL     OW24754   2.144   2.156   7.560 -0.2251 -0.2254 -0.0525
 4431SOL    HW124755   2.052   2.133   7.547 -0.0752 -1.1583  0.5029
 4431SOL    HW224756   2.157   2.147   7.655 -3.6252 -1.4516  0.3195
 4432SOL     OW24757   3.144   3.772   2.325  0.5604 -0.0051 -0.4067
 4432SOL    HW124758   3.228   3.757   2.281  0.6661  2.4891 -1.0431
 4432SOL    HW224759   3.172   3.814   2.407 -1.1334 -0.5716  0.4674
 4433SOL     OW24760   0.733   2.408   9.232  0.1624  0.1469 -0.2287
 4433SOL    HW124761   0.661   2.429   9.291 -0.4857 -1.7381 -0.3448
 4433SOL    HW224762   0.688   2.394   9.149  1.5693 -1.6327 -0.6827
 4434SOL     OW24763   1.349   2.284  14.641  0.3560  0.6091  0.3005
 4434SOL    HW124764   1.301   2.367  14.638 -0.5759  0.1687  2.7968
 4434SOL    HW224765   1.386   2.285  14.729 -1.1423 -1.9105  0.9713
 4435SOL     OW24766   2.616   3.768   7.372 -0.0543  0.1302  0.2401
 4435SOL    HW124767   2.640   3.710   7.300  2.1528  0.5271  0.6394
 4435SOL    HW224768   2.656   3.852   7.348 -0.4488  0.3912  0.4966
 4436SOL     OW24769   4.168   2.040   2.187  0.3453  0.5756 -0.0628
 4436SOL    HW124770   4.146   2.063   2.277 -0.4909 -0.3395 -0.0453
 4436SOL    HW224771   4.217   1.959   2.202  1.1595  0.8408 -1.2475
 4437SOL     OW24772   3.499   3.867   8.799 -0.0901 -0.0773 -0.1335
 4437SOL    HW124773   3.575   3.923   8.812 -0.8220  0.9007 -0.0512
 4437SOL    HW224774   3.437   3.895   8.866  0.0018  0.9502 -0.4719
 4438SOL     OW24775   1.342   0.532   4.580 -0.1964 -0.1899  0.3106
 4438SOL    HW124776   1.285   0.551   4.507  0.7726  1.0229 -0.1211
 4438SOL    HW224777   1.393   0.460   4.541 -3.0609 -2.4452  0.7127
 4439SOL     OW24778   1.891   3.352   4.196  0.1824 -0.6552 -0.2774
 4439SOL    HW124779   1.821   3.286   4.193  0.6795 -1.0857 -2.5542
 4439SOL    HW224780   1.872   3.416   4.128  2.1815 -1.4173 -1.5512
 4440SOL     OW24781   1.601   2.762   2.151 -0.1798  0.2959  0.3719
 4440SOL    HW124782   1.586   2.670   2.173 -1.7619  0.5011  0.1617
 4440SOL    HW224783   1.683   2.764   2.102 -0.9352  0.2071 -0.9062
 4441SOL     OW24784   0.430   0.090   4.867 -0.3817 -0.6149 -0.2625
 4441SOL    HW124785   0.368   0.128   4.805  0.6712  2.6268  0.6784
 4441SOL    HW224786   0.446   0.164   4.925 -1.8822 -0.0075 -0.6380
 4442SOL     OW24787   0.185   2.610   4.320  0.2021 -0.1685 -0.1612
 4442SOL    HW124788   0.201   2.687   4.374 -0.7522  0.6990 -1.1207
 4442SOL    HW224789   0.140   2.560   4.388  2.2160  0.6755  1.7648
 4443SOL     OW24790   4.085   1.120   7.354 -0.3297 -0.2801  0.2019
 4443SOL    HW124791   4.095   1.210   7.324  2.2891 -0.0142  1.8306
 4443SOL    HW224792   4.045   1.128   7.441 -2.4139 -1.9879 -0.6208
 4444SOL     OW24793   2.928   2.432   2.771 -0.1532 -0.2895 -0.2273
 4444SOL    HW124794   2.884   2.458   2.691 -0.2964  0.9434  0.2542
 4444SOL    HW224795   2.910   2.338   2.766  0.7524 -0.4024 -1.2528
 4445SOL     OW24796   2.572   0.681  12.466  0.0273 -0.3876 -0.5209
 4445SOL    HW124797   2.626   0.748  12.507 -1.7093  1.0683 -0.5969
 4445SOL    HW224798   2.485   0.713  12.493 -0.6930 -0.5205 -2.6652
 4446SOL     OW24799   1.176   3.120   3.310  0.0531  0.2343  0.1385
 4446SOL    HW124800   1.174   3.215   3.308 -2.5590  0.2088  1.3640
 4446SOL    HW224801   1.248   3.108   3.372  1.3659  0.3264 -1.3786
 4447SOL     OW24802   3.707   2.680   6.113 -0.1941  1.0926  0.7312
 4447SOL    HW124803   3.762   2.602   6.127  0.3867  1.4528  0.4724
 4447SOL    HW224804   3.755   2.738   6.172  0.5617  1.4156 -0.1965
 4448SOL     OW24805   4.631   3.203   3.681  0.1395 -0.1434 -0.0528
 4448SOL    HW124806   4.612   3.132   3.621 -2.3141  1.4074 -1.1238
 4448SOL    HW224807   4.547   3.240   3.711 -0.7045 -1.9667 -0.1494
 4449SOL     OW24808   2.116   0.326   2.274 -0.1824  0.0730 -0.0359
 4449SOL    HW124809   2.099   0.243   2.319  0.6837 -0.0527  0.0709
 4449SOL    HW224810   2.191   0.361   2.322 -0.0134  0.2740 -0.4430
 4450SOL     OW24811   3.727   3.576   7.320 -0.2817 -0.1789  0.6843
 4450SOL    HW124812   3.731   3.671   7.309 -3.8761 -0.2069 -0.8926
 4450SOL    HW224813   3.735   3.564   7.414  2.8474 -0.5740  0.3686
 4451SOL     OW24814   3.331   2.593   5.088  0.5155  0.1192 -0.3434
 4451SOL    HW124815   3.239   2.567   5.096  0.2442  0.7010 -1.5273
 4451SOL    HW224816   3.370   2.511   5.120  0.3726 -1.3617 -3.9558
 4452SOL     OW24817   3.284   0.441   5.310  0.3024  0.2560 -0.0155
 4452SOL    HW124818   3.309   0.356   5.273  0.0707  0.4706 -0.6706
 4452SOL    HW224819   3.311   0.437   5.401  1.1392  0.1262 -0.2700
 4453SOL     OW24820   1.132   4.452   7.595  0.3781  0.0612 -0.4151
 4453SOL    HW124821   1.146   4.539   7.557 -1.9567  0.6368  0.0458
 4453SOL    HW224822   1.210   4.442   7.650  0.1241 -2.2241 -0.4649
 4454SOL     OW24823   1.506   3.470   4.119  0.6437 -0.0487  0.3709
 4454SOL    HW124824   1.500   3.425   4.035  1.8697  0.1893  0.1530
 4454SOL    HW224825   1.425   3.429   4.151  2.0261 -2.4515  0.7846
 4455SOL     OW24826   4.046   1.656  14.338  0.6193 -0.5689 -0.2724
 4455SOL    HW124827   4.066   1.657  14.431  0.8647  1.2478 -0.3491
 4455SOL    HW224828   4.126   1.608  14.317  0.8546 -0.3162  0.0487
 4456SOL     OW24829   1.805   0.220   2.573  0.1954 -0.0114  0.4978
 4456SOL    HW124830   1.842   0.217   2.484 -0.4302  0.3261  0.2262
 4456SOL    HW224831   1.810   0.133   2.612  0.7253 -0.4859 -0.6222
 4457SOL     OW24832   3.350   3.940   0.358  0.9488 -0.4555  0.2649
 4457SOL    HW124833   3.299   3.883   0.300  1.1041  0.1512 -0.4547
 4457SOL    HW224834   3.391   3.868   0.406 -0.9039 -1.2630  0.6458
 4458SOL     OW24835   0.610   1.521   8.032  0.7534  0.1251  0.0428
 4458SOL    HW124836   0.691   1.561   8.001 -0.0227  2.4429  0.9941
 4458SOL    HW224837   0.560   1.511   7.951  2.0464 -1.1463 -0.6147
 4459SOL     OW24838   3.749   3.989   6.261 -0.0781 -0.6666 -0.3001
 4459SOL    HW124839   3.696   4.059   6.222 -0.1219  0.0916  1.1219
 4459SOL    HW224840   3.686   3.921   6.283  1.0885 -1.7496 -0.3122
 4460SOL     OW24841   1.988   3.039   9.238 -0.2433 -0.2107  0.6405
 4460SOL    HW124842   1.993   3.083   9.323  0.7069  0.1780  0.3770
 4460SOL    HW224843   2.057   2.974   9.251 -0.3138 -0.2009  1.0763
 4461SOL     OW24844   3.898   1.186   0.107 -0.4241 -0.5770 -0.0965
 4461SOL    HW124845   3.855   1.120   0.161  1.5062  0.2374  2.4023
 4461SOL    HW224846   3.821   1.221   0.061  0.9219 -1.3882 -2.9511
 4462SOL     OW24847   2.749   3.451   2.286 -0.2398 -0.0995  0.4820
 4462SOL    HW124848   2.690   3.475   2.214  0.4392 -2.1635 -0.7870
 4462SOL    HW224849   2.818   3.516   2.277  0.1699 -0.3657  1.7161
 4463SOL     OW24850   2.040   2.235   2.203  0.4219  0.3827  0.6965
 4463SOL    HW124851   2.059   2.326   2.227  0.1662  0.4997  0.4526
 4463SOL    HW224852   2.039   2.258   2.110  0.5957 -1.4869  0.2419
 4464SOL     OW24853   0.049   3.944   6.902  0.0275  0.3969  0.1519
 4464SOL    HW124854   0.112   4.012   6.925 -1.3441  0.5660  3.3776
 4464SOL    HW224855   0.080   3.873   6.959 -1.1820 -0.5686 -0.3960
 4465SOL     OW24856   1.235   0.895   0.946  0.0468 -0.1946 -1.5255
 4465SOL    HW124857   1.310   0.862   0.896  1.4834 -0.9623  1.1853
 4465SOL    HW224858   1.208   0.814   0.989  0.5524 -0.6271 -2.0201
 4466SOL     OW24859   2.038   0.355   3.705  0.1707  0.0414 -0.1843
 4466SOL    HW124860   2.127   0.388   3.695  1.2100 -2.4086  1.1157
 4466SOL    HW224861   2.027   0.319   3.617  3.1670  0.8401 -0.8804
 4467SOL     OW24862   3.722   1.929   7.847 -0.9579 -0.1030  0.2357
 4467SOL    HW124863   3.792   1.995   7.843 -0.2335 -0.8342  0.8013
 4467SOL    HW224864   3.705   1.905   7.756  0.6555 -0.5074  0.0510
 4468SOL     OW24865   2.520   2.890   9.288 -0.5450 -0.5451 -0.2915
 4468SOL    HW124866   2.468   2.815   9.257 -1.3634  0.0427 -0.3391
 4468SOL    HW224867   2.475   2.911   9.369 -1.1759  0.4050 -0.8914
 4469SOL     OW24868   2.336   3.602   7.731 -0.1804  0.1054 -0.2868
 4469SOL    HW124869   2.294   3.536   7.785  0.5547 -1.0390 -1.1308
 4469SOL    HW224870   2.303   3.574   7.646 -0.3477 -2.5559  0.6778
 4470SOL     OW24871   2.335   3.478   9.689 -0.6725 -0.3760 -0.7469
 4470SOL    HW124872   2.353   3.554   9.744  0.0658  1.5270 -3.5901
 4470SOL    HW224873   2.355   3.509   9.601 -1.4122  2.8083  0.2222
 4471SOL     OW24874   1.615   2.232   7.612  0.0340  0.1462 -0.0002
 4471SOL    HW124875   1.636   2.151   7.659 -0.6682  0.6931  1.2454
 4471SOL    HW224876   1.694   2.285   7.618 -0.5774  0.9772  0.6812
 4472SOL     OW24877   0.994   3.283   6.917  0.0480  0.0246  0.2459
 4472SOL    HW124878   0.926   3.239   6.968 -0.3529 -0.8622 -1.0293
 4472SOL    HW224879   1.021   3.354   6.975  0.6199 -0.2183  0.2798
 4473SOL     OW24880   1.468   3.300   8.784  0.3382  0.0798 -0.4675
 4473SOL    HW124881   1.377   3.328   8.777 -0.0832 -1.1119  0.2027
 4473SOL    HW224882   1.486   3.302   8.879 -0.7679 -0.9885 -0.2358
 4474SOL     OW24883   2.850   4.695   6.262  0.3091 -0.4455 -0.5697
 4474SOL    HW124884   2.894   4.647   6.192  1.0076 -1.1349  0.3473
 4474SOL    HW224885   2.922   0.027   6.290 -2.1730  3.3938 -1.8940
 4475SOL     OW24886   4.122   0.969   3.901  0.2706 -0.0273  0.5183
 4475SOL    HW124887   4.135   0.876   3.882  0.5826 -0.0892  1.0291
 4475SOL    HW224888   4.153   0.975   3.991  1.4109  1.3377  0.0411
 4476SOL     OW24889   2.444   0.339   3.773  0.6008 -0.1312  0.3244
 4476SOL    HW124890   2.520   0.374   3.819 -0.0861 -0.0308  1.3824
 4476SOL    HW224891   2.483   0.304   3.693  1.7709  0.4692  0.6416
 4477SOL     OW24892   4.168   2.794  11.343 -0.0142 -0.2623 -0.5475
 4477SOL    HW124893   4.112   2.716  11.337 -1.8315  0.8579  2.0699
 4477SOL    HW224894   4.128   2.843  11.415 -0.9273  0.1206 -1.3298
 4478SOL     OW24895   2.033   0.412   1.816  0.5017 -0.4872 -0.5385
 4478SOL    HW124896   2.027   0.504   1.791 -0.0489 -0.6195 -0.8896
 4478SOL    HW224897   1.948   0.402   1.858 -0.6122  0.9215 -2.4803
 4479SOL     OW24898   3.641   0.443   8.211  0.2451 -0.3810 -0.0649
 4479SOL    HW124899   3.658   0.382   8.139  0.4084  0.9688 -1.1534
 4479SOL    HW224900   3.601   0.386   8.277  1.2604 -1.2222 -0.1586
 4480SOL     OW24901   4.325   0.125   5.980 -0.3758 -0.0936 -0.0875
 4480SOL    HW124902   4.254   0.189   5.985 -1.0263 -0.6637 -2.2013
 4480SOL    HW224903   4.339   0.094   6.070 -1.1743 -0.2660 -0.0285
 4481SOL     OW24904   2.112   1.608   0.910  0.0844 -0.6274 -0.3615
 4481SOL    HW124905   2.190   1.608   0.966 -1.8742  2.2348  2.3061
 4481SOL    HW224906   2.047   1.610   0.979 -0.0463  1.1394 -0.5329
 4482SOL     OW24907   4.363   4.111   7.155  0.0177 -0.1676  0.3631
 4482SOL    HW124908   4.396   4.023   7.172 -1.1269 -0.5062  0.9054
 4482SOL    HW224909   4.306   4.105   7.078 -0.4535 -1.6536  0.8348
 4483SOL     OW24910   3.414   3.598  15.559  0.5246 -0.9626  0.3697
 4483SOL    HW124911   3.353   3.528  15.578  1.4954 -1.0607  3.1342
 4483SOL    HW224912   3.486   3.564  15.612  2.7712  0.0129 -2.0396
 4484SOL     OW24913   0.777   2.201   5.904  0.4116 -0.5870 -0.2041
 4484SOL    HW124914   0.867   2.204   5.935  1.0462 -0.5813 -2.0613
 4484SOL    HW224915   0.779   2.240   5.817 -0.1172  1.2529  0.6063
 4485SOL     OW24916   4.520   2.509   4.525 -0.1686  0.3702 -0.3390
 4485SOL    HW124917   4.540   2.431   4.473 -1.2541 -0.6762  0.8171
 4485SOL    HW224918   4.445   2.473   4.572  1.1406  1.3061  2.4767
 4486SOL     OW24919   3.586   0.152  10.352  0.3339 -0.5423 -0.1341
 4486SOL    HW124920   3.556   0.238  10.380  0.8927 -0.2476 -0.4208
 4486SOL    HW224921   3.559   0.096  10.425 -0.5770  0.7907  0.5453
 4487SOL     OW24922   2.466   0.218   4.577  0.6010 -0.2402  0.0757
 4487SOL    HW124923   2.542   0.261   4.538  0.0678 -0.3549 -1.0754
 4487SOL    HW224924   2.398   0.273   4.540  0.8923 -0.1207 -0.2864
 4488SOL     OW24925   2.947   1.554   4.582  0.6346  0.8177 -0.0198
 4488SOL    HW124926   2.968   1.623   4.645 -3.9390  0.2622  2.0989
 4488SOL    HW224927   2.908   1.489   4.640  1.6528  0.8216  0.6723
 4489SOL     OW24928   0.537   1.941   3.129  0.4426  0.0427  0.7560
 4489SOL    HW124929   0.629   1.915   3.131  0.9574  1.8291  0.7613
 4489SOL    HW224930   0.501   1.926   3.042  1.0238  2.8310  0.0323
 4490SOL     OW24931   0.541   0.098   3.304 -0.0932 -0.1495 -0.2420
 4490SOL    HW124932   0.550   0.171   3.365  1.2341 -0.2886 -0.2634
 4490SOL    HW224933   0.475   0.043   3.346 -1.0424  1.8354  0.8691
 4491SOL     OW24934   4.553   2.218   9.224 -0.4454  0.8598 -0.5772
 4491SOL    HW124935   4.599   2.261   9.151 -0.4888 -0.2774 -1.2704
 4491SOL    HW224936   4.473   2.179   9.187 -0.5774  1.9563 -1.4718
 4492SOL     OW24937   2.189   4.633  11.112 -0.6599  0.3149  0.2940
 4492SOL    HW124938   2.266   4.655  11.166  1.3758  1.2470 -2.9623
 4492SOL    HW224939   2.189   4.711  11.056 -0.8369 -0.6767 -1.0769
 4493SOL     OW24940   3.277   1.906  10.658 -0.3764  0.6676  0.2566
 4493SOL    HW124941   3.207   1.906  10.593  0.8098 -0.8069 -1.0389
 4493SOL    HW224942   3.299   1.996  10.635  1.5878 -0.0753 -0.8015
 4494SOL     OW24943   1.171   1.171   5.959 -0.0815 -0.3330 -0.6361
 4494SOL    HW124944   1.181   1.237   5.890  0.3315  0.9851  0.6973
 4494SOL    HW224945   1.264   1.157   5.976 -0.0648  0.1881 -0.3193
 4495SOL     OW24946   3.523   2.391   2.370 -0.7097 -0.5886  0.0084
 4495SOL    HW124947   3.476   2.466   2.407  1.1363  0.5540  0.0444
 4495SOL    HW224948   3.601   2.387   2.426  0.5048 -0.5207 -1.6930
 4496SOL     OW24949   0.193   0.145   5.392 -0.3770 -0.6536 -0.6174
 4496SOL    HW124950   0.156   0.082   5.330  1.8816 -1.8171 -0.7863
 4496SOL    HW224951   0.114   0.194   5.414  0.2224 -0.5783  1.4107
 4497SOL     OW24952   2.304   2.932  14.337  0.7172 -0.3109  0.3478
 4497SOL    HW124953   2.362   2.942  14.262  0.4463 -0.7183  0.0842
 4497SOL    HW224954   2.320   3.006  14.396  3.4720  0.5703 -1.4885
 4498SOL     OW24955   0.504   1.176   4.512  0.4485 -0.0092  0.0046
 4498SOL    HW124956   0.431   1.115   4.495  0.2188  0.3798 -0.3828
 4498SOL    HW224957   0.517   1.159   4.606 -1.9054 -0.0104  0.3254
 4499SOL     OW24958   4.443   3.104   4.346 -0.4078  0.1060  0.0333
 4499SOL    HW124959   4.440   3.009   4.330  0.7296  0.0209  0.3470
 4499SOL    HW224960   4.352   3.116   4.374 -0.7963  1.7104 -1.9034
 4500SOL     OW24961   1.621   0.108   7.288  0.6530  0.3665 -0.7121
 4500SOL    HW124962   1.628   0.031   7.233  1.0594  0.1489 -0.3580
 4500SOL    HW224963   1.563   0.086   7.361  1.8783 -1.8692 -0.4233
 4501SOL     OW24964   2.304   1.989   4.107  0.2709 -0.0132 -0.2155
 4501SOL    HW124965   2.393   2.024   4.107  0.4753 -0.5313  0.9484
 4501SOL    HW224966   2.268   2.034   4.031  1.1225  2.5288  0.8785
 4502SOL     OW24967   1.297   3.783   0.593  0.2202  0.5981 -0.1574
 4502SOL    HW124968   1.311   3.797   0.687  2.7422  0.6578 -0.5561
 4502SOL    HW224969   1.326   3.860   0.544 -1.0773  0.2183 -1.5433
 4503SOL     OW24970   3.149   0.275  13.812  0.3525  0.2497 -0.3957
 4503SOL    HW124971   3.189   0.332  13.746 -0.0253  1.4664  0.4228
 4503SOL    HW224972   3.147   0.343  13.880  0.1665  0.9579 -1.1035
 4504SOL     OW24973   1.490   1.921   8.726  0.1207 -0.5859 -0.1255
 4504SOL    HW124974   1.495   1.895   8.818  1.2252  0.7828  0.2041
 4504SOL    HW224975   1.576   1.896   8.693 -1.2769 -0.7341 -3.5730
 4505SOL     OW24976   1.068   1.236  13.697 -0.1341 -0.0836  0.0630
 4505SOL    HW124977   1.037   1.192  13.776 -1.5623 -0.3354 -0.6448
 4505SOL    HW224978   1.132   1.172  13.666 -0.4976  0.1176 -1.0896
 4506SOL     OW24979   1.985   4.618   8.139  0.1118 -0.2136  0.0470
 4506SOL    HW124980   2.073   4.623   8.102  1.3465  0.8893  3.0652
 4506SOL    HW224981   1.982   4.707   8.177  2.0196  0.0574 -0.4239
 4507SOL     OW24982   2.841   1.515   6.739 -0.3413  0.5635 -0.0720
 4507SOL    HW124983   2.880   1.461   6.670  0.8261  1.4536 -0.1156
 4507SOL    HW224984   2.803   1.447   6.794 -0.2452 -0.0174 -0.7294
 4508SOL     OW24985   1.075   0.629  12.276 -0.3584 -0.0138  0.0757
 4508SOL    HW124986   1.152   0.678  12.305  1.1785 -3.0154  1.0589
 4508SOL    HW224987   1.115   0.582  12.203 -0.0804  0.2406  0.0639
 4509SOL     OW24988   0.975   3.720  12.553 -0.2372  0.4819  0.1984
 4509SOL    HW124989   0.975   3.625  12.562  0.2150  0.6880  2.3939
 4509SOL    HW224990   1.063   3.736  12.588 -0.7418 -0.4247  1.8812
 4510SOL     OW24991   1.533   0.349   2.251  0.2287  0.5661  0.3096
 4510SOL    HW124992   1.610   0.293   2.261 -0.4538 -0.4694 -0.2471
 4510SOL    HW224993   1.482   0.297   2.190 -1.3848  3.0478 -0.4292
 4511SOL     OW24994   1.087   3.151   4.832  0.1540 -0.2466 -0.2233
 4511SOL    HW124995   0.994   3.129   4.822 -0.3647  1.6545  0.4555
 4511SOL    HW224996   1.117   3.162   4.742 -0.8273 -0.3027 -0.5610
 4512SOL     OW24997   0.929   1.657   9.326 -0.0406 -0.0095  0.0189
 4512SOL    HW124998   0.931   1.562   9.323  0.0419  0.0211 -0.9109
 4512SOL    HW224999   0.847   1.682   9.369 -1.6445 -1.0284 -2.4882
 4513SOL     OW25000   1.795   0.951   3.523 -0.0461 -0.3869 -0.2053
 4513SOL    HW125001   1.880   0.977   3.487  0.8493 -2.3030  0.5407
 4513SOL    HW225002   1.806   0.856   3.528 -1.3902 -0.4277  1.9684
 4514SOL     OW25003   0.109   0.653  12.256 -0.1686 -0.6410  0.3597
 4514SOL    HW125004   0.114   0.725  12.319  0.3523  0.9101 -1.4413
 4514SOL    HW225005   0.160   0.591  12.307 -1.9510 -3.1145 -0.8665
 4515SOL     OW25006   4.344   2.888   3.652  0.2170  0.3227  0.5543
 4515SOL    HW125007   4.347   2.793   3.668 -2.0600  0.6179  2.7597
 4515SOL    HW225008   4.264   2.909   3.700 -1.0624 -3.1828 -0.0092
 4516SOL     OW25009   0.824   0.760   4.596 -0.7414 -0.3303  0.0379
 4516SOL    HW125010   0.794   0.799   4.678 -1.7117  0.0302 -0.4756
 4516SOL    HW225011   0.908   0.807   4.596 -2.0809  2.1157 -1.4343
 4517SOL     OW25012   1.692   2.106   1.586  0.4095 -0.0221  0.5776
 4517SOL    HW125013   1.752   2.077   1.654  0.7650  0.8793  0.6599
 4517SOL    HW225014   1.634   2.031   1.580 -0.3848  0.6950 -0.6902
 4518SOL     OW25015   0.752   3.795  14.360 -0.0868 -0.7224 -0.2264
 4518SOL    HW125016   0.844   3.785  14.384 -0.1162  0.0642  0.2516
 4518SOL    HW225017   0.711   3.749  14.433 -0.7236 -0.5473 -0.4758
 4519SOL     OW25018   3.637   3.746   2.330  0.5046  0.6947  0.3608
 4519SOL    HW125019   3.652   3.660   2.289 -0.4858  0.7063 -0.0359
 4519SOL    HW225020   3.541   3.749   2.326  0.4039 -2.3010 -0.0450
 4520SOL     OW25021   2.240   0.734   5.602  0.3643  0.0381  0.0049
 4520SOL    HW125022   2.246   0.802   5.670 -0.2498 -0.3149  0.4147
 4520SOL    HW225023   2.312   0.768   5.550  1.1065  0.6857  1.4339
 4521SOL     OW25024   1.971   1.333   3.502  0.1765 -0.5859 -0.3804
 4521SOL    HW125025   1.930   1.408   3.458 -0.9766  0.3398  2.3000
 4521SOL    HW225026   1.893   1.277   3.504 -0.4398  0.3902  3.1292
 4522SOL     OW25027   0.584   3.068   2.775  0.4262  0.0717 -0.1222
 4522SOL    HW125028   0.498   3.051   2.737  0.1469 -0.6309  0.8305
 4522SOL    HW225029   0.614   3.149   2.733 -1.6022  1.1141  0.4210
 4523SOL     OW25030   3.007   4.371  15.975  0.6135  0.3521  0.2656
 4523SOL    HW125031   2.970   4.360  16.063 -1.8818  0.2389 -0.8150
 4523SOL    HW225032   3.099   4.370  16.000  0.0299 -1.2890  2.3587
 4524SOL     OW25033   2.965   3.419   6.350 -0.0364 -0.2521 -0.0715
 4524SOL    HW125034   3.037   3.358   6.368  0.3263  0.1592 -0.1471
 4524SOL    HW225035   2.965   3.407   6.255 -0.1764 -0.2989 -0.0652
 4525SOL     OW25036   3.047   0.185   3.994  0.0362  0.1255  0.4376
 4525SOL    HW125037   2.983   0.114   3.992  0.0397  0.2245 -2.1439
 4525SOL    HW225038   2.999   0.268   4.001  0.3286  0.3228  0.0879
 4526SOL     OW25039   1.266   2.136   0.456 -0.1860 -0.4386  0.3215
 4526SOL    HW125040   1.295   2.060   0.407  0.0865  0.0576 -0.2951
 4526SOL    HW225041   1.316   2.204   0.410 -3.8189  1.1271 -1.2935
 4527SOL     OW25042   4.581   3.156   0.826  0.4967 -0.5184  0.3160
 4527SOL    HW125043   4.632   3.076   0.838  3.4000  1.1943 -0.3763
 4527SOL    HW225044   4.491   3.125   0.819 -0.4934  2.4120  0.1574
 4528SOL     OW25045   0.663   1.293   8.990 -0.0033 -0.1025  0.3803
 4528SOL    HW125046   0.732   1.227   8.998  1.0087  0.6157 -2.3009
 4528SOL    HW225047   0.707   1.349   8.926 -1.1795 -0.6478 -0.9217
 4529SOL     OW25048   2.942   2.148   3.103  0.3002  0.3042  0.5759
 4529SOL    HW125049   2.865   2.122   3.155 -1.9433  2.0812 -1.8924
 4529SOL    HW225050   2.966   2.226   3.153  2.7430  0.2228 -0.4573
 4530SOL     OW25051   0.269   1.544   5.204  0.0751  0.1773 -0.7276
 4530SOL    HW125052   0.306   1.578   5.122  2.6494 -2.1297 -0.5074
 4530SOL    HW225053   0.264   1.629   5.247  0.7658  0.7477 -1.7737
 4531SOL     OW25054   2.971   3.227   1.752 -0.0738 -0.4831 -0.2994
 4531SOL    HW125055   2.953   3.143   1.709 -0.8987  0.3978 -1.6720
 4531SOL    HW225056   2.896   3.279   1.724 -1.1222 -2.4299 -1.0678
 4532SOL     OW25057   4.615   1.958  17.137  0.3461 -0.0390 -0.5005
 4532SOL    HW125058   4.569   1.881  17.102 -1.1995  0.4131  0.5618
 4532SOL    HW225059   4.596   2.033  17.081 -0.2641  0.7751  0.8170
 4533SOL     OW25060   1.863   1.917  13.148  0.3572 -0.1262 -0.2535
 4533SOL    HW125061   1.895   1.912  13.058  2.0504  1.4361  0.2469
 4533SOL    HW225062   1.944   1.918  13.201 -1.9224  0.3872  3.2409
 4534SOL     OW25063   0.262   0.887   6.280 -0.7662 -0.6148  0.4395
 4534SOL    HW125064   0.180   0.855   6.244 -0.1472 -1.9493  0.2310
 4534SOL    HW225065   0.296   0.803   6.310 -0.8872 -0.7540  0.1842
 4535SOL     OW25066   3.922   1.441   7.049  0.3224  0.1906 -0.8466
 4535SOL    HW125067   3.863   1.514   7.065  0.2046  0.8950 -4.6447
 4535SOL    HW225068   3.874   1.410   6.972 -0.3699 -1.5670  0.2894
 4536SOL     OW25069   1.282   1.952  15.495  0.1006 -0.1418  0.3709
 4536SOL    HW125070   1.218   1.887  15.466 -0.7153  0.3203  1.1099
 4536SOL    HW225071   1.221   2.022  15.520 -1.7754 -2.2828  1.8852
 4537SOL     OW25072   3.746   0.777   9.030  0.6978  0.1701  0.0590
 4537SOL    HW125073   3.767   0.843   8.965 -0.1785 -0.3186 -0.7241
 4537SOL    HW225074   3.827   0.780   9.081  1.2386 -0.2688 -0.7701
 4538SOL     OW25075   0.154   1.168   3.812 -0.6499  0.2751 -0.1548
 4538SOL    HW125076   0.143   1.133   3.723  0.7621 -2.4896  0.7469
 4538SOL    HW225077   0.086   1.234   3.815  0.8788  1.9694 -2.7856
 4539SOL     OW25078   3.510   2.478  11.081  0.0592 -0.2722  0.1249
 4539SOL    HW125079   3.501   2.394  11.126  0.8880 -1.1320 -1.3328
 4539SOL    HW225080   3.426   2.477  11.035 -0.7687 -1.4247  1.6854
 4540SOL     OW25081   1.828   1.982  12.539 -0.0081 -0.1784  0.3387
 4540SOL    HW125082   1.904   2.030  12.508 -0.8690  0.6021 -0.5872
 4540SOL    HW225083   1.861   1.898  12.569 -1.0422 -0.9102 -0.5408
 4541SOL     OW25084   4.122   0.390   6.378  0.1868  0.2070  0.0461
 4541SOL    HW125085   4.112   0.455   6.308 -1.9272  0.3405  0.4793
 4541SOL    HW225086   4.067   0.415   6.451 -0.3463 -0.8141  0.0005
 4542SOL     OW25087   4.721   0.695   3.876 -0.3305 -0.3585 -0.1789
 4542SOL    HW125088   0.002   0.640   3.798 -1.8355  1.6070 -1.6949
 4542SOL    HW225089   0.079   0.745   3.870  0.4978 -1.6381  0.5620
 4543SOL     OW25090   0.713   1.479   7.406 -0.4660  0.3752 -0.9211
 4543SOL    HW125091   0.727   1.574   7.417  2.0972 -0.0563 -0.3730
 4543SOL    HW225092   0.646   1.473   7.338 -2.4173 -1.3727  1.1600
 4544SOL     OW25093   0.498   4.283   5.277 -0.2296 -0.5483  0.3486
 4544SOL    HW125094   0.480   4.195   5.307  0.4569 -0.1144  2.0415
 4544SOL    HW225095   0.411   4.304   5.242  0.5317  1.3722 -0.3928
 4545SOL     OW25096   1.836   3.025  11.260  0.2305 -0.3355  0.1506
 4545SOL    HW125097   1.803   3.114  11.257  0.6404 -0.2450 -1.7092
 4545SOL    HW225098   1.759   2.968  11.259  0.8347 -1.1538  0.6249
 4546SOL     OW25099   0.766   0.800   3.740 -0.4834 -0.2574 -0.2468
 4546SOL    HW125100   0.847   0.850   3.745 -1.4838  1.3973 -0.4947
 4546SOL    HW225101   0.782   0.731   3.805  0.0288  1.7556  1.7596
 4547SOL     OW25102   4.558   1.836   4.151  0.1691  0.3727 -0.9547
 4547SOL    HW125103   4.511   1.916   4.174 -3.4155 -1.1070 -3.1068
 4547SOL    HW225104   4.502   1.805   4.079 -2.8109  0.5125  1.3173
 4548SOL     OW25105   1.059   0.950   7.256  0.1202 -0.5078  0.4241
 4548SOL    HW125106   1.103   0.958   7.171 -1.4635  1.8628 -0.1805
 4548SOL    HW225107   1.052   0.855   7.254 -1.5899 -0.3414 -3.2748
 4549SOL     OW25108   2.543   0.975   6.358 -0.3076 -0.1234  0.1001
 4549SOL    HW125109   2.613   1.013   6.411 -1.0789 -1.4454  2.0701
 4549SOL    HW225110   2.581   0.943   6.276 -1.3225 -1.0172 -0.0242
 4550SOL     OW25111   4.230   2.964   7.883 -0.0946 -0.1496  0.0527
 4550SOL    HW125112   4.288   2.992   7.812  0.2457 -1.6221 -0.2326
 4550SOL    HW225113   4.153   3.019   7.867 -0.0699  0.4318  1.8742
 4551SOL     OW25114   4.074   2.538   6.290  0.1876  0.0247 -0.6917
 4551SOL    HW125115   4.161   2.502   6.274  0.1030  0.3716 -1.9764
 4551SOL    HW225116   4.021   2.481   6.233  1.1971 -0.9282 -0.6660
 4552SOL     OW25117   2.538   0.921  11.703 -0.0733  0.1268 -0.4854
 4552SOL    HW125118   2.539   0.999  11.648  2.2882  0.3192 -0.2009
 4552SOL    HW225119   2.555   0.966  11.786 -0.9004  0.2531 -0.3849
 4553SOL     OW25120   3.841   2.382   2.001 -0.5428 -0.1780  0.2005
 4553SOL    HW125121   3.791   2.300   1.997 -0.8517 -0.0686  1.7748
 4553SOL    HW225122   3.842   2.404   1.908  1.9828  1.6334  0.6640
 4554SOL     OW25123   1.567   3.559   0.902 -0.1061  0.2481  0.0426
 4554SOL    HW125124   1.559   3.625   0.971 -2.5575 -2.2747  2.1801
 4554SOL    HW225125   1.479   3.522   0.912  0.3233 -0.8496 -0.2414
 4555SOL     OW25126   3.776   4.686  10.208 -0.2551  0.8303 -0.1185
 4555SOL    HW125127   3.820   4.602  10.225 -1.8166  0.2548  1.0580
 4555SOL    HW225128   3.743   4.709  10.294 -2.4093 -2.1205 -0.1757
 4556SOL     OW25129   2.554   4.192   2.534  0.1812 -0.1366  0.1090
 4556SOL    HW125130   2.483   4.231   2.483  1.5038  2.6196  0.3628
 4556SOL    HW225131   2.624   4.184   2.469  0.2413  1.2828 -0.0100
 4557SOL     OW25132   3.717   3.921  15.573 -0.1273 -0.4501 -0.2035
 4557SOL    HW125133   3.781   3.870  15.523  0.2574 -0.8482  0.6944
 4557SOL    HW225134   3.761   4.005  15.587 -1.2468  0.2604 -0.9018
 4558SOL     OW25135   1.193   4.145   6.405  0.5094 -0.1047  0.2276
 4558SOL    HW125136   1.107   4.183   6.425  0.7972  1.0481 -0.7503
 4558SOL    HW225137   1.236   4.217   6.360 -1.2473 -0.6624 -2.3903
 4559SOL     OW25138   1.536   3.722   6.895 -0.1896  0.0925  0.6026
 4559SOL    HW125139   1.444   3.746   6.878  0.4379  1.0322 -1.3850
 4559SOL    HW225140   1.550   3.642   6.846  1.7910 -0.1068  1.5133
 4560SOL     OW25141   2.035   2.374  14.759  0.4267  0.2313 -0.0752
 4560SOL    HW125142   2.104   2.350  14.821 -0.0397  0.3934  0.5059
 4560SOL    HW225143   1.961   2.330  14.802 -0.0185  1.3309  0.3038
 4561SOL     OW25144   3.057   1.136   3.920  0.3724  0.1397  0.0357
 4561SOL    HW125145   2.981   1.186   3.889 -0.3347  0.7552  2.7659
 4561SOL    HW225146   3.012   1.095   3.993 -0.7897 -0.7290 -1.1679
 4562SOL     OW25147   0.044   0.023  13.650 -0.1590  0.0286 -0.7842
 4562SOL    HW125148   0.121   0.037  13.705 -1.2048  2.9508 -0.0392
 4562SOL    HW225149   4.715   0.095  13.683  1.0219  1.2879 -1.6412
 4563SOL     OW25150   0.172   4.493   5.506  0.0150  0.2785  0.1783
 4563SOL    HW125151   0.223   4.533   5.576 -2.8998  0.3543  2.2668
 4563SOL    HW225152   0.211   4.538   5.431 -0.3104  0.0526 -0.1272
 4564SOL     OW25153   2.741   4.381  11.355  0.6054 -0.2079  0.3330
 4564SOL    HW125154   2.809   4.395  11.422 -0.2606 -2.9160  1.8015
 4564SOL    HW225155   2.667   4.408  11.409 -0.4681 -1.0865 -0.7128
 4565SOL     OW25156   4.405   2.059   4.190  0.5026 -0.0103  0.3413
 4565SOL    HW125157   4.350   2.021   4.258  0.4580  0.9356  0.8342
 4565SOL    HW225158   4.355   2.133   4.155 -1.0279 -0.0890  2.4198
 4566SOL     OW25159   2.006   0.188   3.461  0.0410 -0.1258  0.0343
 4566SOL    HW125160   1.914   0.178   3.437  0.2579 -0.7960 -0.5059
 4566SOL    HW225161   2.042   0.206   3.374 -0.0586  2.6345  0.5530
 4567SOL     OW25162   3.358   4.553   6.013 -0.6134 -0.2686 -0.3352
 4567SOL    HW125163   3.453   4.561   6.014 -0.4168 -2.7874  0.6512
 4567SOL    HW225164   3.346   4.489   6.083 -1.8983 -0.2676 -0.5619
 4568SOL     OW25165   3.773   1.362   6.795  0.1260  0.3824  0.1183
 4568SOL    HW125166   3.745   1.281   6.837  1.1203  0.5369  1.0630
 4568SOL    HW225167   3.779   1.337   6.703 -1.6998  0.1210  0.0773
 4569SOL     OW25168   2.214   4.670   7.983 -0.2325 -0.3274  0.2091
 4569SOL    HW125169   2.302   4.662   8.019 -0.3313 -0.7951  0.3343
 4569SOL    HW225170   2.228   4.693   7.891  0.1069  3.0927  1.1008
 4570SOL     OW25171   2.082   1.848  17.390 -0.0035 -0.0456 -0.4118
 4570SOL    HW125172   2.094   1.930  17.343 -0.1174  0.3705  0.2959
 4570SOL    HW225173   2.167   1.806  17.375  0.4610  0.9238 -0.4559
 4571SOL     OW25174   0.544   3.181  14.069  0.4240 -0.2762  0.3957
 4571SOL    HW125175   0.625   3.130  14.063 -0.0739 -1.1018  0.7414
 4571SOL    HW225176   0.563   3.258  14.123 -1.0578  1.7971 -1.9936
 4572SOL     OW25177   3.038   3.010   8.836  0.4917 -0.2356 -0.2686
 4572SOL    HW125178   2.988   2.962   8.770 -1.9900 -0.2651  1.5967
 4572SOL    HW225179   3.112   2.951   8.850  0.9617 -0.0329 -1.9520
 4573SOL     OW25180   2.977   3.988   8.231 -0.1430  0.0043 -0.4941
 4573SOL    HW125181   3.059   3.987   8.279 -0.6172  2.0060  0.3376
 4573SOL    HW225182   3.002   4.009   8.141 -1.5651 -0.3129 -0.9744
 4574SOL     OW25183   3.442   4.181  15.260 -0.0911  0.3801  0.4243
 4574SOL    HW125184   3.461   4.096  15.220 -0.2688  0.4666  0.1560
 4574SOL    HW225185   3.381   4.221  15.199  2.2660  0.6012 -1.7868
 4575SOL     OW25186   1.820   4.706   5.982  0.1271 -0.1225 -0.2422
 4575SOL    HW125187   1.828   0.065   6.029 -0.8156 -0.7849  1.1009
 4575SOL    HW225188   1.768   4.656   6.044 -0.8691  0.7597 -0.3596
 4576SOL     OW25189   1.734   1.212   3.517 -0.7304 -0.4161 -0.0882
 4576SOL    HW125190   1.660   1.231   3.460 -1.5678 -2.2985  0.3722
 4576SOL    HW225191   1.731   1.117   3.504 -1.3456  0.2582 -4.5731
 4577SOL     OW25192   1.127   1.358   2.344 -0.0977  0.1677  0.2296
 4577SOL    HW125193   1.058   1.342   2.280 -0.5080  1.1982  0.4155
 4577SOL    HW225194   1.121   1.454   2.342 -1.3305  0.0912  0.2591
 4578SOL     OW25195   0.005   3.247   9.298 -0.1330  0.0968 -0.6358
 4578SOL    HW125196   0.014   3.209   9.386  2.9689 -2.2625 -1.9707
 4578SOL    HW225197   4.668   3.182   9.262  1.0712 -0.4403 -1.7139
 4579SOL     OW25198   2.780   4.466   4.000  0.1286  0.3090 -0.1707
 4579SOL    HW125199   2.875   4.476   4.006  0.2332 -1.0316  0.3964
 4579SOL    HW225200   2.770   4.391   4.058  1.7555  0.7982  0.7284
 4580SOL     OW25201   3.814   0.417  10.197  0.3133  0.8043 -0.0842
 4580SOL    HW125202   3.784   0.328  10.218  0.4549  0.5498 -0.9569
 4580SOL    HW225203   3.784   0.462  10.276 -0.1223  1.7056 -0.7664
 4581SOL     OW25204   3.232   0.187   8.993 -0.2613  0.2717 -0.3149
 4581SOL    HW125205   3.150   0.175   8.944 -1.0507  1.2091  0.7879
 4581SOL    HW225206   3.201   0.208   9.081 -0.5918  1.6206 -0.7604
 4582SOL     OW25207   0.213   2.722   5.709 -0.1192 -0.5055  0.6658
 4582SOL    HW125208   0.268   2.662   5.660  0.3243  0.6173 -0.2186
 4582SOL    HW225209   0.123   2.711   5.677 -0.1243  0.2352  0.4321
 4583SOL     OW25210   3.844   1.506   5.690  0.9125 -0.2012 -0.0253
 4583SOL    HW125211   3.811   1.470   5.607  1.5895  1.8025 -1.1716
 4583SOL    HW225212   3.932   1.470   5.687  1.3441  0.8759 -0.5916
 4584SOL     OW25213   1.377   1.375  13.496 -0.3948  0.4287 -0.5214
 4584SOL    HW125214   1.380   1.326  13.578  0.8961  1.2566 -0.0827
 4584SOL    HW225215   1.289   1.412  13.502 -0.8030 -0.6318  0.0716
 4585SOL     OW25216   0.592   3.749   4.877 -0.0962 -0.1213  0.1801
 4585SOL    HW125217   0.581   3.834   4.920  1.9183  0.4481 -0.4537
 4585SOL    HW225218   0.651   3.765   4.804 -1.9329 -2.7454 -1.9054
 4586SOL     OW25219   4.354   2.146  15.157 -0.2301  0.1589  0.3127
 4586SOL    HW125220   4.260   2.159  15.173 -0.8591 -2.7255 -0.9454
 4586SOL    HW225221   4.358   2.050  15.159 -1.0007  0.1042 -0.6915
 4587SOL     OW25222   1.399   3.654  13.153  0.2257  0.6459  0.4879
 4587SOL    HW125223   1.368   3.724  13.210 -2.1795 -0.2700  0.3007
 4587SOL    HW225224   1.340   3.583  13.178 -0.0212  1.1719  1.4010
 4588SOL     OW25225   1.334   4.463   7.237 -0.8577  0.3985  0.5292
 4588SOL    HW125226   1.336   4.369   7.216  2.2242  0.2428  1.4380
 4588SOL    HW225227   1.384   4.456   7.319  0.2358  1.0183 -0.0921
 4589SOL     OW25228   1.390   0.705   8.953 -0.6361  0.1154  0.5315
 4589SOL    HW125229   1.454   0.776   8.960 -0.1217  0.0056 -2.8281
 4589SOL    HW225230   1.428   0.636   9.007  1.3932  0.8609  0.0646
 4590SOL     OW25231   4.442   3.081   6.007  0.1836 -0.1004  0.3202
 4590SOL    HW125232   4.372   3.144   6.025 -1.1333 -1.2139 -0.9121
 4590SOL    HW225233   4.387   3.004   5.991 -0.8255  0.8122 -0.6315
 4591SOL     OW25234   3.592   3.569   3.197  0.6156  0.2822  0.2552
 4591SOL    HW125235   3.642   3.584   3.117 -0.5896 -0.1523 -0.5841
 4591SOL    HW225236   3.501   3.551   3.174  0.6433  0.9530 -0.3799
 4592SOL     OW25237   0.349   2.991   8.468  0.4485 -0.2140 -0.0796
 4592SOL    HW125238   0.286   2.983   8.541  0.2748  2.8244  0.1195
 4592SOL    HW225239   0.351   2.902   8.433 -2.9473 -0.8377  1.2622
 4593SOL     OW25240   2.541   3.974   3.846  0.4439 -0.0951  0.6406
 4593SOL    HW125241   2.597   3.976   3.769 -1.0013 -0.6550 -0.4352
 4593SOL    HW225242   2.455   3.989   3.806  0.8219  0.6143  0.1025
 4594SOL     OW25243   1.405   3.054   1.522 -0.1713  0.0708  0.4064
 4594SOL    HW125244   1.426   2.971   1.478 -1.3172 -0.8060  1.5146
 4594SOL    HW225245   1.477   3.109   1.492 -1.6715  2.4700  1.2122
 4595SOL     OW25246   0.394   2.269   6.264 -0.2427  0.4713 -0.1291
 4595SOL    HW125247   0.345   2.241   6.188 -0.8447  0.4559  0.2673
 4595SOL    HW225248   0.432   2.355   6.245  2.3270 -0.3204  1.3433
 4596SOL     OW25249   0.201   1.077   3.209 -0.5566 -0.1540  0.1437
 4596SOL    HW125250   0.283   1.077   3.259 -0.2447 -0.7289 -0.3719
 4596SOL    HW225251   0.197   1.168   3.180 -3.0940 -0.8742 -1.7839
 4597SOL     OW25252   1.835   3.950  15.939  0.6120 -0.0821  0.6598
 4597SOL    HW125253   1.925   3.924  15.922  0.4781 -1.3791  1.9381
 4597SOL    HW225254   1.780   3.896  15.882 -0.6811  1.1694  0.7133
 4598SOL     OW25255   1.784   3.967   2.968  0.2902  0.2664 -0.4692
 4598SOL    HW125256   1.874   3.954   2.939  0.4523 -0.1489  0.2282
 4598SOL    HW225257   1.751   4.034   2.908 -0.8070 -0.8607 -1.1239
 4599SOL     OW25258   0.871   3.027  15.987 -0.0080 -0.1773  0.0715
 4599SOL    HW125259   0.821   2.987  16.057 -1.5131  0.8346 -0.4254
 4599SOL    HW225260   0.908   2.952  15.940  0.4335 -2.5794  4.3669
 4600SOL     OW25261   3.475   2.268   6.104  0.2856  0.1925  0.4954
 4600SOL    HW125262   3.491   2.287   6.012 -1.7504  2.2084  0.5356
 4600SOL    HW225263   3.454   2.359   6.128 -0.8803  0.0997 -0.1452
 4601SOL     OW25264   3.607   1.704   8.796  0.1674  0.3096  0.6784
 4601SOL    HW125265   3.683   1.721   8.851 -0.3370  1.9943  0.8370
 4601SOL    HW225266   3.639   1.721   8.708  0.9188  0.0135  0.8901
 4602SOL     OW25267   1.486   2.359   7.404 -0.1143  0.4338 -0.2291
 4602SOL    HW125268   1.550   2.359   7.333 -0.1870  0.7649 -0.2968
 4602SOL    HW225269   1.541   2.323   7.474 -1.5656 -0.6897  0.3359
 4603SOL     OW25270   4.075   1.214  11.576  0.4512  0.5313 -0.8176
 4603SOL    HW125271   4.040   1.255  11.497 -1.9370 -1.4481 -0.7797
 4603SOL    HW225272   4.102   1.290  11.628  2.4430  0.0373 -1.1125
 4604SOL     OW25273   1.663   2.123   4.448  0.1447 -0.0069  0.1665
 4604SOL    HW125274   1.616   2.196   4.489 -0.4589  1.1566 -2.5904
 4604SOL    HW225275   1.625   2.048   4.494  1.6710 -0.8620  0.0242
 4605SOL     OW25276   2.170   4.486   6.985  0.2513  0.0186  0.0413
 4605SOL    HW125277   2.106   4.540   7.031  0.0428 -2.9945  3.3428
 4605SOL    HW225278   2.125   4.401   6.984 -3.0155  1.7326  1.2444
 4606SOL     OW25279   4.102   1.212  15.973  0.5784 -0.2562  0.2895
 4606SOL    HW125280   4.185   1.237  15.932 -0.4805  3.4480  0.3784
 4606SOL    HW225281   4.105   1.286  16.034 -0.7432 -0.5751  0.7346
 4607SOL     OW25282   2.029   2.726   3.140  0.3905  0.8376  0.2400
 4607SOL    HW125283   1.946   2.680   3.134  1.6416 -1.1812 -1.6973
 4607SOL    HW225284   2.023   2.792   3.209  1.3784  0.7676  0.3941
 4608SOL     OW25285   4.702   1.939  12.819 -0.3170 -0.1632 -0.1779
 4608SOL    HW125286   4.649   1.989  12.882 -0.5820 -0.8983  0.1858
 4608SOL    HW225287   4.637   1.890  12.768  1.4457 -2.1192 -0.5303
 4609SOL     OW25288   0.858   1.906  11.033 -0.2726 -0.1474 -0.3914
 4609SOL    HW125289   0.817   1.824  11.061 -0.9176  0.5083  0.5828
 4609SOL    HW225290   0.944   1.897  11.074  0.2011  0.5232 -1.2661
 4610SOL     OW25291   0.078   0.228   6.464 -0.0272 -0.3627 -0.2382
 4610SOL    HW125292   0.130   0.166   6.413  0.5640 -0.2383  0.2089
 4610SOL    HW225293   0.001   0.230   6.408  0.2507 -3.6895 -0.7322
 4611SOL     OW25294   0.428   1.998   4.732 -0.1498 -0.0779  0.1619
 4611SOL    HW125295   0.424   2.081   4.780 -0.4074 -0.7823  1.3434
 4611SOL    HW225296   0.480   2.018   4.654  1.1166 -1.0924  0.7515
 4612SOL     OW25297   3.399   4.502   3.426  0.1987  0.4877  0.5816
 4612SOL    HW125298   3.368   4.418   3.461  2.6125 -0.0427  1.4324
 4612SOL    HW225299   3.318   4.553   3.425  0.2588  0.5599 -0.4678
 4613SOL     OW25300   3.825   2.791   4.931 -0.4363  0.7906  0.1171
 4613SOL    HW125301   3.844   2.773   4.839  1.5354  0.0280  0.6762
 4613SOL    HW225302   3.748   2.735   4.944 -0.6826  0.7239 -1.6047
 4614SOL     OW25303   3.342   2.184   8.535  0.7139 -0.3810 -0.7045
 4614SOL    HW125304   3.329   2.217   8.445 -0.3859 -0.2708 -0.5117
 4614SOL    HW225305   3.429   2.146   8.523  0.6344 -1.4252  2.0134
 4615SOL     OW25306   2.903   3.457   6.049 -0.7120 -0.1355 -0.1451
 4615SOL    HW125307   2.850   3.467   6.129  0.2758  1.4558  0.3162
 4615SOL    HW225308   2.839   3.427   5.984 -1.6587  0.9275  0.2774
 4616SOL     OW25309   0.982   1.375   9.244  0.2473 -0.4625  0.2361
 4616SOL    HW125310   1.074   1.369   9.219  0.3127 -0.2079  0.4208
 4616SOL    HW225311   0.938   1.293   9.220 -1.6901  1.1617 -1.7752
 4617SOL     OW25312   0.790   0.418   3.689 -0.7522  0.3114  0.0332
 4617SOL    HW125313   0.872   0.432   3.642 -0.1960  0.3966  1.0427
 4617SOL    HW225314   0.779   0.323   3.682  0.3542  0.0971  1.2068
 4618SOL     OW25315   2.250   1.712   7.775  0.4288  0.4847  0.2367
 4618SOL    HW125316   2.279   1.665   7.853  1.7075 -1.2460 -1.2728
 4618SOL    HW225317   2.330   1.743   7.734  0.8655 -3.4469 -1.8917
 4619SOL     OW25318   1.918   1.346  16.173 -0.1073 -0.6343 -0.1514
 4619SOL    HW125319   1.856   1.416  16.156  1.4653  1.2673  1.9675
 4619SOL    HW225320   1.879   1.285  16.111 -0.6903 -1.6304  1.1852
 4620SOL     OW25321   2.220   0.976  12.805  0.1919 -0.1500 -0.1129
 4620SOL    HW125322   2.261   1.006  12.886 -0.8415 -0.0259  0.3776
 4620SOL    HW225323   2.127   0.993  12.822 -0.1622 -0.7057 -1.5887
 4621SOL     OW25324   3.183   3.913  17.021 -0.3677 -0.1151  0.7152
 4621SOL    HW125325   3.101   3.863  17.021  2.1454 -4.2417  0.1370
 4621SOL    HW225326   3.181   3.957  17.106  1.2870 -0.1891  0.7828
 4622SOL     OW25327   2.804   1.074   6.769  0.2836  0.0358  0.2342
 4622SOL    HW125328   2.819   0.982   6.792 -1.6864 -0.4512 -0.4305
 4622SOL    HW225329   2.710   1.069   6.753  0.2311 -0.8948  0.7993
 4623SOL     OW25330   2.362   4.281   4.012  0.1240 -0.2285 -0.0955
 4623SOL    HW125331   2.310   4.203   4.029  1.6617 -1.6124 -1.6831
 4623SOL    HW225332   2.441   4.233   3.986  0.2775  0.1685 -0.3789
 4624SOL     OW25333   4.417   4.652   5.085  0.4817 -0.5248  0.9522
 4624SOL    HW125334   4.464   4.620   5.008 -0.4124  1.1920 -0.3107
 4624SOL    HW225335   4.425   0.021   5.065 -2.4692 -1.0333 -2.5302
 4625SOL     OW25336   2.458   3.749   1.946 -0.0891 -0.2825 -0.1714
 4625SOL    HW125337   2.376   3.740   1.897  0.2640 -0.2588 -0.7773
 4625SOL    HW225338   2.484   3.839   1.926  0.2523  0.3957  3.3968
 4626SOL     OW25339   0.060   2.873   2.844 -0.2088  0.0301  0.0253
 4626SOL    HW125340   0.080   2.954   2.798 -2.7717 -0.1852 -1.4279
 4626SOL    HW225341   0.133   2.866   2.906 -0.7454  0.5254  0.7062
 4627SOL     OW25342   4.142   2.325   9.484 -0.4012 -0.4105 -0.4184
 4627SOL    HW125343   4.234   2.304   9.467 -0.4917  0.4137 -1.8779
 4627SOL    HW225344   4.112   2.362   9.402 -1.6995  1.5393  0.9246
 4628SOL     OW25345   0.221   1.234   1.685  0.3252  0.8051 -0.3184
 4628SOL    HW125346   0.230   1.142   1.658  1.1258  0.9494 -0.5369
 4628SOL    HW225347   0.128   1.240   1.666  0.3335 -0.6046 -0.8181
 4629SOL     OW25348   1.408   1.003  16.932  0.4537 -0.2449 -0.1953
 4629SOL    HW125349   1.380   1.024  17.021  1.1384 -0.3344  0.0415
 4629SOL    HW225350   1.334   1.028  16.877  0.0004 -0.7297  0.1918
 4630SOL     OW25351   3.669   2.355   1.494 -0.0750  0.3289 -0.3730
 4630SOL    HW125352   3.701   2.273   1.534  1.8975  0.7835 -1.0001
 4630SOL    HW225353   3.747   2.407   1.476  0.0682  0.5767  0.9570
 4631SOL     OW25354   3.827   3.249   7.231 -0.6330 -0.6305  0.0008
 4631SOL    HW125355   3.903   3.191   7.227  0.3274  0.5896  0.5238
 4631SOL    HW225356   3.874   3.330   7.209 -0.5789  0.1138  2.8077
 4632SOL     OW25357   3.708   1.175  11.020 -0.2975  0.4092  0.2142
 4632SOL    HW125358   3.762   1.122  11.078 -0.8303  1.1728  1.4106
 4632SOL    HW225359   3.641   1.213  11.077  1.3834 -3.6531  4.9166
 4633SOL     OW25360   1.418   1.033   0.670 -0.3704  0.3177 -0.8305
 4633SOL    HW125361   1.500   1.016   0.623  0.1163 -0.1784  0.2100
 4633SOL    HW225362   1.404   0.949   0.714  0.0602  0.3085 -0.7071
 4634SOL     OW25363   4.378   0.355  13.646  0.2853  0.2348 -0.0367
 4634SOL    HW125364   4.453   0.409  13.668 -0.1743  0.5385  0.7648
 4634SOL    HW225365   4.415   0.269  13.624 -0.5259  0.2794 -1.6480
 4635SOL     OW25366   0.050   4.412   1.980 -0.5507  0.2792  0.6893
 4635SOL    HW125367   0.145   4.418   1.980 -0.6965  2.6813 -1.2423
 4635SOL    HW225368   0.033   4.485   1.920  2.7359 -2.0953 -3.1820
 4636SOL     OW25369   3.809   2.515   7.148 -0.0333  0.1103 -0.6830
 4636SOL    HW125370   3.841   2.562   7.070 -1.0157  0.1255 -1.0835
 4636SOL    HW225371   3.873   2.548   7.211  0.8322 -0.1900 -1.4139
 4637SOL     OW25372   4.461   0.797   0.524 -0.0246 -0.2928  0.2624
 4637SOL    HW125373   4.414   0.873   0.557  0.9805  0.4411  0.0019
 4637SOL    HW225374   4.527   0.836   0.467 -0.4707 -0.1413 -0.1424
 4638SOL     OW25375   1.599   4.171   9.334  0.1616  0.1985 -0.1379
 4638SOL    HW125376   1.588   4.164   9.428 -0.4722 -1.9006 -0.3495
 4638SOL    HW225377   1.529   4.232   9.311  0.9634  0.0629 -2.9863
 4639SOL     OW25378   4.599   2.338   8.281 -0.4985 -0.3303  0.2242
 4639SOL    HW125379   4.623   2.281   8.355 -0.3252 -0.0313  0.3990
 4639SOL    HW225380   4.655   2.412   8.306 -1.9227  0.3823  1.3140
 4640SOL     OW25381   4.009   0.441   4.514  0.0590  0.2240 -0.3214
 4640SOL    HW125382   3.957   0.405   4.442 -1.6005  1.0001  0.4947
 4640SOL    HW225383   3.968   0.382   4.577  2.3225 -1.2477 -0.2167
 4641SOL     OW25384   3.276   2.375   2.944 -0.5447 -0.1891  0.4651
 4641SOL    HW125385   3.258   2.414   3.029 -4.0535 -0.6074 -0.0581
 4641SOL    HW225386   3.363   2.405   2.917  1.4389 -5.2555  1.3522
 4642SOL     OW25387   1.850   0.544  15.000 -0.2155  0.0434  0.4758
 4642SOL    HW125388   1.824   0.496  15.078 -1.7594  0.6530  0.3379
 4642SOL    HW225389   1.909   0.612  15.033  0.4850 -0.9094  1.1711
 4643SOL     OW25390   3.894   1.856   5.937  0.7826 -0.1721 -0.3945
 4643SOL    HW125391   3.938   1.783   5.981 -1.9023 -0.3189  2.0516
 4643SOL    HW225392   3.842   1.806   5.875  2.8796 -0.7786 -1.6466
 4644SOL     OW25393   3.793   4.032  13.829  0.5096 -0.1963  0.0803
 4644SOL    HW125394   3.760   3.989  13.751  2.3270 -2.1621  0.4025
 4644SOL    HW225395   3.804   3.959  13.890 -0.4559  0.2699  0.8060
 4645SOL     OW25396   3.209   1.217  13.434  0.2155 -0.0474  0.1467
 4645SOL    HW125397   3.218   1.272  13.512 -0.7154 -1.3237  1.1599
 4645SOL    HW225398   3.296   1.239  13.401  0.0897  1.3255  0.7193
 4646SOL     OW25399   0.564   0.519   5.436  0.4029  0.2389 -0.3455
 4646SOL    HW125400   0.475   0.485   5.428  0.6214 -0.3930 -0.1065
 4646SOL    HW225401   0.580   0.511   5.530 -1.5591 -0.6641 -0.1012
 4647SOL     OW25402   0.921   2.359  16.058  0.6235  0.3377  0.0921
 4647SOL    HW125403   0.939   2.281  16.111 -0.7256 -0.2392 -0.3009
 4647SOL    HW225404   0.851   2.320  16.006  2.2625 -2.0822 -0.2673
 4648SOL     OW25405   1.353   2.926   4.562 -0.1439  0.4917 -0.0041
 4648SOL    HW125406   1.283   2.992   4.554  0.5439  1.3059  0.7899
 4648SOL    HW225407   1.356   2.879   4.478 -2.0664 -0.6702  0.5743
 4649SOL     OW25408   1.545   4.654   6.433 -0.2673  0.2487 -0.4502
 4649SOL    HW125409   1.535   4.691   6.346  0.6154  0.0331 -0.6459
 4649SOL    HW225410   1.479   4.699   6.485 -0.6128 -0.1464 -0.5469
 4650SOL     OW25411   4.594   1.924   2.241 -0.4580 -0.1525  0.2114
 4650SOL    HW125412   4.607   2.016   2.263 -0.5547  0.0630 -0.6537
 4650SOL    HW225413   4.630   1.923   2.153 -1.0496 -3.0295 -0.0239
 4651SOL     OW25414   3.004   4.698   8.202 -0.2648  0.3591 -0.4369
 4651SOL    HW125415   3.069   4.628   8.209  0.7410  1.6218  3.0704
 4651SOL    HW225416   3.021   4.715   8.110  1.6478 -1.2527 -0.3874
 4652SOL     OW25417   0.840   3.296  15.905  0.1526 -0.1915  0.4688
 4652SOL    HW125418   0.761   3.297  15.850  0.6932  2.0980 -0.2622
 4652SOL    HW225419   0.861   3.203  15.914  0.0948 -0.4839 -2.6494
 4653SOL     OW25420   0.325   0.534   5.178  0.5474 -0.0945  0.0804
 4653SOL    HW125421   0.310   0.521   5.084  0.3543  0.2298  0.0641
 4653SOL    HW225422   0.261   0.479   5.224 -0.8591  1.6214  0.1879
 4654SOL     OW25423   2.721   2.119   5.664 -0.1407 -0.3172  0.6623
 4654SOL    HW125424   2.658   2.183   5.697  1.3602  1.1270  0.6881
 4654SOL    HW225425   2.801   2.127   5.715 -0.5647 -0.2776  1.3305
 4655SOL     OW25426   1.587   1.720   9.548 -0.2681  0.1796 -0.7209
 4655SOL    HW125427   1.511   1.671   9.517 -0.9307 -0.3989  1.8400
 4655SOL    HW225428   1.540   1.754   9.624 -0.0687  0.8449 -0.8939
 4656SOL     OW25429   1.308   4.021   2.289  0.6980  0.3094 -0.2732
 4656SOL    HW125430   1.262   3.937   2.283  2.3904 -0.6620  0.3699
 4656SOL    HW225431   1.318   4.050   2.198  1.5666  0.6167 -0.0801
 4657SOL     OW25432   0.278   1.995   5.646  0.2405  0.0860  0.1015
 4657SOL    HW125433   0.345   1.975   5.711 -1.4546 -0.9250  1.5355
 4657SOL    HW225434   0.295   1.925   5.583 -0.6958 -0.2085  0.1749
 4658SOL     OW25435   3.868   0.878   9.653  0.4158  0.2012 -0.2880
 4658SOL    HW125436   3.922   0.841   9.582  0.3126  1.7607 -1.1732
 4658SOL    HW225437   3.935   0.881   9.721 -0.1331 -0.8457  0.3008
 4659SOL     OW25438   2.959   2.704   7.653  0.0967  0.0489 -0.0851
 4659SOL    HW125439   2.888   2.768   7.646  1.9466  2.1871  0.2807
 4659SOL    HW225440   3.005   2.697   7.570  1.5058 -0.4350  0.7278
 4660SOL     OW25441   2.546   3.128   9.165 -0.0568 -0.3363  0.6116
 4660SOL    HW125442   2.544   3.046   9.215  0.7795 -1.5097 -1.2951
 4660SOL    HW225443   2.505   3.190   9.225  0.7132 -1.9699  2.8486
 4661SOL     OW25444   3.648   0.417   6.734 -0.3503  0.1979 -0.1649
 4661SOL    HW125445   3.598   0.397   6.813 -1.2966 -0.3372 -0.9019
 4661SOL    HW225446   3.690   0.334   6.712 -1.3884 -0.5069  0.5101
 4662SOL     OW25447   2.390   1.456   5.249 -0.0432  0.3607 -0.6073
 4662SOL    HW125448   2.437   1.413   5.320  0.3886  1.9272  0.0624
 4662SOL    HW225449   2.448   1.525   5.216  1.3558 -1.4333 -1.8861
 4663SOL     OW25450   1.151   4.133   5.054 -0.2952 -0.1119  0.3168
 4663SOL    HW125451   1.092   4.091   5.117 -0.2227  2.6943  2.2096
 4663SOL    HW225452   1.218   4.064   5.061  1.2236  1.3686  0.3189
 4664SOL     OW25453   1.237   4.582  10.662 -0.1076  0.7059  0.4439
 4664SOL    HW125454   1.166   4.634  10.624 -0.1879 -0.1199 -0.5399
 4664SOL    HW225455   1.290   4.650  10.704  1.7331 -1.8604  2.2017
 4665SOL     OW25456   3.841   2.671  14.397  0.3405  0.3924 -0.1205
 4665SOL    HW125457   3.791   2.713  14.327 -1.5209 -0.8592  0.4559
 4665SOL    HW225458   3.773   2.692  14.461  0.8596  0.4228  0.4137
 4666SOL     OW25459   0.191   3.877   7.786  0.3160  0.0217 -0.2801
 4666SOL    HW125460   0.225   3.886   7.697 -0.7148 -2.2110 -0.9049
 4666SOL    HW225461   0.258   3.917   7.841  1.0889 -2.1204  0.3476
 4667SOL     OW25462   2.928   2.400   0.534  0.5570 -0.0990  0.7363
 4667SOL    HW125463   2.905   2.317   0.493  0.7377 -0.8584  2.1880
 4667SOL    HW225464   2.861   2.456   0.495 -1.4318 -1.1105  2.7238
 4668SOL     OW25465   2.444   1.244   2.610 -0.4937  0.2816 -0.8406
 4668SOL    HW125466   2.454   1.152   2.634  1.4623  0.9350  0.9814
 4668SOL    HW225467   2.404   1.233   2.524 -3.3068  2.6651  0.1692
 4669SOL     OW25468   3.988   4.722  16.976  0.0994 -0.5687  0.2969
 4669SOL    HW125469   3.897   0.010  17.002  0.2633 -0.1600  0.6788
 4669SOL    HW225470   4.023   0.082  17.003 -1.0438  0.5337 -1.6457
 4670SOL     OW25471   1.559   3.577  14.161  0.5248  0.5696  0.2631
 4670SOL    HW125472   1.587   3.658  14.118 -0.6119  0.4358 -0.7230
 4670SOL    HW225473   1.569   3.605  14.252  0.9467  2.8776 -0.4904
 4671SOL     OW25474   0.341   3.606   2.807 -0.0056 -0.5408  0.1193
 4671SOL    HW125475   0.315   3.663   2.879  2.3380  0.8305 -0.1344
 4671SOL    HW225476   0.437   3.613   2.805 -0.1136  0.3651 -1.9498
 4672SOL     OW25477   1.983   4.455  16.204 -0.9794 -0.2853 -0.0773
 4672SOL    HW125478   1.902   4.481  16.160  0.4431  2.0495 -1.2922
 4672SOL    HW225479   2.052   4.498  16.154  0.0320 -0.5436  1.1010
 4673SOL     OW25480   3.630   4.017   0.895  0.0722  0.0815 -0.1613
 4673SOL    HW125481   3.602   3.927   0.880  1.8420 -0.8572  2.2232
 4673SOL    HW225482   3.558   4.068   0.857  1.0663  0.7442 -1.1679
 4674SOL     OW25483   4.099   2.723   4.709 -0.4388  0.0630 -0.3002
 4674SOL    HW125484   4.097   2.775   4.629  1.1401  0.4147 -0.1015
 4674SOL    HW225485   4.008   2.692   4.712 -0.4700  0.2704  0.8317
 4675SOL     OW25486   2.327   3.206   7.380  0.6738  0.0810 -0.6155
 4675SOL    HW125487   2.283   3.141   7.435 -1.4397  1.5812 -0.5251
 4675SOL    HW225488   2.257   3.263   7.349 -0.7712 -0.5925  1.4424
 4676SOL     OW25489   1.473   1.001  10.920 -1.2720 -0.2647  0.1119
 4676SOL    HW125490   1.514   0.922  10.884 -0.7573  0.9475 -1.9882
 4676SOL    HW225491   1.546   1.062  10.929 -0.1749 -1.5104 -0.3471
 4677SOL     OW25492   1.805   1.712   5.865  0.5411 -0.7080 -0.3874
 4677SOL    HW125493   1.776   1.665   5.787  2.6530 -0.5221 -1.2865
 4677SOL    HW225494   1.755   1.662   5.929  1.6915 -2.6686 -1.0256
 4678SOL     OW25495   3.674   4.563   8.984  0.3999  0.1097  0.0155
 4678SOL    HW125496   3.660   4.652   9.016  1.8180  0.0276  0.8535
 4678SOL    HW225497   3.737   4.522   9.042 -0.2945 -1.1608 -0.1200
 4679SOL     OW25498   4.634   3.821  13.482  0.3461 -0.0987  0.0210
 4679SOL    HW125499   4.563   3.875  13.516  0.4651 -0.6586  1.1459
 4679SOL    HW225500   4.639   3.759  13.555 -0.4276  2.5953  2.3536
 4680SOL     OW25501   1.020   3.076   9.648  0.0453  0.1543  0.1789
 4680SOL    HW125502   1.101   3.072   9.596 -1.0009  0.4088 -1.4594
 4680SOL    HW225503   1.021   3.169   9.668 -1.9236  0.0270  0.8095
 4681SOL     OW25504   3.546   0.254  14.900  0.0968 -0.3951  0.3112
 4681SOL    HW125505   3.462   0.287  14.932  0.0186  0.5890 -0.9020
 4681SOL    HW225506   3.571   0.321  14.836 -0.2562 -0.2132  0.3618
 4682SOL     OW25507   3.972   2.971  17.019  0.2739  0.2901  0.3772
 4682SOL    HW125508   3.938   2.888  16.983  0.1654  0.8245 -0.7429
 4682SOL    HW225509   3.921   3.030  16.964 -0.6244 -0.0626  0.8277
 4683SOL     OW25510   2.217   0.899   6.624 -0.3370 -0.2023 -0.0276
 4683SOL    HW125511   2.155   0.926   6.693 -1.1580  0.1096 -0.8860
 4683SOL    HW225512   2.251   0.820   6.666 -2.0727 -0.8309  0.2227
 4684SOL     OW25513   1.841   4.172  16.234  0.0518  0.1787  0.0175
 4684SOL    HW125514   1.908   4.240  16.224  1.8527 -1.5046  0.7758
 4684SOL    HW225515   1.881   4.106  16.291  0.6907  2.1013  1.8331
 4685SOL     OW25516   1.283   3.449   5.165  0.0927  0.2119 -0.4176
 4685SOL    HW125517   1.207   3.443   5.108  0.5181 -1.1877 -0.8211
 4685SOL    HW225518   1.329   3.366   5.152  0.1525  0.7419 -3.5933
 4686SOL     OW25519   3.366   0.744   2.762  0.4106 -0.2755 -0.0768
 4686SOL    HW125520   3.335   0.686   2.831 -0.4565  0.4566  0.1557
 4686SOL    HW225521   3.288   0.796   2.739  1.1923  1.0498  0.2702
 4687SOL     OW25522   4.236   3.411  13.177  0.3368 -0.3320 -0.0181
 4687SOL    HW125523   4.196   3.418  13.263  2.1036  0.8777  0.7109
 4687SOL    HW225524   4.228   3.317  13.158 -0.7379 -0.5355  1.4521
 4688SOL     OW25525   1.059   3.678  14.331 -0.0542  0.2647  0.6108
 4688SOL    HW125526   1.143   3.634  14.319 -0.4580  0.1036 -1.5387
 4688SOL    HW225527   1.076   3.754  14.388 -1.8484  1.2818 -0.2208
 4689SOL     OW25528   0.568   2.684   8.733 -0.4892 -0.2809 -0.0279
 4689SOL    HW125529   0.520   2.628   8.793  1.7582 -2.8925 -0.6589
 4689SOL    HW225530   0.496   2.723   8.684 -0.7238 -1.7437 -0.8429
 4690SOL     OW25531   3.845   2.200   2.731 -0.1954  0.2109  0.4826
 4690SOL    HW125532   3.874   2.286   2.763 -1.3801  1.1867 -1.0833
 4690SOL    HW225533   3.845   2.218   2.637 -1.6081 -1.4132  0.1650
 4691SOL     OW25534   3.080   4.062   9.450  0.1692  0.5115 -0.8493
 4691SOL    HW125535   3.025   4.016   9.387 -1.2572  0.0938  0.7140
 4691SOL    HW225536   3.115   3.990   9.504 -2.2650 -0.4038 -0.5185
 4692SOL     OW25537   3.204   2.757  12.014  0.1449  0.2855 -0.3820
 4692SOL    HW125538   3.208   2.680  11.959  2.3527 -2.4551  3.6668
 4692SOL    HW225539   3.216   2.825  11.948  0.1908  0.5843 -0.0679
 4693SOL     OW25540   2.208   4.052   4.860  0.1527 -0.0197  0.4858
 4693SOL    HW125541   2.221   4.020   4.770  1.5649 -0.6193  0.9136
 4693SOL    HW225542   2.243   4.141   4.850  2.0612 -0.9185 -0.8480
 4694SOL     OW25543   0.695   0.033   0.451  0.1078 -0.0550 -0.1532
 4694SOL    HW125544   0.632   0.098   0.480 -1.1364 -0.9295 -0.8723
 4694SOL    HW225545   0.666   4.682   0.504 -1.6428  0.9183  0.2301
 4695SOL     OW25546   3.509   4.671   6.383  0.6218  0.5524 -0.0120
 4695SOL    HW125547   3.484   4.702   6.296 -0.3617 -0.9122 -0.2566
 4695SOL    HW225548   3.440   4.689   6.447 -0.3658 -1.8103 -0.3929
 4696SOL     OW25549   3.352   0.267  14.187  0.5400  0.5168 -0.1218
 4696SOL    HW125550   3.357   0.352  14.143 -2.0422  0.7264 -0.0131
 4696SOL    HW225551   3.434   0.259  14.235 -1.2109  0.5254  2.8783
 4697SOL     OW25552   2.174   2.838   8.620 -0.0076  0.0946 -0.1537
 4697SOL    HW125553   2.087   2.819   8.656 -0.0345  2.9167  1.2105
 4697SOL    HW225554   2.227   2.806   8.693 -2.5343  1.4776  2.2783
 4698SOL     OW25555   3.846   1.157   9.033 -0.3431 -0.1821  0.0437
 4698SOL    HW125556   3.776   1.186   9.091 -1.8048 -1.9740 -0.8234
 4698SOL    HW225557   3.922   1.201   9.072  0.1668 -0.1068 -1.0211
 4699SOL     OW25558   2.502   3.083   8.851  0.6903 -0.4872  0.2572
 4699SOL    HW125559   2.494   3.156   8.911  0.9099  1.0619 -1.6002
 4699SOL    HW225560   2.443   3.018   8.889 -1.5193  2.2461  1.4335
 4700SOL     OW25561   2.077   3.902   5.353 -0.8253  0.3314 -0.1214
 4700SOL    HW125562   2.124   3.981   5.380  3.4237 -1.9742 -0.6536
 4700SOL    HW225563   2.124   3.836   5.404 -0.0108 -0.4714 -1.9398
 4701SOL     OW25564   2.678   3.708   4.821 -0.1313  0.3306  0.3912
 4701SOL    HW125565   2.631   3.686   4.740  0.6458 -0.5577  0.1780
 4701SOL    HW225566   2.729   3.788   4.807  1.0290 -0.5903 -0.6615
 4702SOL     OW25567   3.620   1.464  16.512  0.3872 -0.3874 -0.2394
 4702SOL    HW125568   3.528   1.469  16.538  0.7158  0.1785  0.8214
 4702SOL    HW225569   3.619   1.490  16.420  0.8021  2.4885  0.5462
 4703SOL     OW25570   0.554   4.233   7.047 -0.5316  0.9313  0.1325
 4703SOL    HW125571   0.509   4.304   7.092  0.6499  2.1905 -0.6787
 4703SOL    HW225572   0.495   4.160   7.067 -1.8185  2.7703  3.1029
 4704SOL     OW25573   1.543   4.188   3.650  0.0862  0.0152 -0.0151
 4704SOL    HW125574   1.585   4.246   3.588 -0.5623  0.3688 -0.1264
 4704SOL    HW225575   1.568   4.226   3.734  1.8918  1.0920 -1.0612
 4705SOL     OW25576   2.558   0.452   3.227 -0.0735 -0.2123  0.1193
 4705SOL    HW125577   2.574   0.426   3.136 -2.0154  1.0182 -0.5784
 4705SOL    HW225578   2.519   0.370   3.256 -1.6842  0.8890  1.0754
 4706SOL     OW25579   1.573   4.187  13.246  0.5781  0.3147  0.0327
 4706SOL    HW125580   1.506   4.193  13.178 -1.1594 -0.2750  1.6822
 4706SOL    HW225581   1.589   4.280  13.262 -0.6421  0.6398 -0.6683
 4707SOL     OW25582   3.243   1.763  12.436  0.0716  0.6592  0.0637
 4707SOL    HW125583   3.201   1.759  12.522  2.7085  0.4572  1.3415
 4707SOL    HW225584   3.269   1.855  12.435  0.7383  0.5056  2.8817
 4708SOL     OW25585   4.421   0.972   4.722  0.3556  0.4456 -0.3293
 4708SOL    HW125586   4.415   0.915   4.645 -1.3942  1.2131 -0.7489
 4708SOL    HW225587   4.350   1.032   4.700  0.2934 -0.1691 -1.8325
 4709SOL     OW25588   4.566   3.037   3.946  0.0264 -0.2437  0.2550
 4709SOL    HW125589   4.623   3.000   3.878 -0.5722 -0.0365 -0.3570
 4709SOL    HW225590   4.524   3.109   3.898  1.0852  1.4371  1.8127
 4710SOL     OW25591   0.333   1.555   5.933  0.7297 -1.1397  0.4275
 4710SOL    HW125592   0.384   1.563   6.014 -0.0219 -2.8722  1.0598
 4710SOL    HW225593   0.383   1.492   5.881  0.3270 -0.0265 -1.3358
 4711SOL     OW25594   1.429   1.544   0.556 -0.5727 -0.3738  0.3843
 4711SOL    HW125595   1.359   1.608   0.540  1.8431  1.5516 -2.4316
 4711SOL    HW225596   1.421   1.491   0.476  0.6809 -1.6920  1.1462
 4712SOL     OW25597   0.426   2.809   1.374  0.1330 -0.3176  0.1455
 4712SOL    HW125598   0.337   2.774   1.371  0.8277 -2.2091  1.3534
 4712SOL    HW225599   0.437   2.862   1.296  0.0239  2.5939  2.1269
 4713SOL     OW25600   1.899   2.177   5.740 -0.8032 -0.2009  0.3272
 4713SOL    HW125601   1.931   2.183   5.650 -0.1236 -0.6814  0.5311
 4713SOL    HW225602   1.983   2.162   5.783 -0.9197 -0.2350  0.5410
 4714SOL     OW25603   2.983   4.517   4.508 -0.1730  0.2072  0.2184
 4714SOL    HW125604   3.004   4.589   4.448 -1.4098  1.6884  1.5613
 4714SOL    HW225605   3.044   4.538   4.579  0.5944 -0.4930 -0.2346
 4715SOL     OW25606   3.218   4.064   9.185 -0.4879 -0.0387 -0.5403
 4715SOL    HW125607   3.132   4.029   9.209  1.0448 -3.5980 -0.3995
 4715SOL    HW225608   3.209   4.081   9.091  0.1421 -1.4245 -0.8522
 4716SOL     OW25609   2.761   3.411   5.631  0.1382  0.2738 -0.1999
 4716SOL    HW125610   2.665   3.417   5.635  0.0597  0.2511 -1.7699
 4716SOL    HW225611   2.778   3.383   5.541 -0.7449 -1.5319  0.1844
 4717SOL     OW25612   2.223   1.704   2.089  0.2318 -0.1665  0.1650
 4717SOL    HW125613   2.315   1.707   2.061  0.0177  0.7320 -0.4544
 4717SOL    HW225614   2.185   1.667   2.010 -0.3446 -1.5362  1.0803
 4718SOL     OW25615   3.350   3.350   2.258 -0.0142  0.5557  0.4108
 4718SOL    HW125616   3.310   3.263   2.270  0.6323  0.2812  0.5653
 4718SOL    HW225617   3.321   3.375   2.171  0.1851  2.7591  0.9724
 4719SOL     OW25618   2.545   1.595   2.222 -0.2589 -0.7839 -0.2663
 4719SOL    HW125619   2.467   1.540   2.222 -0.7804 -0.0078  1.6569
 4719SOL    HW225620   2.521   1.653   2.149 -1.2973 -1.1264 -0.1986
 4720SOL     OW25621   3.584   1.915  12.264  0.3575 -0.1457 -0.1249
 4720SOL    HW125622   3.527   1.881  12.195  0.6710 -3.6801  1.3555
 4720SOL    HW225623   3.665   1.922  12.214  1.0389  1.2690  1.1601
 4721SOL     OW25624   3.967   4.176   1.624 -0.4859  0.0151 -0.1011
 4721SOL    HW125625   3.878   4.210   1.624 -0.6012 -0.2835  0.5760
 4721SOL    HW225626   4.000   4.214   1.543  1.7133 -1.4570  0.0977
 4722SOL     OW25627   4.125   2.202   6.592 -0.3043  0.0835 -0.1165
 4722SOL    HW125628   4.151   2.242   6.509 -1.4480  0.3156 -0.3772
 4722SOL    HW225629   4.124   2.109   6.568 -1.6295 -0.3059  1.4214
 4723SOL     OW25630   0.379   4.450  16.957  0.1680 -0.3398 -0.5347
 4723SOL    HW125631   0.338   4.366  16.935 -1.6059  0.3057  0.2860
 4723SOL    HW225632   0.430   4.435  17.036 -1.6363  0.2670  0.7644
 4724SOL     OW25633   1.695   0.773   4.621 -0.2721  0.1261 -0.1264
 4724SOL    HW125634   1.672   0.729   4.703 -0.1731  1.0175  0.3825
 4724SOL    HW225635   1.787   0.754   4.607 -0.6643 -1.5917 -0.3674
 4725SOL     OW25636   4.631   2.517  13.492  0.2472  0.0080 -0.0428
 4725SOL    HW125637   4.716   2.548  13.460  0.7320 -2.6167 -1.2674
 4725SOL    HW225638   4.634   2.431  13.451 -1.8472 -1.6456  3.3272
 4726SOL     OW25639   2.082   4.344   2.991  0.1541 -0.9066 -0.5363
 4726SOL    HW125640   2.002   4.362   2.942  0.2904 -3.4561 -1.7092
 4726SOL    HW225641   2.067   4.274   3.054 -0.8907 -0.1722  0.0335
 4727SOL     OW25642   1.021   2.381  13.583 -0.0031 -0.0666 -0.6318
 4727SOL    HW125643   1.029   2.325  13.660 -0.1710  0.9315  0.1185
 4727SOL    HW225644   1.094   2.345  13.534  0.9474 -0.6682  1.2353
 4728SOL     OW25645   2.879   3.260   0.453 -0.2769  0.3050 -1.3027
 4728SOL    HW125646   2.813   3.303   0.399  1.5293  2.6562 -1.6262
 4728SOL    HW225647   2.824   3.212   0.515  1.1816  0.5403  0.1853
 4729SOL     OW25648   2.782   2.193   7.050 -0.6650 -0.3332  0.0738
 4729SOL    HW125649   2.868   2.173   7.087  1.3542  3.9553 -2.3529
 4729SOL    HW225650   2.788   2.147   6.966  0.8066  1.3637 -0.7492
 4730SOL     OW25651   2.875   2.281   0.768 -0.3999 -0.3175 -0.5492
 4730SOL    HW125652   2.905   2.306   0.681  0.1230  0.1583 -0.2341
 4730SOL    HW225653   2.782   2.301   0.762 -0.0035  0.9125 -2.3448
 4731SOL     OW25654   1.852   2.804   8.962 -0.1612  0.2580  0.0957
 4731SOL    HW125655   1.790   2.877   8.969 -0.7528 -0.3329  1.0760
 4731SOL    HW225656   1.837   2.750   9.040 -1.0102 -1.2421 -1.1049
 4732SOL     OW25657   0.531   0.604  14.619 -0.3441 -0.4553  0.0373
 4732SOL    HW125658   0.445   0.627  14.584 -0.2936 -0.6673 -0.2326
 4732SOL    HW225659   0.569   0.689  14.639 -2.6975  0.2296  1.6252
 4733SOL     OW25660   0.689   1.669   9.431  0.0618  0.3428  0.0647
 4733SOL    HW125661   0.600   1.672   9.466 -0.5950 -0.9143 -1.5365
 4733SOL    HW225662   0.670   1.615   9.354  1.3694 -0.4121  0.2624
 4734SOL     OW25663   2.112   4.635   5.369 -0.8185  0.4699  0.0517
 4734SOL    HW125664   2.131   4.544   5.390  2.4681  1.5794  1.8064
 4734SOL    HW225665   2.173   4.654   5.297  0.1937 -3.4634 -0.1024
 4735SOL     OW25666   1.720   1.364   0.361  0.5662  0.8215  0.5759
 4735SOL    HW125667   1.625   1.360   0.355  0.4931  0.9443  1.5804
 4735SOL    HW225668   1.758   1.330   0.280 -0.6724 -1.0887  0.8073
 4736SOL     OW25669   4.020   2.055  16.100 -0.0869 -0.2352 -0.4498
 4736SOL    HW125670   4.060   2.122  16.155 -4.0801  0.7726  1.2653
 4736SOL    HW225671   4.089   2.022  16.043 -1.3363 -2.8498 -0.4559
 4737SOL     OW25672   4.445   2.940  10.110  0.5225  0.4051 -0.2843
 4737SOL    HW125673   4.482   2.852  10.122  0.3469  0.2995 -0.5123
 4737SOL    HW225674   4.461   2.943  10.016  1.9071  0.5213 -0.0330
 4738SOL     OW25675   4.411   1.673   7.190  0.1615 -0.1113 -0.1056
 4738SOL    HW125676   4.455   1.755   7.213 -1.0511  0.4616  0.2061
 4738SOL    HW225677   4.338   1.667   7.252  1.9489 -0.9896  1.9101
 4739SOL     OW25678   3.735   0.171   2.019 -0.4702  0.1893 -0.6736
 4739SOL    HW125679   3.815   0.122   2.034 -0.2187  1.3294  1.7785
 4739SOL    HW225680   3.758   0.260   2.046  0.7690 -0.2492 -0.3163
 4740SOL     OW25681   2.971   3.314  12.389 -0.5155  0.3316  0.1972
 4740SOL    HW125682   2.937   3.392  12.432 -1.9744  0.8036 -1.8264
 4740SOL    HW225683   2.885   3.280  12.364  0.9262 -1.7331 -2.0005
 4741SOL     OW25684   0.832   0.978   8.444  0.6946 -0.2948 -0.4416
 4741SOL    HW125685   0.885   0.959   8.367 -2.3392 -1.3533 -2.2525
 4741SOL    HW225686   0.819   1.070   8.422 -0.2087  0.3370  2.7021
 4742SOL     OW25687   0.007   2.564   3.025 -0.0877 -0.0682 -0.1571
 4742SOL    HW125688   0.099   2.591   3.033  0.4739 -1.5715 -1.7396
 4742SOL    HW225689   4.696   2.624   2.959  2.1735 -0.3338 -1.6003
 4743SOL     OW25690   0.353   3.560   4.763 -0.0526  0.0464  0.1785
 4743SOL    HW125691   0.293   3.519   4.826 -1.4650  1.1369 -0.4432
 4743SOL    HW225692   0.434   3.575   4.812  1.7526  0.1516 -2.8843
 4744SOL     OW25693   2.656   3.950   7.606  0.3593 -0.3954  0.0421
 4744SOL    HW125694   2.602   3.905   7.541 -2.5753  1.4369  1.1558
 4744SOL    HW225695   2.642   3.895   7.684  0.4547  1.6371  1.4988
 4745SOL     OW25696   0.706   3.832   7.954  0.5710  0.1791 -0.4488
 4745SOL    HW125697   0.713   3.756   8.011  3.0425  0.9883  0.3445
 4745SOL    HW225698   0.787   3.883   7.966  0.4219  0.3494 -0.1711
 4746SOL     OW25699   3.958   2.861  10.774 -0.0335  0.1642 -0.0267
 4746SOL    HW125700   4.000   2.816  10.848 -0.2994 -1.4830 -0.8717
 4746SOL    HW225701   3.943   2.776  10.731  0.7293  0.1442 -0.2608
 4747SOL     OW25702   2.301   1.929   6.581 -0.1030  0.1037 -0.0489
 4747SOL    HW125703   2.358   1.894   6.511 -1.0259 -1.3090 -0.0897
 4747SOL    HW225704   2.344   2.015   6.575 -1.7346  0.8477 -1.1993
 4748SOL     OW25705   3.819   1.351   6.508  0.1520  0.0506 -0.4131
 4748SOL    HW125706   3.906   1.387   6.492 -0.2344  0.1221 -2.4364
 4748SOL    HW225707   3.760   1.420   6.476 -0.8422 -0.6734 -0.1386
 4749SOL     OW25708   4.619   0.396  16.095  0.2046 -0.3079 -0.3182
 4749SOL    HW125709   4.556   0.325  16.082  0.3693 -0.4138 -0.5384
 4749SOL    HW225710   4.601   0.423  16.185 -4.3448 -0.5964 -1.1284
 4750SOL     OW25711   4.505   3.425   9.101 -0.0236 -0.5904 -0.2313
 4750SOL    HW125712   4.540   3.336   9.104  0.9950 -0.1531  1.2327
 4750SOL    HW225713   4.551   3.466   9.028 -1.2600  0.4947 -0.3973
 4751SOL     OW25714   0.815   4.234   2.197  0.3715 -0.5051 -0.4449
 4751SOL    HW125715   0.781   4.146   2.178 -0.0082 -0.9018  2.0257
 4751SOL    HW225716   0.885   4.212   2.259  2.2197 -2.4122 -3.1709
 4752SOL     OW25717   2.962   2.837  15.849  0.5047 -0.2857 -0.3902
 4752SOL    HW125718   3.036   2.875  15.897  0.8401  0.1272 -1.2307
 4752SOL    HW225719   3.017   2.808  15.776  1.4145  0.1428  0.1288
 4753SOL     OW25720   0.362   3.456   1.307  0.0201  0.1843  0.1689
 4753SOL    HW125721   0.287   3.482   1.361 -1.9700  2.2311 -3.6071
 4753SOL    HW225722   0.331   3.383   1.254 -0.3341  0.8736 -0.5850
 4754SOL     OW25723   2.291   1.706   7.330  0.3614 -0.4193  0.1623
 4754SOL    HW125724   2.299   1.644   7.258  0.1088 -0.2203 -0.0352
 4754SOL    HW225725   2.326   1.786   7.292 -2.9355  2.6981  3.6933
 4755SOL     OW25726   4.110   0.538   7.825 -0.4760  0.5043 -0.0420
 4755SOL    HW125727   4.118   0.450   7.788 -1.0950  0.5546 -0.2978
 4755SOL    HW225728   4.173   0.521   7.894  1.3575  0.8877 -1.6303
 4756SOL     OW25729   4.692   2.560   7.868  0.0332 -0.2190 -0.1278
 4756SOL    HW125730   4.621   2.616   7.901  1.7847  1.5150  0.7065
 4756SOL    HW225731   4.668   2.536   7.778 -1.9135 -0.9653  0.5873
 4757SOL     OW25732   2.371   3.647   3.453  0.2185 -0.6769  0.5266
 4757SOL    HW125733   2.465   3.658   3.436  0.5513 -1.7404  1.7040
 4757SOL    HW225734   2.352   3.573   3.395 -1.3986 -0.4648  0.7850
 4758SOL     OW25735   0.398   2.696  15.311  0.5886 -0.0651  0.3617
 4758SOL    HW125736   0.445   2.717  15.231 -1.7624 -1.4449 -1.3932
 4758SOL    HW225737   0.473   2.679  15.367  0.5400 -0.3659  0.3375
 4759SOL     OW25738   1.668   1.922   8.291 -0.1598  0.9521  0.2479
 4759SOL    HW125739   1.667   1.925   8.386 -1.6929  1.1304  0.2392
 4759SOL    HW225740   1.759   1.940   8.269 -0.4253  1.4461 -0.4824
 4760SOL     OW25741   0.334   3.713  12.949 -0.0173  0.2665 -0.2082
 4760SOL    HW125742   0.288   3.748  13.025 -2.2700 -1.0078 -0.9768
 4760SOL    HW225743   0.406   3.678  13.001 -1.9494 -1.5996  1.2033
 4761SOL     OW25744   2.010   3.093  14.093  0.2179 -0.3560 -0.3319
 4761SOL    HW125745   1.976   3.076  14.005 -2.6447 -1.0902  0.9472
 4761SOL    HW225746   1.930   3.094  14.145  0.0543  1.7858 -0.6057
 4762SOL     OW25747   0.654   3.359  14.262 -0.3062  0.5069 -0.3638
 4762SOL    HW125748   0.742   3.395  14.272 -0.2461 -0.0874  1.1897
 4762SOL    HW225749   0.610   3.434  14.221  0.5751  0.1449 -1.9706
 4763SOL     OW25750   1.482   1.444  10.757 -0.0818 -0.7555 -0.4761
 4763SOL    HW125751   1.530   1.362  10.748  0.6377 -0.4747  0.7839
 4763SOL    HW225752   1.529   1.513  10.709 -1.0759  0.9294  0.9683
 4764SOL     OW25753   1.111   3.896   9.987 -0.5885  0.4069  0.7373
 4764SOL    HW125754   1.194   3.848   9.986 -0.9712 -0.2044 -0.5335
 4764SOL    HW225755   1.076   3.867  10.071 -2.3837 -0.6188 -0.3849
 4765SOL     OW25756   2.578   1.530   5.578 -0.3729 -0.5540 -0.2689
 4765SOL    HW125757   2.623   1.606   5.614 -1.1355 -0.8159  1.2036
 4765SOL    HW225758   2.541   1.490   5.657  0.7246  0.6015  0.8296
 4766SOL     OW25759   3.390   2.589   4.354 -0.0478  0.5834 -0.1829
 4766SOL    HW125760   3.392   2.494   4.345  0.1306  0.6744 -1.0243
 4766SOL    HW225761   3.340   2.602   4.274  1.3885  2.4095 -0.7664
 4767SOL     OW25762   0.530   3.066   9.592 -0.0688  0.0516 -0.1590
 4767SOL    HW125763   0.601   3.062   9.528 -0.1680  1.7393 -0.3810
 4767SOL    HW225764   0.569   3.017   9.664 -0.0055 -0.1378 -0.3206
 4768SOL     OW25765   3.748   1.533   7.498  0.4297  0.2049 -0.3245
 4768SOL    HW125766   3.686   1.498   7.562  1.1709  1.0087  0.8431
 4768SOL    HW225767   3.725   1.477   7.424 -0.3428 -0.1217  0.1618
 4769SOL     OW25768   2.568   2.897   6.088  0.2097 -0.0098  0.5246
 4769SOL    HW125769   2.543   2.819   6.038  1.6593  0.2079 -0.5417
 4769SOL    HW225770   2.522   2.968   6.044 -0.2385 -0.7316 -0.1829
 4770SOL     OW25771   2.183   2.652  12.731 -0.2088 -0.4195  0.6016
 4770SOL    HW125772   2.189   2.648  12.827  0.4503 -3.2278  0.4386
 4770SOL    HW225773   2.089   2.658  12.713 -0.3999  1.6379  2.1845
 4771SOL     OW25774   0.264   0.087   7.733 -0.4771  0.1187 -0.3500
 4771SOL    HW125775   0.351   0.052   7.717 -0.9727 -0.4222 -1.8828
 4771SOL    HW225776   0.224   0.097   7.647  0.4604 -0.5351 -0.8537
 4772SOL     OW25777   2.596   2.405  17.056 -0.3184  0.1200 -0.0665
 4772SOL    HW125778   2.592   2.429  17.148  0.4560 -0.9761  0.2535
 4772SOL    HW225779   2.516   2.449  17.027  0.4172  0.4141 -1.6397
 4773SOL     OW25780   0.727   4.592   2.204  0.2348  0.8464  0.7981
 4773SOL    HW125781   0.716   4.686   2.191  1.0575  0.9856  1.1248
 4773SOL    HW225782   0.788   4.573   2.133  0.2610 -3.8588  2.0986
 4774SOL     OW25783   1.556   4.127   5.647  0.3495 -0.1640  0.1536
 4774SOL    HW125784   1.555   4.036   5.675  1.1687  0.4279  2.1016
 4774SOL    HW225785   1.624   4.122   5.579 -1.1652 -2.1674 -1.2402
 4775SOL     OW25786   0.594   1.168  16.615  0.2919 -0.0648  0.7301
 4775SOL    HW125787   0.540   1.213  16.680 -0.6800  1.6311 -1.2553
 4775SOL    HW225788   0.614   1.228  16.543  0.1784 -0.1072  0.6641
 4776SOL     OW25789   1.276   2.028  14.771  0.2289 -0.2445  0.1261
 4776SOL    HW125790   1.300   2.103  14.716 -0.0262  1.2250  1.9818
 4776SOL    HW225791   1.356   1.977  14.764  1.0962  1.0354  0.5400
 4777SOL     OW25792   2.565   3.954  16.771 -0.2930  0.3479 -0.2784
 4777SOL    HW125793   2.502   3.927  16.704 -1.9459 -0.3264  1.5665
 4777SOL    HW225794   2.502   3.985  16.836  0.2798 -1.8798  1.3637
 4778SOL     OW25795   2.038   1.932   3.105 -0.0854  0.0974 -0.0841
 4778SOL    HW125796   1.981   1.943   3.029 -1.5746 -0.0090  1.0181
 4778SOL    HW225797   1.983   1.887   3.169 -1.3255  4.0429  1.6347
 4779SOL     OW25798   2.107   4.200   5.679  0.1027 -0.5898  0.1135
 4779SOL    HW125799   2.096   4.220   5.772 -0.0769  1.5172 -0.3464
 4779SOL    HW225800   2.144   4.113   5.691 -1.5964 -1.3470 -0.1328
 4780SOL     OW25801   1.349   3.939  13.217  0.4317 -0.3988  0.2005
 4780SOL    HW125802   1.430   3.930  13.167 -0.2414 -1.1594 -0.7670
 4780SOL    HW225803   1.384   3.913  13.302 -1.2376 -4.4536 -0.3244
 4781SOL     OW25804   2.294   1.013  15.237  0.0510 -0.0425  0.1849
 4781SOL    HW125805   2.337   1.079  15.182 -0.4806 -0.7369 -1.0579
 4781SOL    HW225806   2.342   1.024  15.319  0.2527  2.5995 -0.2832
 4782SOL     OW25807   1.840   0.192   6.653  0.2266  0.5399 -0.1466
 4782SOL    HW125808   1.769   0.238   6.608  1.0991  0.5926 -1.4807
 4782SOL    HW225809   1.859   0.253   6.724 -0.8172 -1.1008  1.5504
 4783SOL     OW25810   3.134   0.701   8.667 -0.0404 -0.5672 -0.2327
 4783SOL    HW125811   3.082   0.705   8.587 -2.0108 -2.8175  0.9277
 4783SOL    HW225812   3.206   0.754   8.632  0.8547  0.4127  3.1000
 4784SOL     OW25813   0.636   3.820   6.751  0.3198  0.3743 -0.0828
 4784SOL    HW125814   0.647   3.910   6.781  2.9487  0.1460 -0.3354
 4784SOL    HW225815   0.637   3.832   6.656  1.5048  1.2872  0.0334
 4785SOL     OW25816   0.113   2.824   6.944 -0.0462 -0.0949 -0.0133
 4785SOL    HW125817   0.175   2.776   6.999  0.7689  0.0971 -0.7510
 4785SOL    HW225818   0.156   2.909   6.948  0.7953 -0.5453  0.6164
 4786SOL     OW25819   2.994   2.381   4.966 -0.2141 -0.2395  0.0709
 4786SOL    HW125820   2.911   2.371   4.920  0.0524 -2.2802  0.0228
 4786SOL    HW225821   3.028   2.453   4.913 -2.3479  0.6558 -0.0542
 4787SOL     OW25822   1.435   4.037   4.382 -0.1556  0.1047 -0.2305
 4787SOL    HW125823   1.528   4.032   4.359 -0.3034 -0.7832 -0.6639
 4787SOL    HW225824   1.422   4.020   4.475  1.2504  2.9240  0.4768
 4788SOL     OW25825   1.783   1.186   0.809 -0.0670  0.1189 -0.0415
 4788SOL    HW125826   1.726   1.242   0.757  1.3167  2.1044  0.5916
 4788SOL    HW225827   1.870   1.226   0.816 -0.6919  1.4443  0.0572
 4789SOL     OW25828   0.164   0.135   3.313 -0.1925 -0.6668  0.3401
 4789SOL    HW125829   0.236   0.198   3.319  0.9068 -1.9734  0.7839
 4789SOL    HW225830   0.107   0.182   3.374  0.3608 -0.7026  0.8824
 4790SOL     OW25831   0.750   2.013   2.610 -0.1936  0.0031 -1.0350
 4790SOL    HW125832   0.729   1.926   2.644 -2.5968  0.7637 -0.5692
 4790SOL    HW225833   0.739   1.996   2.516 -0.4536  0.6099 -1.1131
 4791SOL     OW25834   0.814   4.468   7.608  1.0412  0.0748 -0.0850
 4791SOL    HW125835   0.865   4.482   7.688 -1.0776 -0.4115  1.3651
 4791SOL    HW225836   0.861   4.389   7.581 -2.7534 -2.4232  0.6326
 4792SOL     OW25837   1.989   3.012   2.549 -0.0728  0.1369 -0.1150
 4792SOL    HW125838   1.982   3.000   2.643  0.8634 -2.3776 -0.3762
 4792SOL    HW225839   2.025   3.101   2.547  2.2749 -0.8278 -0.0472
 4793SOL     OW25840   0.383   2.366  16.793 -0.4382 -0.2964 -0.2488
 4793SOL    HW125841   0.398   2.375  16.699  3.3701  0.3161  0.4101
 4793SOL    HW225842   0.312   2.428  16.814  0.9562  1.8367 -1.8504
 4794SOL     OW25843   2.039   3.742   4.426  0.4652 -0.1649 -0.3083
 4794SOL    HW125844   2.091   3.788   4.492  2.4194 -2.1378 -0.4770
 4794SOL    HW225845   2.059   3.652   4.453 -0.8563 -0.8685 -1.6496
 4795SOL     OW25846   0.788   4.248   6.247  0.4847  0.2601  0.2922
 4795SOL    HW125847   0.854   4.301   6.202 -0.9026  1.8081  0.1010
 4795SOL    HW225848   0.804   4.266   6.340 -0.3527 -0.2859  0.5361
 4796SOL     OW25849   2.733   2.852   0.060 -0.4198 -0.0993  0.0125
 4796SOL    HW125850   2.723   2.826   0.151 -0.3104 -1.0257 -0.2477
 4796SOL    HW225851   2.768   2.776   0.014 -0.8157 -0.8743  1.0127
 4797SOL     OW25852   3.072   0.799  15.374 -0.2046 -0.5256  0.5860
 4797SOL    HW125853   3.009   0.855  15.329 -1.9246 -2.0179  1.1394
 4797SOL    HW225854   3.088   0.736  15.304  2.2535 -1.0350  1.5872
 4798SOL     OW25855   2.801   3.075   4.505 -0.2371 -0.5378  0.5047
 4798SOL    HW125856   2.775   2.984   4.491 -2.7051  0.0418  1.2490
 4798SOL    HW225857   2.866   3.082   4.435 -2.1841  1.8917 -1.0688
 4799SOL     OW25858   2.693   2.280  16.619  0.2327  0.0681  0.7985
 4799SOL    HW125859   2.789   2.285  16.624  0.2736  1.2755 -1.2418
 4799SOL    HW225860   2.675   2.265  16.711 -0.9902 -0.2627  0.5004
 4800SOL     OW25861   2.435   2.787  13.656  0.2160  0.0410  0.7667
 4800SOL    HW125862   2.515   2.839  13.645  0.1469 -0.2247 -0.9393
 4800SOL    HW225863   2.461   2.722  13.721 -1.5196  0.3041  1.7344
 4801SOL     OW25864   2.003   1.510   6.967  0.7991  0.2672  0.1369
 4801SOL    HW125865   1.982   1.544   7.054  0.5534  0.3538  0.0452
 4801SOL    HW225866   1.982   1.417   6.979 -1.1311  0.3527 -2.5239
 4802SOL     OW25867   4.369   2.363  11.771 -0.1680  0.1507 -0.0382
 4802SOL    HW125868   4.452   2.410  11.781  0.0543  0.0517 -1.4398
 4802SOL    HW225869   4.312   2.439  11.787 -0.6203 -0.1832 -0.0459
 4803SOL     OW25870   2.887   3.305   6.837  0.6349 -0.6403  0.0570
 4803SOL    HW125871   2.973   3.332   6.806  0.3478  1.8908  1.4813
 4803SOL    HW225872   2.891   3.339   6.926 -0.4829  0.9988 -0.5218
 4804SOL     OW25873   1.191   3.269   8.719  0.2661 -0.0101  0.2200
 4804SOL    HW125874   1.245   3.224   8.653  1.0608  0.2405  0.7038
 4804SOL    HW225875   1.110   3.256   8.669  0.7129  0.1587 -0.5512
 4805SOL     OW25876   2.900   0.088   9.466 -0.2330  0.2777 -0.1358
 4805SOL    HW125877   2.995   0.085   9.480 -0.3147 -3.1260 -0.1560
 4805SOL    HW225878   2.887   0.175   9.505 -1.9093 -0.2718  0.5210
 4806SOL     OW25879   1.175   2.169   4.446  0.1932 -0.2550 -0.2094
 4806SOL    HW125880   1.227   2.166   4.366 -1.7703 -0.2195 -1.4847
 4806SOL    HW225881   1.112   2.238   4.425  0.8342 -0.4637 -2.7615
 4807SOL     OW25882   3.575   0.327   6.999 -0.1031  0.3213 -0.2912
 4807SOL    HW125883   3.482   0.329   6.976 -0.4130 -2.8664  0.6265
 4807SOL    HW225884   3.600   0.407   7.045 -0.2005  0.4460 -0.4553
 4808SOL     OW25885   2.708   0.117   1.601 -0.0371  0.5920  0.3521
 4808SOL    HW125886   2.701   0.040   1.544  1.9788  0.9684 -0.4072
 4808SOL    HW225887   2.733   0.075   1.684 -0.5832  3.1816  1.8091
 4809SOL     OW25888   2.562   1.098   7.644  0.4166  0.2785  0.4450
 4809SOL    HW125889   2.494   1.034   7.667  0.3243 -0.1369 -0.9818
 4809SOL    HW225890   2.523   1.177   7.681  0.6474  0.2418  0.7686
 4810SOL     OW25891   1.661   3.803  17.313 -0.1973  0.1816 -0.6077
 4810SOL    HW125892   1.718   3.752  17.255  1.3694  1.3852 -0.1105
 4810SOL    HW225893   1.635   3.872  17.251  1.3020  2.1108  0.9607
 4811SOL     OW25894   0.569   2.515  16.343  0.6378 -0.4075 -1.1077
 4811SOL    HW125895   0.657   2.543  16.318  0.6077  0.9209  0.2415
 4811SOL    HW225896   0.553   2.439  16.287  1.1791 -1.3617  0.0252
 4812SOL     OW25897   2.177   1.566   5.347  0.0535 -0.3639 -0.8369
 4812SOL    HW125898   2.158   1.619   5.270 -2.8820  0.2758  0.3054
 4812SOL    HW225899   2.246   1.511   5.312  1.1986  1.2945 -1.1684
 4813SOL     OW25900   1.418   1.611   7.298  0.0249 -0.4688  1.0929
 4813SOL    HW125901   1.336   1.651   7.267  0.7808  0.2213 -0.0219
 4813SOL    HW225902   1.480   1.643   7.232  0.1492 -0.5839  1.1544
 4814SOL     OW25903   1.017   3.679  13.471 -0.2791 -0.1989 -0.4312
 4814SOL    HW125904   1.028   3.584  13.466  0.4778 -0.0157 -2.4546
 4814SOL    HW225905   0.928   3.697  13.498  0.7462  0.4449  2.5380
 4815SOL     OW25906   3.594   1.632  13.004 -0.2738 -0.4025 -0.9595
 4815SOL    HW125907   3.641   1.709  13.037 -0.7518 -0.4659 -0.1341
 4815SOL    HW225908   3.643   1.556  13.035 -2.0310 -1.2889 -0.3824
 4816SOL     OW25909   3.298   0.160   6.358 -0.0226  0.2523  0.5856
 4816SOL    HW125910   3.256   0.091   6.306  0.4927  1.8314 -1.9533
 4816SOL    HW225911   3.370   0.186   6.301 -0.4715  0.6840  0.2065
 4817SOL     OW25912   1.374   3.757  14.558 -0.1837 -0.4135 -0.0206
 4817SOL    HW125913   1.337   3.672  14.579 -0.1500 -0.6021 -0.7167
 4817SOL    HW225914   1.451   3.729  14.509 -1.1548 -0.8510 -1.2808
 4818SOL     OW25915   0.753   2.687   5.411 -0.6557 -0.0140  0.3329
 4818SOL    HW125916   0.830   2.743   5.404 -2.0614  2.1630  2.2267
 4818SOL    HW225917   0.800   2.607   5.432 -0.3365  0.1397  0.2037
 4819SOL     OW25918   0.110   2.666   4.829 -0.3157  0.1839 -0.2513
 4819SOL    HW125919   0.041   2.647   4.892  1.7567 -1.5720  1.4872
 4819SOL    HW225920   0.187   2.636   4.877 -1.6767 -0.3128  1.6341
 4820SOL     OW25921   3.550   0.659   6.868  0.2800 -0.4421 -0.0073
 4820SOL    HW125922   3.633   0.697   6.838  0.4388  0.1158  1.1282
 4820SOL    HW225923   3.522   0.609   6.791 -1.2371 -0.8655  0.8198
 4821SOL     OW25924   2.922   1.598   3.176 -0.0904  0.1714  0.1103
 4821SOL    HW125925   2.860   1.648   3.122  2.3072  0.8843 -1.9633
 4821SOL    HW225926   2.871   1.521   3.200  1.8668 -1.3476 -0.6832
 4822SOL     OW25927   4.192   1.711   1.996  0.0344  0.0083  0.0733
 4822SOL    HW125928   4.216   1.727   2.087 -2.6695 -1.5440  1.0343
 4822SOL    HW225929   4.134   1.636   2.008  0.1274 -0.4655 -2.5559
 4823SOL     OW25930   4.632   3.112   6.843 -0.0886  0.8981  0.0941
 4823SOL    HW125931   4.538   3.094   6.838 -0.1403  0.9147  0.8878
 4823SOL    HW225932   4.657   3.058   6.769  1.2688  1.0760  0.4228
 4824SOL     OW25933   3.765   1.145   6.962  0.3603 -0.2049 -0.3586
 4824SOL    HW125934   3.777   1.061   6.918  2.4628  1.2024 -2.5267
 4824SOL    HW225935   3.808   1.130   7.046  0.4526  0.8586 -0.2203
 4825SOL     OW25936   2.214   4.223   9.345 -0.1046 -0.3386  0.3049
 4825SOL    HW125937   2.194   4.262   9.260  1.1964  0.1482  0.2245
 4825SOL    HW225938   2.302   4.256   9.360 -0.3963  0.4661  0.2393
 4826SOL     OW25939   0.114   4.070   3.432 -0.0992  0.0528 -0.0218
 4826SOL    HW125940   0.148   4.021   3.507  0.7851 -1.2557 -1.2818
 4826SOL    HW225941   0.032   4.111   3.460  0.8187  1.4185  0.6195
 4827SOL     OW25942   3.654   3.839   1.493 -0.0987  0.6381  0.6144
 4827SOL    HW125943   3.701   3.771   1.542  1.5737  2.5310  1.5998
 4827SOL    HW225944   3.658   3.800   1.405 -0.9994 -3.7727  2.5240
 4828SOL     OW25945   3.142   1.059   4.340  0.1999 -0.0313 -0.2726
 4828SOL    HW125946   3.089   0.993   4.385 -1.9441  0.8314 -1.5309
 4828SOL    HW225947   3.078   1.081   4.272 -0.7322 -1.7541  0.0559
 4829SOL     OW25948   1.855   0.876   9.019  0.3040 -0.0144 -0.5416
 4829SOL    HW125949   1.835   0.926   8.940  0.9662 -0.4559 -0.9909
 4829SOL    HW225950   1.898   0.802   8.977 -2.0304 -1.0310 -1.1348
 4830SOL     OW25951   1.555   1.821  16.548  0.5282  0.3989 -0.0290
 4830SOL    HW125952   1.528   1.732  16.571 -1.0011  0.4944 -1.4142
 4830SOL    HW225953   1.500   1.872  16.608  0.2802 -0.3139  0.3517
 4831SOL     OW25954   3.480   2.067   3.679  0.2550 -0.0040  0.1800
 4831SOL    HW125955   3.555   2.017   3.711 -0.7673 -1.5712  0.1045
 4831SOL    HW225956   3.455   2.002   3.613 -0.9190  3.2232 -2.5528
 4832SOL     OW25957   2.982   1.829  15.934  0.5924 -0.3678  0.6808
 4832SOL    HW125958   3.009   1.917  15.909 -0.5890 -0.1630  0.1444
 4832SOL    HW225959   3.027   1.765  15.878  1.1687 -2.2664  3.2625
 4833SOL     OW25960   0.604   3.321  15.785  0.1119 -0.5720 -0.0827
 4833SOL    HW125961   0.518   3.322  15.742  0.6120  0.6965 -1.0782
 4833SOL    HW225962   0.584   3.383  15.855 -2.2736 -0.3265 -0.9583
 4834SOL     OW25963   0.992   2.165  13.742  0.2056 -0.7440  0.4566
 4834SOL    HW125964   1.082   2.133  13.752  0.5176 -0.2892 -0.8635
 4834SOL    HW225965   0.972   2.160  13.835  5.5336 -1.1481  1.5965
 4835SOL     OW25966   0.438   1.845   7.078  0.0713  0.3741 -0.2791
 4835SOL    HW125967   0.414   1.872   6.990 -1.1165  0.1710 -0.0237
 4835SOL    HW225968   0.529   1.873   7.078  0.1411  0.1703  1.2803
 4836SOL     OW25969   0.306   4.475   8.076  0.7610  0.0259 -0.1402
 4836SOL    HW125970   0.393   4.512   8.058  0.2825  1.3371  0.2436
 4836SOL    HW225971   0.281   4.504   8.164  0.0796  1.1700 -0.7139
 4837SOL     OW25972   0.696   2.731   2.064 -0.1711 -0.4409  0.3584
 4837SOL    HW125973   0.673   2.824   2.068 -0.2923 -0.4123 -1.0948
 4837SOL    HW225974   0.780   2.735   2.109  1.2791  0.0507 -2.3734
 4838SOL     OW25975   2.695   4.546   2.322 -0.0316 -0.0921 -0.2754
 4838SOL    HW125976   2.710   4.549   2.416  4.1615 -5.2877 -0.7602
 4838SOL    HW225977   2.649   4.627   2.302 -0.5783 -0.2699  0.2599
 4839SOL     OW25978   3.567   1.337   2.556 -0.3395 -0.1305  0.1580
 4839SOL    HW125979   3.559   1.242   2.548 -0.4577 -0.2573  1.7883
 4839SOL    HW225980   3.661   1.344   2.573  0.1053 -2.4212 -1.5627
 4840SOL     OW25981   0.298   1.238  17.673 -0.0045 -0.0911  0.0259
 4840SOL    HW125982   0.386   1.253  17.637  0.2414 -1.3103  0.1143
 4840SOL    HW225983   0.256   1.201  17.595  2.7705  0.3545 -1.6748
 4841SOL     OW25984   3.313   4.068   8.623 -0.4667  0.0405 -0.9513
 4841SOL    HW125985   3.262   4.073   8.705  0.2452 -2.3090 -0.3812
 4841SOL    HW225986   3.385   4.013   8.654 -0.9964 -0.7404 -1.1156
 4842SOL     OW25987   4.243   3.023   4.900 -0.1876  0.4291  0.3051
 4842SOL    HW125988   4.242   3.077   4.979  0.1705  0.2486  0.4361
 4842SOL    HW225989   4.226   2.936   4.936 -1.7613 -0.7433 -3.3333
 4843SOL     OW25990   1.448   3.383   9.438  0.3379 -0.1761 -0.0214
 4843SOL    HW125991   1.424   3.351   9.350  0.2512  1.3038 -0.5249
 4843SOL    HW225992   1.407   3.312   9.488  0.3155  0.0694  0.3076
 4844SOL     OW25993   0.534   4.389   3.307  0.5476  0.9104  0.0465
 4844SOL    HW125994   0.442   4.407   3.287  0.1428 -0.9056  0.1984
 4844SOL    HW225995   0.575   4.462   3.260 -2.7108  3.2139  0.8207
 4845SOL     OW25996   2.189   0.414   4.912  0.2125 -0.0284  0.1677
 4845SOL    HW125997   2.167   0.421   4.819 -0.6704  0.9086  0.4422
 4845SOL    HW225998   2.265   0.355   4.913  0.3545  0.1565  0.1580
 4846SOL     OW25999   4.583   1.958  17.640 -0.3737  0.3495 -0.4250
 4846SOL    HW126000   4.617   2.016   0.010 -2.0840 -0.0162  0.7398
 4846SOL    HW226001   4.586   2.016  17.564 -2.1826  2.4627  1.1089
 4847SOL     OW26002   4.448   0.569   8.457  0.6328  0.3360 -0.1420
 4847SOL    HW126003   4.475   0.647   8.506 -0.2488  1.0072 -0.7327
 4847SOL    HW226004   4.472   0.603   8.371 -1.2415  0.5064 -0.5861
 4848SOL     OW26005   4.611   4.328   7.920  0.3601 -0.0351 -0.0327
 4848SOL    HW126006   4.587   4.246   7.965 -1.8912 -0.1317 -1.4154
 4848SOL    HW226007   4.676   4.300   7.856 -0.5653  0.3769 -1.1436
 4849SOL     OW26008   0.954   0.067  14.438  0.1590 -0.1209  0.2701
 4849SOL    HW126009   0.947   4.712  14.385 -0.5258  0.3846 -0.3963
 4849SOL    HW226010   0.961   0.135  14.371 -0.1542 -0.7480 -0.4001
 4850SOL     OW26011   4.359   4.588   9.676  0.0587  0.6642  1.2582
 4850SOL    HW126012   4.355   4.641   9.756  3.3063  2.2065  0.3867
 4850SOL    HW226013   4.267   4.585   9.651  0.4185 -1.2305  0.1432
 4851SOL     OW26014   3.726   1.077   6.507 -0.3632 -0.8930 -0.0280
 4851SOL    HW126015   3.789   1.149   6.509  1.0673 -2.0567 -2.7404
 4851SOL    HW226016   3.650   1.125   6.538 -0.6553 -0.5431 -1.2956
 4852SOL     OW26017   2.335   3.707   9.178  0.0448  0.2496  0.2525
 4852SOL    HW126018   2.290   3.707   9.263 -1.0378 -0.5926 -0.3189
 4852SOL    HW226019   2.331   3.613   9.162  0.9684  0.7970 -3.1480
 4853SOL     OW26020   2.717   4.128   0.110  0.2948  0.5297  0.2216
 4853SOL    HW126021   2.690   4.088   0.027 -0.3981 -0.8830  1.1369
 4853SOL    HW226022   2.736   4.049   0.160  0.2594  2.0002  2.5611
 4854SOL     OW26023   4.717   4.331   2.816 -0.9686  0.5360  0.0412
 4854SOL    HW126024   0.086   4.322   2.796 -1.3100 -1.7440 -0.5460
 4854SOL    HW226025   4.689   4.373   2.735 -0.4398  0.3461 -0.2436
 4855SOL     OW26026   1.316   2.458   2.922  0.0256 -0.7199 -0.3476
 4855SOL    HW126027   1.387   2.453   2.857 -0.5577 -3.1878 -0.8284
 4855SOL    HW226028   1.340   2.385   2.980 -0.7626  0.3191  1.2697
 4856SOL     OW26029   2.546   4.305  16.988  0.8143 -0.2098 -0.6901
 4856SOL    HW126030   2.481   4.365  16.954  1.3150  1.7768  1.8553
 4856SOL    HW226031   2.499   4.221  16.986 -1.4451  1.0820 -1.4091
 4857SOL     OW26032   1.019   1.762   5.849 -0.2432  0.6044 -0.1151
 4857SOL    HW126033   1.110   1.776   5.875  0.0774 -1.4365 -0.0916
 4857SOL    HW226034   0.989   1.852   5.837  1.6145  1.4423  1.6266
 4858SOL     OW26035   1.964   2.769   2.391 -0.6224  0.0911 -0.0676
 4858SOL    HW126036   1.973   2.853   2.437  1.1742  0.1955 -0.5993
 4858SOL    HW226037   1.920   2.803   2.313 -0.5234  1.0587  0.2979
 4859SOL     OW26038   3.697   3.232  12.633  0.3945  0.2364 -0.0036
 4859SOL    HW126039   3.717   3.292  12.561  3.0492  0.9261  1.2987
 4859SOL    HW226040   3.664   3.294  12.698 -0.7633 -2.0739  1.6178
 4860SOL     OW26041   1.655   0.685  12.914 -0.3089  0.4026 -0.2721
 4860SOL    HW126042   1.601   0.725  12.846  1.2436  1.9684 -0.5819
 4860SOL    HW226043   1.657   0.594  12.884 -0.3213  0.8688 -1.7034
 4861SOL     OW26044   3.855   3.758  10.241  0.0123 -0.3696 -0.4326
 4861SOL    HW126045   3.887   3.837  10.285 -0.2282  0.5895 -1.9695
 4861SOL    HW226046   3.804   3.720  10.312  0.0155 -0.4256 -0.4608
 4862SOL     OW26047   0.706   3.551   6.744  0.1467  0.1180  0.0326
 4862SOL    HW126048   0.708   3.645   6.762 -0.5242  0.4307 -1.5427
 4862SOL    HW226049   0.683   3.527   6.834 -0.5085  0.6315  0.0071
 4863SOL     OW26050   0.754   3.538  17.215  0.2194 -0.4871 -0.3192
 4863SOL    HW126051   0.813   3.594  17.164  2.4304 -1.2700  1.3911
 4863SOL    HW226052   0.787   3.448  17.211 -0.5703 -0.7709 -0.4919
 4864SOL     OW26053   2.756   3.863  15.606  0.3285 -0.5564  0.4308
 4864SOL    HW126054   2.849   3.882  15.612  0.2487  1.0374 -3.4068
 4864SOL    HW226055   2.755   3.773  15.575  0.3805  0.1002 -1.4506
 4865SOL     OW26056   3.042   2.599  15.372 -0.2986 -0.2311  0.6204
 4865SOL    HW126057   3.101   2.568  15.441  0.4022 -0.8129 -0.2411
 4865SOL    HW226058   3.032   2.690  15.401 -0.9944  0.1203 -0.7341
 4866SOL     OW26059   3.761   0.095   8.482 -0.6478  0.0468 -0.3167
 4866SOL    HW126060   3.770   0.185   8.449  0.9566 -0.0632 -0.2057
 4866SOL    HW226061   3.670   0.093   8.511 -1.1524  1.7073 -1.8063
 4867SOL     OW26062   3.593   4.626   5.035 -0.1124 -0.5353  0.7516
 4867SOL    HW126063   3.682   4.603   5.010 -0.5793 -2.3336  0.7540
 4867SOL    HW226064   3.543   4.558   4.991 -0.2309  1.1774 -1.7462
 4868SOL     OW26065   3.909   2.553   7.577 -0.3827 -0.0578  0.1906
 4868SOL    HW126066   3.923   2.642   7.543 -0.0497 -0.9848 -2.0925
 4868SOL    HW226067   3.904   2.570   7.671 -1.6836 -2.9775  0.6402
 4869SOL     OW26068   0.472   4.348  15.816 -0.0302 -0.0352 -0.3677
 4869SOL    HW126069   0.476   4.253  15.824 -0.9816 -0.3336 -3.5484
 4869SOL    HW226070   0.377   4.355  15.802  0.6266  1.3899 -3.9070
 4870SOL     OW26071   2.968   2.158   6.113  0.1498  0.0624 -0.2088
 4870SOL    HW126072   2.877   2.140   6.090  0.0316  0.4350 -0.0274
 4870SOL    HW226073   2.970   2.253   6.111 -2.5695  0.0977 -0.7426
 4871SOL     OW26074   3.595   3.003   6.053 -0.7420  0.4068  0.2204
 4871SOL    HW126075   3.652   3.068   6.011 -0.8469  0.6480  0.4473
 4871SOL    HW226076   3.537   3.054   6.110  0.8553  2.1278  0.3146
 4872SOL     OW26077   3.584   3.169  17.304  0.1715  0.3973  0.1854
 4872SOL    HW126078   3.569   3.088  17.256  1.5571 -0.1140  0.6152
 4872SOL    HW226079   3.676   3.160  17.326 -0.1083  0.2666  1.2728
 4873SOL     OW26080   2.435   3.179   5.941 -0.2871 -0.1472  0.4322
 4873SOL    HW126081   2.377   3.251   5.916  0.4303 -0.2252 -1.5108
 4873SOL    HW226082   2.433   3.135   5.855  0.9554 -2.0812  1.3780
 4874SOL     OW26083   0.710   2.227   6.825 -0.1755 -0.1918 -0.0026
 4874SOL    HW126084   0.670   2.166   6.764 -1.2212 -0.0964  0.5902
 4874SOL    HW226085   0.659   2.308   6.816 -1.4173 -1.0654 -0.7344
 4875SOL     OW26086   4.505   2.599  14.589  0.5861  0.3705  0.5911
 4875SOL    HW126087   4.518   2.685  14.547 -1.2764 -0.0550 -0.8654
 4875SOL    HW226088   4.515   2.625  14.680 -0.4547  0.9846  0.5253
 4876SOL     OW26089   2.049   4.044   2.900  0.6286  0.1616 -0.3384
 4876SOL    HW126090   2.142   4.036   2.922  0.4112  0.3389  0.6134
 4876SOL    HW226091   2.056   4.109   2.830  2.3523  1.5652  1.1566
 4877SOL     OW26092   4.285   2.486   7.316  0.6277  0.0350 -0.5091
 4877SOL    HW126093   4.232   2.474   7.237 -1.4465  0.0246  0.8867
 4877SOL    HW226094   4.294   2.581   7.308 -0.5094  0.0023 -2.2025
 4878SOL     OW26095   3.864   2.355   9.892 -0.2360  0.2168  0.1855
 4878SOL    HW126096   3.920   2.350   9.969 -1.4163  2.2465  1.1970
 4878SOL    HW226097   3.911   2.296   9.833 -0.9776  1.2569 -1.4713
 4879SOL     OW26098   1.962   4.318   5.461  0.5658 -0.0309 -0.6418
 4879SOL    HW126099   2.026   4.296   5.529  3.0671  2.3781 -2.2340
 4879SOL    HW226100   1.896   4.249   5.473  2.5038 -1.5414  1.3467
 4880SOL     OW26101   2.593   0.859  15.679  0.2049  0.0922 -0.5050
 4880SOL    HW126102   2.627   0.940  15.642  2.2890  0.2207  1.7062
 4880SOL    HW226103   2.664   0.796  15.668 -0.9879 -1.8337  2.8323
 4881SOL     OW26104   3.984   4.507   1.564  0.0242  0.4006 -0.3515
 4881SOL    HW126105   3.992   4.423   1.518  0.8118  0.7919 -0.9200
 4881SOL    HW226106   3.963   4.566   1.492  2.4776 -1.4512 -2.5727
 4882SOL     OW26107   1.837   0.046   1.637 -0.3553  0.5194 -0.2336
 4882SOL    HW126108   1.899   0.118   1.625 -0.6370  1.2665  2.7282
 4882SOL    HW226109   1.887   4.708   1.584 -1.1121  0.1389 -0.4880
 4883SOL     OW26110   2.583   4.570   7.611  0.2287  0.4419 -0.1177
 4883SOL    HW126111   2.555   4.553   7.521  1.3060  0.7662 -0.5143
 4883SOL    HW226112   2.601   4.664   7.605  0.7573  0.3601  0.2494
 4884SOL     OW26113   0.781   2.047   3.819 -0.4466 -0.1304  0.2816
 4884SOL    HW126114   0.812   2.134   3.796 -0.1006 -0.3267  0.0039
 4884SOL    HW226115   0.699   2.038   3.769  1.5828  1.4208 -3.2818
 4885SOL     OW26116   0.662   4.144  11.440 -0.1794 -0.1291 -0.5028
 4885SOL    HW126117   0.616   4.135  11.523  0.4683 -1.5520 -0.2905
 4885SOL    HW226118   0.725   4.209  11.471 -0.0679 -1.9314  2.9777
 4886SOL     OW26119   1.633   1.486   7.428  0.0167  0.1062  0.9476
 4886SOL    HW126120   1.559   1.524   7.380  0.3867 -0.3348  0.0244
 4886SOL    HW226121   1.595   1.398   7.439 -1.1382  0.3159 -1.2937
 4887SOL     OW26122   3.662   1.606   9.375 -0.9061  0.3724 -0.4545
 4887SOL    HW126123   3.649   1.698   9.395 -0.1443  0.6222 -1.1179
 4887SOL    HW226124   3.599   1.596   9.304 -3.6067  2.9332  1.6036
 4888SOL     OW26125   0.892   2.869   6.109 -0.1659  0.0594  0.3748
 4888SOL    HW126126   0.845   2.953   6.112  1.8680  1.1410  1.3116
 4888SOL    HW226127   0.835   2.822   6.169  0.4108 -2.6335 -1.1692
 4889SOL     OW26128   0.486   1.707   6.766 -0.2087 -0.4504 -0.2012
 4889SOL    HW126129   0.481   1.765   6.690  2.6478 -0.5376 -0.4300
 4889SOL    HW226130   0.403   1.721   6.812  0.4382 -3.6555  1.9247
 4890SOL     OW26131   4.174   3.206   6.071 -0.1504 -0.4363  0.2030
 4890SOL    HW126132   4.097   3.149   6.080  0.2983 -1.1128 -0.3223
 4890SOL    HW226133   4.138   3.295   6.066 -0.8814 -0.7857 -0.6446
 4891SOL     OW26134   4.419   2.811  16.618 -0.1465  0.0926  0.1393
 4891SOL    HW126135   4.486   2.879  16.614 -0.6190  0.4947 -0.7254
 4891SOL    HW226136   4.346   2.862  16.653  0.1407  0.3734  0.3261
 4892SOL     OW26137   0.599   0.539  16.167 -0.1045  0.8133  0.3251
 4892SOL    HW126138   0.535   0.585  16.112 -0.7490 -0.4780 -0.0015
 4892SOL    HW226139   0.562   0.453  16.147 -0.0837  0.4178  2.0135
 4893SOL     OW26140   4.329   1.499   2.312 -0.0418  0.2199 -0.2278
 4893SOL    HW126141   4.330   1.537   2.224  1.3671  2.3161  0.6955
 4893SOL    HW226142   4.278   1.562   2.362 -1.0763 -0.4154 -0.4795
 4894SOL     OW26143   2.858   2.690  14.116  0.2240  0.2236 -0.2458
 4894SOL    HW126144   2.821   2.632  14.049  0.8666  0.3721 -0.7300
 4894SOL    HW226145   2.799   2.687  14.191  2.9715 -2.1014  1.8160
 4895SOL     OW26146   3.240   2.427   7.046 -0.4243 -0.1190 -0.2249
 4895SOL    HW126147   3.182   2.459   6.977 -0.0858 -0.7979 -0.8276
 4895SOL    HW226148   3.327   2.457   7.022  0.8161 -0.9587  3.2494
 4896SOL     OW26149   1.030   4.645   8.535  0.0329  0.1231 -0.0918
 4896SOL    HW126150   1.024   4.560   8.492 -0.0672  0.0924 -0.0170
 4896SOL    HW226151   0.985   4.632   8.618  0.4019 -0.9691 -0.0694
 4897SOL     OW26152   4.644   1.025  11.341  0.4111 -0.0700  0.3533
 4897SOL    HW126153   4.605   0.969  11.273  0.2334  1.0290 -0.4647
 4897SOL    HW226154   4.627   0.980  11.423 -0.2810 -0.0740  0.2095
 4898SOL     OW26155   3.335   0.233   7.233  0.8026 -0.6133 -0.6020
 4898SOL    HW126156   3.250   0.255   7.194  0.5615 -2.2433 -0.9570
 4898SOL    HW226157   3.350   0.312   7.286  3.2356 -2.0067  0.7716
 4899SOL     OW26158   3.013   2.822   5.173 -0.4928  0.0391  0.2319
 4899SOL    HW126159   3.017   2.727   5.184  0.7215 -0.0753 -1.0438
 4899SOL    HW226160   3.048   2.826   5.084 -0.0397  0.7258  0.4408
 4900SOL     OW26161   1.879   1.409   8.776 -0.4799 -0.2652 -0.2324
 4900SOL    HW126162   1.901   1.341   8.712  0.8406 -0.8766  0.8598
 4900SOL    HW226163   1.965   1.448   8.795  1.2960 -3.7470 -1.0071
 4901SOL     OW26164   2.251   1.103   4.107  0.1259  0.1073  0.2116
 4901SOL    HW126165   2.181   1.129   4.046  0.7308 -0.6890 -0.8325
 4901SOL    HW226166   2.295   1.036   4.054 -0.4792 -1.5812  1.8235
 4902SOL     OW26167   2.583   4.617   5.887 -0.3649  0.3519 -0.1108
 4902SOL    HW126168   2.627   4.559   5.949 -0.0884 -0.2073 -0.8331
 4902SOL    HW226169   2.607   4.581   5.801  0.3158  2.1940 -0.7063
 4903SOL     OW26170   0.871   0.946   5.221  0.4764 -0.8676  0.6116
 4903SOL    HW126171   0.809   0.919   5.289 -0.0736 -1.2455 -0.0369
 4903SOL    HW226172   0.930   1.002   5.271 -1.2249 -0.0872  1.7430
 4904SOL     OW26173   0.089   3.839   6.658 -0.1762  0.3377 -0.8743
 4904SOL    HW126174   0.057   3.900   6.592  1.0791 -0.2579 -2.0111
 4904SOL    HW226175   0.043   3.868   6.737  1.6408  2.8133 -0.7273
 4905SOL     OW26176   3.482   1.849   5.727  0.1549  0.6095 -0.4200
 4905SOL    HW126177   3.523   1.883   5.807 -0.5148 -2.8885  1.4175
 4905SOL    HW226178   3.547   1.787   5.695 -0.1653  0.3047 -0.4839
 4906SOL     OW26179   3.887   0.161  14.520  0.2722  0.1980 -0.5358
 4906SOL    HW126180   3.836   0.096  14.568  0.5149 -0.8374 -1.6683
 4906SOL    HW226181   3.942   0.190  14.593  0.3847 -2.9006  0.6310
 4907SOL     OW26182   2.173   3.969   2.437  0.2018 -0.0380  0.3694
 4907SOL    HW126183   2.243   3.989   2.374  0.0234  1.2303  0.5698
 4907SOL    HW226184   2.102   4.022   2.400 -1.0710 -1.0333  1.4075
 4908SOL     OW26185   3.317   3.797   8.408  0.3717  0.2897  0.1239
 4908SOL    HW126186   3.282   3.709   8.393 -1.4075  0.7847  1.4651
 4908SOL    HW226187   3.281   3.808   8.495  1.1493  0.2870  0.4470
 4909SOL     OW26188   3.771   0.905   4.451  0.1856 -0.9004 -0.2678
 4909SOL    HW126189   3.818   0.863   4.523  1.9820  2.0538  0.2544
 4909SOL    HW226190   3.846   0.942   4.405  0.0575 -1.8876 -1.2880
 4910SOL     OW26191   2.631   1.618   2.470 -0.1044  0.1799  0.7454
 4910SOL    HW126192   2.683   1.538   2.478 -1.8816 -1.1734 -1.1452
 4910SOL    HW226193   2.585   1.614   2.386 -1.1995  1.6083  1.2800
 4911SOL     OW26194   1.154   0.983   7.539  0.4803 -0.2256  0.2667
 4911SOL    HW126195   1.113   0.924   7.603 -0.4452 -1.2422 -1.2361
 4911SOL    HW226196   1.090   0.971   7.468 -0.0485  0.2593  0.6581
 4912SOL     OW26197   3.987   3.548   7.767  0.0749 -0.2752  0.9525
 4912SOL    HW126198   3.972   3.512   7.854  3.4799  1.0406  2.0996
 4912SOL    HW226199   3.951   3.636   7.781 -1.3913 -0.7503  0.2505
 4913SOL     OW26200   3.655   0.258  13.963 -0.0422 -0.2447  0.1236
 4913SOL    HW126201   3.571   0.214  13.972  0.1626 -0.7275 -0.3494
 4913SOL    HW226202   3.677   0.241  13.871 -1.1128 -1.2978  0.0604
 4914SOL     OW26203   2.753   4.156   5.952 -0.1332 -0.1477 -0.0504
 4914SOL    HW126204   2.686   4.145   5.885  0.0772 -0.3450 -0.2326
 4914SOL    HW226205   2.755   4.074   6.001  0.7517  0.0277  0.2005
 4915SOL     OW26206   0.619   4.306   8.872  0.3792  0.0952 -0.0981
 4915SOL    HW126207   0.713   4.297   8.889  0.1809 -1.7640 -0.0120
 4915SOL    HW226208   0.590   4.230   8.923  1.1615 -0.4131 -0.4120
 4916SOL     OW26209   3.473   2.876   3.947  0.1686 -0.2413  0.4963
 4916SOL    HW126210   3.516   2.962   3.947 -1.2339  0.4765 -1.8988
 4916SOL    HW226211   3.503   2.839   4.029 -1.0770 -0.6313  0.7722
 4917SOL     OW26212   0.421   1.801   3.384  0.4998 -0.5823 -0.1945
 4917SOL    HW126213   0.458   1.713   3.379 -0.1002 -1.0554  3.5229
 4917SOL    HW226214   0.506   1.845   3.380  0.2995 -0.2531 -0.8208
 4918SOL     OW26215   0.145   2.969   5.852 -0.0078 -0.7267 -0.2588
 4918SOL    HW126216   0.051   2.970   5.833 -0.4208  3.6314  1.9372
 4918SOL    HW226217   0.147   2.971   5.948 -0.2819 -0.3707 -0.2580
 4919SOL     OW26218   3.612   2.451  17.141 -0.1124  0.3702 -0.0529
 4919SOL    HW126219   3.562   2.520  17.184 -0.8989  0.5159 -1.2152
 4919SOL    HW226220   3.603   2.370  17.192  0.6006 -0.9888 -2.0676
 4920SOL     OW26221   3.569   1.883   4.021 -0.2400 -0.0312 -0.3588
 4920SOL    HW126222   3.589   1.825   4.095  0.2094 -2.0361 -2.0397
 4920SOL    HW226223   3.481   1.852   3.999 -0.4707 -0.1351  0.7191
 4921SOL     OW26224   0.904   1.574   4.269  0.4414 -0.4664  0.4363
 4921SOL    HW126225   0.923   1.540   4.182  0.2062  2.5716 -0.8097
 4921SOL    HW226226   0.844   1.642   4.239  0.1709 -1.2525 -0.8022
 4922SOL     OW26227   0.999   0.020   7.979  0.0176  0.4765 -0.7118
 4922SOL    HW126228   1.024   4.653   7.997 -0.0986  0.7993  1.0674
 4922SOL    HW226229   0.948   0.044   8.056 -0.1190 -0.7131 -0.4306
 4923SOL     OW26230   0.819   0.808   2.299  0.1713 -0.0325  0.9777
 4923SOL    HW126231   0.756   0.735   2.304  0.3901 -0.1297  2.3287
 4923SOL    HW226232   0.903   0.765   2.314 -0.9183 -2.2770  0.6271
 4924SOL     OW26233   4.337   1.687   6.947 -0.2734  0.4816  0.8653
 4924SOL    HW126234   4.306   1.597   6.933 -2.4844  1.3665  0.0717
 4924SOL    HW226235   4.345   1.687   7.042 -2.5235  2.0512  1.0463
 4925SOL     OW26236   3.961   2.128  14.535 -0.7360 -0.7139  0.5878
 4925SOL    HW126237   3.873   2.127  14.499 -0.4650 -0.9922 -0.0734
 4925SOL    HW226238   4.002   2.061  14.480  0.7538  1.1996 -0.6534
 4926SOL     OW26239   1.578   3.910  13.009  0.3085 -0.5074 -0.0128
 4926SOL    HW126240   1.665   3.884  12.980  1.6385  0.8216  2.7965
 4926SOL    HW226241   1.579   4.000  12.975  0.5944 -0.4681  0.1052
 4927SOL     OW26242   2.568   0.919  12.778  0.5695 -0.3283 -0.2736
 4927SOL    HW126243   2.556   0.847  12.839 -0.9792 -0.8663 -1.2053
 4927SOL    HW226244   2.490   0.918  12.723  0.3694  2.6191 -0.0813
 4928SOL     OW26245   3.478   2.774   6.391 -0.1258  0.1993  0.0402
 4928SOL    HW126246   3.540   2.764   6.463 -0.3593 -2.9194 -0.1597
 4928SOL    HW226247   3.514   2.850   6.347 -2.3956  0.6335 -1.0306
 4929SOL     OW26248   3.003   4.011  14.421  0.3595 -0.6616 -0.4875
 4929SOL    HW126249   3.039   4.056  14.345  0.5288 -0.9663 -0.5884
 4929SOL    HW226250   3.089   3.994  14.458  0.4358 -0.8215 -0.7389
 4930SOL     OW26251   1.797   2.405   3.088 -0.4153 -0.6066 -0.4878
 4930SOL    HW126252   1.861   2.342   3.121  1.8446  0.5962 -2.5366
 4930SOL    HW226253   1.819   2.391   2.995  0.3036  0.2592 -0.4500
 4931SOL     OW26254   4.373   0.296  11.589  0.7759  0.1035  0.5598
 4931SOL    HW126255   4.293   0.320  11.635  0.6701 -1.4592  1.2015
 4931SOL    HW226256   4.369   0.330  11.499 -0.1633  0.4622  0.7481
 4932SOL     OW26257   0.066   0.880  12.402  0.5953 -0.3872 -0.4297
 4932SOL    HW126258   4.700   0.862  12.378  0.5906  0.9995 -1.4334
 4932SOL    HW226259   0.052   0.875  12.497  0.4184 -0.1570 -0.4447
 4933SOL     OW26260   3.737   3.985   6.542  0.0795 -0.8461  0.4389
 4933SOL    HW126261   3.753   3.960   6.451 -1.5275  1.5080 -0.4984
 4933SOL    HW226262   3.669   4.051   6.533  0.0692 -1.3988 -3.6498
 4934SOL     OW26263   1.406   1.883   1.893 -0.2588 -0.1976 -0.3925
 4934SOL    HW126264   1.493   1.846   1.906 -0.4814 -0.0232  1.5803
 4934SOL    HW226265   1.364   1.801   1.868 -0.3351 -0.3983  0.4012
 4935SOL     OW26266   2.032   1.101   4.297 -0.1494 -0.6427 -0.5951
 4935SOL    HW126267   2.110   1.109   4.351  0.9269  0.3603 -2.3148
 4935SOL    HW226268   2.056   1.159   4.225  0.5446  0.8731  0.8612
 4936SOL     OW26269   1.321   1.916   5.102 -0.4766  0.4140 -0.4662
 4936SOL    HW126270   1.305   1.825   5.077 -3.1020  1.0017 -0.9473
 4936SOL    HW226271   1.400   1.939   5.052 -1.0019  1.4307 -0.8388
 4937SOL     OW26272   0.543   3.015   5.961 -0.5921  0.0760  0.2903
 4937SOL    HW126273   0.472   2.976   5.910  1.2522 -0.2629 -2.0368
 4937SOL    HW226274   0.623   2.980   5.922 -0.2290  0.0421  1.0773
 4938SOL     OW26275   2.070   4.188   3.204  0.1903  0.2797  0.0216
 4938SOL    HW126276   2.007   4.186   3.276  1.2190  2.8045  0.9994
 4938SOL    HW226277   2.057   4.098   3.175  0.7104  0.0804  0.4175
 4939SOL     OW26278   3.414   3.935  13.227 -0.5866 -0.1406 -0.1416
 4939SOL    HW126279   3.383   4.024  13.213  0.4828  0.0642 -1.2469
 4939SOL    HW226280   3.413   3.905  13.136 -3.0781 -1.8092  0.4411
 4940SOL     OW26281   0.112   1.956   0.313  0.1259  0.6441 -0.1104
 4940SOL    HW126282   0.151   1.902   0.381 -0.7160  1.0693  0.7243
 4940SOL    HW226283   0.124   1.908   0.231 -1.2217 -0.8079  0.5455
 4941SOL     OW26284   2.143   3.098   5.743 -0.4081 -0.1221 -0.6708
 4941SOL    HW126285   2.098   3.132   5.820  0.1172 -1.6566  0.3041
 4941SOL    HW226286   2.083   3.128   5.675  0.5281 -0.5788 -1.6893
 4942SOL     OW26287   2.386   2.465   4.041 -0.0301 -0.1244 -0.0486
 4942SOL    HW126288   2.471   2.467   3.997 -0.7417  0.7880 -1.3986
 4942SOL    HW226289   2.333   2.442   3.965 -0.1211 -0.9695  0.2736
 4943SOL     OW26290   1.301   4.268   6.666 -0.2524  0.2074  0.4606
 4943SOL    HW126291   1.230   4.282   6.728 -1.2086 -2.4868 -0.0670
 4943SOL    HW226292   1.273   4.335   6.603 -0.8921 -0.6829 -0.1983
 4944SOL     OW26293   1.638   1.640   7.114  0.1916 -0.1951 -0.4598
 4944SOL    HW126294   1.643   1.554   7.072 -3.1722 -0.7393  0.2105
 4944SOL    HW226295   1.727   1.640   7.149 -0.6525  2.0290  1.7049
 4945SOL     OW26296   3.242   0.725   6.596 -0.1104 -0.4142 -0.1140
 4945SOL    HW126297   3.204   0.697   6.679 -0.9673 -0.2112 -0.4359
 4945SOL    HW226298   3.181   0.795   6.574 -1.0302 -0.6226  1.7990
 4946SOL     OW26299   1.905   4.681   3.640 -0.3667 -0.5820  0.0109
 4946SOL    HW126300   1.980   4.659   3.585 -0.5057 -0.3508 -0.2699
 4946SOL    HW226301   1.872   0.036   3.599  0.2476  0.5165  1.6438
 4947SOL     OW26302   4.543   2.835   6.287 -0.0079 -0.1428 -0.3693
 4947SOL    HW126303   4.574   2.805   6.202  1.8577  0.3311  0.1355
 4947SOL    HW226304   4.498   2.759   6.325 -1.5247  0.0153 -1.8561
 4948SOL     OW26305   2.167   2.778   9.566 -0.1825  0.4182 -0.2639
 4948SOL    HW126306   2.218   2.699   9.585 -0.7132 -0.0279 -0.7035
 4948SOL    HW226307   2.081   2.756   9.600  0.0019 -0.5897 -0.4437
 4949SOL     OW26308   3.042   0.312   8.489 -0.1117  0.0826 -0.6771
 4949SOL    HW126309   3.116   0.326   8.430  0.5376 -1.4377 -0.2243
 4949SOL    HW226310   3.081   0.367   8.557  0.0593  1.3251 -1.7867
 4950SOL     OW26311   1.087   2.604   7.805 -0.1302 -0.6280 -0.3953
 4950SOL    HW126312   1.056   2.620   7.716  2.2611  2.2044 -0.7321
 4950SOL    HW226313   1.120   2.687   7.840  0.6398 -1.3575  0.6152
 4951SOL     OW26314   2.634   3.030   7.222 -0.1658 -0.5377  0.4817
 4951SOL    HW126315   2.660   2.939   7.235 -0.3835 -0.8585 -1.3035
 4951SOL    HW226316   2.720   3.071   7.218  0.6647 -2.2656  0.8550
 4952SOL     OW26317   1.595   2.023   3.719 -0.0884 -0.1005 -0.2812
 4952SOL    HW126318   1.610   2.090   3.653  0.0769 -1.8127 -1.9854
 4952SOL    HW226319   1.581   2.074   3.799 -0.8380 -0.7630  0.0041
 4953SOL     OW26320   2.139   4.253   2.707 -0.2210  0.0501 -0.5448
 4953SOL    HW126321   2.110   4.322   2.767  1.2754  0.3630 -0.1858
 4953SOL    HW226322   2.088   4.283   2.631 -1.0803 -1.0815 -0.4193
 4954SOL     OW26323   3.291   2.486  10.111 -0.0612  0.6177 -0.3954
 4954SOL    HW126324   3.252   2.407  10.075 -0.8001  1.0548 -0.5417
 4954SOL    HW226325   3.324   2.453  10.195  2.0099 -2.0631 -2.2593
 4955SOL     OW26326   0.196   0.613  12.611 -0.3392  0.1368  0.1078
 4955SOL    HW126327   0.131   0.683  12.619 -1.3321 -0.7814  0.0548
 4955SOL    HW226328   0.274   0.668  12.604  0.6685 -1.0159  2.3808
 4956SOL     OW26329   4.624   1.102   4.382 -0.1463 -0.8317 -0.6737
 4956SOL    HW126330   4.687   1.156   4.335 -0.7730 -0.8814 -1.5621
 4956SOL    HW226331   4.582   1.171   4.433 -0.5493 -2.1605  0.7961
 4957SOL     OW26332   1.253   2.025   7.836 -0.2403 -0.2071 -0.1261
 4957SOL    HW126333   1.332   2.079   7.833  1.1244 -2.1899  0.2684
 4957SOL    HW226334   1.197   2.092   7.876  1.8273  2.0095 -0.9267
 4958SOL     OW26335   3.299   1.103   6.569  0.4719  0.4330 -0.0508
 4958SOL    HW126336   3.269   1.031   6.514 -0.6975  0.6059  0.3584
 4958SOL    HW226337   3.218   1.134   6.610  1.8892 -1.3548  4.1355
 4959SOL     OW26338   3.191   4.219  10.487 -0.0236  0.0366  0.4355
 4959SOL    HW126339   3.191   4.261  10.402  0.9942 -1.0080 -0.0742
 4959SOL    HW226340   3.240   4.284  10.536 -0.8131  0.9750 -0.0153
 4960SOL     OW26341   2.237   0.464   9.714 -0.2905 -0.0328  0.4123
 4960SOL    HW126342   2.233   0.369   9.703 -2.4263  0.3856 -2.5082
 4960SOL    HW226343   2.169   0.480   9.779 -0.8705 -0.2815 -0.1280
 4961SOL     OW26344   2.241   4.282   1.788 -0.1469  0.0246 -0.8721
 4961SOL    HW126345   2.329   4.287   1.750 -0.2479 -0.4926 -1.1773
 4961SOL    HW226346   2.204   4.228   1.718  2.0706  0.5021 -2.4350
 4962SOL     OW26347   2.965   3.837   1.293 -0.3609 -0.4721  0.4110
 4962SOL    HW126348   2.927   3.749   1.290 -1.3653 -0.0088 -0.7113
 4962SOL    HW226349   2.884   3.884   1.312 -1.0839 -1.1566 -0.9430
 4963SOL     OW26350   0.451   2.908  11.882 -0.4082  0.4367  0.4830
 4963SOL    HW126351   0.410   2.848  11.945  0.7692 -2.2838 -1.3122
 4963SOL    HW226352   0.374   2.919  11.827 -0.0917  0.3986  0.0321
 4964SOL     OW26353   1.075   2.795   9.076  0.0797 -0.1739  0.1051
 4964SOL    HW126354   1.031   2.739   9.013 -1.9393 -0.8373  2.0942
 4964SOL    HW226355   1.108   2.864   9.020  0.3163  1.4155  2.1961
 4965SOL     OW26356   4.503   0.896  12.680 -0.1023  0.1107  0.3729
 4965SOL    HW126357   4.490   0.984  12.646  0.4813  0.1398  0.2393
 4965SOL    HW226358   4.471   0.891  12.771  0.4004  0.0207  0.5445
 4966SOL     OW26359   2.530   0.749   3.104 -0.3853 -0.1069 -0.0376
 4966SOL    HW126360   2.512   0.690   3.177  0.1727 -0.9498 -0.5816
 4966SOL    HW226361   2.456   0.807   3.119  0.1171  0.6562 -0.5197
 4967SOL     OW26362   1.806   1.844   4.281  0.8164 -0.2101  0.7604
 4967SOL    HW126363   1.896   1.873   4.299  1.8153 -2.5629 -0.4913
 4967SOL    HW226364   1.819   1.749   4.278  0.7003 -0.2473  1.5856
 4968SOL     OW26365   2.548   4.634   4.399 -0.5555 -0.4096 -0.0086
 4968SOL    HW126366   2.628   4.648   4.348 -0.6017  1.2604  0.3944
 4968SOL    HW226367   2.487   4.652   4.327 -1.9315 -2.0888  0.7456
 4969SOL     OW26368   3.659   2.178  16.809  0.2496  0.2009 -0.6164
 4969SOL    HW126369   3.744   2.140  16.830 -0.1527 -0.4918 -0.2420
 4969SOL    HW226370   3.602   2.165  16.884  2.8575 -1.1755  1.1322
 4970SOL     OW26371   4.066   4.609   4.177  0.1185  0.2386  0.0770
 4970SOL    HW126372   4.017   4.551   4.119  0.9266 -1.3128  0.9485
 4970SOL    HW226373   4.096   4.542   4.239 -0.3990 -0.8841 -0.9036
 4971SOL     OW26374   0.857   3.408   7.628 -0.2089  0.8148 -0.4786
 4971SOL    HW126375   0.902   3.489   7.601 -0.5638  0.0902 -3.2741
 4971SOL    HW226376   0.874   3.406   7.722 -0.7572  0.6133 -0.3826
 4972SOL     OW26377   2.460   3.512   4.171  0.6781  0.1590  1.0315
 4972SOL    HW126378   2.480   3.483   4.082 -2.2759 -1.4067  0.8785
 4972SOL    HW226379   2.448   3.427   4.215 -0.2610 -0.5958 -0.6607
 4973SOL     OW26380   4.492   1.621  15.945 -0.3371 -0.3715  0.3953
 4973SOL    HW126381   4.404   1.638  15.913  0.4509  1.9107 -0.5511
 4973SOL    HW226382   4.474   1.559  16.015  0.7134  2.2870  3.0287
 4974SOL     OW26383   1.457   1.639   2.125 -0.1387  0.1590 -0.2822
 4974SOL    HW126384   1.414   1.559   2.155 -0.2846  1.2470  2.4706
 4974SOL    HW226385   1.448   1.634   2.030  0.8558  1.9676 -0.4736
 4975SOL     OW26386   0.191   3.377   2.733  0.1903 -0.0942 -0.0124
 4975SOL    HW126387   0.276   3.385   2.688  0.3784 -0.8716  0.1934
 4975SOL    HW226388   0.159   3.463   2.759 -0.5623 -0.4419  0.1873
 4976SOL     OW26389   3.437   3.808  14.708  0.2175  0.7529  0.2058
 4976SOL    HW126390   3.388   3.800  14.790  0.7159  2.8183  0.6977
 4976SOL    HW226391   3.469   3.898  14.718  0.2618  1.0320 -2.2538
 4977SOL     OW26392   3.873   0.476   1.582  0.0593 -0.1703 -0.0412
 4977SOL    HW126393   3.860   0.501   1.491 -0.9183  0.5557  0.2986
 4977SOL    HW226394   3.938   0.540   1.611 -1.4662  2.1576 -1.7624
 4978SOL     OW26395   3.845   3.131  17.393 -0.0819 -1.0385  0.1426
 4978SOL    HW126396   3.844   3.164  17.483  2.6415  1.0008 -0.5611
 4978SOL    HW226397   3.853   3.037  17.407  0.2188 -1.0819 -0.3111
 4979SOL     OW26398   0.594   2.452  17.532 -0.4404  0.1563 -0.2759
 4979SOL    HW126399   0.605   2.482  17.622  0.9663 -0.6290 -0.1834
 4979SOL    HW226400   0.595   2.538  17.489  1.0413 -0.4040 -1.3702
 4980SOL     OW26401   4.032   0.860  11.559  0.3297  0.3522 -0.4928
 4980SOL    HW126402   4.097   0.790  11.566 -0.4962 -0.8618 -4.8900
 4980SOL    HW226403   3.967   0.819  11.502  1.9584 -2.3261 -0.3904
 4981SOL     OW26404   4.468   2.469  12.362 -0.1980 -0.7624  0.1307
 4981SOL    HW126405   4.442   2.504  12.277 -1.8142  0.3250  1.0912
 4981SOL    HW226406   4.418   2.534  12.411  0.9030  1.3044 -1.5035
 4982SOL     OW26407   2.689   2.607   5.704 -0.3455 -0.1566 -0.6576
 4982SOL    HW126408   2.667   2.620   5.612 -1.4230  0.7395 -0.2695
 4982SOL    HW226409   2.626   2.540   5.728  0.2107 -0.4348  0.0409
 4983SOL     OW26410   0.419   1.877   2.310  0.2586 -0.1016  0.5854
 4983SOL    HW126411   0.383   1.796   2.273  2.1674 -0.5036 -0.3932
 4983SOL    HW226412   0.511   1.868   2.287  0.9980 -0.1011  3.5332
 4984SOL     OW26413   0.678   0.671   8.316  0.2228 -1.2419  0.2810
 4984SOL    HW126414   0.667   0.724   8.238  0.6342 -2.0758 -0.3499
 4984SOL    HW226415   0.697   0.738   8.382  1.4085 -0.2728 -1.0574
 4985SOL     OW26416   2.813   0.076   7.761 -0.2821  1.0309 -0.3279
 4985SOL    HW126417   2.832   0.066   7.667 -1.8853  3.0998 -0.8713
 4985SOL    HW226418   2.848   4.718   7.796 -0.6654  1.5087  1.1582
 4986SOL     OW26419   1.368   4.403   9.534 -0.0546  0.6497  0.4268
 4986SOL    HW126420   1.274   4.415   9.524  0.0748  1.7348  0.4886
 4986SOL    HW226421   1.403   4.484   9.572  2.0425 -0.1727  0.2556
 4987SOL     OW26422   0.142   3.159  10.890 -0.1085 -0.4659 -0.1872
 4987SOL    HW126423   0.204   3.218  10.932 -2.4578  1.9909 -0.1276
 4987SOL    HW226424   0.157   3.169  10.796  0.8198  0.7317  0.0926
 4988SOL     OW26425   2.410   4.232  14.021 -0.6750  0.1428 -0.4480
 4988SOL    HW126426   2.330   4.221  13.970  0.3202 -1.6853 -1.6274
 4988SOL    HW226427   2.401   4.327  14.019  1.4540  0.3645  0.4452
 4989SOL     OW26428   0.603   0.330   5.905 -0.7752  0.1814 -0.0376
 4989SOL    HW126429   0.613   0.385   5.827 -1.2035 -0.3833 -0.4861
 4989SOL    HW226430   0.688   0.287   5.910 -0.9761 -0.6485 -3.5337
 4990SOL     OW26431   1.239   1.216   7.703  0.1124  0.3788  0.0956
 4990SOL    HW126432   1.259   1.300   7.663 -0.7212  0.3241 -0.4304
 4990SOL    HW226433   1.218   1.161   7.627  1.7001  0.5954 -0.4880
 4991SOL     OW26434   1.594   4.212   4.733  0.8357  0.2784 -0.2485
 4991SOL    HW126435   1.517   4.246   4.687  0.2424 -1.3663 -0.4966
 4991SOL    HW226436   1.550   4.140   4.779 -0.5470  1.0083 -0.4263
 4992SOL     OW26437   2.065   1.623  16.046 -0.2828  0.1206 -0.1833
 4992SOL    HW126438   1.981   1.601  16.087  0.5766  1.5070  2.3103
 4992SOL    HW226439   2.032   1.647  15.959 -1.2435 -0.4753  0.0097
 4993SOL     OW26440   0.878   2.770   9.432  0.0916  0.1125  0.5551
 4993SOL    HW126441   0.858   2.695   9.488 -0.9865  0.3688  0.5093
 4993SOL    HW226442   0.955   2.737   9.386 -1.5446 -2.0956 -0.5683
 4994SOL     OW26443   3.227   2.088  10.301  0.2803  0.0202  0.6736
 4994SOL    HW126444   3.170   2.020  10.337  0.1316  1.2625  2.8134
 4994SOL    HW226445   3.191   2.117  10.218  0.0423  0.7837  1.0375
 4995SOL     OW26446   4.561   2.333   4.330 -0.0796 -0.4841 -0.7087
 4995SOL    HW126447   4.597   2.267   4.271  0.6196  1.3211 -2.2786
 4995SOL    HW226448   4.568   2.408   4.271  0.4397 -1.1250 -1.4604
 4996SOL     OW26449   1.976   3.502   8.943 -0.0820  0.2882  0.5308
 4996SOL    HW126450   1.892   3.465   8.972 -0.3823 -0.1886 -0.9298
 4996SOL    HW226451   1.978   3.466   8.855 -2.4201  0.2216  0.5065
 4997SOL     OW26452   3.857   3.177  10.672  0.1585  0.7800 -0.4399
 4997SOL    HW126453   3.932   3.200  10.727  1.9780 -2.3944 -1.6063
 4997SOL    HW226454   3.885   3.226  10.594  0.1667  1.2612 -0.1388
 4998SOL     OW26455   4.111   2.059   2.749  0.3386  0.2088 -0.3580
 4998SOL    HW126456   4.042   2.110   2.791  0.1338 -0.4365  0.0958
 4998SOL    HW226457   4.189   2.114   2.754  0.5192 -0.1466  0.6555
 4999SOL     OW26458   3.433   2.510  10.700  0.7867 -0.0443 -0.3002
 4999SOL    HW126459   3.490   2.485  10.773 -0.1975  0.3414  0.6123
 4999SOL    HW226460   3.472   2.473  10.621 -0.5969 -0.9001 -0.5847
 5000SOL     OW26461   2.879   1.174   8.487  0.1161 -0.3811 -0.0362
 5000SOL    HW126462   2.789   1.193   8.461  0.6305  0.1606 -1.4113
 5000SOL    HW226463   2.910   1.141   8.403 -0.6678  0.5853 -0.7022
 5001SOL     OW26464   1.671   1.212   1.382 -0.0321 -0.0589  0.1049
 5001SOL    HW126465   1.683   1.117   1.379 -1.2712 -0.2227  0.4623
 5001SOL    HW226466   1.635   1.232   1.296  1.3228  0.9201 -0.2403
 5002SOL     OW26467   1.840   1.205   6.334 -0.4320  0.3121  0.2135
 5002SOL    HW126468   1.903   1.152   6.383 -2.3614 -0.5888  1.7011
 5002SOL    HW226469   1.863   1.294   6.361  0.5527  0.2238 -0.3307
 5003SOL     OW26470   3.334   0.349   2.493  0.1067  0.2198  0.6437
 5003SOL    HW126471   3.312   0.426   2.546 -0.6838  0.4264  0.0222
 5003SOL    HW226472   3.307   0.379   2.406 -0.6042  1.4204  1.2864
 5004SOL     OW26473   0.827   4.557  16.857 -0.2405 -0.1444  0.1870
 5004SOL    HW126474   0.917   4.578  16.833  0.4501 -2.2518  0.9064
 5004SOL    HW226475   0.850   4.475  16.900 -1.9675 -1.4330 -1.3234
 5005SOL     OW26476   3.194   4.532   8.264  0.0652  0.0864  0.3238
 5005SOL    HW126477   3.274   4.561   8.219 -0.9459  0.1550 -1.4134
 5005SOL    HW226478   3.210   4.442   8.236 -1.7981 -1.0254  2.9133
 5006SOL     OW26479   3.258   3.379   4.404  0.1503  0.2971 -0.0385
 5006SOL    HW126480   3.171   3.384   4.365  1.3557 -0.4853 -2.8634
 5006SOL    HW226481   3.305   3.438   4.344  2.2954 -1.4120 -0.0102
 5007SOL     OW26482   4.124   3.664  16.057  0.3563 -0.1021 -0.0871
 5007SOL    HW126483   4.117   3.760  16.059 -1.9859 -0.2743  1.0241
 5007SOL    HW226484   4.057   3.643  15.992 -0.0487 -0.1541  0.3434
 5008SOL     OW26485   0.271   4.462   3.243 -0.0598 -0.3426  0.3979
 5008SOL    HW126486   0.228   4.515   3.311  1.4778 -1.6239  2.3715
 5008SOL    HW226487   0.217   4.487   3.168 -1.4525  1.3623  1.9422
 5009SOL     OW26488   0.512   3.117   6.439 -0.7114  0.1057 -0.0862
 5009SOL    HW126489   0.480   3.027   6.446 -2.7541  0.7410 -1.4450
 5009SOL    HW226490   0.514   3.134   6.345  3.1004  0.5263  0.0449
 5010SOL     OW26491   3.247   4.668   1.757  0.3073  0.1058 -0.1363
 5010SOL    HW126492   3.243   4.583   1.713  0.3103  0.3025 -0.5134
 5010SOL    HW226493   3.228   4.642   1.847  1.5992  0.3598  0.2038
 5011SOL     OW26494   2.298   2.619   0.975  0.2226 -0.3706  0.6841
 5011SOL    HW126495   2.332   2.591   0.889 -2.4751 -0.4332 -0.3671
 5011SOL    HW226496   2.326   2.556   1.041 -0.2250 -0.6463  0.6131
 5012SOL     OW26497   4.448   0.262  14.803 -0.1040  0.0618 -0.0554
 5012SOL    HW126498   4.378   0.222  14.855  0.0848  1.4623  1.2531
 5012SOL    HW226499   4.442   0.355  14.821  0.3006  0.5462 -2.4097
 5013SOL     OW26500   3.401   0.409   4.036 -0.0592  0.0667  0.1957
 5013SOL    HW126501   3.314   0.446   4.049  0.0732 -0.0779  1.5469
 5013SOL    HW226502   3.467   0.464   4.079  1.0735 -2.0972  1.2181
 5014SOL     OW26503   2.654   2.778  10.738  0.1012 -0.0894  0.0400
 5014SOL    HW126504   2.582   2.753  10.680  2.0779  0.7243 -2.7869
 5014SOL    HW226505   2.610   2.850  10.784  1.2903  0.3000  0.5678
 5015SOL     OW26506   0.330   4.604   5.695 -0.3206  0.3407 -0.3505
 5015SOL    HW126507   0.343   4.685   5.744  1.4855  0.3773 -0.9039
 5015SOL    HW226508   0.397   4.545   5.729 -0.9241 -0.8214 -1.1830
 5016SOL     OW26509   3.893   0.397  14.037 -0.0644  0.5121 -0.0412
 5016SOL    HW126510   3.821   0.339  14.014  1.9203 -1.6703 -0.6964
 5016SOL    HW226511   3.890   0.390  14.132  1.4141 -1.6530 -0.1582
 5017SOL     OW26512   0.329   1.151   2.903 -0.1948 -0.3859  0.8960
 5017SOL    HW126513   0.344   1.242   2.930 -0.7629 -0.4334  1.3559
 5017SOL    HW226514   0.389   1.106   2.964 -1.3451 -2.9801  0.0929
 5018SOL     OW26515   3.412   0.018   9.269 -0.6076  0.4321  0.0305
 5018SOL    HW126516   3.507   0.008   9.261 -0.3734  3.1505 -0.5391
 5018SOL    HW226517   3.397   0.032   9.362 -0.1501 -0.7990  0.2948
 5019SOL     OW26518   3.873   0.660   1.286 -0.3382  0.1177 -0.3448
 5019SOL    HW126519   3.889   0.740   1.336 -1.8112  1.1531 -1.5317
 5019SOL    HW226520   3.948   0.602   1.300 -0.1827  0.3582 -0.1852
 5020SOL     OW26521   2.825   0.803   3.138  0.3121  0.3767  0.2037
 5020SOL    HW126522   2.732   0.788   3.117  0.2360  1.2481 -0.0900
 5020SOL    HW226523   2.829   0.730   3.200 -1.6526  1.6367  1.8395
 5021SOL     OW26524   0.503   2.146   5.573 -0.0933  0.7424 -0.1221
 5021SOL    HW126525   0.533   2.161   5.663  0.4906  0.1036 -0.2075
 5021SOL    HW226526   0.411   2.132   5.593  0.1993 -1.9232 -0.6873
 5022SOL     OW26527   0.112   1.874   2.415 -0.0099  0.3513 -0.6039
 5022SOL    HW126528   0.023   1.839   2.408  0.8720 -1.9010 -0.6459
 5022SOL    HW226529   0.140   1.823   2.491 -0.7967 -1.3727 -1.4536
 5023SOL     OW26530   3.858   0.978   8.023 -0.1678 -0.6363 -0.0136
 5023SOL    HW126531   3.938   1.030   8.016 -0.4752 -0.2592 -0.7449
 5023SOL    HW226532   3.893   0.890   8.010  2.6238  0.3681  0.6376
 5024SOL     OW26533   4.565   4.085   8.044  0.3268  0.2460  0.0253
 5024SOL    HW126534   4.486   4.034   8.060 -0.3504  1.0230 -0.8539
 5024SOL    HW226535   4.631   4.032   8.090  1.5122  0.2454 -1.6586
 5025SOL     OW26536   0.050   3.328   3.167  0.1949  0.1211 -0.0038
 5025SOL    HW126537   0.085   3.313   3.254 -1.0092  0.8543  0.6137
 5025SOL    HW226538   0.091   3.413   3.155  0.3831 -0.0567 -0.6025
 5026SOL     OW26539   0.765   3.191   3.211  0.4377  0.2590 -0.2904
 5026SOL    HW126540   0.680   3.187   3.167  0.0038 -2.4589  0.8144
 5026SOL    HW226541   0.792   3.100   3.198 -0.7401 -0.3719  1.7223
 5027SOL     OW26542   2.366   1.280  16.843 -0.4548  0.2107  0.0813
 5027SOL    HW126543   2.446   1.311  16.801  0.2777 -1.0785  0.5584
 5027SOL    HW226544   2.396   1.233  16.921 -1.2180  0.7190  0.6833
 5028SOL     OW26545   2.233   2.970   3.677 -0.2555 -0.4414 -0.0495
 5028SOL    HW126546   2.266   2.894   3.724  1.6801 -0.0966 -0.8516
 5028SOL    HW226547   2.310   3.024   3.695 -1.3504  1.0443  0.2511
 5029SOL     OW26548   0.629   1.447   5.198 -0.3836 -0.0949  0.2692
 5029SOL    HW126549   0.617   1.542   5.208 -1.2674 -0.2856  1.0711
 5029SOL    HW226550   0.627   1.426   5.105 -0.0295  0.2360  0.1853
 5030SOL     OW26551   2.965   0.295   1.346 -0.6253 -0.3070 -0.9363
 5030SOL    HW126552   2.883   0.332   1.378  1.5816  4.6408 -1.0525
 5030SOL    HW226553   2.952   0.205   1.378 -0.5464 -0.2912 -0.8591
 5031SOL     OW26554   0.365   2.589   4.934 -0.0891 -0.1671  0.4255
 5031SOL    HW126555   0.415   2.560   5.010 -0.0543 -1.3874 -0.0641
 5031SOL    HW226556   0.407   2.675   4.937  0.6863 -0.4789 -1.8658
 5032SOL     OW26557   1.658   1.966   5.811 -0.0004  0.1343 -0.1411
 5032SOL    HW126558   1.712   1.903   5.764 -0.5005  0.4342 -1.1115
 5032SOL    HW226559   1.714   2.043   5.798  0.5843 -0.3444 -0.4571
 5033SOL     OW26560   4.678   3.307   5.578  0.2476 -0.5154 -0.9820
 5033SOL    HW126561   0.021   3.274   5.638 -2.0279  1.3361  2.5349
 5033SOL    HW226562   4.711   3.391   5.547 -1.4860  0.3524 -0.4357
 5034SOL     OW26563   3.609   4.579   1.620  0.0208 -0.3500  0.7371
 5034SOL    HW126564   3.669   4.636   1.669 -0.5331  0.6684  0.2399
 5034SOL    HW226565   3.624   4.492   1.657  2.0069  0.2282  1.2924
 5035SOL     OW26566   1.691   2.213   8.819 -0.7011 -0.1704  0.6127
 5035SOL    HW126567   1.596   2.198   8.828 -0.5930 -0.4343  1.3150
 5035SOL    HW226568   1.724   2.228   8.907 -2.3706 -1.7275  1.5196
 5036SOL     OW26569   1.710   3.666   6.218  0.4131 -0.1336  0.1190
 5036SOL    HW126570   1.733   3.588   6.270 -1.0818 -0.6543  0.0056
 5036SOL    HW226571   1.791   3.714   6.203  0.0757  0.9612  1.8977
 5037SOL     OW26572   2.709   4.248  12.102 -0.3024  0.2784  0.1152
 5037SOL    HW126573   2.615   4.230  12.104 -0.3776  0.9921  2.7985
 5037SOL    HW226574   2.703   4.303  12.024  1.5867 -0.6667 -0.7059
 5038SOL     OW26575   2.716   4.294   3.112 -0.3527 -0.2467  0.8996
 5038SOL    HW126576   2.723   4.314   3.019 -3.9426 -1.0580  0.4437
 5038SOL    HW226577   2.687   4.203   3.102 -1.3238  0.1898 -0.2562
 5039SOL     OW26578   3.218   2.141  11.122 -0.0131 -0.3634  0.0129
 5039SOL    HW126579   3.208   2.085  11.044  1.3686 -0.0230 -0.4000
 5039SOL    HW226580   3.204   2.073  11.188 -3.7573 -1.1067 -1.5508
 5040SOL     OW26581   0.049   0.569   3.639  0.4054  0.0647  0.7992
 5040SOL    HW126582   0.119   0.504   3.643  2.0983  1.9744  2.0109
 5040SOL    HW226583   0.059   0.613   3.554  0.2479  1.4986  1.5242
 5041SOL     OW26584   4.654   2.319  10.426 -0.2156 -0.6725  0.1473
 5041SOL    HW126585   4.578   2.310  10.484 -1.2729  2.0456 -0.8499
 5041SOL    HW226586   4.723   2.296  10.488  0.8379  0.7310 -0.5194
 5042SOL     OW26587   1.779   0.781   2.487 -0.0868  0.1672 -0.2867
 5042SOL    HW126588   1.805   0.706   2.541  0.3135  0.0088 -0.6893
 5042SOL    HW226589   1.731   0.740   2.415  0.9655 -1.7361  0.0897
 5043SOL     OW26590   3.910   1.343  13.363 -0.5515  0.4852 -0.2724
 5043SOL    HW126591   3.814   1.344  13.357 -0.5390  0.4289 -0.4837
 5043SOL    HW226592   3.929   1.392  13.282  3.7025 -2.3088 -0.9523
 5044SOL     OW26593   3.481   2.029   0.147  0.4623 -0.5227 -0.0150
 5044SOL    HW126594   3.451   1.941   0.169  0.8407 -0.6799 -0.1361
 5044SOL    HW226595   3.563   1.999   0.108  1.9925  0.2088  2.6475
 5045SOL     OW26596   0.577   2.506   0.107 -0.1902  0.7204  0.0587
 5045SOL    HW126597   0.634   2.498   0.184  1.3381 -2.4674 -1.4343
 5045SOL    HW226598   0.502   2.461   0.145 -0.8094  2.5153  0.9879
 5046SOL     OW26599   3.872   2.295   7.347  0.3098  0.1844  0.0077
 5046SOL    HW126600   3.894   2.386   7.333 -1.8133  0.7592  0.3353
 5046SOL    HW226601   3.868   2.292   7.443 -0.4972  1.2685  0.0027
 5047SOL     OW26602   2.265   2.055  12.361 -0.2759 -0.0196  0.6683
 5047SOL    HW126603   2.256   2.120  12.292 -0.9850  0.0612  0.8324
 5047SOL    HW226604   2.175   2.049  12.395 -0.3913 -0.9226  0.2205
 5048SOL     OW26605   3.935   3.002  10.294 -0.0585  0.4144 -0.0463
 5048SOL    HW126606   4.002   3.070  10.299  0.1247  0.2094  0.2179
 5048SOL    HW226607   3.858   3.059  10.295 -2.3341 -2.6949 -0.1318
 5049SOL     OW26608   0.825   0.705   5.604 -0.0080  0.3504  0.1082
 5049SOL    HW126609   0.878   0.744   5.674 -1.8678  1.8295  0.7019
 5049SOL    HW226610   0.857   0.739   5.520 -1.9786 -0.1798 -0.8575
 5050SOL     OW26611   3.084   1.180   0.346  0.8192  0.0885  0.9025
 5050SOL    HW126612   3.122   1.256   0.301  1.7333 -0.5605  0.5797
 5050SOL    HW226613   2.998   1.187   0.304 -0.1769  0.0480  2.9228
 5051SOL     OW26614   0.546   0.893  15.605 -0.3161  0.1273 -0.3833
 5051SOL    HW126615   0.477   0.956  15.622 -0.3454 -0.1645  0.5792
 5051SOL    HW226616   0.513   0.815  15.648  1.1259  0.1615  0.7914
 5052SOL     OW26617   0.451   4.280   6.363 -0.1159 -0.6230 -0.0655
 5052SOL    HW126618   0.478   4.199   6.319  5.8093  0.7274  1.1219
 5052SOL    HW226619   0.483   4.340   6.296  0.4351 -0.3930  0.4110
 5053SOL     OW26620   2.785   2.614   6.747 -0.4686 -0.3442 -0.0938
 5053SOL    HW126621   2.727   2.685   6.772  1.6350  1.7727 -1.2604
 5053SOL    HW226622   2.795   2.624   6.652 -1.0729 -0.5187 -0.1778
 5054SOL     OW26623   2.058   3.958   7.651  0.1609 -0.7144 -0.5894
 5054SOL    HW126624   2.023   3.969   7.562  1.0779  0.4424 -0.8076
 5054SOL    HW226625   2.152   3.962   7.632  0.2155  1.2097  0.1102
 5055SOL     OW26626   0.481   1.473   7.787  0.3171 -0.6600 -0.3371
 5055SOL    HW126627   0.431   1.484   7.706 -1.2185  0.3355  0.7436
 5055SOL    HW226628   0.511   1.563   7.794 -1.3951 -0.0370 -0.9360
 5056SOL     OW26629   0.602   2.430   3.382  0.5776 -0.3723  0.0015
 5056SOL    HW126630   0.586   2.400   3.471 -1.9586  2.1320  0.4013
 5056SOL    HW226631   0.626   2.347   3.341  0.1934 -0.2551 -0.4557
 5057SOL     OW26632   1.917   4.075   8.888  0.4394  0.3940  0.1056
 5057SOL    HW126633   1.842   4.129   8.859 -0.2925 -0.3883  0.5450
 5057SOL    HW226634   1.877   3.989   8.900  0.7933  0.1118 -0.7073
 5058SOL     OW26635   0.535   1.587   7.205  0.1210  0.2934 -0.1717
 5058SOL    HW126636   0.558   1.571   7.113  0.4058 -1.4801  0.2093
 5058SOL    HW226637   0.533   1.683   7.203  0.9762  0.2823 -2.1366
 5059SOL     OW26638   2.772   0.144   5.736  0.0226  0.3311  0.5612
 5059SOL    HW126639   2.682   0.127   5.763  0.4221  0.3464  1.9159
 5059SOL    HW226640   2.759   0.216   5.674  0.5032 -1.0541 -1.1611
 5060SOL     OW26641   3.206   1.114  10.493  0.3828  0.0138  0.5172
 5060SOL    HW126642   3.281   1.117  10.434  0.3225 -1.1760  0.3839
 5060SOL    HW226643   3.214   1.195  10.543 -0.5301 -0.6226  1.7210
 5061SOL     OW26644   0.754   2.865   9.184  0.0276  0.0550 -0.1593
 5061SOL    HW126645   0.796   2.874   9.099 -1.8223  0.5879 -1.0210
 5061SOL    HW226646   0.811   2.815   9.242 -0.2014  1.9455  1.7261
 5062SOL     OW26647   1.874   3.181   0.010 -0.5172 -0.0458 -0.2825
 5062SOL    HW126648   1.896   3.089  17.698 -0.3588  0.0102 -0.4365
 5062SOL    HW226649   1.810   3.192  17.638 -2.7660 -1.4387  1.5403
 5063SOL     OW26650   0.351   0.964  10.691 -0.5718 -0.0165 -0.1054
 5063SOL    HW126651   0.272   1.015  10.706  0.6670  1.7301  0.4656
 5063SOL    HW226652   0.375   1.013  10.613  3.3225 -0.4211  0.7991
 5064SOL     OW26653   4.233   2.735   7.207  0.0204 -0.1411  0.1566
 5064SOL    HW126654   4.254   2.829   7.200 -2.5017  0.3531 -0.6630
 5064SOL    HW226655   4.320   2.710   7.174  0.7825  0.8166  1.4277
 5065SOL     OW26656   2.197   1.183   8.807  0.2823  0.3952 -0.2495
 5065SOL    HW126657   2.216   1.208   8.897 -0.6142  1.5477 -0.3802
 5065SOL    HW226658   2.236   1.096   8.803 -0.4636  0.0313  0.4502
 5066SOL     OW26659   1.095   3.975   3.019  0.1560 -0.3560  0.5769
 5066SOL    HW126660   1.057   3.889   2.999  0.8673 -0.4366 -0.4140
 5066SOL    HW226661   1.090   3.964   3.114 -0.1339 -1.1367  0.4769
 5067SOL     OW26662   0.595   4.602   4.953  0.4522 -0.0758 -0.5314
 5067SOL    HW126663   0.568   4.621   5.043  1.5424  0.0759 -0.2452
 5067SOL    HW226664   0.534   4.661   4.909  2.3926  2.1221 -0.2277
 5068SOL     OW26665   0.655   4.468   6.836  0.0294 -0.1542  0.2709
 5068SOL    HW126666   0.594   4.541   6.842  0.7094  0.5815 -1.4480
 5068SOL    HW226667   0.600   4.403   6.791  0.3234 -1.1560  1.3687
 5069SOL     OW26668   3.727   1.224   9.287 -0.8095  0.0964 -0.0818
 5069SOL    HW126669   3.732   1.141   9.333 -3.1015 -0.3608 -0.6442
 5069SOL    HW226670   3.729   1.285   9.361 -0.4261 -0.2506  0.1936
 5070SOL     OW26671   0.832   1.155  11.918  0.2608  0.4955  0.2470
 5070SOL    HW126672   0.850   1.127  12.008 -0.9948  0.3461  0.4499
 5070SOL    HW226673   0.897   1.225  11.925  1.7496 -0.8103 -0.3287
 5071SOL     OW26674   3.516   4.550  10.192 -0.2781  0.1872 -0.7938
 5071SOL    HW126675   3.587   4.609  10.168  0.5869  0.0855  1.5142
 5071SOL    HW226676   3.543   4.537  10.283 -1.7089  2.2993 -0.0648
 5072SOL     OW26677   0.892   2.924  16.972 -0.1002 -0.3174  0.5386
 5072SOL    HW126678   0.868   2.954  16.885 -0.2220  0.6898  0.9274
 5072SOL    HW226679   0.964   2.985  16.986 -0.3731 -0.3942  2.2269
 5073SOL     OW26680   3.232   3.617   6.923  0.2973  0.4895 -0.4039
 5073SOL    HW126681   3.205   3.702   6.888  2.2659  1.2292 -0.1077
 5073SOL    HW226682   3.297   3.647   6.987 -0.9372 -0.4607  1.3211
 5074SOL     OW26683   3.925   4.149   1.981 -0.3373  0.4045 -0.5157
 5074SOL    HW126684   3.879   4.214   2.033  1.0828  1.3852 -0.4758
 5074SOL    HW226685   3.907   4.177   1.891 -0.7807  0.0774 -0.5252
 5075SOL     OW26686   3.799   4.526   3.731  0.4829 -0.1579 -0.7356
 5075SOL    HW126687   3.852   4.599   3.701  0.7282 -0.4233 -0.9447
 5075SOL    HW226688   3.737   4.531   3.658  0.0735 -0.6478 -0.4243
 5076SOL     OW26689   1.661   3.725  15.812 -0.0675 -0.1902 -0.1033
 5076SOL    HW126690   1.593   3.682  15.864  0.4562 -0.5216  0.3097
 5076SOL    HW226691   1.609   3.779  15.753  1.4191 -0.1987 -1.4088
 5077SOL     OW26692   0.111   1.905  15.651 -0.4940  0.5937 -0.3953
 5077SOL    HW126693   0.094   1.879  15.560  0.4646 -0.3688 -0.2965
 5077SOL    HW226694   0.056   1.836  15.687  1.0611 -0.9153 -0.9335
 5078SOL     OW26695   3.918   4.248   1.278 -0.2094 -0.4504 -0.7343
 5078SOL    HW126696   3.994   4.300   1.251 -0.7759  1.2091  0.9086
 5078SOL    HW226697   3.943   4.168   1.230  2.8591 -1.7762  3.0105
 5079SOL     OW26698   2.841   0.285   2.758  0.0802 -0.1158 -0.1681
 5079SOL    HW126699   2.916   0.226   2.756 -0.8398 -1.2617 -1.1854
 5079SOL    HW226700   2.859   0.343   2.683 -2.9596  0.6601 -0.2929
 5080SOL     OW26701   0.730   3.676  10.763 -0.4709 -0.7713 -0.0224
 5080SOL    HW126702   0.764   3.590  10.739  2.3806  0.2922  0.2146
 5080SOL    HW226703   0.679   3.697  10.684 -0.6479  2.5304  0.9635
 5081SOL     OW26704   0.146   1.051  10.354  0.3521  0.1348 -0.1456
 5081SOL    HW126705   0.085   0.978  10.362 -0.6139  0.6905 -2.3661
 5081SOL    HW226706   0.088   1.127  10.358 -0.2130 -0.4285  2.0909
 5082SOL     OW26707   1.306   2.100  11.322  0.4324  0.0713 -0.0758
 5082SOL    HW126708   1.391   2.062  11.346 -0.7745 -0.6232  3.0398
 5082SOL    HW226709   1.260   2.099  11.406 -0.0167 -2.0700 -0.3692
 5083SOL     OW26710   3.169   4.513   5.359  0.2750 -0.4257 -0.0650
 5083SOL    HW126711   3.117   4.575   5.307  2.4152  1.4816  0.0458
 5083SOL    HW226712   3.260   4.522   5.330  0.2830  2.6648  0.8357
 5084SOL     OW26713   2.150   4.101   8.646 -0.6859 -0.4359 -0.4236
 5084SOL    HW126714   2.202   4.155   8.705 -1.1212  0.9765 -1.3138
 5084SOL    HW226715   2.090   4.068   8.713  0.7650 -1.3096  0.4349
 5085SOL     OW26716   3.304   0.506   9.114 -0.0844  0.4702  0.4199
 5085SOL    HW126717   3.222   0.457   9.114  0.9157 -1.1765 -2.1627
 5085SOL    HW226718   3.358   0.427   9.108 -2.1496 -1.1838  3.7882
 5086SOL     OW26719   4.105   2.252  15.641  0.4433  0.3059 -0.2741
 5086SOL    HW126720   4.067   2.294  15.718 -1.9810 -3.2429  0.4542
 5086SOL    HW226721   4.040   2.191  15.607  0.6552 -0.3453  0.4909
 5087SOL     OW26722   4.098   3.369  16.460  0.0558 -0.2146 -0.8238
 5087SOL    HW126723   4.182   3.345  16.499  0.4388  0.9405 -0.9314
 5087SOL    HW226724   4.068   3.436  16.521 -1.9559 -2.6635  0.8965
 5088SOL     OW26725   2.669   2.303   4.230  0.4441 -0.5686  0.4922
 5088SOL    HW126726   2.714   2.386   4.218  0.3324 -0.4060  1.1647
 5088SOL    HW226727   2.718   2.287   4.311  0.2156  0.3630  0.8166
 5089SOL     OW26728   0.777   4.319   5.325 -0.4500  0.0070 -0.0985
 5089SOL    HW126729   0.692   4.279   5.305 -1.4819  0.0801  4.1116
 5089SOL    HW226730   0.754   4.411   5.340  1.6873  0.1905  1.9969
 5090SOL     OW26731   2.602   0.212  10.730 -0.2635 -0.1103 -0.6583
 5090SOL    HW126732   2.582   0.149  10.661  0.7832  0.3674 -1.4065
 5090SOL    HW226733   2.681   0.248  10.690 -0.4803  1.2431  0.1251
 5091SOL     OW26734   0.179   3.627  13.326  0.2042 -0.3421 -0.0963
 5091SOL    HW126735   0.274   3.612  13.329  0.3218  0.2250 -0.9386
 5091SOL    HW226736   0.184   3.702  13.386  3.0574 -1.8493  1.5580
 5092SOL     OW26737   0.699   3.979   2.273  0.0147 -0.0928  0.5734
 5092SOL    HW126738   0.688   3.887   2.299  1.6700 -0.3996  0.1718
 5092SOL    HW226739   0.776   4.002   2.325  1.7796 -2.1850 -1.0990
 5093SOL     OW26740   4.094   2.356   8.745 -0.1178  0.2783 -0.3161
 5093SOL    HW126741   4.067   2.317   8.828 -1.6738 -1.6374 -1.7389
 5093SOL    HW226742   4.010   2.353   8.701 -0.4555 -0.7778  0.4088
 5094SOL     OW26743   4.001   1.069   2.548 -0.5030  0.0348 -0.5037
 5094SOL    HW126744   3.962   0.982   2.541 -2.0373  0.8889 -2.4677
 5094SOL    HW226745   4.091   1.045   2.528 -0.4945 -0.5831  0.2602
 5095SOL     OW26746   0.277   2.682   5.274 -0.1983 -1.3981  0.3982
 5095SOL    HW126747   0.305   2.732   5.351  1.7459  0.9947 -1.8707
 5095SOL    HW226748   0.356   2.638   5.244 -0.5494 -2.1747  0.6064
 5096SOL     OW26749   4.524   1.169   5.668 -0.0758 -0.2516  0.2038
 5096SOL    HW126750   4.473   1.093   5.696 -0.3915  0.1806  0.8186
 5096SOL    HW226751   4.478   1.183   5.586 -0.4888 -2.3657  0.0776
 5097SOL     OW26752   3.270   2.525   1.424 -0.7568  0.4834 -0.8646
 5097SOL    HW126753   3.196   2.502   1.479 -1.6881 -0.1965 -2.3919
 5097SOL    HW226754   3.326   2.569   1.487  1.3375 -1.6771 -1.1869
 5098SOL     OW26755   0.683   3.136   9.214  0.1074 -0.1035 -0.1160
 5098SOL    HW126756   0.674   3.069   9.146  0.7899  0.2824 -0.5860
 5098SOL    HW226757   0.593   3.141   9.245 -0.2994 -0.5097 -1.2473
 5099SOL     OW26758   4.026   1.101   7.045 -0.4729 -0.1178 -0.7354
 5099SOL    HW126759   4.054   1.155   7.119 -2.3914 -1.2429  0.8272
 5099SOL    HW226760   4.021   1.015   7.088  2.8763 -0.6619 -1.4642
 5100SOL     OW26761   2.460   4.051   5.931  0.1219  0.0282 -0.2626
 5100SOL    HW126762   2.443   4.132   5.884 -0.2909  1.8122  2.9329
 5100SOL    HW226763   2.391   4.065   5.996  0.6577  0.4798  0.2084
 5101SOL     OW26764   0.245   4.229   1.293 -0.4399 -0.0726 -0.6399
 5101SOL    HW126765   0.309   4.167   1.329  1.4543  3.0182  1.3557
 5101SOL    HW226766   0.234   4.287   1.368  0.4834  1.8804 -2.0201
 5102SOL     OW26767   3.720   1.697   8.548 -0.1508  0.2778  0.1770
 5102SOL    HW126768   3.802   1.650   8.530 -2.0650 -2.2366 -1.9075
 5102SOL    HW226769   3.747   1.786   8.525 -1.7066  0.6352 -0.2365
 5103SOL     OW26770   3.897   1.366   6.042 -0.4078 -0.9217  0.3486
 5103SOL    HW126771   3.934   1.310   5.974 -0.8857 -1.2580  0.3679
 5103SOL    HW226772   3.882   1.300   6.109  0.9756 -2.8140 -1.2029
 5104SOL     OW26773   4.081   0.257   6.010  0.1275  0.3711 -0.8714
 5104SOL    HW126774   4.046   0.199   6.078 -0.7790  2.4746  0.4634
 5104SOL    HW226775   4.063   0.344   6.045  0.8119  0.4676 -0.7412
 5105SOL     OW26776   0.423   1.077   3.404  0.5990 -0.2573  0.3983
 5105SOL    HW126777   0.507   1.120   3.388 -0.1165  0.3434 -1.7291
 5105SOL    HW226778   0.400   1.113   3.490  2.2077 -0.1649  0.7985
 5106SOL     OW26779   0.891   0.359   2.354 -0.0499 -0.0087  0.0417
 5106SOL    HW126780   0.816   0.414   2.333 -0.5267 -0.3239  0.9079
 5106SOL    HW226781   0.953   0.422   2.389 -1.4295  0.6434  1.3426
 5107SOL     OW26782   1.258   4.653   4.070  0.2584 -0.9359  0.0273
 5107SOL    HW126783   1.260   4.558   4.083  0.4392 -0.7629  1.3536
 5107SOL    HW226784   1.341   4.666   4.024 -0.2678 -1.2334 -0.9844
 5108SOL     OW26785   1.448   2.602   8.600  0.0915 -0.2827 -0.1692
 5108SOL    HW126786   1.450   2.695   8.574  4.3939  0.3152  2.4181
 5108SOL    HW226787   1.378   2.578   8.540  0.3031  2.4693 -1.5462
 5109SOL     OW26788   2.690   0.351   3.928  0.3389  0.2178  0.1510
 5109SOL    HW126789   2.692   0.281   3.994  1.3459 -0.6078 -0.7498
 5109SOL    HW226790   2.741   0.418   3.973 -1.2897  0.2341  2.0100
 5110SOL     OW26791   3.458   3.985   7.677  0.2754 -0.4204 -0.3211
 5110SOL    HW126792   3.499   3.971   7.592 -0.6710  0.7108 -0.9622
 5110SOL    HW226793   3.485   4.076   7.685  0.9871 -0.8038  1.6629
 5111SOL     OW26794   2.988   0.963   3.332  0.1378  0.2481  0.2654
 5111SOL    HW126795   2.907   0.968   3.281  0.4597  0.2034 -0.2566
 5111SOL    HW226796   2.960   1.015   3.407 -0.9490  1.1992 -0.7925
 5112SOL     OW26797   3.197   0.414   8.152 -0.2494 -0.3201  0.2212
 5112SOL    HW126798   3.216   0.459   8.234  3.1935  1.7139 -1.6856
 5112SOL    HW226799   3.117   0.368   8.180  0.8867  0.4208  4.6865
 5113SOL     OW26800   4.595   4.443   2.291 -0.3041  0.6808  0.0335
 5113SOL    HW126801   4.616   4.355   2.261  1.0171  0.0991  2.6872
 5113SOL    HW226802   4.533   4.464   2.221  0.2164 -1.7050 -1.1274
 5114SOL     OW26803   0.762   2.572   8.391 -0.2046 -0.3896  0.3041
 5114SOL    HW126804   0.676   2.543   8.422 -0.5299 -0.1571 -0.3684
 5114SOL    HW226805   0.790   2.494   8.342  0.5451 -0.2011  0.4391
 5115SOL     OW26806   0.391   2.273   2.051 -0.3739 -0.6817 -0.3080
 5115SOL    HW126807   0.460   2.271   1.985 -2.6090 -1.2856 -2.6285
 5115SOL    HW226808   0.430   2.346   2.099 -0.2609 -0.6742 -0.4147
 5116SOL     OW26809   1.112   2.636   9.300  0.0085  0.3025 -0.0397
 5116SOL    HW126810   1.084   2.558   9.252 -1.6612 -0.0802  1.5123
 5116SOL    HW226811   1.108   2.707   9.237  0.3934  1.3130  1.0593
 5117SOL     OW26812   1.824   0.811   1.862 -0.6150  0.0115  0.1296
 5117SOL    HW126813   1.819   0.742   1.795 -1.9230  1.0041 -0.8024
 5117SOL    HW226814   1.831   0.749   1.935 -1.5187 -0.4108 -0.1392
 5118SOL     OW26815   2.382   1.961   0.227  0.3909  0.0293 -0.1926
 5118SOL    HW126816   2.420   1.968   0.315  0.0678  1.6385 -0.1864
 5118SOL    HW226817   2.306   2.019   0.234 -0.0241 -0.5476  0.0592
 5119SOL     OW26818   4.543   0.862   5.459  0.1059 -0.1181 -0.0350
 5119SOL    HW126819   4.487   0.911   5.519 -1.6484 -0.2468 -1.5661
 5119SOL    HW226820   4.475   0.831   5.399  0.3293 -0.0207 -0.3381
 5120SOL     OW26821   4.538   0.436  11.742  0.0458 -0.2822 -0.1718
 5120SOL    HW126822   4.480   0.385  11.685 -1.2170 -0.7804  1.5668
 5120SOL    HW226823   4.475   0.507  11.750  0.7215  0.0965  1.6203
 5121SOL     OW26824   0.258   3.307   5.151  0.0509  0.1028 -0.3619
 5121SOL    HW126825   0.265   3.308   5.246  0.6197 -0.7185 -0.3979
 5121SOL    HW226826   0.351   3.306   5.130  0.0389 -0.1015 -0.3991
 5122SOL     OW26827   3.477   1.567   6.012  0.3098 -0.6535  0.0120
 5122SOL    HW126828   3.526   1.532   5.937 -0.8905  0.1901 -1.1809
 5122SOL    HW226829   3.547   1.616   6.055  0.2800  0.0063 -0.6983
 5123SOL     OW26830   1.954   4.633   3.016 -0.4783  0.1333 -0.7953
 5123SOL    HW126831   1.947   4.582   3.096 -2.2866 -0.0836 -1.1077
 5123SOL    HW226832   1.926   4.562   2.959 -1.3640 -0.1168 -0.0314
 5124SOL     OW26833   0.397   1.305   9.031 -0.0973  0.3913  0.2470
 5124SOL    HW126834   0.382   1.308   9.125 -1.4405  1.8502 -0.0184
 5124SOL    HW226835   0.492   1.320   9.032 -0.1353  0.8619 -2.0327
 5125SOL     OW26836   1.212   3.254   6.745 -0.5833  0.2096 -0.8563
 5125SOL    HW126837   1.292   3.250   6.799 -0.8551  2.5260 -0.2465
 5125SOL    HW226838   1.137   3.253   6.804 -0.4505  0.9638 -0.6687
 5126SOL     OW26839   1.560   0.314  14.005  0.0851  0.2309  0.5930
 5126SOL    HW126840   1.466   0.322  13.986  0.4291 -2.1449 -2.0846
 5126SOL    HW226841   1.564   0.348  14.094  1.7173 -1.3791  1.1375
 5127SOL     OW26842   2.112   2.387   4.661  0.2562 -0.1891  0.1735
 5127SOL    HW126843   2.046   2.362   4.596 -0.5318  2.3336 -0.0184
 5127SOL    HW226844   2.187   2.344   4.621  0.2788  0.4796 -0.5031
 5128SOL     OW26845   3.112   2.631   5.911  0.1100  0.1929  0.4404
 5128SOL    HW126846   3.173   2.678   5.854 -2.1112  1.7926 -0.6031
 5128SOL    HW226847   3.027   2.673   5.903 -0.1905  0.0928  3.1161
 5129SOL     OW26848   2.488   2.661   0.197 -0.5129 -0.0020  0.3457
 5129SOL    HW126849   2.573   2.690   0.229 -0.4220  0.1673 -0.0512
 5129SOL    HW226850   2.436   2.678   0.277  0.2602 -1.9256  1.2542
 5130SOL     OW26851   0.843   2.563   4.115  0.2747 -0.2705  0.2107
 5130SOL    HW126852   0.781   2.614   4.065 -0.8795 -0.5415  1.3664
 5130SOL    HW226853   0.788   2.539   4.190  0.3781 -0.0346  0.3618
 5131SOL     OW26854   1.584   3.926   3.634 -0.4907  0.3581 -0.0664
 5131SOL    HW126855   1.548   4.014   3.638 -3.7887 -0.9634 -0.3817
 5131SOL    HW226856   1.671   3.947   3.669 -0.4555 -0.3130  0.2477
 5132SOL     OW26857   3.890   2.524   8.476 -0.0479 -0.3390  0.5360
 5132SOL    HW126858   3.953   2.578   8.524  0.2190 -0.6292  0.5142
 5132SOL    HW226859   3.843   2.476   8.545 -0.2568  1.3664  1.5743
 5133SOL     OW26860   1.560   2.551   3.091  0.5365  0.3571 -0.0990
 5133SOL    HW126861   1.622   2.597   3.035  0.1816 -0.3331 -1.0735
 5133SOL    HW226862   1.622   2.483   3.117  0.1273  0.0549  0.0867
 5134SOL     OW26863   3.083   3.792   6.763 -0.7120 -0.5756  0.2440
 5134SOL    HW126864   2.989   3.788   6.782 -0.3385  0.2972  2.2733
 5134SOL    HW226865   3.090   3.750   6.678 -1.1784 -1.5326  0.6825
 5135SOL     OW26866   1.419   2.698   4.991  0.1819  0.3285 -0.1489
 5135SOL    HW126867   1.391   2.684   4.900  1.1606 -0.0513 -0.3892
 5135SOL    HW226868   1.511   2.675   4.983  0.6464  1.5817  1.5547
 5136SOL     OW26869   3.896   4.297   8.906  0.3774  0.3478  0.0295
 5136SOL    HW126870   3.918   4.204   8.894  1.0719  0.1500  2.8669
 5136SOL    HW226871   3.812   4.305   8.862  0.6347  0.7358 -0.4036
 5137SOL     OW26872   1.700   2.927   9.277 -0.0641 -0.2548 -0.4644
 5137SOL    HW126873   1.777   2.984   9.271 -0.0966  0.0464  1.9083
 5137SOL    HW226874   1.743   2.842   9.275  2.0664  0.8426 -1.2584
 5138SOL     OW26875   1.986   1.394   4.131  0.0042 -0.1773 -0.0043
 5138SOL    HW126876   1.896   1.361   4.133  0.2807 -0.8877  0.8270
 5138SOL    HW226877   1.983   1.450   4.054  1.7475  0.9478  0.7515
 5139SOL     OW26878   4.680   0.969   1.528 -0.0115 -0.1488 -0.3094
 5139SOL    HW126879   4.659   0.878   1.547 -0.4464 -0.3301 -1.6021
 5139SOL    HW226880   0.050   0.952   1.520 -0.1202 -1.0267  0.2953
 5140SOL     OW26881   0.901   2.346   7.484  0.0961 -0.3868 -0.2829
 5140SOL    HW126882   0.909   2.308   7.572 -0.1874  1.1679  0.4259
 5140SOL    HW226883   0.991   2.338   7.451  1.1807 -1.6258  2.9249
 5141SOL     OW26884   1.807   3.428  16.640  0.2634 -0.2376  0.1053
 5141SOL    HW126885   1.821   3.398  16.730 -0.1837  0.2157  0.3290
 5141SOL    HW226886   1.724   3.477  16.642  1.6320  2.0090  1.3727
 5142SOL     OW26887   4.479   0.521   1.627  0.6129  0.0502  0.3001
 5142SOL    HW126888   4.418   0.454   1.596  0.2027  0.0419  1.1280
 5142SOL    HW226889   4.486   0.495   1.719 -0.8616  0.3376  0.4837
 5143SOL     OW26890   2.469   0.956   2.658 -0.4674 -0.1362 -0.6206
 5143SOL    HW126891   2.405   0.915   2.600  0.6019 -1.1713 -1.0733
 5143SOL    HW226892   2.549   0.950   2.605  0.8318  2.4472  1.0106
 5144SOL     OW26893   2.412   1.584   0.385  0.2232  0.1058 -0.1093
 5144SOL    HW126894   2.347   1.645   0.418  1.7685  0.9579  1.4004
 5144SOL    HW226895   2.418   1.621   0.297  1.0717  2.0725  0.7710
 5145SOL     OW26896   0.298   2.998   2.247  0.8005 -0.0630  0.2915
 5145SOL    HW126897   0.262   2.953   2.323  0.4955  0.0703  0.2250
 5145SOL    HW226898   0.390   2.970   2.246  0.2329 -1.9818  1.4964
 5146SOL     OW26899   0.827   1.439   0.320  0.0898 -0.2487  0.1031
 5146SOL    HW126900   0.790   1.374   0.379 -0.0383 -1.5352 -1.3760
 5146SOL    HW226901   0.766   1.433   0.246 -1.1081  2.8113  0.8544
 5147SOL     OW26902   3.007   0.382   6.187 -0.0563  0.3731 -0.1272
 5147SOL    HW126903   3.021   0.293   6.220 -0.0224  0.1274 -0.8070
 5147SOL    HW226904   2.984   0.357   6.097 -0.0458 -2.0113  0.5472
 5148SOL     OW26905   0.559   0.975   7.029  0.4521  0.7587  0.8877
 5148SOL    HW126906   0.636   1.006   6.980  0.0766  0.7253  0.2785
 5148SOL    HW226907   0.496   0.992   6.959  0.0458 -0.6711  0.9115
 5149SOL     OW26908   0.705   2.446   0.880 -0.4446 -0.0689  0.8511
 5149SOL    HW126909   0.656   2.432   0.962  1.6309  1.0296  2.2743
 5149SOL    HW226910   0.712   2.542   0.879  1.2098 -0.1762  1.8419
 5150SOL     OW26911   1.041   2.649  13.562  0.3222 -0.2407 -0.3217
 5150SOL    HW126912   0.961   2.664  13.513  0.0842  0.2845  0.2185
 5150SOL    HW226913   1.041   2.556  13.543  0.7261 -0.0418 -1.3322
 5151SOL     OW26914   3.181   3.655   0.568 -0.2159 -0.0902 -0.6785
 5151SOL    HW126915   3.218   3.618   0.488  0.1796 -1.9157  0.3408
 5151SOL    HW226916   3.097   3.609   0.578  1.2119 -1.9749  2.6582
 5152SOL     OW26917   1.876   2.829   8.666 -0.1247 -0.3921 -0.0209
 5152SOL    HW126918   1.839   2.826   8.754  0.0292  2.0949  0.1426
 5152SOL    HW226919   1.863   2.923   8.652  0.1273 -0.7514 -2.8381
 5153SOL     OW26920   2.630   1.888  14.670  0.0569 -0.5605  0.5429
 5153SOL    HW126921   2.566   1.867  14.738  0.0042  1.3889  1.0983
 5153SOL    HW226922   2.601   1.841  14.592  0.9475  0.0496 -0.1539
 5154SOL     OW26923   4.382   3.259   8.168  0.2092  0.0496 -0.6309
 5154SOL    HW126924   4.469   3.298   8.166  0.6229 -0.8600 -0.2260
 5154SOL    HW226925   4.358   3.268   8.076  1.2230 -1.2752 -1.0078
 5155SOL     OW26926   1.422   4.618   5.301 -0.0086 -0.1218  0.3532
 5155SOL    HW126927   1.500   4.617   5.245  0.7757 -0.8986  1.4528
 5155SOL    HW226928   1.398   4.710   5.295  0.9435  0.1021 -0.0144
 5156SOL     OW26929   2.489   0.159   1.308 -0.6632  0.5186 -0.0011
 5156SOL    HW126930   2.466   0.240   1.354  0.7798  0.8868  0.0813
 5156SOL    HW226931   2.427   0.100   1.350 -1.1773  0.4694 -0.8262
 5157SOL     OW26932   0.633   0.620  13.535 -0.2213  0.4906  0.1684
 5157SOL    HW126933   0.702   0.579  13.482  1.8168  1.9892  1.6430
 5157SOL    HW226934   0.650   0.710  13.507 -2.5359  0.8766  0.0131
 5158SOL     OW26935   2.641   3.862   5.892 -0.3352  0.0404  0.2927
 5158SOL    HW126936   2.581   3.936   5.892 -0.1594  0.1812 -3.3760
 5158SOL    HW226937   2.616   3.813   5.970  1.9023 -2.0457 -0.2800
 5159SOL     OW26938   3.456   3.076   2.954  0.1093 -0.1391 -0.0283
 5159SOL    HW126939   3.479   3.141   2.887 -1.0068 -1.2937 -1.5427
 5159SOL    HW226940   3.379   3.036   2.913 -0.0109 -2.2433  2.2591
 5160SOL     OW26941   3.035   1.779   8.507  0.0894  0.1199 -0.1603
 5160SOL    HW126942   2.983   1.699   8.504 -1.4035  1.1166 -0.6973
 5160SOL    HW226943   3.062   1.775   8.598 -0.6046 -0.0913  0.0352
 5161SOL     OW26944   0.298   3.774   8.394  0.2655 -0.3714 -0.0048
 5161SOL    HW126945   0.222   3.749   8.447  0.3929  2.9842  1.7347
 5161SOL    HW226946   0.340   3.689   8.379 -2.6002 -1.6429 -0.7990
 5162SOL     OW26947   0.719   4.187   6.553 -0.0642  0.3347  0.2423
 5162SOL    HW126948   0.667   4.267   6.552  1.1921  1.1303 -2.4017
 5162SOL    HW226949   0.665   4.141   6.616 -0.8198  0.5158 -0.2775
 5163SOL     OW26950   1.938   3.439   0.584  0.2911 -0.2343 -0.2102
 5163SOL    HW126951   1.858   3.487   0.603 -0.3401 -0.5070 -2.1661
 5163SOL    HW226952   1.977   3.462   0.668  3.1243 -0.5483 -1.4095
 5164SOL     OW26953   3.746   4.639   9.722 -0.3049  0.5836  0.0329
 5164SOL    HW126954   3.702   4.709   9.770 -0.7251 -0.7266  1.5535
 5164SOL    HW226955   3.779   4.689   9.648 -2.1752  0.2804 -1.0193
 5165SOL     OW26956   1.502   0.297   3.903  0.3195 -0.1503 -0.1349
 5165SOL    HW126957   1.487   0.210   3.867 -1.5953  0.0740  0.1526
 5165SOL    HW226958   1.474   0.272   3.991  0.8438 -0.5668 -0.0845
 5166SOL     OW26959   0.043   0.826  12.663 -0.0073  0.9994 -0.0889
 5166SOL    HW126960   0.092   0.856  12.740  0.9849 -0.8975 -0.0075
 5166SOL    HW226961   4.677   0.815  12.694  0.3920  0.5805  0.9227
 5167SOL     OW26962   0.212   2.557  15.460  0.2610  0.2820  0.5554
 5167SOL    HW126963   0.265   2.615  15.407  0.2663 -0.0448  0.1985
 5167SOL    HW226964   0.230   2.470  15.423 -3.3579 -0.1885 -0.1276
 5168SOL     OW26965   0.543   1.806   2.549  0.1728  0.0984 -0.4471
 5168SOL    HW126966   0.472   1.744   2.563  2.4997 -2.0458  1.8476
 5168SOL    HW226967   0.504   1.872   2.492  0.3145 -0.2939 -0.9962
 5169SOL     OW26968   2.793   3.626   1.342 -0.7159  0.6797 -0.2272
 5169SOL    HW126969   2.724   3.631   1.408 -1.1298 -1.6149 -0.4911
 5169SOL    HW226970   2.847   3.551   1.367  1.9204  2.7919  0.5219
 5170SOL     OW26971   0.316   2.009  17.495  0.2028  0.4007  0.1592
 5170SOL    HW126972   0.394   2.064  17.497  0.7550 -0.3333 -1.3883
 5170SOL    HW226973   0.333   1.957  17.574 -1.0073 -0.6068 -0.2393
 5171SOL     OW26974   2.523   2.157  16.009 -0.4907  0.6863 -0.0760
 5171SOL    HW126975   2.607   2.125  15.976 -1.3974 -1.7041 -0.0966
 5171SOL    HW226976   2.547   2.247  16.029  1.4186  0.0288  0.6488
 5172SOL     OW26977   3.572   3.297  11.644 -0.3544  0.1066  0.2697
 5172SOL    HW126978   3.530   3.383  11.637  1.8905  1.0333 -2.2894
 5172SOL    HW226979   3.531   3.257  11.567  1.5641 -0.7768 -0.2825
 5173SOL     OW26980   1.649   0.606   3.968  0.4328  0.6124 -0.4018
 5173SOL    HW126981   1.633   0.567   4.054 -2.2303  0.6660 -0.8712
 5173SOL    HW226982   1.732   0.561   3.955 -0.0220 -1.0898  2.7958
 5174SOL     OW26983   4.391   2.791   1.390 -0.0338  0.6620  0.4624
 5174SOL    HW126984   4.367   2.798   1.482  0.4628 -0.1412  0.6508
 5174SOL    HW226985   4.325   2.735   1.348 -0.4485  1.1685  0.4498
 5175SOL     OW26986   0.788   2.219   4.899 -0.0667  0.5808 -0.0930
 5175SOL    HW126987   0.779   2.278   4.974 -0.1237  0.0697  0.3010
 5175SOL    HW226988   0.740   2.271   4.834  0.9219  1.6065  0.0105
 5176SOL     OW26989   0.307   0.548  10.956 -0.4226  0.2575  0.6194
 5176SOL    HW126990   0.360   0.625  10.975 -1.3012  0.9726  0.1843
 5176SOL    HW226991   0.376   0.500  10.911  0.9070  3.1370 -0.4259
 5177SOL     OW26992   4.396   0.665   5.747  0.0607 -1.0426  0.0147
 5177SOL    HW126993   4.464   0.601   5.725  0.8047 -0.3159  0.1671
 5177SOL    HW226994   4.317   0.635   5.703  1.1572 -2.3149 -1.0929
 5178SOL     OW26995   3.419   2.765   0.505  0.3096 -0.1648 -0.1303
 5178SOL    HW126996   3.405   2.684   0.554 -0.0498 -0.3943 -0.6135
 5178SOL    HW226997   3.504   2.791   0.542 -0.7170  0.1551  2.0375
 5179SOL     OW26998   2.235   0.144   2.773 -0.4297  0.5733  0.5917
 5179SOL    HW126999   2.199   0.071   2.722 -0.0482  0.3125  0.6916
 5179SOL    HW227000   2.148   0.174   2.796 -1.4060 -1.8744  0.0603
 5180SOL     OW27001   4.098   3.341   5.131  0.6294  0.0525 -0.5498
 5180SOL    HW127002   4.110   3.390   5.212 -1.7608  1.9988 -1.3789
 5180SOL    HW227003   4.168   3.277   5.146 -0.2865 -0.9994 -0.7228
 5181SOL     OW27004   0.849   3.864   3.390  0.5664  0.1396  0.1273
 5181SOL    HW127005   0.757   3.888   3.392  0.8608  1.4270 -1.4775
 5181SOL    HW227006   0.844   3.782   3.342  0.8936  0.3048 -0.1965
 5182SOL     OW27007   2.847   3.783   6.170 -0.2122  0.6285  0.3773
 5182SOL    HW127008   2.823   3.854   6.230 -0.5640 -1.1067  2.2796
 5182SOL    HW227009   2.942   3.793   6.159 -0.0170 -1.1891  0.4740
 5183SOL     OW27010   1.811   3.053   1.651 -0.4849  0.1416 -0.3911
 5183SOL    HW127011   1.877   3.100   1.600  1.2883  0.0099  1.7594
 5183SOL    HW227012   1.761   3.129   1.680 -1.9105 -1.3532  1.0964
 5184SOL     OW27013   2.604   3.523   2.055 -0.0363  0.5780 -0.6033
 5184SOL    HW127014   2.577   3.445   2.007 -2.9903 -0.3608  2.5565
 5184SOL    HW227015   2.528   3.577   2.035  0.8113  0.8475 -3.0560
 5185SOL     OW27016   4.499   1.604  14.262 -1.0680  0.1253  1.0068
 5185SOL    HW127017   4.587   1.564  14.263 -1.0894 -0.0174 -3.1597
 5185SOL    HW227018   4.517   1.690  14.300 -0.9706  0.9423 -0.8805
 5186SOL     OW27019   3.831   1.150  13.682 -0.0149  0.3047  0.7475
 5186SOL    HW127020   3.859   1.232  13.722  0.2580  1.6096 -2.0991
 5186SOL    HW227021   3.914   1.139  13.635 -0.5739  0.5619 -0.3078
 5187SOL     OW27022   3.748   1.875  13.084 -0.2656 -0.2361  0.1974
 5187SOL    HW127023   3.687   1.944  13.111 -0.7416 -0.8519  0.6821
 5187SOL    HW227024   3.830   1.925  13.077 -0.4664  0.1065  0.2568
 5188SOL     OW27025   0.715   4.716   2.797  0.4490  0.1031 -0.1128
 5188SOL    HW127026   0.776   0.066   2.794 -0.2577  0.7375  1.6476
 5188SOL    HW227027   0.658   0.022   2.867 -1.1443 -2.5795 -0.2676
 5189SOL     OW27028   0.426   0.357   1.754 -0.3904  0.4964  0.3800
 5189SOL    HW127029   0.490   0.289   1.733 -2.8103 -1.2623 -1.3230
 5189SOL    HW227030   0.389   0.383   1.669 -1.3030 -0.5263  0.4734
 5190SOL     OW27031   4.374   1.057  17.038 -0.3530  0.4183 -0.3300
 5190SOL    HW127032   4.440   1.015  16.983  0.2612  0.2298  0.5428
 5190SOL    HW227033   4.393   1.030  17.128  0.8242  2.4915  0.0405
 5191SOL     OW27034   3.410   4.716   7.930  0.5851 -0.4649 -0.2362
 5191SOL    HW127035   3.429   4.661   8.007 -0.0707 -0.1049  0.1854
 5191SOL    HW227036   3.397   0.073   7.979  1.1026 -0.8986  0.6292
 5192SOL     OW27037   3.824   3.855  16.264  0.6525  0.1991 -0.5655
 5192SOL    HW127038   3.843   3.766  16.291  1.3593  0.0049 -1.6720
 5192SOL    HW227039   3.798   3.896  16.346  2.3397  2.1975 -0.9957
 5193SOL     OW27040   0.685   3.670   1.923  0.3551  0.2017  0.0226
 5193SOL    HW127041   0.676   3.690   1.830 -1.3805  0.5247  0.2599
 5193SOL    HW227042   0.684   3.763   1.946  0.2399  0.2018  0.0151
 5194SOL     OW27043   3.359   3.507  12.563  0.4406 -1.0439 -0.2857
 5194SOL    HW127044   3.389   3.469  12.481  1.8689 -1.8128  0.5941
 5194SOL    HW227045   3.288   3.563  12.531  0.3964 -0.9926 -0.1014
 5195SOL     OW27046   0.270   1.790   5.373 -0.7797 -0.2533 -0.4165
 5195SOL    HW127047   0.202   1.857   5.378  0.5385  1.0602  0.0044
 5195SOL    HW227048   0.351   1.837   5.355 -0.3855 -1.1125 -0.8935
 5196SOL     OW27049   2.130   2.317   1.136  0.1144  0.6139 -1.2392
 5196SOL    HW127050   2.121   2.262   1.058 -0.9741 -0.2012 -0.5387
 5196SOL    HW227051   2.204   2.275   1.180 -0.7153 -0.2872 -0.6989
 5197SOL     OW27052   4.545   3.287   7.576 -0.3637  0.6706 -0.5657
 5197SOL    HW127053   4.549   3.205   7.527 -0.0263  0.8682 -0.8668
 5197SOL    HW227054   4.637   3.313   7.580  0.1527 -1.3620  0.8129
 5198SOL     OW27055   0.766   2.724   1.784 -0.1017  0.2454 -0.2125
 5198SOL    HW127056   0.749   2.744   1.876 -2.1211  0.5448 -0.6549
 5198SOL    HW227057   0.729   2.636   1.792 -2.1181  1.0927 -0.3131
 5199SOL     OW27058   2.928   0.354   4.300  0.0200  0.2628  0.4847
 5199SOL    HW127059   2.926   0.329   4.208  1.4896  0.6448  0.3542
 5199SOL    HW227060   3.022   0.365   4.314  0.2665  2.3526 -2.8216
 5200SOL     OW27061   4.718   4.476   3.873 -0.0288  0.4176 -0.0748
 5200SOL    HW127062   4.687   4.497   3.961 -1.4733  0.5556 -0.6315
 5200SOL    HW227063   4.721   4.382   3.891 -0.1394  1.0926  3.5013
 5201SOL     OW27064   0.597   1.226   8.648  0.1803  0.2347  0.2805
 5201SOL    HW127065   0.575   1.252   8.559 -1.0014  0.0289  0.5111
 5201SOL    HW227066   0.643   1.306   8.674 -0.7434  0.1794  2.1056
 5202SOL     OW27067   0.179   2.890   6.120 -0.2124  0.1905 -0.5507
 5202SOL    HW127068   0.155   2.820   6.181  1.5467 -3.1030 -3.6588
 5202SOL    HW227069   0.186   2.966   6.178 -1.6662 -1.1081  1.3380
 5203SOL     OW27070   0.774   2.986  13.761  0.2348  0.2720  0.0436
 5203SOL    HW127071   0.758   2.985  13.856 -0.1251  0.8520 -0.0123
 5203SOL    HW227072   0.825   2.905  13.759 -1.3956 -0.7441 -1.0264
 5204SOL     OW27073   4.155   4.103   2.930  0.3239 -0.2310 -0.2380
 5204SOL    HW127074   4.138   4.141   3.016  0.4945  0.9218 -0.7065
 5204SOL    HW227075   4.210   4.174   2.897  0.5928  1.0444  2.9504
 5205SOL     OW27076   4.272   3.320   1.759  0.3354 -0.4140 -0.5447
 5205SOL    HW127077   4.225   3.378   1.699  0.3619 -0.8707 -1.0036
 5205SOL    HW227078   4.310   3.259   1.696  1.0532 -0.6009  0.0731
 5206SOL     OW27079   0.540   4.617  16.811  0.5252 -0.5700 -0.6034
 5206SOL    HW127080   0.492   4.563  16.873  1.0994 -0.5462 -0.1395
 5206SOL    HW227081   0.492   4.587  16.734  1.2265  1.4252 -1.8132
 5207SOL     OW27082   3.380   1.006  12.323 -0.8978 -0.2300  0.2442
 5207SOL    HW127083   3.378   1.024  12.229 -0.9709  0.4591  0.3761
 5207SOL    HW227084   3.428   1.081  12.358 -0.0194 -0.5776 -0.1979
 5208SOL     OW27085   1.947   0.281   4.536 -0.4339 -0.2569 -0.4213
 5208SOL    HW127086   2.026   0.281   4.589 -0.7009  1.1058 -0.0368
 5208SOL    HW227087   1.943   0.190   4.505  2.4749 -1.0499  1.5238
 5209SOL     OW27088   3.873   3.573  16.347 -0.1590 -0.4980  0.4652
 5209SOL    HW127089   3.873   3.574  16.443  2.9877 -2.8597  0.4747
 5209SOL    HW227090   3.966   3.555  16.333 -0.3484 -1.4465  0.4326
 5210SOL     OW27091   1.918   4.067   9.272 -0.4560  0.2312  0.2843
 5210SOL    HW127092   1.949   4.112   9.350  0.6091 -0.5021  0.2785
 5210SOL    HW227093   1.998   4.063   9.220 -0.1158  2.4705  0.6458
 5211SOL     OW27094   0.478   4.172   2.722  0.2752  0.1623  0.4422
 5211SOL    HW127095   0.473   4.081   2.750  0.9469  0.6693  2.1623
 5211SOL    HW227096   0.502   4.168   2.629 -1.5982 -0.4602 -0.0162
 5212SOL     OW27097   0.087   3.303  11.286  0.2101  0.9178 -0.7594
 5212SOL    HW127098   0.159   3.292  11.224 -0.0617 -1.4532 -0.6440
 5212SOL    HW227099   0.134   3.256  11.355 -0.9798 -1.3044 -1.4674
 5213SOL     OW27100   2.467   0.367   7.331  0.3089 -0.3219 -0.0598
 5213SOL    HW127101   2.551   0.326   7.311  1.0244  1.1272 -0.0473
 5213SOL    HW227102   2.412   0.335   7.260 -1.6929  2.5935  0.1510
 5214SOL     OW27103   1.283   3.101   4.190 -0.1671  0.6733  0.3122
 5214SOL    HW127104   1.210   3.094   4.129 -0.6397 -0.0231  0.9541
 5214SOL    HW227105   1.280   3.196   4.203  0.7212  0.5938  1.1116
 5215SOL     OW27106   3.364   1.312   8.907 -0.1536  0.2518 -0.2327
 5215SOL    HW127107   3.340   1.403   8.895  1.3869  0.3033 -2.7297
 5215SOL    HW227108   3.457   1.316   8.887 -0.6067  0.5301 -2.2587
 5216SOL     OW27109   3.658   4.349  12.413  0.2865  0.4342 -0.2929
 5216SOL    HW127110   3.605   4.410  12.361 -0.2183 -0.8161 -1.2652
 5216SOL    HW227111   3.703   4.306  12.340  0.1909  1.2009 -0.7997
 5217SOL     OW27112   4.606   0.525  13.841  0.6805  0.0893  0.1226
 5217SOL    HW127113   4.578   0.523  13.932 -2.3613  0.4054 -0.8224
 5217SOL    HW227114   4.687   0.577  13.836  0.1857  0.7668 -0.8810
 5218SOL     OW27115   1.550   2.075   1.082  0.3723 -0.0081  0.3924
 5218SOL    HW127116   1.526   2.150   1.136 -2.3719 -0.1100 -0.7105
 5218SOL    HW227117   1.610   2.045   1.150 -1.7071 -0.0710  2.1943
 5219SOL     OW27118   2.621   2.042   7.248  0.0947 -0.0175 -0.1201
 5219SOL    HW127119   2.660   2.063   7.333  0.0842 -0.3779 -0.0269
 5219SOL    HW227120   2.673   2.092   7.184  1.2887 -0.0963  0.7861
 5220SOL     OW27121   4.264   1.343   3.877 -0.0307  0.3318 -0.6846
 5220SOL    HW127122   4.286   1.325   3.786 -1.6719  0.6407 -1.1390
 5220SOL    HW227123   4.172   1.372   3.877 -0.5006 -1.1780 -0.1137
 5221SOL     OW27124   0.129   1.121   6.321 -0.2050 -0.5313 -0.5253
 5221SOL    HW127125   0.113   1.172   6.241  0.1915 -2.9309 -2.1362
 5221SOL    HW227126   0.174   1.047   6.280  1.4292  1.5481 -2.4706
 5222SOL     OW27127   2.320   0.953   5.767 -0.0348 -0.5354  0.1683
 5222SOL    HW127128   2.272   1.031   5.793  1.1743  0.5274 -0.8137
 5222SOL    HW227129   2.325   0.908   5.851  0.4296 -2.1894 -0.7433
 5223SOL     OW27130   3.672   0.593   2.396  0.7501  0.7740  0.1711
 5223SOL    HW127131   3.734   0.639   2.453  1.1526 -1.5270  1.6158
 5223SOL    HW227132   3.629   0.666   2.352 -0.3168 -0.4262 -0.7982
 5224SOL     OW27133   0.229   2.299   3.691  0.2068 -0.0294 -0.7439
 5224SOL    HW127134   0.207   2.283   3.600 -1.5447 -1.7865 -0.0257
 5224SOL    HW227135   0.284   2.377   3.690 -1.6878  1.2982 -1.8002
 5225SOL     OW27136   3.640   0.930   7.574 -0.3819  0.1323  1.1554
 5225SOL    HW127137   3.709   0.950   7.637  1.1835  0.0871 -0.5446
 5225SOL    HW227138   3.566   0.978   7.612  0.1227  0.8686  1.1945
 5226SOL     OW27139   2.745   1.792  11.186  0.1949  0.0480  0.0809
 5226SOL    HW127140   2.675   1.846  11.222 -0.4543 -2.0061  1.8651
 5226SOL    HW227141   2.789   1.765  11.267  1.8826 -3.7124 -2.0846
 5227SOL     OW27142   2.771   0.268   5.126 -0.5443 -0.0149 -0.0574
 5227SOL    HW127143   2.831   0.338   5.152  0.5812 -0.4279 -1.5739
 5227SOL    HW227144   2.837   0.210   5.088  0.2403  0.0026  1.2556
 5228SOL     OW27145   4.084   0.041   8.363 -0.4313  0.1933 -0.3854
 5228SOL    HW127146   4.013   0.096   8.328 -0.2467 -0.0865 -1.1747
 5228SOL    HW227147   4.033   0.006   8.436  0.4342 -1.6791 -0.6966
 5229SOL     OW27148   3.788   2.330   8.652 -0.1671  0.5565  0.3354
 5229SOL    HW127149   3.721   2.280   8.605 -0.1260  0.5499  0.2849
 5229SOL    HW227150   3.801   2.282   8.734  0.7069  0.2672  0.0287
 5230SOL     OW27151   0.838   0.479  14.487  0.1417  0.4560 -0.0885
 5230SOL    HW127152   0.793   0.485  14.403  0.6640 -0.2177 -0.4080
 5230SOL    HW227153   0.930   0.471  14.465 -0.1137  0.1323 -1.0187
 5231SOL     OW27154   1.292   2.623   8.086  0.7597  0.0389 -0.0661
 5231SOL    HW127155   1.294   2.561   8.013 -0.7910  1.1787 -1.0765
 5231SOL    HW227156   1.353   2.689   8.053  0.1882  0.8529  0.5179
 5232SOL     OW27157   3.449   0.517   4.644  0.1154  0.5791  0.2168
 5232SOL    HW127158   3.470   0.424   4.649  0.7196  0.8211  1.9159
 5232SOL    HW227159   3.519   0.548   4.700 -0.6914  0.5558  1.2428
 5233SOL     OW27160   1.614   2.108  14.885  0.7245  0.1577 -0.5789
 5233SOL    HW127161   1.571   2.031  14.849 -1.8522  1.5689 -0.5479
 5233SOL    HW227162   1.544   2.173  14.884 -0.0819 -0.7014  0.1874
 5234SOL     OW27163   1.126   2.444  16.313  0.1457  0.2905  0.3525
 5234SOL    HW127164   1.068   2.426  16.387 -0.5635 -0.2782 -0.3431
 5234SOL    HW227165   1.118   2.370  16.252  2.1615  0.2456  0.1697
 5235SOL     OW27166   3.378   0.202   8.125  0.1879 -0.2607 -0.1039
 5235SOL    HW127167   3.333   0.285   8.116  0.0569 -0.1272  1.7667
 5235SOL    HW227168   3.358   0.189   8.218  1.0089 -0.9909 -0.0265
 5236SOL     OW27169   4.626   3.976   2.458 -0.7991 -0.0581 -0.4567
 5236SOL    HW127170   4.637   3.918   2.383 -0.3528 -0.4749 -0.0703
 5236SOL    HW227171   4.659   4.055   2.415  1.2624 -0.4789  0.3993
 5237SOL     OW27172   2.920   2.756   6.948  0.0505  0.3545  0.0857
 5237SOL    HW127173   2.927   2.713   6.863  0.7160 -0.9245  0.7884
 5237SOL    HW227174   2.861   2.703   7.002 -2.7308  0.8075 -2.5029
 5238SOL     OW27175   3.314   3.349   8.805 -0.1834  0.0241  0.1941
 5238SOL    HW127176   3.312   3.414   8.735  0.6267 -0.0731  0.0750
 5238SOL    HW227177   3.402   3.361   8.840  0.2478  0.8395 -1.1703
 5239SOL     OW27178   4.140   2.742  16.737  0.4280 -0.0656 -1.1210
 5239SOL    HW127179   4.114   2.660  16.694 -2.0460 -0.6398  1.4802
 5239SOL    HW227180   4.176   2.706  16.818 -1.7261 -0.9925 -0.5764
 5240SOL     OW27181   0.882   4.214   3.295  0.2062 -0.2070  0.2617
 5240SOL    HW127182   0.880   4.241   3.387  0.3416 -0.9434  0.4831
 5240SOL    HW227183   0.871   4.297   3.248 -3.3683  0.0813  1.6096
 5241SOL     OW27184   4.079   4.051  13.718  0.6160  0.6905  0.6097
 5241SOL    HW127185   4.106   3.970  13.761  1.5578  0.4834 -0.3803
 5241SOL    HW227186   3.994   4.048  13.761  0.6407 -3.8772  0.3089
 5242SOL     OW27187   3.301   3.518  10.081  0.0203  0.3413 -0.6528
 5242SOL    HW127188   3.284   3.459  10.154  0.0744  3.5776  1.9614
 5242SOL    HW227189   3.315   3.593  10.138  0.6671 -0.4989  0.2806
 5243SOL     OW27190   2.095   1.935   4.626 -0.5973  0.0985  0.6593
 5243SOL    HW127191   2.142   1.852   4.635 -3.3342 -1.2100  2.8448
 5243SOL    HW227192   2.087   1.935   4.530  1.3662 -2.2847  0.4934
 5244SOL     OW27193   2.941   4.299   3.572  0.3099 -0.5464  0.2776
 5244SOL    HW127194   2.879   4.296   3.499 -0.4012 -1.4978  0.9295
 5244SOL    HW227195   3.011   4.254   3.524 -0.9515 -1.7462 -0.4268
 5245SOL     OW27196   0.972   0.070   6.083  0.4575 -0.6531 -0.0703
 5245SOL    HW127197   0.978   4.705   6.050 -0.6778 -0.3669 -1.0573
 5245SOL    HW227198   1.010   0.125   6.014 -1.5061 -0.8739 -1.3478
 5246SOL     OW27199   3.900   3.027   9.038  0.7618  0.1096  0.3251
 5246SOL    HW127200   3.933   3.067   9.118  0.9263 -0.9086  0.7685
 5246SOL    HW227201   3.808   3.051   9.033  0.4039 -1.4107 -0.5402
 5247SOL     OW27202   3.714   2.045  14.406 -0.3687 -1.0796  0.3607
 5247SOL    HW127203   3.661   2.026  14.483  1.5794 -1.2522  1.6461
 5247SOL    HW227204   3.653   2.017  14.337  0.4466  1.1728 -1.2710
 5248SOL     OW27205   1.784   3.060   7.402 -0.3741  0.5285 -0.4173
 5248SOL    HW127206   1.761   2.970   7.376 -1.1659  0.9295 -1.0942
 5248SOL    HW227207   1.869   3.041   7.442 -0.1776  2.3226 -0.0088
 5249SOL     OW27208   3.830   2.998   4.246 -0.0031 -0.7967  0.3718
 5249SOL    HW127209   3.893   3.069   4.243  1.0438 -1.6911  1.1908
 5249SOL    HW227210   3.809   2.994   4.339  0.4283  2.5031  0.5968
 5250SOL     OW27211   3.732   4.275   1.584  0.1435  0.4482 -0.5274
 5250SOL    HW127212   3.679   4.200   1.609 -0.0227  1.3100  1.7275
 5250SOL    HW227213   3.707   4.275   1.491 -0.6754  1.4998 -0.3149
 5251SOL     OW27214   3.170   0.814   1.853 -0.1315  0.0511  0.4438
 5251SOL    HW127215   3.075   0.821   1.846 -0.1491 -0.4578  0.1779
 5251SOL    HW227216   3.205   0.806   1.764 -0.5935 -0.4931  0.3097
 5252SOL     OW27217   1.281   4.190   7.202  0.0601  0.0281 -0.3522
 5252SOL    HW127218   1.324   4.110   7.231 -1.7660 -0.2343  1.6793
 5252SOL    HW227219   1.187   4.176   7.217  0.2210  0.2862  0.9161
 5253SOL     OW27220   3.206   2.658  11.403  0.0544  0.8170  0.1300
 5253SOL    HW127221   3.287   2.702  11.377 -0.3235  1.5419  0.1876
 5253SOL    HW227222   3.173   2.709  11.477  1.5057  3.3569 -0.9733
 5254SOL     OW27223   1.829   1.511   8.342 -0.3102  0.3010  0.1907
 5254SOL    HW127224   1.783   1.523   8.425 -2.2475  1.6210 -1.0662
 5254SOL    HW227225   1.763   1.552   8.286  0.1743 -1.8106 -1.9606
 5255SOL     OW27226   4.007   0.786   9.896 -0.4060  0.3840 -0.1214
 5255SOL    HW127227   3.936   0.795   9.959 -0.9602 -0.4051 -0.6374
 5255SOL    HW227228   4.009   0.691   9.906  1.5754  0.5056  0.6582
 5256SOL     OW27229   1.051   1.665   3.374  0.4135 -0.0674 -0.5275
 5256SOL    HW127230   1.012   1.733   3.429 -0.7028  0.6349 -2.2193
 5256SOL    HW227231   1.140   1.666   3.412  0.4214  2.3506 -0.6055
 5257SOL     OW27232   1.630   1.667   6.145 -0.2479 -0.8339 -0.6368
 5257SOL    HW127233   1.612   1.629   6.231 -1.0379  0.9024 -0.0244
 5257SOL    HW227234   1.541   1.681   6.112 -0.9484  0.7711  1.8573
 5258SOL     OW27235   4.510   3.143  10.285 -0.7576  0.0367 -0.4944
 5258SOL    HW127236   4.595   3.101  10.301 -1.1593  0.2567  2.3795
 5258SOL    HW227237   4.484   3.083  10.216  0.5618 -1.2470  0.1059
 5259SOL     OW27238   3.182   0.362   4.294  0.1497 -0.3064  0.1376
 5259SOL    HW127239   3.256   0.419   4.316  0.4303 -0.5337 -0.2269
 5259SOL    HW227240   3.225   0.292   4.246 -0.3750 -2.2676  2.5029
 5260SOL     OW27241   1.572   1.098   8.993  0.6961  0.3061 -0.1454
 5260SOL    HW127242   1.660   1.085   8.959  0.9723 -0.7187  0.9187
 5260SOL    HW227243   1.556   1.012   9.033  3.4473  0.3437  1.0627
 5261SOL     OW27244   3.082   0.274   7.063 -0.2815  0.0780  0.0956
 5261SOL    HW127245   2.996   0.273   7.023 -0.6093  0.3087  0.7861
 5261SOL    HW227246   3.066   0.239   7.151 -1.0144  1.2821  0.4428
 5262SOL     OW27247   2.536   2.121   4.083 -0.6662 -0.6119 -0.1634
 5262SOL    HW127248   2.595   2.193   4.109  0.3098 -1.2821 -0.5067
 5262SOL    HW227249   2.597   2.058   4.044  1.2367  2.8259 -2.7915
 5263SOL     OW27250   0.902   1.766   7.765 -0.3892 -0.0899 -0.6442
 5263SOL    HW127251   0.896   1.849   7.812 -0.0748  1.3866 -3.1998
 5263SOL    HW227252   0.808   1.745   7.762  0.1873 -3.3939  4.2346
 5264SOL     OW27253   1.761   1.876  15.051  0.8354  0.1923  0.1921
 5264SOL    HW127254   1.745   1.967  15.027  1.6991  0.3358  0.1632
 5264SOL    HW227255   1.673   1.839  15.039 -0.0694  2.9979 -1.7079
 5265SOL     OW27256   0.695   2.269  13.412 -0.0026  0.9711  0.7072
 5265SOL    HW127257   0.658   2.223  13.336 -0.9917  0.5092  1.4735
 5265SOL    HW227258   0.618   2.318  13.441  0.4228  1.6804  0.6324
 5266SOL     OW27259   0.596   3.563   6.371  0.3707 -0.1501  0.3748
 5266SOL    HW127260   0.615   3.642   6.422 -1.3840  0.7549 -0.3687
 5266SOL    HW227261   0.513   3.530   6.405 -0.0055  0.6614  0.2388
 5267SOL     OW27262   1.316   3.121   3.810 -0.0144  0.1862 -0.4692
 5267SOL    HW127263   1.307   3.037   3.855 -0.8092  0.0094 -0.9501
 5267SOL    HW227264   1.255   3.170   3.865 -0.0423 -1.0818  0.6339
 5268SOL     OW27265   2.789   3.886   0.188 -0.0814 -0.1022  0.7085
 5268SOL    HW127266   2.782   3.796   0.156 -0.8246  1.2186 -2.8394
 5268SOL    HW227267   2.843   3.878   0.267  0.5167 -0.5948  0.2458
 5269SOL     OW27268   2.703   4.210   1.334  0.2718 -0.2973 -0.3513
 5269SOL    HW127269   2.711   4.116   1.323 -0.8281 -0.4930  0.5148
 5269SOL    HW227270   2.768   4.225   1.403  0.8435  0.1392 -0.9843
 5270SOL     OW27271   3.451   3.765   0.529 -0.0091  0.1462  0.0690
 5270SOL    HW127272   3.514   3.797   0.593  1.4044  0.6871 -1.6090
 5270SOL    HW227273   3.442   3.675   0.559  1.7509 -1.0398 -3.1015
 5271SOL     OW27274   3.398   4.348   8.592  0.5140  0.6954  0.0048
 5271SOL    HW127275   3.372   4.257   8.575  2.8581  0.1233 -0.6114
 5271SOL    HW227276   3.324   4.406   8.576  2.0259  1.9713 -2.3859
 5272SOL     OW27277   4.184   4.268   5.242 -0.2545 -0.1246  0.0782
 5272SOL    HW127278   4.192   4.212   5.320 -3.5585  0.9980  1.2109
 5272SOL    HW227279   4.279   4.278   5.233 -0.1176 -0.9550  0.6366
 5273SOL     OW27280   0.692   2.921  12.041  0.1013  0.2214 -0.1824
 5273SOL    HW127281   0.712   2.831  12.019 -1.0090  0.1167 -0.7765
 5273SOL    HW227282   0.615   2.937  11.986 -0.0813  1.7937  0.5088
 5274SOL     OW27283   3.409   2.841   0.253 -0.3854 -0.1333  0.6826
 5274SOL    HW127284   3.419   2.803   0.340  0.0493 -2.6617 -0.4503
 5274SOL    HW227285   3.367   2.923   0.276 -2.1129 -0.4480 -1.3200
 5275SOL     OW27286   3.921   2.121   7.826 -0.3181  0.3265  0.1099
 5275SOL    HW127287   3.975   2.075   7.762  0.1043  3.6302 -1.8840
 5275SOL    HW227288   3.984   2.179   7.868 -0.2953  0.0420  0.4661
 5276SOL     OW27289   1.055   3.696   8.071 -0.5546  0.2419 -0.7372
 5276SOL    HW127290   1.038   3.660   7.984 -1.2655  0.2509 -0.6046
 5276SOL    HW227291   1.035   3.616   8.119  3.1908  0.7220  1.5912
 5277SOL     OW27292   4.485   1.681   3.258 -0.6063 -0.8056 -0.0361
 5277SOL    HW127293   4.400   1.720   3.240 -1.7916 -2.3254  2.2293
 5277SOL    HW227294   4.493   1.708   3.349 -2.0507  0.8563 -0.3951
 5278SOL     OW27295   1.664   1.002   5.117  0.0250  0.4321  0.3210
 5278SOL    HW127296   1.703   1.010   5.031  0.7542  1.6220  0.7678
 5278SOL    HW227297   1.710   0.922   5.142 -0.2462  0.1690 -0.0187
 5279SOL     OW27298   1.169   3.155   7.413 -0.6580 -0.0744 -0.2898
 5279SOL    HW127299   1.150   3.222   7.347 -0.1003 -0.1100 -0.4842
 5279SOL    HW227300   1.091   3.101   7.399  0.5029 -1.1696 -2.4643
 5280SOL     OW27301   0.082   3.230   3.453 -0.3044  0.0131  0.4879
 5280SOL    HW127302   0.044   3.198   3.534 -0.2849 -0.4550  0.3091
 5280SOL    HW227303   0.162   3.278   3.478 -0.1310 -0.1894  0.3216
 5281SOL     OW27304   3.002   2.302   8.702 -0.8386 -0.4017  0.5037
 5281SOL    HW127305   3.073   2.243   8.678  0.4322  1.1259  0.5534
 5281SOL    HW227306   2.981   2.362   8.631  2.6782  0.0653 -0.1335
 5282SOL     OW27307   0.612   1.489   9.201  0.3007  0.0293  0.0318
 5282SOL    HW127308   0.560   1.437   9.262  0.4536 -1.5397 -1.1715
 5282SOL    HW227309   0.645   1.423   9.140 -1.0036 -0.6518  0.0698
 5283SOL     OW27310   3.123   2.862   8.419  0.6160  0.1868  0.0234
 5283SOL    HW127311   3.102   2.855   8.511  0.9312 -0.3173  0.0583
 5283SOL    HW227312   3.214   2.830   8.415 -0.3065 -2.4827  0.1487
 5284SOL     OW27313   3.358   0.613   5.108 -0.1999  0.0767  0.6361
 5284SOL    HW127314   3.452   0.603   5.093 -0.0676 -0.7350  1.9883
 5284SOL    HW227315   3.352   0.583   5.199  0.5678 -2.2330 -0.0775
 5285SOL     OW27316   4.181   0.766   8.921  0.4571  0.8685  0.4036
 5285SOL    HW127317   4.226   0.697   8.970 -0.8707  1.7558  2.8607
 5285SOL    HW227318   4.100   0.772   8.971 -0.3312 -1.1855 -0.6486
 5286SOL     OW27319   4.303   0.891   9.691 -0.2433  0.4749  0.0554
 5286SOL    HW127320   4.387   0.925   9.660 -0.7526  1.5737 -0.1207
 5286SOL    HW227321   4.326   0.817   9.747  1.5335  0.2435 -0.9561
 5287SOL     OW27322   2.417   0.718  13.396 -0.7445  0.4039  0.0673
 5287SOL    HW127323   2.377   0.655  13.455 -0.7639 -1.3481 -1.8031
 5287SOL    HW227324   2.470   0.776  13.450 -0.0381 -0.3180  0.1603
 5288SOL     OW27325   3.420   3.687   8.151 -0.0676 -0.3285 -0.2411
 5288SOL    HW127326   3.422   3.626   8.077 -1.4967 -0.5097 -0.1353
 5288SOL    HW227327   3.341   3.659   8.196 -0.1520 -1.7053 -1.2405
 5289SOL     OW27328   4.629   4.241   6.414  0.6361 -0.1900 -0.8622
 5289SOL    HW127329   4.593   4.322   6.379  1.1176  0.1315 -0.6189
 5289SOL    HW227330   4.575   4.184   6.359  0.8678 -1.9022  0.6712
 5290SOL     OW27331   1.380   1.724   6.106 -0.1663  0.0542  0.4656
 5290SOL    HW127332   1.291   1.754   6.123 -0.2514 -0.2622  0.5743
 5290SOL    HW227333   1.412   1.744   6.194  0.1532  0.5886  0.2283
 5291SOL     OW27334   3.749   2.314   4.281  0.2134  0.1914 -0.2128
 5291SOL    HW127335   3.796   2.242   4.322 -0.6882 -1.5518 -2.2072
 5291SOL    HW227336   3.742   2.282   4.191 -0.4886 -0.6284  0.1356
 5292SOL     OW27337   3.187   3.988   7.744 -0.1100  0.5637 -0.3604
 5292SOL    HW127338   3.205   3.898   7.771  1.0915  0.7799 -0.4202
 5292SOL    HW227339   3.274   4.001   7.706  1.2848 -0.2220  2.5175
 5293SOL     OW27340   3.136   3.231   0.535 -0.0448 -0.3629  0.1742
 5293SOL    HW127341   3.047   3.243   0.502 -0.7825  1.2060  2.7323
 5293SOL    HW227342   3.119   3.220   0.628 -1.5250  2.1467  0.2031
 5294SOL     OW27343   4.585   3.342   2.765  0.0357  0.5198 -0.3604
 5294SOL    HW127344   4.574   3.268   2.704 -1.1985 -0.1810  0.7192
 5294SOL    HW227345   4.585   3.292   2.846 -1.2913 -0.5851 -1.0335
 5295SOL     OW27346   1.312   0.751   2.828  0.0090 -0.0868  0.6786
 5295SOL    HW127347   1.333   0.742   2.735  1.0572  0.7261  0.8282
 5295SOL    HW227348   1.221   0.777   2.816  0.2626  0.4968  0.0079
 5296SOL     OW27349   0.768   0.325   6.170  0.0030  0.2553  0.2528
 5296SOL    HW127350   0.833   0.394   6.158  0.7008 -0.2835  0.9064
 5296SOL    HW227351   0.702   0.340   6.102 -0.0123  2.6141  0.7886
 5297SOL     OW27352   3.804   4.383   8.346  0.8217  0.2951 -0.1487
 5297SOL    HW127353   3.838   4.460   8.393 -0.7650  0.5777  0.5327
 5297SOL    HW227354   3.843   4.306   8.388  1.3273  0.7741  0.2728
 5298SOL     OW27355   0.541   2.810   6.842  0.0272 -0.5610 -0.6471
 5298SOL    HW127356   0.464   2.846   6.798 -0.4417  1.7474  2.0960
 5298SOL    HW227357   0.504   2.737   6.892 -0.0949 -0.1501 -0.1372
 5299SOL     OW27358   1.293   1.431   5.454 -0.3605  0.5153 -0.4705
 5299SOL    HW127359   1.260   1.379   5.381  0.2245  2.0642 -1.8295
 5299SOL    HW227360   1.382   1.440   5.420 -0.0750  0.5500  0.2866
 5300SOL     OW27361   0.607   1.576   8.303 -0.2450 -0.1307  0.0084
 5300SOL    HW127362   0.590   1.671   8.300  0.8064  0.0355 -0.7327
 5300SOL    HW227363   0.620   1.558   8.210 -0.6845 -0.6412  0.0472
 5301SOL     OW27364   4.419   3.570   6.536 -0.0408 -0.1891 -0.2563
 5301SOL    HW127365   4.432   3.655   6.494 -1.7012 -0.2714 -0.9160
 5301SOL    HW227366   4.370   3.527   6.466 -0.2587 -2.6364  1.3852
 5302SOL     OW27367   0.115   1.857   6.446 -0.1443  0.5458  0.3122
 5302SOL    HW127368   0.023   1.865   6.472 -0.3487 -0.2420 -0.2023
 5302SOL    HW227369   0.118   1.884   6.355  3.3109 -0.3383  0.1632
 5303SOL     OW27370   4.188   3.149   4.468  0.6889  0.3070  0.1471
 5303SOL    HW127371   4.141   3.120   4.546 -1.4579  0.2004 -1.1955
 5303SOL    HW227372   4.117   3.156   4.403  1.1181  0.3051 -0.3269
 5304SOL     OW27373   0.950   4.306  11.971 -0.1206  0.2255  0.1217
 5304SOL    HW127374   0.855   4.313  11.963 -0.3510 -1.3389  1.6662
 5304SOL    HW227375   0.976   4.377  12.030  0.0191  1.3466 -1.2796
 5305SOL     OW27376   0.719   1.014   7.847  0.3046  0.9121  0.3064
 5305SOL    HW127377   0.787   1.076   7.819  2.3572 -0.7999  1.4381
 5305SOL    HW227378   0.644   1.074   7.850 -0.1949  0.2837  0.2362
 5306SOL     OW27379   1.895   1.478   5.389 -0.2497  0.5578  0.0120
 5306SOL    HW127380   1.877   1.402   5.334  1.9669  0.0198  0.0311
 5306SOL    HW227381   1.988   1.482   5.366  0.1271 -1.2054  1.2982
 5307SOL     OW27382   3.934   1.792   3.805 -0.0561  0.1359  0.4997
 5307SOL    HW127383   3.964   1.785   3.714 -1.4230  2.4434 -0.1377
 5307SOL    HW227384   3.997   1.849   3.849 -0.3420  2.5839 -2.2739
 5308SOL     OW27385   3.891   1.006   5.343 -0.1798 -0.0082  0.5850
 5308SOL    HW127386   3.943   0.953   5.403  0.7918  0.7824  0.4385
 5308SOL    HW227387   3.925   0.974   5.260 -1.2576  0.0742  0.1021
 5309SOL     OW27388   3.044   0.402   6.772  0.2487  0.0742 -0.2108
 5309SOL    HW127389   2.975   0.434   6.714  1.3234  2.0471 -0.4178
 5309SOL    HW227390   2.989   0.366   6.842  1.6986  1.1016  1.4560
 5310SOL     OW27391   0.383   3.984   5.636 -0.3276 -0.2887  0.5979
 5310SOL    HW127392   0.369   4.078   5.622  1.2502  0.0494  1.2631
 5310SOL    HW227393   0.291   3.957   5.639 -0.0249 -1.0730  2.5767
 5311SOL     OW27394   2.558   3.080  14.290 -0.0099 -0.2383  0.8316
 5311SOL    HW127395   2.577   3.079  14.384  0.0428  0.8151  0.8310
 5311SOL    HW227396   2.638   3.125  14.262 -1.5380  0.9175 -1.6058
 5312SOL     OW27397   2.767   1.963   6.884 -0.9039  1.0721  0.1031
 5312SOL    HW127398   2.810   1.882   6.910 -0.4220  0.9147 -1.2080
 5312SOL    HW227399   2.748   1.934   6.795 -3.8243 -0.1783  1.1286
 5313SOL     OW27400   0.925   4.294   8.804  0.0901 -0.1778 -0.5181
 5313SOL    HW127401   1.004   4.283   8.752 -0.3200 -0.1008 -1.1569
 5313SOL    HW227402   0.939   4.220   8.862  0.9840 -0.4513 -1.0847
 5314SOL     OW27403   2.930   3.730   4.316 -0.5190 -0.3551 -0.3369
 5314SOL    HW127404   2.836   3.749   4.323 -0.3072  1.4030 -2.3007
 5314SOL    HW227405   2.947   3.731   4.410  0.7323  1.1478 -0.5756
 5315SOL     OW27406   0.961   2.473   5.479  0.4143 -0.2267  0.7231
 5315SOL    HW127407   0.985   2.494   5.389  0.5351 -0.0874  0.7887
 5315SOL    HW227408   1.001   2.386   5.471  1.9736  0.7482 -1.9344
 5316SOL     OW27409   2.868   1.141   0.004  0.1300  0.0180  0.0681
 5316SOL    HW127410   2.871   1.208  17.634 -1.7804  2.2435  2.2119
 5316SOL    HW227411   2.876   1.198   0.080  3.8648 -0.1412 -0.2043
 5317SOL     OW27412   1.427   0.850   8.597 -0.1992 -0.1325 -0.0305
 5317SOL    HW127413   1.398   0.760   8.613  1.3014 -0.8879 -1.5351
 5317SOL    HW227414   1.519   0.836   8.621  0.2599  0.4360 -1.4810
 5318SOL     OW27415   1.927   3.123   7.635 -0.2756 -0.8391 -0.2417
 5318SOL    HW127416   1.873   3.189   7.590  0.5029  0.3553  0.5715
 5318SOL    HW227417   1.949   3.162   7.719 -2.3393 -1.4219  0.5689
 5319SOL     OW27418   3.513   1.249   9.838 -0.1632 -0.2407  0.4290
 5319SOL    HW127419   3.587   1.219   9.891 -0.7044 -0.7655  0.8947
 5319SOL    HW227420   3.490   1.170   9.790  2.4552  0.5068 -2.0682
 5320SOL     OW27421   2.723   3.670   2.936  0.4698  0.0265  0.0286
 5320SOL    HW127422   2.633   3.699   2.920  0.4067 -1.0257 -1.5308
 5320SOL    HW227423   2.759   3.685   2.848  0.1204  1.5961  0.1528
 5321SOL     OW27424   3.062   3.235   2.484 -0.5618 -0.3916 -0.0970
 5321SOL    HW127425   3.087   3.228   2.392  2.1443 -0.8183  0.6568
 5321SOL    HW227426   3.097   3.321   2.508  1.2055 -1.4503  1.1519
 5322SOL     OW27427   2.742   2.137   9.910  0.3918  0.0755  0.0951
 5322SOL    HW127428   2.811   2.082   9.948  0.3702 -0.2917 -0.3893
 5322SOL    HW227429   2.797   2.190   9.854  1.0697  0.6806  1.3416
 5323SOL     OW27430   1.954   2.937   3.681  0.5957  0.2370 -0.2899
 5323SOL    HW127431   2.044   2.965   3.696  0.6965  0.5459 -1.4620
 5323SOL    HW227432   1.908   3.021   3.677 -0.0588 -0.1386 -0.6784
 5324SOL     OW27433   0.480   2.173   3.270 -0.3308 -0.7501 -0.1723
 5324SOL    HW127434   0.487   2.085   3.232 -1.4761 -0.9480  0.0662
 5324SOL    HW227435   0.557   2.210   3.227 -0.6339  0.3043  0.1848
 5325SOL     OW27436   4.221   0.818   7.555 -0.3642 -0.3251 -0.4203
 5325SOL    HW127437   4.272   0.795   7.632  0.2253 -1.5554 -1.1880
 5325SOL    HW227438   4.236   0.911   7.537  2.2689 -0.7049 -0.2521
 5326SOL     OW27439   0.319   2.454   2.785 -0.1918 -0.2395  0.1517
 5326SOL    HW127440   0.292   2.418   2.701 -0.7150 -0.2529  0.3251
 5326SOL    HW227441   0.254   2.419   2.846  0.7022  0.1668  1.3474
 5327SOL     OW27442   3.499   1.762   2.040  0.0408  0.8007  0.1151
 5327SOL    HW127443   3.488   1.856   2.051  0.2021  0.9795 -1.2678
 5327SOL    HW227444   3.423   1.728   2.087  0.4196 -2.0333 -1.3169
 5328SOL     OW27445   0.312   0.153   6.190  0.0316 -0.3174 -0.5095
 5328SOL    HW127446   0.313   0.189   6.101 -2.1742  0.6243 -0.1618
 5328SOL    HW227447   0.393   0.194   6.222  0.1879 -1.1571  0.1771
 5329SOL     OW27448   1.008   4.555  12.570  1.1926  0.0017 -0.3529
 5329SOL    HW127449   1.028   4.594  12.485 -0.6235 -2.5287 -1.9428
 5329SOL    HW227450   1.083   4.585  12.620 -0.5395  2.5147  0.7344
 5330SOL     OW27451   0.715   3.910   2.723  0.2514  0.0217 -0.3055
 5330SOL    HW127452   0.624   3.904   2.752 -0.4221 -0.2110 -2.5099
 5330SOL    HW227453   0.703   3.976   2.655 -0.8234 -0.2503 -0.3739
 5331SOL     OW27454   0.917   2.204   2.075 -0.2728  0.1476 -0.7541
 5331SOL    HW127455   0.976   2.272   2.107 -0.1561  0.1485 -0.9702
 5331SOL    HW227456   0.976   2.143   2.030  0.1925 -0.0675  0.1602
 5332SOL     OW27457   2.191   2.083  13.626  0.0026  0.6796 -0.6961
 5332SOL    HW127458   2.123   2.017  13.644  1.3210 -0.4325  0.2330
 5332SOL    HW227459   2.143   2.142  13.568  0.8001  3.1687  1.1886
 5333SOL     OW27460   1.370   2.628   2.279 -0.8389 -0.3610  0.3294
 5333SOL    HW127461   1.391   2.720   2.294 -0.2038 -0.2615 -1.2097
 5333SOL    HW227462   1.355   2.622   2.185 -2.7248 -0.4056  0.6138
 5334SOL     OW27463   3.629   4.151   8.084  0.6504  0.1309 -0.4843
 5334SOL    HW127464   3.537   4.147   8.110  0.4854  0.7122 -0.9645
 5334SOL    HW227465   3.620   4.243   8.056  0.2660 -0.4154 -2.1978
 5335SOL     OW27466   0.601   0.052   6.083 -0.2736  0.1535  0.2472
 5335SOL    HW127467   0.680   0.096   6.053 -1.1421  1.0204 -0.7512
 5335SOL    HW227468   0.567   0.114   6.148 -2.9797 -1.7328  0.6462
 5336SOL     OW27469   3.266   0.332   9.745  0.1160  0.6496 -0.4054
 5336SOL    HW127470   3.341   0.277   9.721  0.9024  0.5151  2.3084
 5336SOL    HW227471   3.237   0.279   9.820  1.8041  0.1901 -0.0768
 5337SOL     OW27472   1.888   0.812   8.245 -0.0681  0.4181 -0.4055
 5337SOL    HW127473   1.797   0.786   8.238  0.3889 -1.7892  1.9043
 5337SOL    HW227474   1.924   0.793   8.158  0.6254 -1.1295  0.2291
 5338SOL     OW27475   0.501   1.525   6.402  0.3658 -0.4786  0.4278
 5338SOL    HW127476   0.477   1.475   6.325 -2.9188  0.9262  0.5557
 5338SOL    HW227477   0.518   1.615   6.375  0.7868 -0.4318  0.8438
 5339SOL     OW27478   0.283   1.308   7.067  0.2536 -0.6084 -0.2544
 5339SOL    HW127479   0.338   1.343   6.997  0.1584 -1.4462 -0.7426
 5339SOL    HW227480   0.225   1.253   7.015 -0.0763 -0.2183 -0.2922
 5340SOL     OW27481   0.564   4.016   3.979  0.5448  0.2225  0.4361
 5340SOL    HW127482   0.636   3.984   3.924  0.1348 -0.8442  0.5213
 5340SOL    HW227483   0.530   3.934   4.015 -1.3267  0.8615  0.1342
 5341SOL     OW27484   4.199   2.153   5.973 -0.2264 -0.4336 -0.2813
 5341SOL    HW127485   4.108   2.153   6.002 -0.8907  1.9235 -2.3413
 5341SOL    HW227486   4.190   2.225   5.911 -0.5551 -0.3469 -0.1345
 5342SOL     OW27487   2.598   1.174   4.075  0.0246 -0.5988  0.6942
 5342SOL    HW127488   2.628   1.262   4.052  1.4067 -0.9102  1.2726
 5342SOL    HW227489   2.586   1.183   4.170 -1.0580  2.0926  0.3021
 5343SOL     OW27490   3.537   3.466   6.157 -0.5016 -0.5662  0.0730
 5343SOL    HW127491   3.455   3.509   6.131  0.1391  0.6299  0.0034
 5343SOL    HW227492   3.606   3.488   6.094  1.9044 -0.1939  2.8664
 5344SOL     OW27493   2.842   2.190   6.625 -0.5279  0.7873 -0.2158
 5344SOL    HW127494   2.767   2.208   6.683  0.0820 -0.0312  0.8249
 5344SOL    HW227495   2.800   2.129   6.564 -1.5303 -0.0661  1.3257
 5345SOL     OW27496   0.173   1.756   4.579 -0.3144 -0.0915 -0.1084
 5345SOL    HW127497   0.223   1.750   4.660  0.9579 -0.6783 -0.9239
 5345SOL    HW227498   0.245   1.767   4.516  1.3206  1.3646  2.0389
 5346SOL     OW27499   4.072   0.614   4.727 -0.1420  0.1370 -0.4701
 5346SOL    HW127500   4.065   0.575   4.639 -0.5406  1.3916 -0.9893
 5346SOL    HW227501   4.104   0.702   4.708  0.1045  0.1849  0.1894
 5347SOL     OW27502   0.087   2.765  14.253  0.1201 -0.2573 -0.1601
 5347SOL    HW127503   0.035   2.844  14.238  0.1452  0.2174  2.1949
 5347SOL    HW227504   0.170   2.798  14.289  0.8081 -0.2772 -1.7359
 5348SOL     OW27505   0.750   3.417   4.437  0.5226  0.6016  0.0907
 5348SOL    HW127506   0.738   3.435   4.343 -1.3477  1.2550  0.4388
 5348SOL    HW227507   0.742   3.509   4.461 -2.2672  1.0701 -2.5401
 5349SOL     OW27508   0.465   1.148   5.606  0.3178  0.4876 -0.0004
 5349SOL    HW127509   0.410   1.221   5.633  0.0580  0.6224 -0.8953
 5349SOL    HW227510   0.507   1.197   5.535  2.3917  1.6650  2.0605
 5350SOL     OW27511   3.185   3.185   5.193 -0.3912 -0.3580 -0.5726
 5350SOL    HW127512   3.280   3.172   5.202 -0.5899 -1.0035  0.6622
 5350SOL    HW227513   3.181   3.184   5.098 -0.2654 -0.5869 -0.5753
 5351SOL     OW27514   4.308   4.489   6.573 -0.3557 -0.4502 -0.4378
 5351SOL    HW127515   4.329   4.582   6.575 -2.5702  0.0915 -1.8618
 5351SOL    HW227516   4.354   4.464   6.492 -1.7611  0.1348 -1.4216
 5352SOL     OW27517   4.356   1.805   2.233  0.1946  0.3150 -0.0245
 5352SOL    HW127518   4.353   1.794   2.328  0.2887  1.4433  0.1078
 5352SOL    HW227519   4.446   1.831   2.212  0.6306 -2.1000 -1.1604
 5353SOL     OW27520   0.876   2.881  12.338 -0.0926  0.2820 -0.3081
 5353SOL    HW127521   0.809   2.819  12.309  0.6107 -1.2003  1.2520
 5353SOL    HW227522   0.940   2.848  12.275  0.3801 -2.6511  1.7146
 5354SOL     OW27523   2.182   4.239   3.678  0.1546  0.5407  0.0956
 5354SOL    HW127524   2.245   4.308   3.697 -2.0738  2.3728  0.7723
 5354SOL    HW227525   2.138   4.234   3.763 -0.4974  1.3222 -0.1934
 5355SOL     OW27526   4.024   1.476   9.690  0.2619  0.0354  0.2001
 5355SOL    HW127527   4.097   1.519   9.645 -0.0413 -2.8937 -3.0975
 5355SOL    HW227528   3.962   1.445   9.624 -0.1521  0.7911  0.2393
 5356SOL     OW27529   0.867   0.905   8.984  0.2699 -0.0268  0.3673
 5356SOL    HW127530   0.874   0.942   8.896 -1.9727  0.9170  0.5780
 5356SOL    HW227531   0.836   0.815   8.972  1.2262 -0.4009  0.6716
 5357SOL     OW27532   1.996   1.600   3.217 -0.0453  0.1849  0.7862
 5357SOL    HW127533   2.089   1.584   3.234 -0.4941 -0.2097  2.8430
 5357SOL    HW227534   1.999   1.564   3.128 -0.0769  3.7117 -0.6400
 5358SOL     OW27535   4.568   0.727   2.404 -0.2220  0.3799 -0.0755
 5358SOL    HW127536   4.556   0.749   2.496  1.1104  1.5156 -0.1671
 5358SOL    HW227537   4.650   0.769   2.376  1.0475 -0.7489  2.0012
 5359SOL     OW27538   1.514   2.846   8.503 -0.4351  0.0829 -0.1340
 5359SOL    HW127539   1.521   2.923   8.447 -1.1548 -1.1198 -1.8878
 5359SOL    HW227540   1.564   2.786   8.447  2.0638  1.2552  0.8330
 5360SOL     OW27541   2.079   1.412  11.054  0.1106 -0.3513 -0.3244
 5360SOL    HW127542   2.145   1.347  11.030 -1.4257 -1.8884 -0.3597
 5360SOL    HW227543   2.139   1.484  11.076 -0.3157  0.3822 -1.5699
 5361SOL     OW27544   3.884   4.430   6.862 -0.1121  0.0846  0.1448
 5361SOL    HW127545   3.908   4.407   6.952 -0.1916  1.8637  0.6138
 5361SOL    HW227546   3.970   4.465   6.839 -0.7436  1.5454  0.0373
 5362SOL     OW27547   2.204   3.340   8.376 -0.4651  0.5283 -0.3865
 5362SOL    HW127548   2.189   3.331   8.281 -0.4036  1.1863 -0.4588
 5362SOL    HW227549   2.132   3.399   8.398  0.4917  1.3087  0.6014
 5363SOL     OW27550   0.993   2.075   6.727 -1.2113 -0.1471 -0.5083
 5363SOL    HW127551   1.064   2.119   6.679  1.1024 -2.6800  0.5817
 5363SOL    HW227552   1.026   1.985   6.731  0.2115  0.3728 -0.2786
 5364SOL     OW27553   2.344   2.627   7.873 -0.2357  0.2044 -0.5105
 5364SOL    HW127554   2.324   2.533   7.866 -0.8817  0.1192  2.3032
 5364SOL    HW227555   2.439   2.625   7.858  0.4526  1.9707  3.5367
 5365SOL     OW27556   3.035   4.518   3.926 -0.4267  0.4663 -0.1304
 5365SOL    HW127557   3.111   4.505   3.870 -1.5664 -2.6190 -0.9178
 5365SOL    HW227558   3.009   4.604   3.893 -1.0211 -0.0966 -1.1263
 5366SOL     OW27559   1.780   2.201   8.451 -0.0337  0.0323  0.2086
 5366SOL    HW127560   1.699   2.248   8.473  2.2522  3.1129  1.9493
 5366SOL    HW227561   1.789   2.205   8.356 -0.0844  1.2029  0.2507
 5367SOL     OW27562   4.022   1.483   3.862 -0.1653 -0.3144  0.3886
 5367SOL    HW127563   4.005   1.574   3.838 -0.4292 -0.5480 -0.3265
 5367SOL    HW227564   3.944   1.437   3.830 -0.3947 -0.1237  0.6725
 5368SOL     OW27565   0.201   3.195   2.952  0.4060 -0.1790  0.1559
 5368SOL    HW127566   0.166   3.239   3.029 -3.4824 -2.0671 -0.5205
 5368SOL    HW227567   0.187   3.267   2.890  0.7182  0.8245  1.2696
 5369SOL     OW27568   3.162   4.626   2.604  0.1834  0.1827  0.1905
 5369SOL    HW127569   3.137   4.564   2.673  1.1705 -0.6686 -0.2022
 5369SOL    HW227570   3.130   4.579   2.528 -0.7635 -0.6695  1.1108
 5370SOL     OW27571   0.886   0.490  13.361  0.2911  0.1236 -0.4389
 5370SOL    HW127572   0.922   0.566  13.315 -3.8559  0.5615 -2.9105
 5370SOL    HW227573   0.963   0.433  13.362  1.1540  1.2874  2.0905
 5371SOL     OW27574   1.242   1.172   4.262 -0.1767 -0.0208 -0.6086
 5371SOL    HW127575   1.238   1.169   4.357 -2.1956  2.6906 -0.6143
 5371SOL    HW227576   1.160   1.126   4.243 -0.5189  0.9380 -1.5058
 5372SOL     OW27577   1.372   0.516  13.004 -0.0281  0.4910  0.1172
 5372SOL    HW127578   1.429   0.559  13.068  2.3295 -1.6449 -0.5924
 5372SOL    HW227579   1.410   0.533  12.918  1.3359 -0.1427  0.6031
 5373SOL     OW27580   4.225   3.139  10.577  0.1605 -0.7603  0.2079
 5373SOL    HW127581   4.193   3.174  10.661  0.0372 -1.1059  0.3080
 5373SOL    HW227582   4.149   3.160  10.523 -0.4555 -1.5121  0.7658
 5374SOL     OW27583   2.064   0.175   7.903 -0.0459  0.6958  0.2030
 5374SOL    HW127584   2.150   0.173   7.860 -1.1299 -0.0549 -1.9538
 5374SOL    HW227585   2.073   0.115   7.976  2.0829 -1.9622 -2.2363
 5375SOL     OW27586   0.864   3.655  16.765 -0.3466  0.1656 -0.7973
 5375SOL    HW127587   0.780   3.610  16.761 -1.1413  1.4878  1.1047
 5375SOL    HW227588   0.892   3.640  16.855 -2.7360 -1.6572 -0.3440
 5376SOL     OW27589   3.835   1.442  10.919 -0.3220 -0.3121  0.1975
 5376SOL    HW127590   3.784   1.362  10.929  0.7992 -1.4655 -3.4482
 5376SOL    HW227591   3.877   1.428  10.834 -1.6238 -0.4497 -0.4266
 5377SOL     OW27592   0.338   2.311   4.892  0.3698 -0.0572 -0.6263
 5377SOL    HW127593   0.329   2.278   4.802  2.6980  1.0181 -1.2603
 5377SOL    HW227594   0.340   2.406   4.879  1.8343  0.1377  1.1100
 5378SOL     OW27595   0.068   2.106   9.694  0.5903  0.0738 -0.6223
 5378SOL    HW127596   0.162   2.099   9.680  1.0196  0.7860  2.0631
 5378SOL    HW227597   0.045   2.026   9.742 -1.9177  2.2710  1.8241
 5379SOL     OW27598   4.082   4.424   2.646  0.2570 -0.0379 -0.5386
 5379SOL    HW127599   4.161   4.395   2.692 -1.1721 -0.1979  1.8523
 5379SOL    HW227600   4.112   4.499   2.595  0.2561 -0.4024 -1.0693
 5380SOL     OW27601   3.586   2.997   3.584 -0.0557 -0.0396  0.0077
 5380SOL    HW127602   3.558   3.062   3.521  1.3882  0.1044 -0.5008
 5380SOL    HW227603   3.500   2.981   3.623 -0.0420  1.3047  0.5907
 5381SOL     OW27604   0.691   0.186  13.674  0.2277  0.4723  0.2534
 5381SOL    HW127605   0.675   0.200  13.581  1.2014  3.0176  0.4858
 5381SOL    HW227606   0.674   0.274  13.706 -1.9986 -0.6318  2.1901
 5382SOL     OW27607   0.388   3.397   7.996 -0.3728  0.1770 -0.2506
 5382SOL    HW127608   0.355   3.308   8.010  1.0238 -0.4495 -0.9433
 5382SOL    HW227609   0.387   3.403   7.901 -0.6537  0.5464 -0.2234
 5383SOL     OW27610   1.708   0.580   7.298  0.0158  0.5570  0.1265
 5383SOL    HW127611   1.796   0.615   7.314  0.0858 -0.5076  2.0134
 5383SOL    HW227612   1.726   0.486   7.293 -1.3189  0.3483 -0.8805
 5384SOL     OW27613   4.713   3.204  15.423  0.0417  0.1114 -0.4530
 5384SOL    HW127614   0.014   3.269  15.488  0.1230 -1.1045  0.7280
 5384SOL    HW227615   4.618   3.207  15.437 -0.2065 -0.3410 -1.9660
 5385SOL     OW27616   3.284   3.552   7.786  0.0888  0.2938 -0.1202
 5385SOL    HW127617   3.214   3.614   7.765 -1.4147 -1.3554  0.0068
 5385SOL    HW227618   3.266   3.485   7.720  1.0334 -0.0094 -0.0639
 5386SOL     OW27619   0.984   4.503  12.161 -0.5130  0.7991 -0.2977
 5386SOL    HW127620   0.950   4.437  12.221 -2.2851  0.7771 -1.3327
 5386SOL    HW227621   1.026   4.561  12.224  2.0322 -2.0021  0.5833
 5387SOL     OW27622   3.256   3.271  11.247  0.0010 -0.2920  0.0928
 5387SOL    HW127623   3.234   3.263  11.154 -0.8193 -0.7934  0.3351
 5387SOL    HW227624   3.175   3.244  11.289 -0.2946 -0.4911 -0.6064
 5388SOL     OW27625   0.921   0.693   6.423 -0.2691 -0.1111 -0.3000
 5388SOL    HW127626   0.931   0.706   6.517 -2.8071 -2.6318  0.3319
 5388SOL    HW227627   0.829   0.712   6.403 -1.2998 -2.4922  2.1178
 5389SOL     OW27628   2.978   2.406   4.222  0.0389  0.8076  0.1466
 5389SOL    HW127629   3.018   2.330   4.264  1.2438  1.3807  0.0225
 5389SOL    HW227630   3.015   2.396   4.134  1.5503 -0.1202  0.8951
 5390SOL     OW27631   1.972   4.327   6.135 -0.0351 -0.2117 -0.3017
 5390SOL    HW127632   2.017   4.304   6.216  1.8249  0.4300 -1.1335
 5390SOL    HW227633   1.902   4.381   6.170  1.1548 -0.0176  1.7703
 5391SOL     OW27634   4.495   3.325   1.111  0.3702  0.0207  0.5171
 5391SOL    HW127635   4.510   3.407   1.064  3.3987  0.8465  2.9322
 5391SOL    HW227636   4.425   3.279   1.064  0.4876  0.0523  0.3101
 5392SOL     OW27637   1.106   2.952   3.111 -0.5050  0.1124  0.3272
 5392SOL    HW127638   1.103   3.042   3.145  0.7501 -0.1735  1.1757
 5392SOL    HW227639   1.140   2.896   3.180  0.4972 -0.0544 -0.3130
 5393SOL     OW27640   4.662   3.477   9.422  0.1830  0.2404  0.1874
 5393SOL    HW127641   4.656   3.393   9.375  0.2778  0.9553 -1.1133
 5393SOL    HW227642   4.704   3.529   9.354 -0.8163  1.0759  0.2094
 5394SOL     OW27643   0.472   0.484   6.175  0.0159  0.0314 -0.1754
 5394SOL    HW127644   0.515   0.472   6.259 -1.2120  1.1332  0.6115
 5394SOL    HW227645   0.380   0.503   6.194  0.2046  0.4601  0.3184
 5395SOL     OW27646   4.383   4.234   9.082 -0.0935  0.6176 -0.2613
 5395SOL    HW127647   4.453   4.283   9.124  0.4512 -0.2941 -0.0976
 5395SOL    HW227648   4.417   4.228   8.993  0.1651  1.2041 -0.2001
 5396SOL     OW27649   0.767   1.081   2.263 -0.4157 -0.0152 -0.2031
 5396SOL    HW127650   0.802   0.995   2.288 -2.8594 -0.8470  0.4194
 5396SOL    HW227651   0.768   1.082   2.167  1.3466 -1.7622 -0.2213
 5397SOL     OW27652   3.042   3.785   1.892  0.2533  0.1539  0.0432
 5397SOL    HW127653   3.040   3.780   1.797  2.7529 -0.0552  0.0198
 5397SOL    HW227654   3.117   3.840   1.916 -0.4188  0.9028  0.4529
 5398SOL     OW27655   3.544   1.604   3.299 -0.2369  0.0319 -0.1200
 5398SOL    HW127656   3.494   1.648   3.229  2.4503  2.9436 -0.2553
 5398SOL    HW227657   3.492   1.642   3.370  0.8041  0.2860  0.4946
 5399SOL     OW27658   2.480   3.669   6.078  0.5478  0.1908  0.0828
 5399SOL    HW127659   2.443   3.630   5.999 -0.1163 -0.4632  0.7208
 5399SOL    HW227660   2.410   3.641   6.137  1.5725 -0.2496  1.0718
 5400SOL     OW27661   2.849   2.999  16.683 -0.2793  0.5212 -0.2111
 5400SOL    HW127662   2.901   2.942  16.741 -2.0951  0.1161  1.0392
 5400SOL    HW227663   2.886   3.081  16.714  0.0021 -0.0890  1.0690
 5401SOL     OW27664   0.490   4.264  16.294  0.0847  0.2553 -0.3623
 5401SOL    HW127665   0.449   4.258  16.380 -0.6922 -0.6950 -0.7962
 5401SOL    HW227666   0.515   4.172  16.279  0.2468 -0.0126  1.5836
 5402SOL     OW27667   3.313   2.593  13.911  0.2291  0.6966  0.3183
 5402SOL    HW127668   3.262   2.667  13.878  2.3030  0.7799 -2.6918
 5402SOL    HW227669   3.303   2.599  14.006  2.2368 -4.8210  0.8597
 5403SOL     OW27670   3.787   2.944   2.700  0.6200 -0.2910 -0.5152
 5403SOL    HW127671   3.765   3.034   2.724 -0.5160 -0.1917 -1.8797
 5403SOL    HW227672   3.704   2.920   2.658  0.6852  0.0992 -0.8689
 5404SOL     OW27673   3.778   1.596  14.324 -0.1111  0.1915  0.7244
 5404SOL    HW127674   3.754   1.659  14.392  0.8232 -2.0624  3.1389
 5404SOL    HW227675   3.873   1.605  14.328 -0.1496 -0.2190  2.6651
 5405SOL     OW27676   4.368   2.980   0.818  0.2544  0.3189 -0.4607
 5405SOL    HW127677   4.325   2.963   0.902  1.2628 -0.4414 -0.0886
 5405SOL    HW227678   4.452   2.941   0.843  0.7483  1.1004 -0.9048
 5406SOL     OW27679   4.492   1.945   2.818 -0.0460  0.3525 -0.4540
 5406SOL    HW127680   4.425   1.979   2.878  1.2165 -1.2030  1.8215
 5406SOL    HW227681   4.526   1.868   2.863 -1.7294 -0.8663 -1.2955
 5407SOL     OW27682   2.768   4.335   4.416  0.2074 -0.6103 -0.2039
 5407SOL    HW127683   2.677   4.343   4.444  0.8451 -0.1152  1.6852
 5407SOL    HW227684   2.806   4.416   4.450 -2.6757  1.4512 -1.9176
 5408SOL     OW27685   3.806   4.424   7.835 -0.1668  0.2247  0.3367
 5408SOL    HW127686   3.814   4.339   7.790 -1.5662 -1.2363  2.8639
 5408SOL    HW227687   3.896   4.424   7.868 -0.1005  2.7699  0.1354
 5409SOL     OW27688   4.289   1.345   4.454  0.1931 -0.2544  0.5645
 5409SOL    HW127689   4.372   1.368   4.495  0.8253 -1.1296 -0.2093
 5409SOL    HW227690   4.264   1.424   4.407 -0.9393 -0.6534  0.4809
 5410SOL     OW27691   3.406   3.866   5.527 -0.2810  0.5671 -0.2405
 5410SOL    HW127692   3.420   3.822   5.443 -1.1132 -1.6822  0.7821
 5410SOL    HW227693   3.336   3.927   5.502 -0.0770  1.7209  2.0668
 5411SOL     OW27694   0.649   4.112  14.904 -0.0663 -0.1766  0.2343
 5411SOL    HW127695   0.604   4.153  14.977 -1.3702 -0.4458 -0.4209
 5411SOL    HW227696   0.660   4.174  14.832 -1.0594  0.0289  0.2559
 5412SOL     OW27697   4.672   2.403  12.124  0.3579 -0.5032 -0.3046
 5412SOL    HW127698   4.598   2.348  12.098  0.9809 -1.1829 -0.6516
 5412SOL    HW227699   4.679   2.386  12.218  0.7865  0.0791 -0.2314
 5413SOL     OW27700   2.200   3.699   6.488 -0.1151 -0.6431  0.6520
 5413SOL    HW127701   2.127   3.645   6.517 -2.4955  1.9153 -0.5723
 5413SOL    HW227702   2.159   3.776   6.449  1.7251 -0.2394 -0.4766
 5414SOL     OW27703   2.733   1.037  13.398 -0.1833 -0.7335 -0.3503
 5414SOL    HW127704   2.695   1.080  13.321 -0.9821 -0.1426  0.3731
 5414SOL    HW227705   2.738   0.946  13.370  2.4807 -0.5924 -0.3575
 5415SOL     OW27706   2.703   2.208  16.882  0.2372  0.0465 -0.0063
 5415SOL    HW127707   2.659   2.286  16.917 -2.3145 -1.0059 -0.8322
 5415SOL    HW227708   2.781   2.214  16.937  1.1855  1.3474 -1.5052
 5416SOL     OW27709   4.211   3.314   1.075  0.7947  0.4574 -0.1297
 5416SOL    HW127710   4.218   3.336   0.982  4.0326 -0.1683 -0.0514
 5416SOL    HW227711   4.141   3.366   1.113  0.9512  0.4320  0.1962
 5417SOL     OW27712   3.210   1.141   9.558  0.1695 -0.0429 -0.1643
 5417SOL    HW127713   3.278   1.183   9.505  0.1749  0.6263  0.3716
 5417SOL    HW227714   3.270   1.091   9.614  0.1376 -1.1153 -1.0833
 5418SOL     OW27715   0.028   0.724   7.465  0.5467 -0.0470 -0.1862
 5418SOL    HW127716   4.696   0.798   7.441  0.0787 -0.2426  0.3114
 5418SOL    HW227717   4.692   0.656   7.434 -1.9361  1.7936  0.5368
 5419SOL     OW27718   4.312   3.415   2.794  0.3032 -0.2416  0.7010
 5419SOL    HW127719   4.404   3.393   2.807  0.3100 -0.1333  0.8296
 5419SOL    HW227720   4.283   3.461   2.873  0.6393  0.7264  0.2548
 5420SOL     OW27721   0.560   2.824   3.548  0.1234 -0.1723  0.1541
 5420SOL    HW127722   0.607   2.904   3.524 -0.3470 -0.1984 -0.8326
 5420SOL    HW227723   0.605   2.753   3.501  0.0847 -0.0170 -0.1179
 5421SOL     OW27724   0.072   0.893   3.040 -0.4168 -0.0913  0.4898
 5421SOL    HW127725   0.081   0.810   3.086 -0.4421 -1.5967 -2.2140
 5421SOL    HW227726   0.135   0.950   3.084  0.2076 -0.8604  0.5843
 5422SOL     OW27727   2.337   1.659   1.676  0.4837  0.3938  0.5087
 5422SOL    HW127728   2.283   1.737   1.665 -0.6865 -0.4677  0.2365
 5422SOL    HW227729   2.309   1.634   1.764 -0.6556  0.4744  0.1591
 5423SOL     OW27730   1.666   4.006   6.159 -0.1555  0.1951 -0.2810
 5423SOL    HW127731   1.653   4.035   6.249  1.1690  1.6496 -0.5659
 5423SOL    HW227732   1.599   3.938   6.150  1.7310 -1.8822  1.0905
 5424SOL     OW27733   0.253   4.105  15.799 -0.1342 -0.2560  0.5821
 5424SOL    HW127734   0.225   4.192  15.829  1.2893  1.6376 -3.5753
 5424SOL    HW227735   0.259   4.059  15.883 -5.0513 -2.3076 -0.2042
 5425SOL     OW27736   1.027   2.857   6.433  0.1480  0.4939 -0.1987
 5425SOL    HW127737   0.951   2.868   6.376  0.3120 -1.2642 -0.7588
 5425SOL    HW227738   1.024   2.938   6.485  0.3732  0.6653 -0.4503
 5426SOL     OW27739   0.664   2.686   1.120  0.2928  0.0766  0.1842
 5426SOL    HW127740   0.624   2.602   1.099 -2.1156  1.3887 -0.5748
 5426SOL    HW227741   0.662   2.733   1.037  0.8074  0.0441  0.1533
 5427SOL     OW27742   0.814   2.571  16.228  0.3010  0.4629  0.2198
 5427SOL    HW127743   0.848   2.488  16.195 -1.7832 -0.7528  1.1671
 5427SOL    HW227744   0.831   2.627  16.153 -0.2706  1.1426  0.6016
 5428SOL     OW27745   0.392   1.850   9.088 -0.8043  0.5217 -0.5430
 5428SOL    HW127746   0.420   1.921   9.030  0.1993 -1.3486 -2.2968
 5428SOL    HW227747   0.334   1.911   9.135  1.2767  0.8657  1.5509
 5429SOL     OW27748   0.768   0.274   8.905 -0.1339 -0.4663  0.2574
 5429SOL    HW127749   0.857   0.272   8.940 -0.0635 -0.9304  0.0532
 5429SOL    HW227750   0.716   0.247   8.981  0.5345  1.2613  1.3293
 5430SOL     OW27751   1.816   2.524   2.385  0.0342 -0.0828  0.4463
 5430SOL    HW127752   1.868   2.599   2.411 -2.5344  1.4873  1.0193
 5430SOL    HW227753   1.848   2.454   2.443 -2.7109 -1.6323  0.1275
 5431SOL     OW27754   0.804   1.157  10.634  0.0523 -0.2553  0.5315
 5431SOL    HW127755   0.736   1.093  10.651 -0.8983  0.8441  0.8518
 5431SOL    HW227756   0.847   1.166  10.719  0.5886 -1.8653  0.4251
 5432SOL     OW27757   1.999   3.389  11.181 -0.0839  0.1021  0.1100
 5432SOL    HW127758   2.068   3.452  11.201 -0.4204  0.1661  1.0444
 5432SOL    HW227759   2.050   3.311  11.158  0.0001 -0.4620  2.2061
 5433SOL     OW27760   2.528   4.581   3.920 -0.2780 -0.1301 -0.1263
 5433SOL    HW127761   2.611   4.547   3.954 -0.5382 -2.1991 -1.5567
 5433SOL    HW227762   2.562   4.603   3.833  1.3832  1.3237  0.8856
 5434SOL     OW27763   2.096   0.787  11.241 -0.2001  0.5808 -0.4015
 5434SOL    HW127764   2.100   0.763  11.148 -0.8434  0.4334 -0.3857
 5434SOL    HW227765   2.123   0.705  11.282 -1.9616 -0.7266 -1.8823
 5435SOL     OW27766   3.272   3.379   7.585 -0.1675 -0.1333  0.3315
 5435SOL    HW127767   3.240   3.447   7.526  0.2076  1.2552  1.7083
 5435SOL    HW227768   3.286   3.303   7.530  1.3439 -0.6404  1.4103
 5436SOL     OW27769   3.855   0.278  14.269  0.4738  0.1154  0.1600
 5436SOL    HW127770   3.863   0.223  14.347 -1.4557 -0.0780  0.2115
 5436SOL    HW227771   3.771   0.320  14.283  0.9933  2.1639 -2.9392
 5437SOL     OW27772   1.519   3.084   2.744 -0.4879  0.1365 -0.4463
 5437SOL    HW127773   1.598   3.045   2.784  0.1782  1.2494 -0.6839
 5437SOL    HW227774   1.450   3.029   2.780  0.0770  1.4886  2.6843
 5438SOL     OW27775   3.735   1.502  11.251 -0.2767 -0.2061  0.3716
 5438SOL    HW127776   3.677   1.426  11.244 -1.0682  0.0627  4.0514
 5438SOL    HW227777   3.686   1.556  11.313 -0.8006 -3.0907  2.4874
 5439SOL     OW27778   3.645   3.781   9.187  0.0359  0.8089  0.3295
 5439SOL    HW127779   3.682   3.708   9.236 -2.5304 -1.3950 -1.0122
 5439SOL    HW227780   3.668   3.858   9.239  1.7756 -0.4049  1.3324
 5440SOL     OW27781   4.706   4.591   8.956  0.1935  0.5643 -0.0331
 5440SOL    HW127782   0.010   4.602   8.865  1.9072 -2.0300  0.1849
 5440SOL    HW227783   0.064   4.605   9.002 -0.1374  0.9730  0.4301
 5441SOL     OW27784   3.977   0.675   3.736  0.1263  0.0318 -0.1497
 5441SOL    HW127785   4.043   0.650   3.801 -0.0177 -1.0777 -0.4306
 5441SOL    HW227786   3.952   0.596   3.687 -0.8383  0.1771  0.1112
 5442SOL     OW27787   2.234   0.259  13.696  0.1003 -0.4381 -0.2349
 5442SOL    HW127788   2.150   0.231  13.659  1.1794  1.2125 -3.9068
 5442SOL    HW227789   2.203   0.308  13.772  2.4624 -1.2652  1.2747
 5443SOL     OW27790   2.414   3.832  16.042  0.3782 -0.7125  0.5819
 5443SOL    HW127791   2.462   3.847  15.960 -0.9159  0.5154  0.0421
 5443SOL    HW227792   2.327   3.835  16.002  0.8372 -1.1529 -0.4808
 5444SOL     OW27793   2.254   1.083   5.510  0.1154 -0.2040  0.3432
 5444SOL    HW127794   2.275   1.176   5.518  0.4959 -0.4456  2.2692
 5444SOL    HW227795   2.291   1.054   5.593  0.7457 -3.2929 -0.9986
 5445SOL     OW27796   4.537   0.930   7.488 -0.3045 -0.4112  0.0049
 5445SOL    HW127797   4.515   0.858   7.430  1.2927 -0.3688 -0.6532
 5445SOL    HW227798   4.538   1.009   7.435 -0.8007 -0.9622 -0.8064
 5446SOL     OW27799   2.437   1.554   3.496 -0.3325 -0.2552  0.4743
 5446SOL    HW127800   2.510   1.518   3.445 -0.2226 -1.9058  1.7915
 5446SOL    HW227801   2.487   1.608   3.558 -0.2603 -0.1075  0.2875
 5447SOL     OW27802   2.127   2.990   6.221  0.9936  0.3061  0.0241
 5447SOL    HW127803   2.215   2.962   6.244  1.0352 -1.0594 -1.8005
 5447SOL    HW227804   2.120   3.080   6.253  1.6319 -0.1586  1.4733
 5448SOL     OW27805   2.105   1.568   0.649 -0.1921 -0.1111  0.6466
 5448SOL    HW127806   2.120   1.647   0.597  2.3542 -0.7161  0.4311
 5448SOL    HW227807   2.117   1.603   0.738 -0.4136 -0.8484  0.9623
 5449SOL     OW27808   2.089   3.198  10.363  0.4810  0.4843  0.6967
 5449SOL    HW127809   2.073   3.159  10.449  0.2675  0.6574  0.7335
 5449SOL    HW227810   2.094   3.285  10.402 -2.6325  0.0885  1.9950
 5450SOL     OW27811   4.037   3.257   6.368  0.4403  0.8980 -0.0003
 5450SOL    HW127812   4.003   3.215   6.447 -2.9276  3.0387 -0.3279
 5450SOL    HW227813   4.115   3.300   6.403  0.9163 -1.6294  2.0490
 5451SOL     OW27814   3.293   1.344  17.556  0.2862 -0.0634  0.9689
 5451SOL    HW127815   3.358   1.293  17.507  0.1112  1.2411 -0.5992
 5451SOL    HW227816   3.215   1.291  17.539  1.5409 -0.2807 -4.0830
 5452SOL     OW27817   2.207   4.689  11.688  0.3817 -0.2186 -0.1091
 5452SOL    HW127818   2.279   4.658  11.632  1.8212  1.5250  0.7666
 5452SOL    HW227819   2.160   0.027  11.633 -3.2558 -1.0489  2.0342
 5453SOL     OW27820   4.050   1.631  11.130 -0.0765  0.0402  0.0244
 5453SOL    HW127821   4.125   1.630  11.070  0.6633  2.5729  0.9062
 5453SOL    HW227822   4.099   1.650  11.210  1.2244 -1.6851 -0.3711
 5454SOL     OW27823   0.885   0.634   7.459  0.2834 -0.2356  0.3343
 5454SOL    HW127824   0.852   0.607   7.373 -0.8656  0.9077  0.4203
 5454SOL    HW227825   0.976   0.654   7.439  0.5126 -0.3181  1.3350
 5455SOL     OW27826   3.357   1.501   7.208 -0.5013 -0.4955 -0.2772
 5455SOL    HW127827   3.380   1.500   7.300  0.0302  2.3430 -0.4048
 5455SOL    HW227828   3.427   1.443   7.176 -0.0569 -0.9132  1.4386
 5456SOL     OW27829   1.973   4.473   3.228 -0.2722 -0.1078  0.4854
 5456SOL    HW127830   2.010   4.398   3.180 -1.9915  0.0568 -1.0951
 5456SOL    HW227831   1.961   4.436   3.316  2.6377  0.8797  1.3065
 5457SOL     OW27832   0.339   0.523  13.544  0.0542 -0.2932 -0.5027
 5457SOL    HW127833   0.427   0.557  13.523 -0.0804 -0.7094 -1.7225
 5457SOL    HW227834   0.297   0.606  13.568 -0.6497 -0.5018 -1.0315
 5458SOL     OW27835   0.682   1.362  13.640 -0.2189 -0.1414 -0.3252
 5458SOL    HW127836   0.600   1.410  13.636 -0.5719 -0.8417 -1.4424
 5458SOL    HW227837   0.737   1.427  13.595 -1.2407  0.1777 -1.1272
 5459SOL     OW27838   2.235   4.719   3.269  0.4212 -0.7552 -0.1013
 5459SOL    HW127839   2.271   4.678   3.190  2.1030  1.1829 -0.3451
 5459SOL    HW227840   2.151   4.674   3.269  0.1650 -0.2759  0.0448
 5460SOL     OW27841   2.715   4.671   1.822  1.0588 -0.0309 -0.3693
 5460SOL    HW127842   2.671   4.586   1.821  0.8038  0.0724  1.0004
 5460SOL    HW227843   2.804   4.637   1.825  0.9163 -0.2270  1.6005
 5461SOL     OW27844   3.542   3.191   8.620  0.5647 -0.0359  0.1931
 5461SOL    HW127845   3.540   3.215   8.527  0.3282  3.7765  1.1937
 5461SOL    HW227846   3.577   3.270   8.661 -2.4570  1.3256  0.2092
 5462SOL     OW27847   1.068   2.403   2.157 -0.1376  0.5205 -0.4797
 5462SOL    HW127848   1.071   2.489   2.115 -0.4510  0.3161 -0.9179
 5462SOL    HW227849   1.162   2.399   2.175 -0.3270  0.8398  0.6038
 5463SOL     OW27850   3.459   0.119   2.301 -0.1483 -0.1517 -0.2914
 5463SOL    HW127851   3.378   0.102   2.349 -1.0871  0.8527 -1.5156
 5463SOL    HW227852   3.425   0.170   2.227  0.2914 -0.5678 -0.7785
 5464SOL     OW27853   0.536   4.661   5.467 -0.6368  0.1884 -0.5383
 5464SOL    HW127854   0.531   4.640   5.560  1.3466  0.7537 -0.3098
 5464SOL    HW227855   0.538   0.031   5.482  0.7351 -0.1264  1.2363
 5465SOL     OW27856   0.365   2.324   7.827  0.6089 -0.0550  0.6779
 5465SOL    HW127857   0.303   2.381   7.872  0.2293 -0.3607  0.5428
 5465SOL    HW227858   0.374   2.241   7.873 -1.9346 -0.4344  0.5029
 5466SOL     OW27859   2.510   3.673  11.314  0.1327 -0.1590 -0.4519
 5466SOL    HW127860   2.473   3.761  11.306  0.4842 -0.0973 -1.4112
 5466SOL    HW227861   2.560   3.668  11.233 -2.2849 -1.0505 -1.8886
 5467SOL     OW27862   3.048   4.199   7.332 -0.1433 -0.3467 -0.8430
 5467SOL    HW127863   3.095   4.193   7.249 -4.2554  0.1432 -3.2108
 5467SOL    HW227864   3.081   4.125   7.383  2.9170  1.8048  0.2646
 5468SOL     OW27865   2.443   3.152   7.068  0.5090  0.2537  0.0312
 5468SOL    HW127866   2.521   3.120   7.112 -0.2784 -1.7955 -0.0904
 5468SOL    HW227867   2.377   3.117   7.127 -0.3833  2.3809  0.3173
 5469SOL     OW27868   2.421   4.012   8.936 -0.0812  0.0298 -0.3199
 5469SOL    HW127869   2.513   4.016   8.912  0.5070 -0.0368  1.9373
 5469SOL    HW227870   2.395   4.102   8.918  0.7150  0.7086  2.0049
 5470SOL     OW27871   2.342   1.874  12.557 -0.5578 -0.3600 -0.1339
 5470SOL    HW127872   2.416   1.849  12.500 -2.8349 -0.7614 -2.9062
 5470SOL    HW227873   2.293   1.933  12.499 -0.6883 -0.6343 -0.3043
 5471SOL     OW27874   3.488   2.900  17.239 -0.2313 -0.2204  0.1311
 5471SOL    HW127875   3.501   2.853  17.322  1.0772  0.0857  0.0919
 5471SOL    HW227876   3.535   2.845  17.176  3.3665  0.9129  1.8502
 5472SOL     OW27877   2.095   1.504   3.688 -0.2108  0.0188  0.1791
 5472SOL    HW127878   2.036   1.444   3.644  0.0338 -2.0194  2.5983
 5472SOL    HW227879   2.088   1.573   3.622  1.4070 -1.2652 -1.3155
 5473SOL     OW27880   1.811   2.414   2.116  0.1271  0.3083  0.1593
 5473SOL    HW127881   1.830   2.440   2.206  2.0040  0.5113 -0.2969
 5473SOL    HW227882   1.832   2.321   2.127  1.7631  0.4416 -1.9384
 5474SOL     OW27883   4.164   4.232   7.345 -0.4230 -0.1875 -0.0408
 5474SOL    HW127884   4.217   4.309   7.369 -1.1545  0.4412 -0.4354
 5474SOL    HW227885   4.205   4.224   7.259 -2.4957 -0.7328 -0.9720
 5475SOL     OW27886   0.579   3.626  14.475  0.0532  0.1003  0.2707
 5475SOL    HW127887   0.498   3.677  14.470  0.0258 -0.1637 -1.8676
 5475SOL    HW227888   0.544   3.547  14.434 -1.0310  0.3821  0.6359
 5476SOL     OW27889   1.797   2.816   8.245  0.3293 -1.1001 -0.0129
 5476SOL    HW127890   1.747   2.759   8.304  0.6321 -1.8762 -0.5069
 5476SOL    HW227891   1.787   2.906   8.275  2.0746  0.1935 -3.2782
 5477SOL     OW27892   0.114   2.235   0.307 -0.3455 -0.3980 -0.3584
 5477SOL    HW127893   0.131   2.142   0.322 -0.1891 -0.2377  0.4988
 5477SOL    HW227894   0.068   2.273   0.382  0.3119 -2.0106  0.8781
 5478SOL     OW27895   1.050   0.687   7.072 -0.2099 -0.1924 -0.0927
 5478SOL    HW127896   1.091   0.625   7.132 -0.8648  1.1635  1.7907
 5478SOL    HW227897   1.093   0.660   6.992  1.5051 -3.1388  1.8185
 5479SOL     OW27898   2.560   2.721   6.515 -0.0875  0.4823 -0.1336
 5479SOL    HW127899   2.537   2.776   6.589  0.6082  0.8008 -0.1554
 5479SOL    HW227900   2.556   2.778   6.438 -0.1779 -0.8625 -1.1389
 5480SOL     OW27901   3.666   3.897   8.131 -0.2815 -0.6016 -0.4280
 5480SOL    HW127902   3.678   3.886   8.037  2.4084  0.1937 -0.1690
 5480SOL    HW227903   3.642   3.990   8.129 -1.9238 -1.0322 -0.6521
 5481SOL     OW27904   3.488   3.664  12.775  0.0173 -0.1104  0.6528
 5481SOL    HW127905   3.488   3.733  12.710  0.3357 -0.4139  0.3329
 5481SOL    HW227906   3.453   3.594  12.720  1.6750  1.4887 -2.4099
 5482SOL     OW27907   0.299   3.316   5.410 -0.4144 -0.1821 -0.2257
 5482SOL    HW127908   0.251   3.300   5.490  2.8707 -1.4675  1.4872
 5482SOL    HW227909   0.390   3.320   5.439 -1.1813  0.0605  2.1415
 5483SOL     OW27910   3.614   3.119   7.072 -0.4013 -0.0688  0.3350
 5483SOL    HW127911   3.633   3.189   7.010  0.4656 -0.0600  0.6084
 5483SOL    HW227912   3.673   3.141   7.145 -0.4230 -1.2980  0.7263
 5484SOL     OW27913   3.057   0.855  11.731 -0.2789 -0.4142  0.5650
 5484SOL    HW127914   3.043   0.843  11.637  1.7761  1.5390  0.0152
 5484SOL    HW227915   3.152   0.863  11.744 -0.4051  0.0733  1.1982
 5485SOL     OW27916   1.535   4.378   6.755 -0.1723  0.4596 -0.0560
 5485SOL    HW127917   1.507   4.351   6.842 -2.3099  0.6919 -0.6703
 5485SOL    HW227918   1.465   4.341   6.701  0.3167  2.3267 -1.9906
 5486SOL     OW27919   3.427   2.942   7.965  0.1284  0.0981  0.0185
 5486SOL    HW127920   3.427   2.926   7.871  0.0295  0.9199 -0.1196
 5486SOL    HW227921   3.435   2.852   7.999  0.9120  0.1594  0.0015
 5487SOL     OW27922   0.373   3.304   4.023 -0.6897 -0.2753 -0.0101
 5487SOL    HW127923   0.351   3.257   4.103 -0.3740 -1.3734 -0.5696
 5487SOL    HW227924   0.296   3.303   3.966 -1.8282  0.2375  1.5306
 5488SOL     OW27925   2.874   4.161   3.803  0.1678  0.2482 -0.3382
 5488SOL    HW127926   2.892   4.201   3.717 -0.5984 -1.2379 -1.1940
 5488SOL    HW227927   2.912   4.073   3.800  2.1414  1.0570  1.4966
 5489SOL     OW27928   0.320   0.463  12.336  0.5655 -0.1693  0.6554
 5489SOL    HW127929   0.390   0.528  12.343  0.0280  0.5722 -0.8872
 5489SOL    HW227930   0.364   0.389  12.378 -0.4083 -0.3479  1.3585
 5490SOL     OW27931   3.537   0.239  11.944 -0.2427 -0.1375 -0.0430
 5490SOL    HW127932   3.586   0.184  11.884 -1.7540 -0.0533 -1.3433
 5490SOL    HW227933   3.608   0.280  11.994  0.3381 -1.1798 -0.0124
 5491SOL     OW27934   0.571   1.396   5.925  0.1203 -0.1854  0.2178
 5491SOL    HW127935   0.560   1.364   6.014  1.3936 -1.0287  0.0718
 5491SOL    HW227936   0.563   1.316   5.872  0.8330 -0.3522  0.3597
 5492SOL     OW27937   4.347   0.023   2.140 -0.1583  0.3563  0.8439
 5492SOL    HW127938   4.341   4.720   2.049 -2.0567  1.3927  0.6772
 5492SOL    HW227939   4.261   4.720   2.172 -1.1918  1.8686 -0.6986
 5493SOL     OW27940   3.626   4.224  12.635 -0.0094  0.2294 -0.3208
 5493SOL    HW127941   3.585   4.291  12.691  0.7947 -0.8177  1.5122
 5493SOL    HW227942   3.645   4.273  12.555  0.5544 -1.2828 -1.1101
 5494SOL     OW27943   3.968   4.213   9.674 -0.7267 -0.2047 -0.0539
 5494SOL    HW127944   3.880   4.187   9.650 -0.6836 -0.8968  0.5328
 5494SOL    HW227945   3.952   4.269   9.751  1.8011  0.1502  0.2366
 5495SOL     OW27946   3.259   2.389  11.509 -0.3283  0.8031 -0.1835
 5495SOL    HW127947   3.353   2.387  11.493 -0.1657 -0.0103  0.8918
 5495SOL    HW227948   3.235   2.477  11.479 -1.2606  0.1233 -1.4400
 5496SOL     OW27949   1.478   3.664  17.431 -0.5756  0.0546 -0.1104
 5496SOL    HW127950   1.550   3.711  17.388 -1.5469  1.5546 -0.0784
 5496SOL    HW227951   1.427   3.737  17.465 -0.2576  0.2501 -0.0515
 5497SOL     OW27952   3.784   2.040   3.033  0.3058  0.1535  0.3767
 5497SOL    HW127953   3.750   2.015   2.947  2.4598  0.6353 -0.5901
 5497SOL    HW227954   3.867   2.083   3.016  0.6766  0.3506  2.6818
 5498SOL     OW27955   4.472   0.453   6.585  0.0334  0.2220  0.4412
 5498SOL    HW127956   4.441   0.364   6.604 -0.5954  0.8330  2.2768
 5498SOL    HW227957   4.451   0.453   6.492  2.3550  0.6092 -0.0942
 5499SOL     OW27958   3.666   1.628   2.940  0.1010  0.3162 -0.2763
 5499SOL    HW127959   3.715   1.592   2.866  0.7532  0.7871 -0.0615
 5499SOL    HW227960   3.727   1.691   2.977  1.2127 -1.1815  0.4383
 5500SOL     OW27961   3.613   4.383  10.723  0.1523 -0.5719 -0.1118
 5500SOL    HW127962   3.639   4.426  10.804 -2.5552  0.9170 -0.0348
 5500SOL    HW227963   3.699   4.374  10.682  0.1262 -1.6203  0.0579
 5501SOL     OW27964   0.076   3.068  15.962 -0.0146 -0.4119 -0.9811
 5501SOL    HW127965   0.091   3.080  16.056 -0.7281  2.4422 -1.2092
 5501SOL    HW227966   0.165   3.040  15.939  0.3807  1.0964 -1.2875
 5502SOL     OW27967   2.523   1.699   5.191 -0.4598 -0.0219  0.2059
 5502SOL    HW127968   2.551   1.709   5.100 -0.3976 -2.4377 -0.0317
 5502SOL    HW227969   2.445   1.754   5.187  0.4943  1.2807 -0.5862
 5503SOL     OW27970   0.741   4.166   5.824  0.1361  0.2305 -0.3221
 5503SOL    HW127971   0.732   4.183   5.730 -0.0932 -1.6742 -0.6359
 5503SOL    HW227972   0.663   4.114   5.846 -0.1053  1.1805  1.1043
 5504SOL     OW27973   0.974   2.646   2.753  0.0924  0.0645 -0.1999
 5504SOL    HW127974   0.968   2.735   2.788 -0.6465  0.0608 -0.3251
 5504SOL    HW227975   1.000   2.600   2.833 -1.8703  1.3881  1.1824
 5505SOL     OW27976   0.204   2.906   4.694  0.0233 -0.2194  0.6212
 5505SOL    HW127977   0.161   2.824   4.720 -0.6512 -0.6136 -1.6778
 5505SOL    HW227978   0.146   2.975   4.726 -0.0744 -0.6044  1.2736
 5506SOL     OW27979   3.941   1.818   6.932 -0.4391 -0.0739  0.1512
 5506SOL    HW127980   3.922   1.889   6.871 -2.2311 -1.8958 -1.4412
 5506SOL    HW227981   3.933   1.748   6.866  0.4402 -0.0380  0.0042
 5507SOL     OW27982   3.268   4.231  11.538  0.1303 -0.4004 -0.2198
 5507SOL    HW127983   3.183   4.193  11.515 -0.7039 -0.2619  2.6210
 5507SOL    HW227984   3.245   4.323  11.520  2.0252  0.0925 -0.1663
 5508SOL     OW27985   3.364   3.361  16.907  0.2924  0.4533  0.7671
 5508SOL    HW127986   3.418   3.360  16.827 -0.7114  0.6423  0.0910
 5508SOL    HW227987   3.341   3.453  16.892  1.7622  0.4692 -1.4414
 5509SOL     OW27988   2.476   2.142   3.254 -0.1773  0.0175  0.3711
 5509SOL    HW127989   2.412   2.209   3.278  0.2783  0.6043 -0.0805
 5509SOL    HW227990   2.412   2.070   3.253 -1.6980  1.3774 -0.5740
 5510SOL     OW27991   1.058   4.313   5.296 -0.3073  0.3231 -0.2568
 5510SOL    HW127992   1.099   4.388   5.252 -0.2622  0.1333 -0.5340
 5510SOL    HW227993   0.978   4.303   5.244 -1.3744  0.7318  1.3028
 5511SOL     OW27994   1.059   0.162   2.462  0.1746 -1.1392 -0.3087
 5511SOL    HW127995   1.008   0.234   2.426  2.0166  0.7273  0.7876
 5511SOL    HW227996   0.992   0.094   2.455 -1.4502  0.3738  0.4310
 5512SOL     OW27997   4.412   0.673   3.806 -0.1623  0.3436  0.2881
 5512SOL    HW127998   4.499   0.634   3.798  0.0700  0.8164  0.5532
 5512SOL    HW227999   4.424   0.742   3.741  0.8899 -0.0358  0.0719
 5513SOL     OW28000   1.359   1.733   6.363  0.8080 -0.5394  0.8088
 5513SOL    HW128001   1.280   1.688   6.394  0.2891 -0.0592  0.1968
 5513SOL    HW228002   1.427   1.734   6.430  0.9914  0.4740  0.6069
 5514SOL     OW28003   1.595   2.885  12.487 -0.3134 -0.2385  0.4953
 5514SOL    HW128004   1.632   2.925  12.566  1.6583 -0.2132 -0.4357
 5514SOL    HW228005   1.503   2.876  12.512 -0.2947  1.1812  1.0964
 5515SOL     OW28006   0.500   4.027   8.776 -0.6920  0.4527 -0.2496
 5515SOL    HW128007   0.484   4.041   8.870  0.7730 -0.8324  0.2086
 5515SOL    HW228008   0.482   4.118   8.754  1.3019  0.5094 -1.6660
 5516SOL     OW28009   2.313   4.541  14.015  0.3269  0.1537 -0.0539
 5516SOL    HW128010   2.355   4.610  14.066 -0.0045 -0.4397  1.0146
 5516SOL    HW228011   2.233   4.527  14.066 -0.2628 -0.2513 -1.0882
 5517SOL     OW28012   3.583   4.022  16.221 -0.0906 -0.4578 -0.2348
 5517SOL    HW128013   3.638   3.944  16.230  1.1299  0.6423  1.7239
 5517SOL    HW228014   3.500   3.979  16.239 -0.7535  0.6160 -0.7127
 5518SOL     OW28015   3.968   4.473   9.123  0.4447  0.1671 -0.2479
 5518SOL    HW128016   4.048   4.460   9.173  1.7706  1.8418 -1.9209
 5518SOL    HW228017   3.959   4.395   9.068  2.8832  0.5774 -1.2005
 5519SOL     OW28018   4.524   3.839   8.262 -0.2635 -0.3092  0.0602
 5519SOL    HW128019   4.456   3.887   8.215  0.6995  1.2044  0.2268
 5519SOL    HW228020   4.531   3.759   8.210  1.2928  0.3622 -0.7579
 5520SOL     OW28021   2.200   0.078   1.942 -0.0592  0.0219 -0.2762
 5520SOL    HW128022   2.125   0.021   1.923  0.9629 -1.1046 -0.8696
 5520SOL    HW228023   2.238   0.072   1.855 -1.8099  1.2370 -1.1178
 5521SOL     OW28024   4.522   3.562   5.087  0.6864  0.4362  0.4144
 5521SOL    HW128025   4.535   3.483   5.035 -1.5544 -0.5591  1.3723
 5521SOL    HW228026   4.467   3.529   5.158 -0.0198  0.3281 -0.1843
 5522SOL     OW28027   0.450   2.072   0.532  0.0846 -0.0459 -0.4288
 5522SOL    HW128028   0.413   1.985   0.520  1.3528 -0.4471 -1.3672
 5522SOL    HW228029   0.396   2.101   0.606  1.3446 -0.5594  0.6755
 5523SOL     OW28030   2.504   2.932  12.434  0.0732 -0.6302 -0.5192
 5523SOL    HW128031   2.464   2.852  12.400 -0.6586 -1.9026  3.3074
 5523SOL    HW228032   2.501   2.916  12.529  1.0984  0.6871 -0.2561
 5524SOL     OW28033   3.914   4.575   6.539  0.4246  0.2836  0.0340
 5524SOL    HW128034   3.869   4.540   6.462  1.2758 -0.8317  0.0474
 5524SOL    HW228035   3.835   4.592   6.590 -0.6852 -0.5166 -1.3967
 5525SOL     OW28036   3.632   2.086   9.083 -0.2826  0.0055 -0.0213
 5525SOL    HW128037   3.605   2.177   9.091 -0.6489 -0.2521  1.8371
 5525SOL    HW228038   3.611   2.060   9.173  0.2015  3.9679  1.2162
 5526SOL     OW28039   0.537   2.717  14.170 -0.7741 -0.2823  0.0442
 5526SOL    HW128040   0.461   2.717  14.112 -1.7830  0.6356  1.3497
 5526SOL    HW228041   0.608   2.689  14.113 -1.9610 -0.5689 -1.2748
 5527SOL     OW28042   1.402   2.476   6.433  0.3167  0.6561  0.2610
 5527SOL    HW128043   1.431   2.413   6.499 -2.2153  0.6678  1.3791
 5527SOL    HW228044   1.465   2.481   6.362 -1.5783  1.2920 -1.3779
 5528SOL     OW28045   0.951   3.099   3.716 -0.4649 -0.2340 -0.7769
 5528SOL    HW128046   0.881   3.049   3.759 -0.6885  0.4600 -0.3406
 5528SOL    HW228047   1.020   3.090   3.783 -0.5650  0.4211 -0.5842
 5529SOL     OW28048   1.409   3.592   5.458 -0.4675  0.3241 -0.0769
 5529SOL    HW128049   1.447   3.640   5.532 -0.2795 -1.3966  0.9600
 5529SOL    HW228050   1.317   3.581   5.482 -0.8147  0.2607 -1.4625
 5530SOL     OW28051   0.712   3.017   3.449 -0.1325 -0.4427 -0.3634
 5530SOL    HW128052   0.800   2.985   3.470  0.3070  0.7987 -0.3408
 5530SOL    HW228053   0.710   3.015   3.353  1.4565  0.5541 -0.4148
 5531SOL     OW28054   2.154   2.305  17.064 -0.1106 -0.0751  0.2234
 5531SOL    HW128055   2.214   2.370  17.102  0.1403  0.0768 -0.4298
 5531SOL    HW228056   2.132   2.329  16.974 -2.0895 -0.3361  0.6343
 5532SOL     OW28057   3.996   1.611   6.017 -0.2983 -0.5361 -0.6307
 5532SOL    HW128058   4.059   1.618   5.946 -0.4722  2.6546 -0.4871
 5532SOL    HW228059   3.982   1.517   6.024  1.1833 -0.7625 -0.6676
 5533SOL     OW28060   3.231   2.556  14.215 -0.0040  0.1483 -0.4218
 5533SOL    HW128061   3.180   2.626  14.254  0.8311 -0.5697  1.9215
 5533SOL    HW228062   3.160   2.495  14.195 -2.6243  1.1530  5.8547
 5534SOL     OW28063   0.163   3.426   9.158  0.1607 -0.6045  0.7513
 5534SOL    HW128064   0.112   3.506   9.167 -0.3290 -0.7745 -0.4957
 5534SOL    HW228065   0.114   3.368   9.215 -3.4468 -0.5427 -2.2764
 5535SOL     OW28066   3.458   1.812   2.774  0.0555 -0.2556 -0.7090
 5535SOL    HW128067   3.537   1.867   2.775  1.0431 -1.6731  0.1119
 5535SOL    HW228068   3.482   1.761   2.852  1.7369  1.9217  0.2282
 5536SOL     OW28069   1.095   3.027   4.564  0.1872  0.5134 -0.0544
 5536SOL    HW128070   1.056   3.110   4.536 -2.4074 -0.6313  0.1880
 5536SOL    HW228071   1.034   2.981   4.620 -1.3755  0.4641 -1.7906
 5537SOL     OW28072   1.479   3.222   4.570 -0.3821  0.7482 -0.5000
 5537SOL    HW128073   1.516   3.197   4.486  1.4290  0.3105  0.4093
 5537SOL    HW228074   1.394   3.257   4.546 -0.1376  0.4234 -1.8060
 5538SOL     OW28075   2.445   2.189   8.470 -0.4347  0.4853 -0.4798
 5538SOL    HW128076   2.440   2.107   8.519  2.6247  1.0548  0.7878
 5538SOL    HW228077   2.534   2.212   8.497 -0.3516  0.2988 -0.5971
 5539SOL     OW28078   4.068   3.112  17.210  0.6532  0.5498  0.2085
 5539SOL    HW128079   4.019   3.056  17.149  1.3583 -1.1374  1.2092
 5539SOL    HW228080   3.992   3.133  17.265 -0.0945 -0.2926 -0.4844
 5540SOL     OW28081   4.378   3.710  14.753 -0.2454 -0.1223 -0.2387
 5540SOL    HW128082   4.411   3.782  14.807  0.0980 -1.0886  0.8671
 5540SOL    HW228083   4.376   3.754  14.669 -1.9306 -0.0514 -0.1502
 5541SOL     OW28084   2.303   0.099   6.357  0.2916  0.0196 -0.3483
 5541SOL    HW128085   2.303   0.025   6.296  2.4249  0.1491 -0.4967
 5541SOL    HW228086   2.315   0.169   6.292 -0.1731  1.1067  0.7322
 5542SOL     OW28087   3.595   1.628   9.675  0.4228  0.3132  0.0815
 5542SOL    HW128088   3.609   1.612   9.582 -0.8981  0.1720 -0.0995
 5542SOL    HW228089   3.685   1.655   9.691  0.6657 -0.4499 -0.0039
 5543SOL     OW28090   0.247   4.649   6.717 -1.6008  0.2770 -0.6360
 5543SOL    HW128091   0.191   4.701   6.659 -0.2580  0.8144 -1.4404
 5543SOL    HW228092   0.194   4.569   6.726 -0.7254  0.0122  2.0756
 5544SOL     OW28093   2.365   2.597   8.532  0.8390 -0.0461 -0.2739
 5544SOL    HW128094   2.287   2.579   8.585  1.0054 -2.0288 -0.6883
 5544SOL    HW228095   2.354   2.519   8.478 -0.9888  0.5323 -0.7236
 5545SOL     OW28096   1.940   1.242   4.964  0.5000  0.2090  0.3171
 5545SOL    HW128097   1.894   1.174   4.915 -1.5905  0.7517  1.5619
 5545SOL    HW228098   1.929   1.221   5.056 -0.3164  0.0230  0.1719
 5546SOL     OW28099   2.107   2.516   4.896 -0.7171  0.1029 -0.3538
 5546SOL    HW128100   2.147   2.447   4.949  0.8489  0.9293 -0.4448
 5546SOL    HW228101   2.103   2.470   4.813  3.7326  0.1038 -0.5772
 5547SOL     OW28102   4.600   0.228   1.702 -0.2165 -0.4912  0.0169
 5547SOL    HW128103   4.645   0.265   1.778 -0.9962 -0.3207  0.3852
 5547SOL    HW228104   4.585   0.141   1.737  1.3719  0.0079  1.9567
 5548SOL     OW28105   2.138   3.179   8.702 -0.0665  0.0335  0.3208
 5548SOL    HW128106   2.072   3.247   8.688  1.2179  1.2845  0.2075
 5548SOL    HW228107   2.160   3.192   8.795 -1.0186  1.7862  0.3057
 5549SOL     OW28108   2.372   0.584   5.271  0.5675 -0.3432  0.3179
 5549SOL    HW128109   2.447   0.609   5.217  1.3598 -0.6557  1.2564
 5549SOL    HW228110   2.358   0.661   5.326 -0.0149 -0.0421 -0.2540
 5550SOL     OW28111   4.527   2.972   2.254 -0.3744 -0.6192  0.6621
 5550SOL    HW128112   4.533   2.889   2.301  0.5190  0.8406  3.1338
 5550SOL    HW228113   4.439   3.003   2.277  0.7130  1.1606  2.4343
 5551SOL     OW28114   0.641   4.003   7.299 -0.2229  0.7864  0.2577
 5551SOL    HW128115   0.701   4.068   7.262  0.8877 -0.5032 -0.1954
 5551SOL    HW228116   0.554   4.032   7.270 -1.7764 -1.5983  2.5029
 5552SOL     OW28117   2.795   2.117   8.544  0.2130 -0.1111 -0.0688
 5552SOL    HW128118   2.795   2.198   8.493  1.8101 -0.9232 -1.3579
 5552SOL    HW228119   2.824   2.143   8.631  0.5908 -1.8109  0.3005
 5553SOL     OW28120   2.325   4.521  17.119  0.5886 -0.3055 -0.0817
 5553SOL    HW128121   2.270   4.595  17.093 -1.3597 -1.1558  1.6331
 5553SOL    HW228122   2.416   4.547  17.104  0.1966  0.8316 -0.5021
 5554SOL     OW28123   3.345   3.446   2.532  0.1415  0.4622  0.4271
 5554SOL    HW128124   3.391   3.529   2.541  3.9529 -1.3808 -1.8741
 5554SOL    HW228125   3.352   3.424   2.439  2.2634 -3.3196  1.4693
 5555SOL     OW28126   4.244   0.081   3.643 -0.2410  0.5838 -0.1551
 5555SOL    HW128127   4.256   0.170   3.677 -0.4436 -0.0830  1.6101
 5555SOL    HW228128   4.323   0.033   3.667 -0.4660  0.2513 -0.0755
 5556SOL     OW28129   0.829   2.045   4.667 -0.4524  0.0631  0.2700
 5556SOL    HW128130   0.829   2.075   4.758  3.1669  1.9380 -0.3087
 5556SOL    HW228131   0.918   2.012   4.655 -0.3091  0.7849 -0.6950
 5557SOL     OW28132   0.697   0.258  11.534 -0.2682 -0.2253 -0.0353
 5557SOL    HW128133   0.753   0.184  11.557  0.5616  0.6045  0.5568
 5557SOL    HW228134   0.729   0.289  11.450 -1.8581 -1.1335 -0.9934
 5558SOL     OW28135   4.232   1.768   8.847 -0.8252 -0.7115 -0.0916
 5558SOL    HW128136   4.274   1.720   8.918  2.0922  0.7375 -0.8244
 5558SOL    HW228137   4.215   1.696   8.787 -0.0562  1.2611 -2.6735
 5559SOL     OW28138   2.919   3.372   1.431  0.2822 -0.1608 -0.2562
 5559SOL    HW128139   2.957   3.284   1.439 -0.2972 -0.5997 -2.2939
 5559SOL    HW228140   2.844   3.359   1.372  0.0459  0.1359 -0.0237
 5560SOL     OW28141   2.862   0.263  13.810 -0.0718  0.3155  0.5300
 5560SOL    HW128142   2.950   0.230  13.792  0.0012  1.6874 -1.5902
 5560SOL    HW228143   2.858   0.353  13.779  0.3791 -0.3654 -1.5047
 5561SOL     OW28144   3.078   4.293   0.418  0.3635  0.0990  0.4905
 5561SOL    HW128145   3.075   4.294   0.323  0.5840  0.2689  0.4848
 5561SOL    HW228146   2.983   4.292   0.427  0.2385 -0.0023 -0.9746
 5562SOL     OW28147   0.293   2.669   2.983 -0.3024 -0.7590  0.0386
 5562SOL    HW128148   0.271   2.751   3.028  0.6412  0.0138 -0.9121
 5562SOL    HW228149   0.321   2.705   2.898 -2.9966  2.6581  0.5520
 5563SOL     OW28150   3.555   1.019   4.099 -0.0266  0.5839  0.1049
 5563SOL    HW128151   3.478   1.025   4.043  0.1092  1.4372  0.0060
 5563SOL    HW228152   3.541   0.935   4.144  0.4406 -0.4780 -1.7349
 5564SOL     OW28153   0.235   0.792  17.483  0.2089  0.2823 -0.7925
 5564SOL    HW128154   0.188   0.787  17.566  0.2866 -1.0294 -0.8239
 5564SOL    HW228155   0.271   0.704  17.472 -2.6811 -1.2273  1.8323
 5565SOL     OW28156   1.095   3.035   2.522 -0.2706 -0.1720  0.1990
 5565SOL    HW128157   1.109   2.969   2.590  0.2960 -0.7275 -0.4532
 5565SOL    HW228158   1.088   3.109   2.582 -0.0002 -1.0619  1.3301
 5566SOL     OW28159   3.181   0.423   7.885  0.1753 -0.4518 -0.3620
 5566SOL    HW128160   3.190   0.443   7.978  1.2117 -1.3775 -0.2593
 5566SOL    HW228161   3.125   0.492   7.849  2.0489  0.7909 -0.8758
 5567SOL     OW28162   4.202   1.559   8.700 -0.0408 -0.0605 -0.4118
 5567SOL    HW128163   4.170   1.476   8.667  2.1462 -0.2504 -2.0805
 5567SOL    HW228164   4.297   1.553   8.687  0.2977 -1.5819  2.7867
 5568SOL     OW28165   4.703   0.145   2.532 -0.1168  0.6509  0.2826
 5568SOL    HW128166   4.664   0.099   2.457 -0.4198 -1.1838  1.5739
 5568SOL    HW228167   4.700   0.235   2.497 -1.4655  1.0530  1.4314
 5569SOL     OW28168   0.196   2.192   2.578  0.3803 -0.3102  0.6985
 5569SOL    HW128169   0.129   2.187   2.647 -1.0718  2.0923 -0.5351
 5569SOL    HW228170   0.186   2.284   2.552  0.6402 -0.2043  0.9668
 5570SOL     OW28171   2.696   3.347   5.907 -0.4404 -0.7624  0.0208
 5570SOL    HW128172   2.686   3.267   5.855 -0.0686 -0.5431 -0.3842
 5570SOL    HW228173   2.626   3.400   5.870 -2.0695 -3.9634 -1.5098
 5571SOL     OW28174   4.373   3.383   7.889  0.7228  0.0471  0.0054
 5571SOL    HW128175   4.330   3.335   7.818  2.3920 -1.0862 -0.2331
 5571SOL    HW228176   4.459   3.373   7.849  0.3254  0.7919 -1.0358
 5572SOL     OW28177   4.532   2.262  14.225 -0.1131  0.3596 -0.0807
 5572SOL    HW128178   4.562   2.311  14.148 -1.0429  0.0502 -0.6344
 5572SOL    HW228179   4.497   2.186  14.179 -0.3550  1.6808 -2.0862
 5573SOL     OW28180   3.741   3.390  16.032  0.0582 -0.3472  0.0895
 5573SOL    HW128181   3.764   3.297  16.022 -0.4591 -0.5132  0.4778
 5573SOL    HW228182   3.727   3.413  15.940 -3.6934  0.9197  0.9859
 5574SOL     OW28183   2.941   1.583   2.836 -0.0466  0.3997 -0.3843
 5574SOL    HW128184   3.022   1.561   2.881  0.4167  0.2236 -1.2978
 5574SOL    HW228185   2.901   1.496   2.825  0.1084  0.2912 -0.0872
 5575SOL     OW28186   2.874   3.408   7.114  0.4394  0.3753  0.5634
 5575SOL    HW128187   2.939   3.478   7.121  1.7481 -0.7886 -0.0330
 5575SOL    HW228188   2.797   3.459   7.140 -0.6395 -0.2347 -1.4186
 5576SOL     OW28189   2.723   1.759   7.669 -0.0388 -0.5693 -0.4250
 5576SOL    HW128190   2.787   1.783   7.603 -2.4811 -0.2610 -2.6805
 5576SOL    HW228191   2.650   1.738   7.611  0.2648  1.0449 -1.3820
 5577SOL     OW28192   1.821   0.405   5.668  0.1425  0.3270  0.7263
 5577SOL    HW128193   1.777   0.339   5.720  0.8532  0.7194  1.8192
 5577SOL    HW228194   1.913   0.377   5.668  0.0497  0.0124 -0.9044
 5578SOL     OW28195   1.612   1.609   3.875  0.6297  0.4388  0.4002
 5578SOL    HW128196   1.601   1.593   3.969  0.8500  0.9034  0.4994
 5578SOL    HW228197   1.520   1.585   3.860  2.0240 -3.7282 -1.6238
 5579SOL     OW28198   3.873   2.289   3.827  0.0582 -0.1883  0.0986
 5579SOL    HW128199   3.788   2.317   3.794 -0.1133 -1.8690 -0.8594
 5579SOL    HW228200   3.885   2.208   3.777 -3.8437 -0.7538  0.0199
 5580SOL     OW28201   0.217   0.075   7.274  0.0377  0.3694  0.0928
 5580SOL    HW128202   0.303   0.035   7.260  0.9234  2.8104 -1.5713
 5580SOL    HW228203   0.184   0.054   7.186  0.1818 -0.5349  0.2553
 5581SOL     OW28204   1.320   0.801  12.910  0.3630 -0.5454  0.0812
 5581SOL    HW128205   1.376   0.878  12.894 -3.4017  2.1558  0.0017
 5581SOL    HW228206   1.361   0.743  12.846  0.3815  1.1896 -1.4569
 5582SOL     OW28207   0.507   2.407   6.704  0.1086  0.2795  0.3469
 5582SOL    HW128208   0.471   2.352   6.634 -0.5848  0.6738  0.3841
 5582SOL    HW228209   0.563   2.467   6.655  0.2001  0.0835  0.2116
 5583SOL     OW28210   2.153   1.186   9.251 -0.2256  0.3367 -0.2879
 5583SOL    HW128211   2.061   1.166   9.267 -0.4173  0.3582 -1.3379
 5583SOL    HW228212   2.164   1.257   9.314  0.6458  1.5526 -1.8177
 5584SOL     OW28213   2.685   2.740  17.275  0.2470 -0.0704 -0.6198
 5584SOL    HW128214   2.706   2.789  17.195 -2.9368  1.2019 -0.6714
 5584SOL    HW228215   2.633   2.801  17.327 -0.4224  0.8451 -2.3804
 5585SOL     OW28216   4.409   2.698   4.978  0.2758 -0.3981  0.1357
 5585SOL    HW128217   4.341   2.630   4.972 -1.5624  1.3064  1.5308
 5585SOL    HW228218   4.414   2.723   4.886 -1.7461 -2.5409 -0.5517
 5586SOL     OW28219   4.621   4.254   7.305  0.3440  0.0071  0.0931
 5586SOL    HW128220   4.575   4.227   7.225  1.1558  0.3866 -0.5044
 5586SOL    HW228221   4.551   4.306   7.345  1.8159  1.4950  0.7367
 5587SOL     OW28222   0.433   0.769   5.558  0.4771  0.1158 -0.0060
 5587SOL    HW128223   0.397   0.749   5.645  1.0654  1.4566  0.5526
 5587SOL    HW228224   0.511   0.714   5.569 -0.5237 -1.1545  0.6188
 5588SOL     OW28225   4.309   4.100   3.635  1.0042  0.7686 -0.5922
 5588SOL    HW128226   4.303   4.116   3.729  4.4571  2.5654 -0.6897
 5588SOL    HW228227   4.287   4.189   3.609  0.9227  1.1904  0.9065
 5589SOL     OW28228   2.383   1.568  14.719 -0.2730  0.3840 -0.1806
 5589SOL    HW128229   2.373   1.596  14.628 -3.0056 -0.4564 -0.1416
 5589SOL    HW228230   2.433   1.644  14.749 -1.0637 -0.1442  2.5305
 5590SOL     OW28231   3.971   4.277   2.401  0.0853  0.3272  0.3314
 5590SOL    HW128232   4.054   4.314   2.373 -0.2686 -0.2198 -1.4645
 5590SOL    HW228233   3.985   4.267   2.495 -0.7058 -0.5803  0.3593
 5591SOL     OW28234   3.687   1.001   4.690 -0.1557  0.3600  0.3511
 5591SOL    HW128235   3.650   1.090   4.691  0.2203  0.5235 -0.1940
 5591SOL    HW228236   3.686   0.978   4.597 -1.9311 -0.5899  0.6045
 5592SOL     OW28237   1.562   3.500   4.815 -0.1719  0.1042  0.2284
 5592SOL    HW128238   1.598   3.529   4.899  0.3341 -0.8690  0.3397
 5592SOL    HW228239   1.641   3.489   4.762  0.2688 -0.5795  1.0215
 5593SOL     OW28240   2.027   1.178  16.993  0.2592  0.0256 -0.0024
 5593SOL    HW128241   1.934   1.175  17.015  0.4187  0.1073  0.6769
 5593SOL    HW228242   2.053   1.086  16.990 -0.9171 -0.3330  0.7551
 5594SOL     OW28243   3.551   3.791  15.790  0.0161 -0.4520  0.0849
 5594SOL    HW128244   3.628   3.795  15.847  0.5069 -4.0121 -0.3340
 5594SOL    HW228245   3.583   3.796  15.700  0.6225  2.2426  0.4345
 5595SOL     OW28246   0.471   1.665  17.680  0.0395 -0.1475  0.0464
 5595SOL    HW128247   0.411   1.604   0.023 -0.0843  0.1098  0.2503
 5595SOL    HW228248   0.518   1.620  17.610 -0.2558  0.9340 -0.8527
 5596SOL     OW28249   2.011   2.284   6.783  0.3607 -0.1912 -0.2841
 5596SOL    HW128250   2.102   2.267   6.808  0.3105  1.4612  1.0285
 5596SOL    HW228251   2.009   2.219   6.712  0.6474 -0.1711 -0.3127
 5597SOL     OW28252   3.970   4.249   6.376  0.1983 -0.3142  0.0612
 5597SOL    HW128253   3.926   4.164   6.383 -1.5024  0.5281 -0.2977
 5597SOL    HW228254   3.895   4.306   6.394  0.3288  0.1756 -0.9380
 5598SOL     OW28255   3.420   1.986  14.293  0.1455  0.5489 -0.6648
 5598SOL    HW128256   3.354   1.962  14.228  0.5881 -4.0501  0.6486
 5598SOL    HW228257   3.380   2.069  14.320 -2.4252 -0.9335  0.0575
 5599SOL     OW28258   0.189   2.819  17.293  0.6607 -0.4891  0.1744
 5599SOL    HW128259   0.182   2.872  17.372 -0.7819  1.7047 -1.4335
 5599SOL    HW228260   0.111   2.765  17.294 -0.3407  0.9512 -0.2499
 5600SOL     OW28261   0.888   2.905  10.649 -0.4608  0.0084  0.0789
 5600SOL    HW128262   0.943   2.920  10.726  1.2394  0.2895 -1.2023
 5600SOL    HW228263   0.838   2.828  10.678  0.6706  0.3930  3.0740
 5601SOL     OW28264   0.780   3.499   3.796  0.1860 -0.1006  0.4247
 5601SOL    HW128265   0.702   3.457   3.759 -0.5317  0.3377  1.4220
 5601SOL    HW228266   0.811   3.542   3.716  0.6988  0.3518  0.8694
 5602SOL     OW28267   3.391   2.678   1.608  0.1568 -0.2619  0.3803
 5602SOL    HW128268   3.481   2.699   1.631  0.2143  0.8239 -0.8019
 5602SOL    HW228269   3.359   2.705   1.693  0.1284 -1.4189  0.7457
 5603SOL     OW28270   0.067   2.431  17.622 -0.3151 -0.2738  0.1304
 5603SOL    HW128271   0.037   2.343  17.597 -0.6503  0.4222 -1.9069
 5603SOL    HW228272   0.148   2.424  17.573 -0.2376  1.9662 -0.0612
 5604SOL     OW28273   0.775   0.786   9.791 -0.0039 -0.3121 -0.0720
 5604SOL    HW128274   0.684   0.797   9.817  0.4324  1.4730  0.7131
 5604SOL    HW228275   0.818   0.817   9.871 -1.4951  1.4391  0.0652
 5605SOL     OW28276   3.136   4.511   7.011 -0.5684 -0.4304  0.1511
 5605SOL    HW128277   3.101   4.423   7.022 -0.8825 -0.4700 -1.2365
 5605SOL    HW228278   3.086   4.557   7.079 -1.4652 -1.5445  0.2465
 5606SOL     OW28279   2.756   2.046  15.934 -0.2821 -0.4779 -0.6402
 5606SOL    HW128280   2.842   2.072  15.968 -1.3425  1.1727  0.7712
 5606SOL    HW228281   2.783   2.024  15.844  2.4924 -1.5418  0.4508
 5607SOL     OW28282   2.462   0.324  13.835  0.2759  0.0684 -0.1987
 5607SOL    HW128283   2.381   0.279  13.812  0.9555 -1.2095 -0.1442
 5607SOL    HW228284   2.473   0.299  13.927 -0.7758  0.1295 -0.0606
 5608SOL     OW28285   0.857   2.464   1.416  0.1157  0.2098 -0.7934
 5608SOL    HW128286   0.770   2.493   1.444  0.1920  0.5115 -0.8721
 5608SOL    HW228287   0.839   2.461   1.322 -1.3231 -1.8768 -0.4589
 5609SOL     OW28288   4.239   2.560   5.348  0.6043 -0.5252  0.5542
 5609SOL    HW128289   4.316   2.598   5.305  0.0705  1.7554  1.5987
 5609SOL    HW228290   4.223   2.632   5.410 -0.9679 -0.9756  0.6666
 5610SOL     OW28291   2.940   3.843   4.995  0.1342  0.0720  0.5707
 5610SOL    HW128292   2.925   3.825   5.088 -2.3140  2.7740  0.6803
 5610SOL    HW228293   3.033   3.865   4.993  0.6608 -2.0719  1.4246
 5611SOL     OW28294   1.196   2.403   6.291 -0.1275 -0.2148 -0.0192
 5611SOL    HW128295   1.274   2.431   6.338 -1.7317  2.8877  0.8479
 5611SOL    HW228296   1.209   2.312   6.267 -2.0207 -0.3558 -0.5213
 5612SOL     OW28297   2.933   2.267   6.388  0.6345  0.5723 -0.4338
 5612SOL    HW128298   2.917   2.286   6.480  5.1920  0.2785  0.4041
 5612SOL    HW228299   3.028   2.258   6.389  0.4679 -0.9283  0.9946
 5613SOL     OW28300   4.309   2.721  17.281 -0.0615  0.0910 -0.1570
 5613SOL    HW128301   4.333   2.781  17.351  1.3241 -1.3971  0.6309
 5613SOL    HW228302   4.224   2.755  17.252 -1.6335 -2.0307  1.9762
 5614SOL     OW28303   1.327   4.120  15.047 -0.3438 -0.3201 -0.2074
 5614SOL    HW128304   1.299   4.205  15.013  0.2373  0.3297  0.9160
 5614SOL    HW228305   1.362   4.081  14.967 -0.1791 -0.0778 -0.2567
 5615SOL     OW28306   1.677   3.153  17.513 -0.0656  0.2796 -0.1859
 5615SOL    HW128307   1.595   3.127  17.471 -0.0502  0.5710 -0.3903
 5615SOL    HW228308   1.666   3.244  17.485  0.8629  0.7987  1.1716
 5616SOL     OW28309   1.763   2.913  14.948 -0.0538  0.3783 -0.5363
 5616SOL    HW128310   1.703   2.937  14.878  0.1459  0.4120 -0.6935
 5616SOL    HW228311   1.705   2.904  15.024  0.3208  1.3812 -0.1343
 5617SOL     OW28312   3.238   3.501   3.687  0.0566 -0.3435 -0.4623
 5617SOL    HW128313   3.185   3.562   3.739 -0.1696 -2.3317  1.6540
 5617SOL    HW228314   3.238   3.554   3.608 -0.8020  2.2784  1.2798
 5618SOL     OW28315   1.009   1.125   6.406  0.3447  0.6427 -0.3652
 5618SOL    HW128316   0.922   1.093   6.383  1.7910 -1.7927 -2.3683
 5618SOL    HW228317   1.018   1.187   6.333 -0.1364 -1.1164 -1.8978
 5619SOL     OW28318   1.117   4.293  12.949 -0.3783 -0.1099 -0.0784
 5619SOL    HW128319   1.086   4.330  12.866 -1.3882 -0.8265 -0.0325
 5619SOL    HW228320   1.056   4.219  12.952 -0.9127  0.2726 -1.2481
 5620SOL     OW28321   4.492   1.247   6.294  0.6264 -0.3219  0.1123
 5620SOL    HW128322   4.465   1.307   6.363 -0.3559 -1.8415  1.0650
 5620SOL    HW228323   4.424   1.269   6.231  1.1382 -0.1357 -0.3705
 5621SOL     OW28324   4.322   0.647  13.091  0.3342 -0.2303  0.4655
 5621SOL    HW128325   4.308   0.645  12.996 -0.1257  1.8663  0.4917
 5621SOL    HW228326   4.252   0.703  13.124  0.1460 -0.1824 -0.0154
 5622SOL     OW28327   3.264   2.971   9.054  0.1305  0.3179 -0.1615
 5622SOL    HW128328   3.299   2.971   9.143  2.9258  1.3238 -1.2506
 5622SOL    HW228329   3.195   3.034   9.076 -1.3213 -0.4141 -2.6195
 5623SOL     OW28330   1.518   2.028  16.805 -0.2804  0.0958  0.6480
 5623SOL    HW128331   1.559   2.100  16.853  2.0362  0.0600 -1.2503
 5623SOL    HW228332   1.531   1.970  16.880  0.6667 -1.2898 -0.5834
 5624SOL     OW28333   2.694   3.183   5.404  0.1561 -0.0339 -0.2586
 5624SOL    HW128334   2.713   3.097   5.366 -0.3475  0.6588 -2.0425
 5624SOL    HW228335   2.777   3.226   5.382 -0.1033  1.1725  1.1077
 5625SOL     OW28336   2.072   3.664   3.981  0.3869 -0.4015 -0.6993
 5625SOL    HW128337   2.008   3.666   3.910  0.1129  0.8165 -0.4176
 5625SOL    HW228338   2.026   3.718   4.045  1.0838 -0.7291  0.0829
 5626SOL     OW28339   2.156   1.434   4.355 -0.2522 -0.0274 -0.2593
 5626SOL    HW128340   2.079   1.405   4.308  0.4188  0.1187 -1.4546
 5626SOL    HW228341   2.144   1.406   4.446  2.7175 -0.9125 -0.1308
 5627SOL     OW28342   4.453   4.461   2.973  0.3658  0.1761 -0.0171
 5627SOL    HW128343   4.397   4.451   3.050 -0.6097  0.4137 -0.7011
 5627SOL    HW228344   4.537   4.458   3.018  0.5722  0.9887 -0.3482
 5628SOL     OW28345   1.086   3.238  11.319  0.1721 -0.1866  0.3994
 5628SOL    HW128346   1.049   3.310  11.371  1.8258  1.4926 -0.7771
 5628SOL    HW228347   1.113   3.182  11.392  1.0013 -0.4915 -0.1475
 5629SOL     OW28348   2.915   1.353   4.234 -0.6222  0.9448  0.3522
 5629SOL    HW128349   2.860   1.339   4.311  1.4696  0.2238  1.7259
 5629SOL    HW228350   2.910   1.448   4.225  2.4580  1.0696 -0.2944
 5630SOL     OW28351   0.541   4.483   4.180  0.1620 -0.0826 -0.3814
 5630SOL    HW128352   0.624   4.442   4.157 -0.0258 -0.0110 -1.2032
 5630SOL    HW228353   0.490   4.402   4.186 -0.9031  0.3423 -3.5563
 5631SOL     OW28354   3.270   1.220   2.170 -0.1624  0.1012  0.2429
 5631SOL    HW128355   3.316   1.208   2.087  1.2831  1.7356  0.7988
 5631SOL    HW228356   3.260   1.129   2.197  1.0468  0.5821  2.2276
 5632SOL     OW28357   4.331   0.513   2.034  0.0417 -0.4551  0.1775
 5632SOL    HW128358   4.330   0.426   2.073  0.8783 -0.0950  1.0159
 5632SOL    HW228359   4.401   0.506   1.970 -0.0064  0.3002  0.0403
 5633SOL     OW28360   1.575   1.535   4.140  0.2276  0.1761  0.1469
 5633SOL    HW128361   1.605   1.444   4.135 -3.1628 -0.8892 -0.1616
 5633SOL    HW228362   1.608   1.554   4.228  1.6068  1.4494 -0.6275
 5634SOL     OW28363   4.135   0.583   5.068 -0.0780 -0.0730  0.3531
 5634SOL    HW128364   4.160   0.491   5.069  0.7295  0.1639  1.8559
 5634SOL    HW228365   4.207   0.608   5.010 -0.9980  1.5698 -0.0747
 5635SOL     OW28366   4.586   2.967   5.806 -0.5665 -0.1649  0.1245
 5635SOL    HW128367   4.545   3.019   5.876 -0.8173 -0.6147  0.3103
 5635SOL    HW228368   4.553   2.881   5.831  2.1190 -1.0580  0.4766
 5636SOL     OW28369   2.840   0.686   6.573  0.3889 -0.0827  0.2922
 5636SOL    HW128370   2.868   0.727   6.655  1.0097  1.5397 -0.7274
 5636SOL    HW228371   2.832   0.599   6.612 -1.9349  0.0650  0.1812
 5637SOL     OW28372   1.471   1.475   2.834 -0.2911 -0.0258 -0.0697
 5637SOL    HW128373   1.455   1.478   2.740 -0.1819 -1.2629 -0.1340
 5637SOL    HW228374   1.466   1.381   2.855  4.2019  0.0331  1.2953
 5638SOL     OW28375   1.413   0.542   3.813 -0.0517 -0.5862 -0.5166
 5638SOL    HW128376   1.472   0.586   3.875 -3.4356  0.5379  1.8678
 5638SOL    HW228377   1.445   0.453   3.830  0.0501 -0.5537 -0.5364
 5639SOL     OW28378   2.640   2.117  13.572 -0.2339  0.0242 -0.2162
 5639SOL    HW128379   2.613   2.207  13.551  1.3490  0.2824 -1.1766
 5639SOL    HW228380   2.571   2.071  13.525  0.0700 -0.1562 -0.4799
 5640SOL     OW28381   1.238   2.949  15.225  0.4199 -0.5632  0.6433
 5640SOL    HW128382   1.158   2.944  15.173 -0.6856 -1.5186  2.4211
 5640SOL    HW228383   1.243   2.858  15.257  0.5916 -1.4268 -1.8367
 5641SOL     OW28384   3.211   2.696   7.824 -0.1386  0.0079  0.1534
 5641SOL    HW128385   3.186   2.745   7.902  0.8658  1.0870 -0.2121
 5641SOL    HW228386   3.127   2.661   7.792 -0.0851 -1.1681  1.2847
 5642SOL     OW28387   1.200   0.787  15.189 -0.2068  0.0687  0.5608
 5642SOL    HW128388   1.270   0.800  15.254 -0.4302  0.1412  0.7890
 5642SOL    HW228389   1.180   0.877  15.163 -0.7704 -0.6337 -1.3965
 5643SOL     OW28390   4.529   2.051   4.595  0.6906 -0.0988 -0.2342
 5643SOL    HW128391   4.566   1.963   4.598 -0.2224 -0.4593  0.4967
 5643SOL    HW228392   4.511   2.063   4.688 -0.4121 -0.9111 -0.3392
 5644SOL     OW28393   0.198   4.042  14.346  0.1792  0.2771  0.1223
 5644SOL    HW128394   0.281   3.994  14.340 -1.5041 -2.1857 -3.3252
 5644SOL    HW228395   0.229   4.132  14.354  2.2388 -0.1014 -3.5702
 5645SOL     OW28396   2.264   2.918  11.164 -0.0007 -0.0370 -0.1711
 5645SOL    HW128397   2.326   2.870  11.219  1.6930  1.3410 -0.8728
 5645SOL    HW228398   2.185   2.926  11.218 -0.1039  0.0137 -0.3321
 5646SOL     OW28399   0.792   2.054  13.586 -0.7969  0.1922  0.1614
 5646SOL    HW128400   0.790   2.125  13.522 -0.1236 -0.7369 -0.8967
 5646SOL    HW228401   0.854   2.103  13.640 -3.3686  2.8711  0.6472
 5647SOL     OW28402   0.311   2.415  17.505 -0.1032  0.4628  0.3466
 5647SOL    HW128403   0.302   2.459  17.420  3.1462  2.7213  1.1991
 5647SOL    HW228404   0.406   2.403  17.508 -0.3751 -1.2558  1.9926
 5648SOL     OW28405   4.034   1.351   9.923 -0.3155 -0.2107 -0.0445
 5648SOL    HW128406   4.129   1.357   9.909 -0.4278 -0.3580 -0.8287
 5648SOL    HW228407   4.017   1.428   9.868  3.1952  0.7594  0.2098
 5649SOL     OW28408   2.025   1.929   5.044  0.0178 -0.0257  0.4658
 5649SOL    HW128409   2.017   2.011   5.092 -1.1045  0.6243 -0.8475
 5649SOL    HW228410   2.015   1.964   4.955 -0.3481 -0.1266  0.4658
 5650SOL     OW28411   2.257   2.387   5.722  0.5689  0.3692  0.6116
 5650SOL    HW128412   2.248   2.353   5.811 -0.6490 -1.5234 -0.2456
 5650SOL    HW228413   2.173   2.433   5.724  1.0026  1.1406  1.2971
 5651SOL     OW28414   3.009   1.166   5.442 -0.6163  0.1947  0.2706
 5651SOL    HW128415   3.008   1.130   5.530 -2.0269 -1.0544 -0.2587
 5651SOL    HW228416   2.921   1.162   5.405 -0.5726  1.8629 -0.0265
 5652SOL     OW28417   3.617   1.078   5.591  0.3512  0.3345  0.1784
 5652SOL    HW128418   3.580   1.159   5.628 -1.6756 -0.4686 -0.0674
 5652SOL    HW228419   3.534   1.044   5.557  0.6071  1.7338 -1.8678
 5653SOL     OW28420   3.632   2.492   8.848 -0.1600  0.0300  0.0389
 5653SOL    HW128421   3.552   2.445   8.824  0.6964 -0.9355 -0.9341
 5653SOL    HW228422   3.691   2.474   8.774 -0.6997  2.1202 -0.9170
 5654SOL     OW28423   0.886   2.286   3.817  0.3312  0.1754  0.2063
 5654SOL    HW128424   0.917   2.288   3.726 -0.3662  1.5389 -0.0131
 5654SOL    HW228425   0.904   2.375   3.848  3.5179 -0.8640  1.2801
 5655SOL     OW28426   2.416   2.369   3.514 -0.5863 -0.1624  0.1005
 5655SOL    HW128427   2.407   2.459   3.546 -0.0802 -0.6999  1.7438
 5655SOL    HW228428   2.349   2.367   3.446 -1.1538  0.2880  0.6494
 5656SOL     OW28429   3.410   1.627   7.936  0.2487 -0.8821  0.1597
 5656SOL    HW128430   3.324   1.662   7.910  0.7749  0.4349  0.1921
 5656SOL    HW228431   3.445   1.702   7.984 -0.6693 -0.2130 -0.1962
 5657SOL     OW28432   0.598   1.745   7.825 -0.2833 -0.0616  0.3554
 5657SOL    HW128433   0.584   1.769   7.917 -0.3810  1.0376  0.0548
 5657SOL    HW228434   0.582   1.830   7.783  0.6345  0.2298  0.5944
 5658SOL     OW28435   0.288   4.469   4.644  0.1984 -0.3951 -0.2735
 5658SOL    HW128436   0.368   4.439   4.602 -1.0183 -2.6705 -1.0049
 5658SOL    HW228437   0.314   4.482   4.735 -3.5123  0.6780  0.6679
 5659SOL     OW28438   0.692   4.445  11.971 -0.5900 -0.5865 -0.2973
 5659SOL    HW128439   0.723   4.530  11.941 -1.2543  0.1010  0.9619
 5659SOL    HW228440   0.660   4.464  12.059 -0.5434  0.6597 -0.5466
 5660SOL     OW28441   0.261   3.272   1.144  0.5746  0.2162  0.1476
 5660SOL    HW128442   0.303   3.207   1.088 -2.1847 -0.9972 -0.4616
 5660SOL    HW228443   0.179   3.279   1.095  0.9527  0.9113 -0.3929
 5661SOL     OW28444   0.944   0.835   2.928 -0.3946  0.3672  0.4669
 5661SOL    HW128445   0.988   0.789   2.857 -0.2981  1.7392 -0.3555
 5661SOL    HW228446   0.867   0.779   2.941  1.1470 -2.3254 -1.8393
 5662SOL     OW28447   2.511   4.567   7.341 -0.1361 -0.3876  0.4985
 5662SOL    HW128448   2.571   4.494   7.327  2.0845  1.9047 -1.7478
 5662SOL    HW228449   2.495   4.601   7.253  1.3304 -1.5148 -0.1906
 5663SOL     OW28450   1.574   3.685  15.525 -0.0970 -0.5521 -0.0598
 5663SOL    HW128451   1.503   3.689  15.461 -0.7150 -0.3385  0.6311
 5663SOL    HW228452   1.646   3.720  15.474  0.0716 -2.0493 -0.8646
 5664SOL     OW28453   4.697   2.905   1.123  0.0412 -0.0753  0.0592
 5664SOL    HW128454   4.686   2.922   1.030  1.0055 -0.5353 -0.1371
 5664SOL    HW228455   4.612   2.939   1.150  0.5339  1.2208 -0.0081
 5665SOL     OW28456   2.411   0.955   3.337  0.1567  0.1754  0.2011
 5665SOL    HW128457   2.391   0.863   3.353  0.5095  0.0866  0.1265
 5665SOL    HW228458   2.379   0.969   3.247 -2.4559 -0.9036  0.9626
 5666SOL     OW28459   2.807   1.124   2.433  0.6801  0.2847 -0.0405
 5666SOL    HW128460   2.853   1.065   2.373 -1.9608 -1.6439 -0.2017
 5666SOL    HW228461   2.716   1.123   2.403  1.1799  1.9770 -1.5801
 5667SOL     OW28462   2.256   0.725   4.810  0.2644 -0.0474 -0.3079
 5667SOL    HW128463   2.232   0.662   4.742  0.2169 -0.6250  0.2505
 5667SOL    HW228464   2.302   0.667   4.871  1.2071  0.7896 -0.2191
 5668SOL     OW28465   1.520   4.005  17.180 -0.9221  0.3245  0.6333
 5668SOL    HW128466   1.547   4.013  17.089  1.8336  1.2200  1.5436
 5668SOL    HW228467   1.523   4.098  17.202  0.5142  0.3222  0.4535
 5669SOL     OW28468   0.216   1.491   6.492 -0.2140 -0.7569 -0.3127
 5669SOL    HW128469   0.150   1.461   6.430  0.2808  1.7558 -2.0320
 5669SOL    HW228470   0.271   1.558   6.451  0.4252 -0.3409  1.2083
 5670SOL     OW28471   4.642   3.659   3.535 -0.5220 -0.4673  0.1497
 5670SOL    HW128472   4.559   3.612   3.532 -2.4736  3.0771 -0.5873
 5670SOL    HW228473   4.646   3.685   3.627 -0.6252 -2.7853  0.7937
 5671SOL     OW28474   1.995   4.480   8.971 -0.3058 -0.2865 -0.1671
 5671SOL    HW128475   1.954   4.470   8.885 -1.4276  1.1550  0.2042
 5671SOL    HW228476   1.923   4.526   9.015  2.4856  3.0598  0.8479
 5672SOL     OW28477   1.858   0.848   5.291 -0.4889  0.5137  0.6037
 5672SOL    HW128478   1.937   0.797   5.307 -0.4559  0.3853  0.0221
 5672SOL    HW228479   1.879   0.923   5.348 -0.0430 -0.1925  1.3750
 5673SOL     OW28480   3.580   2.269   7.401  0.0280 -0.2823  0.1617
 5673SOL    HW128481   3.624   2.250   7.484  1.1508  2.8338  0.2890
 5673SOL    HW228482   3.612   2.351   7.365  0.6491 -0.3548  0.5457
 5674SOL     OW28483   4.105   3.883   8.496 -0.0744 -0.3481 -0.2180
 5674SOL    HW128484   4.125   3.815   8.432  1.9370  0.4009 -0.3896
 5674SOL    HW228485   4.113   3.839   8.580  2.0352 -1.6517 -1.1124
 5675SOL     OW28486   2.416   3.740  16.306  0.2343  0.1512  0.4314
 5675SOL    HW128487   2.438   3.746  16.213 -2.3751  1.3499 -0.1227
 5675SOL    HW228488   2.408   3.645  16.307 -0.4518  0.1941 -0.1380
 5676SOL     OW28489   0.946   1.351  14.947  0.0493  0.3699  0.6403
 5676SOL    HW128490   0.976   1.277  14.999 -1.3023 -0.1649  0.6640
 5676SOL    HW228491   0.976   1.330  14.858  0.6436 -2.3927  1.5051
 5677SOL     OW28492   2.736   1.882   4.449  0.2526  0.3837  0.5486
 5677SOL    HW128493   2.676   1.828   4.397  0.9106 -1.2303  1.4757
 5677SOL    HW228494   2.696   1.882   4.536 -0.1872  1.3992  0.3524
 5678SOL     OW28495   4.391   2.730   5.831 -0.8364  0.4473 -0.4055
 5678SOL    HW128496   4.327   2.774   5.887 -1.6791 -0.9176 -0.3039
 5678SOL    HW228497   4.350   2.644   5.827  0.7955 -0.3944  1.2024
 5679SOL     OW28498   3.028   0.598  14.936 -0.3980  0.3152  0.1576
 5679SOL    HW128499   3.026   0.505  14.916 -3.3260  0.2903  0.5610
 5679SOL    HW228500   3.049   0.631  14.849 -0.3399 -0.8087 -0.2524
 5680SOL     OW28501   0.345   2.468  17.217 -0.2473  0.3491  1.1222
 5680SOL    HW128502   0.256   2.448  17.188  0.9147  1.1515 -3.0839
 5680SOL    HW228503   0.385   2.410  17.151 -1.7216 -0.6671  1.1206
 5681SOL     OW28504   3.956   0.281   3.852 -0.2024 -0.7351  0.2544
 5681SOL    HW128505   4.044   0.285   3.815 -0.1588 -2.0217  0.2176
 5681SOL    HW228506   3.902   0.287   3.774 -0.5571 -1.4908  0.4396
 5682SOL     OW28507   3.480   2.729  13.775 -0.1735 -0.0084 -0.2434
 5682SOL    HW128508   3.434   2.669  13.833 -0.5083  0.8000  0.3293
 5682SOL    HW228509   3.471   2.809  13.827  0.4540 -0.1409  0.0646
 5683SOL     OW28510   0.661   2.485   4.310 -0.6469 -0.2195  0.3545
 5683SOL    HW128511   0.621   2.404   4.344 -2.1586  1.1446  1.8419
 5683SOL    HW228512   0.630   2.548   4.375 -0.3192  0.2175  0.0786
 5684SOL     OW28513   0.915   2.919   2.850  0.3649 -0.4340 -0.2325
 5684SOL    HW128514   0.995   2.935   2.900 -0.5313  0.2330  0.9984
 5684SOL    HW228515   0.853   2.901   2.921  2.7668 -0.1948  1.9118
 5685SOL     OW28516   2.165   3.195   2.012  0.2183  0.2719 -0.1013
 5685SOL    HW128517   2.206   3.228   1.932  0.0693 -0.9223 -0.6687
 5685SOL    HW228518   2.080   3.240   2.012  0.1997  0.2424 -1.3247
 5686SOL     OW28519   0.611   2.243  15.640  0.3755  0.1316 -0.0311
 5686SOL    HW128520   0.595   2.306  15.570  0.9880  0.2206 -0.0877
 5686SOL    HW228521   0.700   2.221  15.614  0.3289  1.3033 -1.1749
 5687SOL     OW28522   3.650   1.326   0.981  0.2654 -0.2759  0.3172
 5687SOL    HW128523   3.693   1.341   1.066  2.2003 -1.3258 -0.4841
 5687SOL    HW228524   3.576   1.279   1.019 -0.1063  1.7649  2.1533
 5688SOL     OW28525   2.610   3.929   9.189  0.3069 -0.2539 -0.0707
 5688SOL    HW128526   2.626   3.912   9.281 -0.0154 -2.5382 -0.4326
 5688SOL    HW228527   2.518   3.958   9.192  0.9288  1.5282  1.5712
 5689SOL     OW28528   4.691   2.553  10.645 -0.3141  0.3982  0.3636
 5689SOL    HW128529   4.706   2.485  10.710  2.7340 -0.9910 -1.7998
 5689SOL    HW228530   0.030   2.521  10.580 -0.1900 -0.2957  0.8319
 5690SOL     OW28531   2.576   3.588   4.590  0.1634  0.2168 -0.1859
 5690SOL    HW128532   2.538   3.506   4.624 -1.4867  0.9718 -0.1952
 5690SOL    HW228533   2.510   3.619   4.528 -1.4363 -1.0839  0.8364
 5691SOL     OW28534   3.628   3.112   0.611  0.0977 -0.0435  0.2723
 5691SOL    HW128535   3.566   3.132   0.542 -0.4985 -1.1910  0.4677
 5691SOL    HW228536   3.567   3.077   0.676  0.1836  0.9399  0.8814
 5692SOL     OW28537   4.282   1.220   8.415 -0.0029 -0.2831 -0.1406
 5692SOL    HW128538   4.335   1.144   8.390  2.0797  1.0272  0.3215
 5692SOL    HW228539   4.350   1.287   8.412 -1.2031  1.0053  1.4180
 5693SOL     OW28540   4.295   3.864  11.642  0.3637 -0.4344 -0.0992
 5693SOL    HW128541   4.206   3.835  11.663  0.9819 -0.6601  2.1752
 5693SOL    HW228542   4.334   3.850  11.728 -0.1675  1.6985  0.4733
 5694SOL     OW28543   0.171   1.915   5.894  0.0438  0.1379 -0.4881
 5694SOL    HW128544   0.186   1.969   5.816 -0.4201 -1.7473 -1.8855
 5694SOL    HW228545   0.163   1.828   5.855 -0.5297  0.6379 -1.5048
 5695SOL     OW28546   3.273   4.143   0.526  0.6838 -0.1237 -0.0021
 5695SOL    HW128547   3.215   4.178   0.458 -1.2426 -0.1447  1.6448
 5695SOL    HW228548   3.282   4.056   0.486 -1.3105 -0.2860 -0.0934
 5696SOL     OW28549   4.353   0.982  11.577  0.4318  0.0114 -0.8554
 5696SOL    HW128550   4.426   1.037  11.604 -0.4116  0.5888  0.2409
 5696SOL    HW228551   4.345   0.998  11.483  3.6054  1.8131 -0.7991
 5697SOL     OW28552   3.738   1.702   0.966 -0.4825  0.5788 -0.2240
 5697SOL    HW128553   3.789   1.631   1.005 -1.1125 -0.5660 -1.5173
 5697SOL    HW228554   3.711   1.662   0.884  0.6991 -0.9954  0.1461
 5698SOL     OW28555   0.393   2.498   2.338 -0.4289 -0.1508  0.1300
 5698SOL    HW128556   0.422   2.533   2.253  4.5930  1.6813  2.5971
 5698SOL    HW228557   0.379   2.404   2.326  0.0562 -0.0970 -0.8506
 5699SOL     OW28558   0.649   2.194   7.494  0.1067 -0.5926  0.0216
 5699SOL    HW128559   0.704   2.272   7.479 -1.2641 -0.0783 -2.3931
 5699SOL    HW228560   0.704   2.151   7.560  0.7902  0.1272 -0.0720
 5700SOL     OW28561   2.592   4.113   5.538  0.3035  0.3315  0.1345
 5700SOL    HW128562   2.557   4.139   5.453 -0.3997  0.4081  0.4538
 5700SOL    HW228563   2.525   4.056   5.574  2.5151 -2.0662  0.4640
 5701SOL     OW28564   4.379   0.292   1.844 -0.4903  0.2471  0.6455
 5701SOL    HW128565   4.437   0.232   1.797 -0.6445  0.3305  0.3512
 5701SOL    HW228566   4.418   0.295   1.932 -0.0717  0.8520  0.4355
 5702SOL     OW28567   2.109   3.043   3.041  0.7303  0.5059 -0.5156
 5702SOL    HW128568   2.144   2.968   3.088 -0.8731 -1.1679 -1.9696
 5702SOL    HW228569   2.043   3.069   3.106  1.1373 -0.1030  0.1332
 5703SOL     OW28570   1.693   4.563   3.892 -0.4728 -0.0811 -0.4552
 5703SOL    HW128571   1.722   4.563   3.801  1.6550 -0.8464  0.2473
 5703SOL    HW228572   1.777   4.565   3.937  1.0207  1.2665 -3.2930
 5704SOL     OW28573   0.126   3.398   0.007  1.0275 -0.0646  0.0877
 5704SOL    HW128574   0.092   3.351  17.629  1.0172  1.3325 -0.7741
 5704SOL    HW228575   0.193   3.451  17.661  1.6143 -1.2062 -0.3918
 5705SOL     OW28576   0.471   2.448   8.143 -0.2568 -0.0770  0.0385
 5705SOL    HW128577   0.390   2.470   8.098  0.7987  0.0945 -1.7618
 5705SOL    HW228578   0.447   2.363   8.182  0.8448 -1.1424 -1.6225
 5706SOL     OW28579   3.553   1.215  12.393  0.5286 -0.6793 -0.2841
 5706SOL    HW128580   3.582   1.304  12.413  2.6278 -1.3221 -0.4728
 5706SOL    HW228581   3.600   1.169  12.462  0.8869 -0.5710 -0.4590
 5707SOL     OW28582   3.375   3.874   9.410 -0.1910 -0.1515  0.2340
 5707SOL    HW128583   3.315   3.819   9.459 -2.2137  1.4637 -0.4532
 5707SOL    HW228584   3.434   3.883   9.485 -1.4157  2.5002  0.8940
 5708SOL     OW28585   1.357   2.932  13.873  0.5565  0.5566 -0.5827
 5708SOL    HW128586   1.404   3.004  13.830  3.2367  1.3623  3.7192
 5708SOL    HW228587   1.314   2.885  13.802 -0.0840  1.5426 -0.8539
 5709SOL     OW28588   4.660   2.504  15.452 -0.1205  0.3453  0.4457
 5709SOL    HW128589   4.673   2.491  15.546  2.5763 -0.1755 -0.0078
 5709SOL    HW228590   0.026   2.520  15.424 -0.2078  1.4341  0.7967
 5710SOL     OW28591   2.031   2.785   1.490  0.4463  0.2291 -0.5593
 5710SOL    HW128592   2.023   2.713   1.428 -0.9938  1.8683 -2.2704
 5710SOL    HW228593   2.122   2.815   1.481  0.5356  0.4612  1.1642
 5711SOL     OW28594   2.313   0.997  11.220  0.1237 -0.5442  0.8131
 5711SOL    HW128595   2.220   0.977  11.234  0.0880 -2.5483 -2.2846
 5711SOL    HW228596   2.341   0.906  11.210  1.5834  0.0643 -0.5398
 5712SOL     OW28597   1.393   4.299   2.792 -0.2350 -0.1520 -0.4243
 5712SOL    HW128598   1.352   4.215   2.814  1.3264 -0.6024  0.7177
 5712SOL    HW228599   1.309   4.345   2.799 -0.4348 -0.5109 -0.4704
 5713SOL     OW28600   4.437   2.082   5.103  0.6753 -0.1386 -0.7039
 5713SOL    HW128601   4.410   2.147   5.168 -0.4547  0.5771 -1.9048
 5713SOL    HW228602   4.366   2.019   5.110 -1.5569  2.4681 -0.0686
 5714SOL     OW28603   2.870   0.033   5.390  0.0819  0.0779  0.3090
 5714SOL    HW128604   2.912   0.018   5.475  3.0673 -0.0373 -1.1858
 5714SOL    HW228605   2.925   0.104   5.360 -2.4496  2.0004  0.2518
 5715SOL     OW28606   2.130   3.227   2.501  0.1279  0.1991 -0.3145
 5715SOL    HW128607   2.109   3.309   2.546 -1.5988  0.1381 -0.9984
 5715SOL    HW228608   2.204   3.261   2.451 -0.1179  0.7999 -0.2784
 5716SOL     OW28609   2.229   2.923  10.200  0.2895  0.5997 -0.4110
 5716SOL    HW128610   2.183   2.865  10.260  0.8492  0.9713  0.3766
 5716SOL    HW228611   2.313   2.879  10.206 -1.5370 -3.2409 -3.4037
 5717SOL     OW28612   2.150   2.690   4.473 -0.3208  0.5981 -0.2763
 5717SOL    HW128613   2.079   2.636   4.439  1.0836 -2.0247  0.9534
 5717SOL    HW228614   2.225   2.653   4.426  1.2268  0.4380  2.3143
 5718SOL     OW28615   2.027   3.394   9.689 -0.3536  0.0220 -0.1212
 5718SOL    HW128616   2.122   3.389   9.697 -0.2025  3.6738  0.3726
 5718SOL    HW228617   2.004   3.417   9.779  0.2959 -0.0348  0.0596
 5719SOL     OW28618   4.397   2.125  10.823  0.2903  0.5225 -0.2887
 5719SOL    HW128619   4.368   2.180  10.895 -0.7359 -1.1863  0.5854
 5719SOL    HW228620   4.408   2.188  10.751  0.5707  1.9508  1.0187
 5720SOL     OW28621   0.156   1.388   3.550 -0.1352 -0.0236  0.1973
 5720SOL    HW128622   0.244   1.352   3.557  0.3558  1.7389  2.8794
 5720SOL    HW228623   0.166   1.466   3.604  2.2716 -0.0377 -0.2476
 5721SOL     OW28624   1.136   2.581   4.200 -0.0222  0.3553 -0.2968
 5721SOL    HW128625   1.068   2.643   4.226  0.5186  1.9637 -2.7407
 5721SOL    HW228626   1.075   2.508   4.185  0.6290  0.1118 -1.7699
 5722SOL     OW28627   2.314   1.181  11.432  0.2239  0.6842  0.5733
 5722SOL    HW128628   2.289   1.109  11.375 -1.3398  1.2156  0.6088
 5722SOL    HW228629   2.360   1.238  11.371  0.6222  1.1936  1.3432
 5723SOL     OW28630   4.249   2.653   0.746  0.3251 -0.5081 -0.1297
 5723SOL    HW128631   4.203   2.735   0.761  2.5570  0.4156  1.5754
 5723SOL    HW228632   4.317   2.650   0.813  1.2087 -2.2920 -1.1005
 5724SOL     OW28633   4.627   2.686   6.814  0.1131 -0.5285 -0.5127
 5724SOL    HW128634   4.664   2.659   6.730  1.3089 -2.0993  0.5176
 5724SOL    HW228635   4.701   2.733   6.853  0.7611 -0.0277 -2.3042
 5725SOL     OW28636   4.240   1.708   0.519 -0.4786  0.3385  0.2119
 5725SOL    HW128637   4.211   1.721   0.429  0.1573 -1.2382 -0.2327
 5725SOL    HW228638   4.158   1.707   0.567 -1.0590  2.2571 -0.7368
 5726SOL     OW28639   0.902   3.521   4.758 -0.4537  0.2566 -0.0424
 5726SOL    HW128640   0.876   3.613   4.747 -0.6678  0.1854 -0.1280
 5726SOL    HW228641   0.954   3.514   4.678 -0.2142  0.4395  0.0977
 5727SOL     OW28642   4.542   1.830   5.169  0.3085  0.1988 -0.1608
 5727SOL    HW128643   4.537   1.923   5.148  1.5360  0.5233  1.0362
 5727SOL    HW228644   4.623   1.804   5.125  0.3782 -1.8854  1.1629
 5728SOL     OW28645   1.828   2.286  14.882  0.3737 -0.1800 -0.3954
 5728SOL    HW128646   1.777   2.205  14.884 -1.2441  0.9448  3.0308
 5728SOL    HW228647   1.771   2.348  14.836  0.9639  0.1198 -0.7224
 5729SOL     OW28648   3.003   2.170   9.529  0.3822  0.1525 -0.1181
 5729SOL    HW128649   3.031   2.260   9.543  0.7034 -0.0099  0.2954
 5729SOL    HW228650   3.015   2.150   9.436  2.2793 -1.6707  0.5197
 5730SOL     OW28651   4.357   2.599   2.139  0.0145 -0.6395  0.7344
 5730SOL    HW128652   4.410   2.679   2.133 -0.3047 -0.4195  0.8554
 5730SOL    HW228653   4.285   2.624   2.080  2.5142  0.5712 -1.8226
 5731SOL     OW28654   4.232   2.338  15.425  0.1668  0.0584 -0.3951
 5731SOL    HW128655   4.168   2.296  15.367 -1.3079 -0.4635  1.6042
 5731SOL    HW228656   4.197   2.304  15.507  0.0369 -0.6912 -0.7552
 5732SOL     OW28657   1.710   3.558   0.684  0.4302  0.0825  0.0189
 5732SOL    HW128658   1.645   3.550   0.753 -1.0207  0.1112 -1.3405
 5732SOL    HW228659   1.731   3.651   0.680 -0.3988  0.2948  0.8571
 5733SOL     OW28660   2.151   4.098   5.142  0.1313 -0.1875  0.5852
 5733SOL    HW128661   2.148   4.101   5.047 -0.3209  0.1530  0.6086
 5733SOL    HW228662   2.131   4.007   5.162  0.4075 -0.2251  0.6907
 5734SOL     OW28663   2.935   2.204  16.140 -0.2934  0.1469 -0.0270
 5734SOL    HW128664   2.888   2.286  16.153  0.1367  0.5393 -0.9511
 5734SOL    HW228665   2.930   2.168  16.229  1.0734  1.0849  0.4246
 5735SOL     OW28666   3.837   2.612   4.672 -0.2434 -0.0504 -0.0250
 5735SOL    HW128667   3.840   2.583   4.580 -1.1271  1.5862 -0.5688
 5735SOL    HW228668   3.756   2.571   4.701  0.7326 -0.3452  2.2802
 5736SOL     OW28669   2.626   1.366   8.880 -0.2861  0.2663  0.2882
 5736SOL    HW128670   2.678   1.364   8.799 -0.1338 -1.0195  0.4189
 5736SOL    HW228671   2.594   1.276   8.886 -0.4001  0.4930  3.3671
 5737SOL     OW28672   0.282   0.854  12.130  0.1532 -0.6244  0.8623
 5737SOL    HW128673   0.199   0.876  12.087  1.5617  0.7682 -1.1229
 5737SOL    HW228674   0.257   0.769  12.165 -1.4616 -0.2049  0.7100
 5738SOL     OW28675   2.431   1.002  16.401 -0.2940 -0.2786  0.0308
 5738SOL    HW128676   2.403   0.910  16.393 -3.5151  0.7143 -0.1073
 5738SOL    HW228677   2.431   1.014  16.495  1.2228 -0.2775  0.0303
 5739SOL     OW28678   1.769   0.046   6.900 -0.2117 -0.1718 -0.2113
 5739SOL    HW128679   1.751   0.099   6.823  0.0223  3.0133  1.9107
 5739SOL    HW228680   1.732   0.102   6.969 -0.8840 -1.9268  0.8337
 5740SOL     OW28681   3.196   1.871   9.259 -0.1289  0.1490 -0.1405
 5740SOL    HW128682   3.150   1.954   9.271  1.2968  0.9876 -0.4017
 5740SOL    HW228683   3.150   1.806   9.312 -1.1978  1.5956  0.7233
 5741SOL     OW28684   4.197   2.454   8.167  0.5622 -0.1921 -0.0671
 5741SOL    HW128685   4.215   2.414   8.253 -1.7396 -1.4336 -0.1488
 5741SOL    HW228686   4.265   2.519   8.152 -0.1445  0.8691  1.3380
 5742SOL     OW28687   0.997   2.112  14.040  0.2873  0.4806  0.5083
 5742SOL    HW128688   1.061   2.063  14.091 -0.4367 -0.9492  0.0309
 5742SOL    HW228689   1.032   2.195  14.072 -0.1178 -0.1654  2.6261
 5743SOL     OW28690   4.512   4.182   6.000  0.2357 -0.0851  0.2161
 5743SOL    HW128691   4.560   4.118   5.947  0.6262  0.1236  0.3253
 5743SOL    HW228692   4.428   4.207   5.961  0.2149  1.1059  1.0235
 5744SOL     OW28693   0.066   4.659   8.417 -0.0648  0.7609 -0.2420
 5744SOL    HW128694   0.041   4.660   8.325  2.7934  0.8886 -1.0271
 5744SOL    HW228695   0.161   4.674   8.416 -0.1281  1.0211 -1.7145
 5745SOL     OW28696   0.750   0.601   4.880 -0.2251  0.6959  0.1032
 5745SOL    HW128697   0.840   0.599   4.848  0.2404 -1.2261  1.4726
 5745SOL    HW228698   0.756   0.576   4.973 -0.0447 -0.3839 -0.1998
 5746SOL     OW28699   4.310   3.882   6.728 -0.2895  0.2011  0.0321
 5746SOL    HW128700   4.386   3.926   6.765  0.5021 -0.9701 -0.2190
 5746SOL    HW228701   4.243   3.906   6.793 -0.8427  1.2497 -0.9331
 5747SOL     OW28702   2.366   1.131  12.618  0.0642  0.2890 -0.7954
 5747SOL    HW128703   2.290   1.085  12.654  0.1990  0.1622 -0.6692
 5747SOL    HW228704   2.403   1.161  12.701 -1.6061  2.3115 -0.7992
 5748SOL     OW28705   4.173   0.202   7.808 -0.1875 -0.0088 -0.3490
 5748SOL    HW128706   4.092   0.159   7.781  0.5097 -1.2350 -0.5238
 5748SOL    HW228707   4.154   0.228   7.898  0.7435 -0.6522  0.0373
 5749SOL     OW28708   0.545   1.359  15.665  0.1073 -0.1064  0.1041
 5749SOL    HW128709   0.516   1.357  15.756 -1.0500 -2.7086 -0.3061
 5749SOL    HW228710   0.462   1.367  15.617 -0.8002  2.8014  2.1316
 5750SOL     OW28711   4.641   4.350   4.511  0.3512  0.3047  0.1689
 5750SOL    HW128712   4.623   4.258   4.531  0.1423 -0.6039 -4.1813
 5750SOL    HW228713   4.561   4.399   4.530 -0.3889 -1.0389  0.5071
 5751SOL     OW28714   4.702   1.439   2.745 -0.1676 -0.2294 -0.2116
 5751SOL    HW128715   4.614   1.412   2.771 -0.2133 -0.6709 -0.8094
 5751SOL    HW228716   0.012   1.487   2.821 -0.1573 -1.8726  0.8152
 5752SOL     OW28717   4.007   2.953   5.591 -0.2123 -0.3886 -0.1692
 5752SOL    HW128718   3.964   2.993   5.667 -0.1850  0.6010 -0.6737
 5752SOL    HW228719   4.022   3.030   5.536 -2.3727  0.4596  0.4127
 5753SOL     OW28720   2.482   4.220   1.671  0.0827 -0.1903 -0.0335
 5753SOL    HW128721   2.433   4.184   1.597 -0.8281  1.7454 -0.3778
 5753SOL    HW228722   2.492   4.149   1.733 -2.2195 -1.7480 -1.4422
 5754SOL     OW28723   4.103   2.663  13.548 -0.2388 -0.3182 -0.4609
 5754SOL    HW128724   4.150   2.588  13.512 -1.0711 -0.2648 -1.6539
 5754SOL    HW228725   4.066   2.712  13.475 -0.3450 -0.1602 -0.3015
 5755SOL     OW28726   3.406   0.020   0.428 -0.0597 -0.5134  0.0484
 5755SOL    HW128727   3.365   4.659   0.411 -1.3743  0.6153 -2.5161
 5755SOL    HW228728   3.496   4.711   0.433  0.1801 -0.1532 -1.5936
 5756SOL     OW28729   0.091   0.376  10.123 -0.5457 -0.1573  0.0570
 5756SOL    HW128730   0.013   0.350  10.074 -1.8057  0.1808  1.8659
 5756SOL    HW228731   0.119   0.298  10.171 -2.7053 -0.3170  1.0544
 5757SOL     OW28732   0.080   0.882   4.428 -0.6954  0.0100  0.2769
 5757SOL    HW128733   0.020   0.955   4.413 -0.9749 -0.9999 -3.3302
 5757SOL    HW228734   0.041   0.805   4.388 -0.7360 -0.5585  1.4030
 5758SOL     OW28735   3.921   1.070   2.155 -0.1435  0.2735  0.2604
 5758SOL    HW128736   3.920   1.065   2.060  0.5549  1.7352  0.1696
 5758SOL    HW228737   3.943   0.978   2.170 -2.5089 -0.3619 -0.2464
 5759SOL     OW28738   1.044   0.068   4.173 -0.4744  0.2045 -0.2145
 5759SOL    HW128739   1.099   4.720   4.143  0.5061 -0.5974  3.5710
 5759SOL    HW228740   1.111   0.112   4.226 -1.4600  0.4947  0.7940
 5760SOL     OW28741   3.441   4.683   2.566 -0.1253  0.0625  0.0166
 5760SOL    HW128742   3.357   4.641   2.584 -0.3412  0.5782  0.2282
 5760SOL    HW228743   3.451   4.659   2.474  1.4383  1.7923 -0.2615
 5761SOL     OW28744   1.527   2.318  10.960  0.4091 -0.8179  0.0865
 5761SOL    HW128745   1.576   2.248  11.002  0.1807 -1.7695 -1.2393
 5761SOL    HW228746   1.437   2.293  10.977 -0.1941  2.8632  2.3003
 5762SOL     OW28747   0.458   3.065   5.412  0.0097  0.3870 -0.2255
 5762SOL    HW128748   0.502   3.149   5.421 -1.4722  1.0374  0.7892
 5762SOL    HW228749   0.367   3.076   5.440  0.6332 -0.7786  2.2771
 5763SOL     OW28750   0.339   3.726   9.816 -0.1618 -0.2374 -0.3260
 5763SOL    HW128751   0.341   3.772   9.900  0.7531  0.6008 -0.7999
 5763SOL    HW228752   0.251   3.691   9.824 -0.0172 -0.5025  0.1031
 5764SOL     OW28753   0.915   4.460   6.709 -0.3492 -0.2972  0.0308
 5764SOL    HW128754   0.919   4.544   6.664 -0.7197 -0.4458 -0.2743
 5764SOL    HW228755   0.840   4.474   6.768 -2.5991  1.7027 -3.3285
 5765SOL     OW28756   2.563   1.198  11.605 -0.3161  0.0345  0.4282
 5765SOL    HW128757   2.484   1.214  11.553  1.2464 -1.5123 -2.4520
 5765SOL    HW228758   2.535   1.240  11.686  2.7348  2.6355  0.1281
 5766SOL     OW28759   3.918   3.856   2.089 -0.1347  0.1049 -0.1958
 5766SOL    HW128760   3.905   3.944   2.055 -0.8413  0.8296  1.9231
 5766SOL    HW228761   3.996   3.834   2.039 -1.6594  1.2901 -3.1145
 5767SOL     OW28762   3.931   2.562  10.699 -0.0822  0.2663  0.4229
 5767SOL    HW128763   3.927   2.555  10.603 -1.4225 -0.1382  0.4995
 5767SOL    HW228764   3.969   2.477  10.721 -0.1745  0.3085  0.7427
 5768SOL     OW28765   3.880   0.708  10.413 -0.6933 -0.0999  0.0452
 5768SOL    HW128766   3.832   0.764  10.475 -2.0301  0.0932 -1.1397
 5768SOL    HW228767   3.845   0.623  10.438  0.2127 -0.3928  0.3019
 5769SOL     OW28768   3.896   3.044   0.679  0.3242 -0.3399 -0.1794
 5769SOL    HW128769   3.887   2.992   0.600  0.4757 -1.3913  0.4912
 5769SOL    HW228770   3.817   3.097   0.672 -0.1256 -0.6087  2.7151
 5770SOL     OW28771   4.184   0.581   3.305  0.3472  0.3360 -0.5563
 5770SOL    HW128772   4.203   0.673   3.325  0.9251 -0.2141  1.4426
 5770SOL    HW228773   4.139   0.597   3.222  0.5305 -1.2052 -0.9555
 5771SOL     OW28774   0.783   2.644   3.443 -0.3053 -0.2898  0.0877
 5771SOL    HW128775   0.803   2.682   3.358  2.4623 -0.3617  0.7180
 5771SOL    HW228776   0.737   2.565   3.415 -2.5885 -0.8353  5.4003
 5772SOL     OW28777   3.239   4.470   3.726 -0.3775  0.4979 -0.3306
 5772SOL    HW128778   3.321   4.431   3.755 -0.6071  0.2926  0.0406
 5772SOL    HW228779   3.199   4.384   3.709 -1.1010  0.6084  0.8607
 5773SOL     OW28780   3.925   2.872  16.631  0.6667 -0.3246  0.4919
 5773SOL    HW128781   3.864   2.816  16.680  0.4058  1.9083  2.6875
 5773SOL    HW228782   4.007   2.824  16.642  2.0109  1.6627 -0.9193
 5774SOL     OW28783   1.425   1.956   3.525 -0.0287  0.0613 -0.3267
 5774SOL    HW128784   1.484   1.967   3.600 -0.6456  0.3354  0.1097
 5774SOL    HW228785   1.372   2.036   3.524  2.2298  1.5735  0.0345
 5775SOL     OW28786   2.059   1.671   5.606 -0.0983 -0.4900  0.1969
 5775SOL    HW128787   2.139   1.655   5.557 -1.4857 -1.3004 -1.7879
 5775SOL    HW228788   2.101   1.680   5.692  2.6233  0.7798 -1.2898
 5776SOL     OW28789   1.416   2.099   7.250  0.0109  0.0179  0.3888
 5776SOL    HW128790   1.394   2.083   7.341  0.6160 -0.4240  0.4608
 5776SOL    HW228791   1.492   2.041   7.240  2.2508  2.9771  0.4193
 5777SOL     OW28792   1.527   1.667   7.956  0.2784  0.1263  0.6056
 5777SOL    HW128793   1.605   1.642   7.906  0.0802  0.5284  0.0981
 5777SOL    HW228794   1.497   1.743   7.906 -1.0511  0.5931  2.1428
 5778SOL     OW28795   0.607   2.878   9.838 -0.1442  0.4741 -0.1393
 5778SOL    HW128796   0.607   2.858   9.932  1.4679 -0.7538 -0.4151
 5778SOL    HW228797   0.582   2.789   9.813 -1.5440  1.4424 -2.1960
 5779SOL     OW28798   3.055   0.750   5.041  0.4279  0.5605 -0.3822
 5779SOL    HW128799   3.059   0.807   4.964 -0.6640  0.5112 -0.4779
 5779SOL    HW228800   3.025   0.671   4.995  2.0534  0.3428 -1.0631
 5780SOL     OW28801   1.428   0.714   6.609 -0.5632 -0.1047 -0.3393
 5780SOL    HW128802   1.486   0.741   6.538 -0.8968 -1.0241 -0.9647
 5780SOL    HW228803   1.384   0.645   6.559 -0.8194 -1.9557  2.4310
 5781SOL     OW28804   4.121   3.212   1.950  0.4264 -0.1975 -0.3758
 5781SOL    HW128805   4.160   3.234   1.865 -1.4526  1.1906 -0.8705
 5781SOL    HW228806   4.204   3.174   1.981  0.1538  1.7094  2.7428
 5782SOL     OW28807   3.003   3.942   3.765 -0.7801  0.3378  0.4115
 5782SOL    HW128808   3.058   3.864   3.777  1.3194  1.7962  0.2063
 5782SOL    HW228809   2.982   3.918   3.674 -0.0423 -0.2457  0.3929
 5783SOL     OW28810   3.900   3.127  12.039  0.0080 -0.8014 -0.6965
 5783SOL    HW128811   3.867   3.144  12.127 -2.3789 -2.2757 -1.3019
 5783SOL    HW228812   3.823   3.145  11.984 -1.7142 -1.2958  1.5789
 5784SOL     OW28813   0.801   1.598   0.547 -0.0629  0.3571 -0.0512
 5784SOL    HW128814   0.775   1.586   0.456 -0.0318 -0.3884  0.0376
 5784SOL    HW228815   0.799   1.693   0.546  0.4356  0.3651 -0.3854
 5785SOL     OW28816   1.316   3.661   4.476  0.2884  0.3704  0.2863
 5785SOL    HW128817   1.308   3.640   4.569  0.5766 -0.6082  0.0907
 5785SOL    HW228818   1.305   3.756   4.478 -1.9256  0.1774 -2.3334
 5786SOL     OW28819   1.372   4.200  13.054  0.1756 -0.6032  0.5444
 5786SOL    HW128820   1.344   4.131  13.114 -1.2461  0.0354  0.5988
 5786SOL    HW228821   1.281   4.225  13.040  0.1120 -0.9825  0.2898
 5787SOL     OW28822   1.212   0.370   2.281  0.5919  0.3061 -0.1126
 5787SOL    HW128823   1.231   0.421   2.203  2.0409 -0.2171 -0.1032
 5787SOL    HW228824   1.146   0.305   2.256  1.1670 -0.4873  0.4200
 5788SOL     OW28825   1.771   1.566   4.366 -0.2808  0.4063 -0.4544
 5788SOL    HW128826   1.728   1.482   4.378 -0.1426  0.1459 -1.7426
 5788SOL    HW228827   1.824   1.576   4.445  0.3710  1.5203 -1.0326
 5789SOL     OW28828   2.612   3.654  15.460 -0.0049  0.3939 -0.1795
 5789SOL    HW128829   2.706   3.635  15.462 -0.0446  0.0492 -1.9682
 5789SOL    HW228830   2.573   3.566  15.462 -0.4033  0.6171  1.9414
 5790SOL     OW28831   2.660   0.432  12.446  0.3110  0.6413  0.2969
 5790SOL    HW128832   2.634   0.404  12.358 -0.7356 -0.2372  0.8782
 5790SOL    HW228833   2.620   0.519  12.448  0.6161  0.7847  0.0193
 5791SOL     OW28834   0.093   1.052   4.054 -0.2722 -0.0157  0.0332
 5791SOL    HW128835   0.086   1.126   4.114  2.6450 -0.3156  0.7425
 5791SOL    HW228836   0.129   1.088   3.973 -1.0772 -2.8439 -1.5590
 5792SOL     OW28837   3.128   3.837   6.054  0.1201  0.1957 -0.3067
 5792SOL    HW128838   3.219   3.816   6.076  0.2867  0.7338 -0.4834
 5792SOL    HW228839   3.109   3.895   6.128  2.8471 -0.6036  1.0185
 5793SOL     OW28840   2.113   0.345  12.067 -0.1659 -0.3865  0.2855
 5793SOL    HW128841   2.163   0.377  11.992  0.8363  2.1633  2.0398
 5793SOL    HW228842   2.030   0.391  12.061  1.1458  1.8606 -0.6989
 5794SOL     OW28843   3.153   3.252  12.601 -0.1390  0.0843  0.2503
 5794SOL    HW128844   3.115   3.246  12.513  1.1958  0.3691 -0.3611
 5794SOL    HW228845   3.225   3.315  12.591 -0.2050 -0.1525 -1.7508
 5795SOL     OW28846   0.774   3.324  13.183  0.4420 -0.9238 -0.6699
 5795SOL    HW128847   0.827   3.267  13.239  1.7643 -2.2189 -3.2289
 5795SOL    HW228848   0.715   3.267  13.133 -0.5822 -2.2202  1.9752
 5796SOL     OW28849   4.073   3.119   2.571 -0.3821 -0.1575 -0.3106
 5796SOL    HW128850   4.101   3.141   2.660  0.9693  2.6356 -1.4229
 5796SOL    HW228851   3.980   3.143   2.566  0.2923  1.9425 -2.6035
 5797SOL     OW28852   3.448   3.015   9.250 -0.8393 -0.2997  0.0290
 5797SOL    HW128853   3.523   2.969   9.289 -1.5397 -0.9263  0.6247
 5797SOL    HW228854   3.424   3.054   9.334  1.4879  1.8206 -0.2777
 5798SOL     OW28855   4.508   0.542   9.530  0.2047  0.0249  0.6150
 5798SOL    HW128856   4.585   0.549   9.586 -0.5000 -1.6208  1.7793
 5798SOL    HW228857   4.441   0.522   9.595  0.6366 -0.2130  0.9853
 5799SOL     OW28858   4.051   3.884  11.365  0.1524 -0.1451  0.4597
 5799SOL    HW128859   4.041   3.970  11.405  0.9986  0.5033 -0.7376
 5799SOL    HW228860   4.085   3.831  11.438 -0.1522 -0.2043  0.5576
 5800SOL     OW28861   0.293   2.845   4.434  0.5965 -0.7376  0.0567
 5800SOL    HW128862   0.388   2.837   4.446  0.6882  1.0542  0.4587
 5800SOL    HW228863   0.268   2.873   4.522 -0.7789  0.5737 -0.7588
 5801SOL     OW28864   3.951   4.404   4.616  0.1166  0.4689 -0.4891
 5801SOL    HW128865   3.891   4.478   4.628 -1.1280 -0.7306  0.7258
 5801SOL    HW228866   3.891   4.330   4.606  0.6919 -0.1699  0.8526
 5802SOL     OW28867   4.304   0.736   9.918 -0.4988  0.4893  0.1535
 5802SOL    HW128868   4.391   0.721   9.955  0.9796  1.7480 -2.8399
 5802SOL    HW228869   4.262   0.666   9.968 -0.9868 -0.2363 -1.2606
 5803SOL     OW28870   1.123   2.738  16.471 -0.2540  1.0330  0.1995
 5803SOL    HW128871   1.189   2.684  16.429 -1.2340 -0.5248  0.6296
 5803SOL    HW228872   1.166   2.821  16.489 -0.9799  1.2682  0.8720
 5804SOL     OW28873   3.445   1.472   6.629 -0.0416  0.0559 -0.0202
 5804SOL    HW128874   3.403   1.536   6.572 -0.7257  0.6324  1.1343
 5804SOL    HW228875   3.503   1.528   6.680 -1.1888  1.9495 -0.8110
 5805SOL     OW28876   0.960   1.922   3.492  0.1344 -0.0638  0.3264
 5805SOL    HW128877   1.007   1.950   3.571 -2.0352 -0.3848  1.7559
 5805SOL    HW228878   0.914   2.004   3.472  1.9974  1.0626  0.7309
 5806SOL     OW28879   1.544   1.440   5.367  0.7846 -0.5026  0.9234
 5806SOL    HW128880   1.588   1.358   5.388  0.0227 -1.3646 -0.8724
 5806SOL    HW228881   1.597   1.460   5.290  2.1526 -1.7971  1.5321
 5807SOL     OW28882   3.455   0.200   1.027 -0.5396 -0.2626 -0.5521
 5807SOL    HW128883   3.482   0.162   0.943 -0.4025 -1.1226 -0.1154
 5807SOL    HW228884   3.468   0.125   1.085  1.2705  0.1986 -0.3586
 5808SOL     OW28885   2.808   2.887   9.011 -0.0313 -0.2649  0.3573
 5808SOL    HW128886   2.824   2.866   9.102  1.0505 -1.1127 -0.0294
 5808SOL    HW228887   2.789   2.981   9.011  1.9342  0.1125  1.4145
 5809SOL     OW28888   2.183   3.597   7.155  0.1338 -0.1091  0.1216
 5809SOL    HW128889   2.274   3.576   7.175  0.1561  1.3607  1.5526
 5809SOL    HW228890   2.192   3.626   7.064 -0.4305 -2.1489 -0.5824
 5810SOL     OW28891   1.668   2.575  11.825 -0.5789 -0.0445  0.2649
 5810SOL    HW128892   1.661   2.626  11.906  1.2920  1.8342 -0.7644
 5810SOL    HW228893   1.612   2.500  11.848 -2.5548  0.8851 -1.4111
 5811SOL     OW28894   2.216   3.139  16.235 -0.1434  0.1503 -0.7624
 5811SOL    HW128895   2.166   3.193  16.175 -0.6409  0.4344 -0.0992
 5811SOL    HW228896   2.299   3.150  16.188  0.6558 -1.8051  0.1534
 5812SOL     OW28897   4.410   4.430   6.317  0.5905 -0.0745  0.4357
 5812SOL    HW128898   4.322   4.446   6.282  1.0113  0.2187 -0.4852
 5812SOL    HW228899   4.473   4.446   6.247 -0.3566 -2.0520 -0.8813
 5813SOL     OW28900   1.454   0.348   6.253 -0.4334  0.7820 -0.1244
 5813SOL    HW128901   1.501   0.342   6.169 -1.8310  0.0121 -0.8525
 5813SOL    HW228902   1.432   0.441   6.260 -1.3026  0.6748 -1.3548
 5814SOL     OW28903   1.708   1.610  16.391 -0.3653 -0.7606  0.0124
 5814SOL    HW128904   1.756   1.692  16.405 -0.0300 -0.8085 -0.8685
 5814SOL    HW228905   1.638   1.622  16.456 -1.7822 -1.0433 -1.4553
 5815SOL     OW28906   0.283   1.374  10.496 -0.5804 -0.1466  0.1596
 5815SOL    HW128907   0.340   1.350  10.569 -0.7226  0.2425  0.3961
 5815SOL    HW228908   0.292   1.469  10.501  3.3748 -0.6189  2.4310
 5816SOL     OW28909   2.224   1.795   8.415 -0.2364 -0.6492  0.0144
 5816SOL    HW128910   2.153   1.738   8.385 -1.6134  2.0440 -1.8361
 5816SOL    HW228911   2.186   1.878   8.443  0.4057 -0.7124  1.0637
 5817SOL     OW28912   1.397   4.263   8.956  0.0551 -0.1112 -0.0559
 5817SOL    HW128913   1.394   4.168   8.946  0.3890 -0.4800  3.1119
 5817SOL    HW228914   1.395   4.276   9.051 -4.4742  1.1734 -0.3408
 5818SOL     OW28915   0.456   2.575  14.756 -0.4312  0.2766 -0.8541
 5818SOL    HW128916   0.483   2.491  14.721 -0.5884 -0.2021  0.1538
 5818SOL    HW228917   0.422   2.631  14.687  0.8342  3.2282  0.9021
 5819SOL     OW28918   4.244   2.355   0.667 -0.3757  0.2736 -0.1166
 5819SOL    HW128919   4.216   2.281   0.721 -1.1185  1.4288  1.0781
 5819SOL    HW228920   4.197   2.427   0.709 -0.8291 -0.9659  1.4781
 5820SOL     OW28921   3.227   1.511   2.898  0.3733 -0.4538 -0.2092
 5820SOL    HW128922   3.240   1.441   2.963  0.7516  0.0952  0.3073
 5820SOL    HW228923   3.281   1.578   2.940  0.3008 -1.4184  1.4275
 5821SOL     OW28924   2.415   1.616   7.101 -0.0820  0.2336  0.2704
 5821SOL    HW128925   2.433   1.700   7.057  0.3291  0.5158  0.9673
 5821SOL    HW228926   2.405   1.558   7.026 -0.8499 -2.9453  2.8306
 5822SOL     OW28927   1.949   4.638   3.933  0.0990 -0.1495 -0.3111
 5822SOL    HW128928   1.996   4.720   3.946  1.1431 -0.8593  0.3845
 5822SOL    HW228929   1.942   4.638   3.838 -1.8329 -0.5573 -0.1809
 5823SOL     OW28930   0.142   3.226   8.548 -0.3283  0.2052  0.0038
 5823SOL    HW128931   0.227   3.196   8.514 -1.2889 -0.9952 -1.3586
 5823SOL    HW228932   0.177   3.283   8.616  2.0453 -0.3987 -0.6906
 5824SOL     OW28933   1.729   3.927   6.902 -0.3870 -0.5492 -0.2440
 5824SOL    HW128934   1.680   3.962   6.976  1.4470 -0.1551  0.7665
 5824SOL    HW228935   1.672   3.851   6.885 -2.9547  1.1901  0.6476
 5825SOL     OW28936   3.802   3.192   5.976 -0.0400 -0.1347  0.0135
 5825SOL    HW128937   3.799   3.283   6.005  0.5022 -0.3910  0.8524
 5825SOL    HW228938   3.861   3.161   6.044 -0.6396 -0.6650  0.2920
 5826SOL     OW28939   2.060   3.726  12.368 -0.1396  0.8362 -0.3682
 5826SOL    HW128940   2.044   3.795  12.432  2.4657  2.3847 -1.3649
 5826SOL    HW228941   1.971   3.718  12.334  0.0540 -4.4061  0.3433
 5827SOL     OW28942   1.108   4.349   6.846  0.4738  0.6305 -0.1812
 5827SOL    HW128943   1.118   4.404   6.924  2.0580 -0.6395  0.4991
 5827SOL    HW228944   1.037   4.388   6.795  0.2835 -0.7040 -0.9393
 5828SOL     OW28945   2.798   4.223  16.967 -0.4112  0.0252 -0.2528
 5828SOL    HW128946   2.708   4.254  16.977  0.1345  1.2852  0.7773
 5828SOL    HW228947   2.852   4.286  16.918  2.3673 -2.6669 -0.6464
 5829SOL     OW28948   4.070   1.207  10.324  0.1021 -0.0323  0.3527
 5829SOL    HW128949   4.014   1.139  10.285  0.1958 -0.4828  0.9942
 5829SOL    HW228950   4.147   1.202  10.267  0.1702  1.2279  0.3528
 5830SOL     OW28951   4.099   2.355   5.489 -0.0359 -0.5199  0.1134
 5830SOL    HW128952   4.131   2.426   5.432  0.3396 -0.1597  0.7683
 5830SOL    HW228953   4.006   2.347   5.467 -0.5431  2.2330  1.2362
 5831SOL     OW28954   0.074   1.183   5.420  0.2342 -0.3499 -0.1454
 5831SOL    HW128955   0.052   1.187   5.513  1.3715 -2.4131  0.2223
 5831SOL    HW228956   0.152   1.238   5.416 -1.0333  1.5510  1.5331
 5832SOL     OW28957   1.251   1.679   4.942  0.0597 -0.6450 -0.1969
 5832SOL    HW128958   1.196   1.612   4.901  0.7491 -3.4051  3.4998
 5832SOL    HW228959   1.290   1.637   5.018  1.8468  1.9441  0.3271
 5833SOL     OW28960   4.479   1.965  10.502 -0.1186 -0.1518  0.1277
 5833SOL    HW128961   4.491   1.987  10.409 -1.3403 -0.4126 -0.0895
 5833SOL    HW228962   4.383   1.967  10.508 -0.2781 -2.9388 -1.6808
 5834SOL     OW28963   2.747   1.322  15.181 -0.1712  0.4507  0.0285
 5834SOL    HW128964   2.696   1.384  15.234 -0.6992  0.0051  0.0399
 5834SOL    HW228965   2.791   1.384  15.123  1.9138 -0.9073  0.1426
 5835SOL     OW28966   3.860   3.026   3.537 -0.1760  0.0340 -0.2161
 5835SOL    HW128967   3.769   3.026   3.566 -0.2236  0.7994 -0.3482
 5835SOL    HW228968   3.849   3.000   3.445 -1.7575  0.7188 -0.2119
 5836SOL     OW28969   3.223   3.177   6.931  0.3226  0.0761  0.4812
 5836SOL    HW128970   3.200   3.257   6.884 -0.3316 -1.7407 -2.2796
 5836SOL    HW228971   3.151   3.120   6.902  1.5805 -1.6221  0.6857
 5837SOL     OW28972   4.051   4.201   9.317  0.1320  0.0327  0.1232
 5837SOL    HW128973   3.959   4.222   9.337 -0.4121  0.5234 -2.8903
 5837SOL    HW228974   4.048   4.105   9.315 -0.3656  0.0725 -1.3894
 5838SOL     OW28975   4.232   2.619   6.877  0.0094  0.2673 -0.1842
 5838SOL    HW128976   4.152   2.670   6.871 -0.1004  0.0534 -0.5451
 5838SOL    HW228977   4.221   2.542   6.821  2.0740 -1.8884  2.3222
 5839SOL     OW28978   1.922   0.464   0.523 -0.2791 -0.4060  0.1643
 5839SOL    HW128979   1.840   0.460   0.572 -0.6444 -0.1266 -0.4206
 5839SOL    HW228980   1.937   0.556   0.500  0.9359  0.1781  3.2835
 5840SOL     OW28981   1.770   4.617  15.261 -0.0602  0.4816 -0.1129
 5840SOL    HW128982   1.697   4.564  15.293  0.6322 -1.1862 -1.3165
 5840SOL    HW228983   1.816   4.626  15.345 -0.1520 -1.3821  0.1305
 5841SOL     OW28984   1.744   4.409   3.613 -0.0403 -0.0325  0.1681
 5841SOL    HW128985   1.833   4.408   3.577 -0.0281 -0.3571  0.2034
 5841SOL    HW228986   1.710   4.485   3.567  1.3501 -0.9099 -2.2984
 5842SOL     OW28987   3.761   2.136   6.568 -0.1358  0.0343 -0.1049
 5842SOL    HW128988   3.733   2.087   6.645 -0.4002  1.0044  0.4079
 5842SOL    HW228989   3.696   2.206   6.558  0.3405  0.2987 -1.3883
 5843SOL     OW28990   1.326   1.990   3.941 -0.0018  0.4761  0.3976
 5843SOL    HW128991   1.247   2.026   3.902 -1.4974 -0.8328  2.2578
 5843SOL    HW228992   1.301   1.931   4.012 -2.7543  1.5646  0.3226
 5844SOL     OW28993   3.964   1.167   5.851 -0.0685  0.3891 -0.1143
 5844SOL    HW128994   3.937   1.080   5.880 -0.5238 -0.0037 -1.6819
 5844SOL    HW228995   3.950   1.169   5.756 -0.6796 -0.9517 -0.0561
 5845SOL     OW28996   1.076   0.179   7.098 -0.1016 -0.1262  0.0370
 5845SOL    HW128997   1.159   0.143   7.129 -0.0492 -1.5840 -1.8264
 5845SOL    HW228998   1.009   0.152   7.161  1.8271 -2.1906  1.1801
 5846SOL     OW28999   0.935   3.740   7.331  0.0375  0.1855 -0.1649
 5846SOL    HW129000   0.853   3.768   7.292 -1.1955 -1.9889  0.8833
 5846SOL    HW229001   0.921   3.646   7.337 -1.2709  0.3050 -1.3739
 5847SOL     OW29002   1.265   1.150   0.487 -0.3292 -0.4101  0.0736
 5847SOL    HW129003   1.333   1.109   0.540  1.2457  3.1088  0.7622
 5847SOL    HW229004   1.181   1.111   0.513 -0.0845 -0.2767  1.0626
 5848SOL     OW29005   1.285   4.028  12.578  0.4467 -0.3312 -0.2490
 5848SOL    HW129006   1.307   4.094  12.644  1.3783 -1.5581  0.6887
 5848SOL    HW229007   1.285   3.951  12.636  0.2457 -0.5497 -0.5411
 5849SOL     OW29008   0.795   2.182   3.466 -0.0656  0.1368 -0.5297
 5849SOL    HW129009   0.876   2.232   3.479  0.4455 -0.5917 -0.8241
 5849SOL    HW229010   0.742   2.235   3.525 -0.1485  0.4230 -0.8673
 5850SOL     OW29011   2.875   0.534  13.714  0.3894  0.5125 -0.1351
 5850SOL    HW129012   2.781   0.536  13.728  0.0579  1.1312 -2.4362
 5850SOL    HW229013   2.903   0.612  13.763 -1.2478 -0.2267  1.9700
 5851SOL     OW29014   4.336   1.031  11.276  0.0747 -0.8481 -0.0438
 5851SOL    HW129015   4.307   1.118  11.251  0.9549 -0.8385 -1.0150
 5851SOL    HW229016   4.334   0.988  11.191  2.1354  0.1742 -0.5977
 5852SOL     OW29017   3.696   4.177   9.807  0.2254  0.3969  0.2654
 5852SOL    HW129018   3.607   4.168   9.842 -0.1009  1.6965 -0.2427
 5852SOL    HW229019   3.700   4.261   9.761  3.4799  0.2823  0.3023
 5853SOL     OW29020   1.799   1.491   3.730  0.3114 -0.0111  0.3448
 5853SOL    HW129021   1.797   1.531   3.643 -0.6697 -1.8912 -0.5253
 5853SOL    HW229022   1.722   1.526   3.775  0.7427 -0.2543  1.2661
 5854SOL     OW29023   0.451   0.966  16.515  0.1181  0.2375  0.0175
 5854SOL    HW129024   0.519   1.032  16.527  1.4875 -1.2145  0.1417
 5854SOL    HW229025   0.377   1.027  16.511 -0.2381 -0.2467 -0.8133
 5855SOL     OW29026   4.213   1.876  17.339 -0.7159  0.8975  0.1316
 5855SOL    HW129027   4.247   1.804  17.286 -0.3072 -0.0946  1.7195
 5855SOL    HW229028   4.155   1.835  17.404  0.2068  0.0470  0.4192
 5856SOL     OW29029   3.998   0.750   6.186  0.2889 -0.2783 -0.1876
 5856SOL    HW129030   4.039   0.832   6.162 -0.8228  0.5864  0.8540
 5856SOL    HW229031   3.934   0.783   6.250 -0.0682  0.4815 -0.9429
 5857SOL     OW29032   1.340   2.228   3.077  0.3764  0.4036 -0.4113
 5857SOL    HW129033   1.278   2.192   3.014 -0.1160  0.7977 -0.1565
 5857SOL    HW229034   1.379   2.149   3.116  0.2871  0.7733  0.4370
 5858SOL     OW29035   1.018   4.675   5.369  0.1850  0.3852  0.8863
 5858SOL    HW129036   1.068   4.635   5.298  0.6742 -0.5009  1.7200
 5858SOL    HW229037   0.938   4.623   5.362  1.1865 -0.7418 -2.1208
 5859SOL     OW29038   0.457   3.521   8.301  0.6011 -0.9575  0.1764
 5859SOL    HW129039   0.411   3.437   8.299  0.6459 -1.0459  2.6863
 5859SOL    HW229040   0.494   3.525   8.389  1.4365 -2.6245 -0.0920
 5860SOL     OW29041   3.331   2.050   7.985 -0.0973  0.1447  0.7004
 5860SOL    HW129042   3.260   2.032   7.923  0.3581  0.4310  0.0920
 5860SOL    HW229043   3.285   2.051   8.069 -2.8070 -0.2986 -0.7588
 5861SOL     OW29044   2.342   1.434  10.734 -0.4801 -0.3872 -0.0619
 5861SOL    HW129045   2.370   1.503  10.794 -1.1063 -1.2873  1.2565
 5861SOL    HW229046   2.364   1.465  10.646 -2.2778 -2.5382 -1.2576
 5862SOL     OW29047   3.674   4.578   3.965 -0.9395 -0.0876  0.3958
 5862SOL    HW129048   3.725   4.562   3.886 -2.7011 -1.7081 -0.4209
 5862SOL    HW229049   3.705   4.662   3.999 -0.4594 -0.2025  0.2454
 5863SOL     OW29050   0.900   2.507   3.187 -0.0707 -0.2688 -0.0206
 5863SOL    HW129051   0.832   2.541   3.129 -0.3078 -1.3879 -0.4064
 5863SOL    HW229052   0.867   2.420   3.209 -1.0635 -0.1843 -1.1870
 5864SOL     OW29053   4.238   4.449  10.089  0.4844  0.5185 -0.2046
 5864SOL    HW129054   4.286   4.413  10.015  0.6204  0.8667 -0.2867
 5864SOL    HW229055   4.307   4.516  10.093 -0.2749  1.2242  0.9738
 5865SOL     OW29056   4.379   2.203   8.203 -0.4352  1.0237 -0.3565
 5865SOL    HW129057   4.454   2.259   8.221  0.1338  0.2902 -0.4244
 5865SOL    HW229058   4.304   2.248   8.243  0.5146 -0.1433  2.6758
 5866SOL     OW29059   1.880   2.319   7.638  0.2657 -0.3701  0.2416
 5866SOL    HW129060   1.931   2.291   7.714 -0.3216 -1.3043  0.2977
 5866SOL    HW229061   1.900   2.412   7.641 -0.1899 -0.3062  1.3643
 5867SOL     OW29062   4.403   2.164   1.796 -0.1234 -0.2460 -0.5180
 5867SOL    HW129063   4.442   2.150   1.709  2.9092  1.5107  0.5724
 5867SOL    HW229064   4.467   2.228   1.825 -1.2172  0.3877  0.4667
 5868SOL     OW29065   1.974   4.082   4.244 -0.7057 -0.1376 -0.1144
 5868SOL    HW129066   2.015   4.141   4.308 -1.6778  1.6226 -1.1457
 5868SOL    HW229067   2.033   4.098   4.171  0.2765  0.1385  0.7307
 5869SOL     OW29068   3.653   4.559   1.339  0.3536 -0.1943 -0.3366
 5869SOL    HW129069   3.643   4.583   1.431 -0.6447  0.9111 -0.7344
 5869SOL    HW229070   3.666   4.464   1.341  0.5425 -0.1837 -1.1103
 5870SOL     OW29071   1.578   3.865  10.717 -0.1814  0.6161  0.2242
 5870SOL    HW129072   1.551   3.907  10.798  3.7395  0.1229  1.7863
 5870SOL    HW229073   1.627   3.787  10.744  0.7951  0.5968 -1.5475
 5871SOL     OW29074   0.773   1.927  16.278 -0.4085 -0.0741 -0.4389
 5871SOL    HW129075   0.749   2.011  16.317  1.3740  0.5057 -0.5465
 5871SOL    HW229076   0.864   1.918  16.308 -0.5284 -1.0054 -0.3658
 5872SOL     OW29077   1.466   2.482  15.281  0.8272 -0.5926 -0.2725
 5872SOL    HW129078   1.534   2.468  15.347 -0.6920  0.6595  1.5398
 5872SOL    HW229079   1.417   2.559  15.308  0.5054  0.1662 -2.9946
 5873SOL     OW29080   3.433   4.642  11.340  0.0060  0.4339  0.0975
 5873SOL    HW129081   3.470   4.592  11.267 -1.1886 -1.7082  0.9436
 5873SOL    HW229082   3.424   0.003  11.297  1.1711  0.7878  0.5572
 5874SOL     OW29083   2.803   0.730   2.706 -0.1690  0.7720  0.0177
 5874SOL    HW129084   2.746   0.714   2.781  0.3466  0.2031  0.2857
 5874SOL    HW229085   2.869   0.662   2.715  0.6215  1.7140  1.2837
 5875SOL     OW29086   1.262   1.167  16.241  0.2736 -0.3171  0.5748
 5875SOL    HW129087   1.196   1.107  16.275 -1.1307  0.2503 -1.1673
 5875SOL    HW229088   1.267   1.147  16.147 -2.8382 -4.1558  1.2484
 5876SOL     OW29089   4.256   1.952   1.125 -0.2388 -0.7702 -0.0799
 5876SOL    HW129090   4.174   1.991   1.095  0.7519  0.9526 -0.5487
 5876SOL    HW229091   4.322   2.009   1.086  1.9214 -1.8409  1.9748
 5877SOL     OW29092   4.616   1.504   8.429  0.1091  0.3748 -0.0190
 5877SOL    HW129093   4.598   1.579   8.372  1.5266 -1.0104 -2.2632
 5877SOL    HW229094   4.711   1.504   8.437 -0.1534 -3.5868  2.8384
 5878SOL     OW29095   0.746   2.372  16.996 -0.4243  0.7354  0.0072
 5878SOL    HW129096   0.772   2.459  17.026 -1.1502  0.6665  0.8386
 5878SOL    HW229097   0.792   2.374  16.912 -0.9286 -1.2469 -0.3157
 5879SOL     OW29098   2.163   3.660   6.869 -0.2085 -0.0409 -0.3821
 5879SOL    HW129099   2.155   3.697   6.782 -1.9272  2.6097  0.9022
 5879SOL    HW229100   2.194   3.736   6.917  0.6234 -1.1549  0.8485
 5880SOL     OW29101   2.229   1.865  16.612  0.0252  0.2057 -0.3833
 5880SOL    HW129102   2.190   1.940  16.566 -1.1347  0.1977  0.5940
 5880SOL    HW229103   2.200   1.865  16.703  1.7542  1.5563  0.1637
 5881SOL     OW29104   4.618   0.243   5.979  0.0451 -0.3164  0.1210
 5881SOL    HW129105   4.527   0.214   5.979  0.3852 -1.4091 -0.9243
 5881SOL    HW229106   4.670   0.163   5.982  0.1671 -0.2757 -0.8002
 5882SOL     OW29107   1.271   2.739   6.819 -0.0535  0.7009 -0.1707
 5882SOL    HW129108   1.271   2.646   6.840 -0.2222  0.7478  0.0483
 5882SOL    HW229109   1.192   2.736   6.765  0.1826 -1.5660 -0.3595
 5883SOL     OW29110   4.197   3.534  11.646  0.2685  1.2312  0.5317
 5883SOL    HW129111   4.130   3.466  11.652 -1.0970  2.7918  2.7881
 5883SOL    HW229112   4.279   3.488  11.663 -0.2074 -0.2210 -1.0951
 5884SOL     OW29113   1.607   4.620   7.554  0.3775 -0.2838  0.2508
 5884SOL    HW129114   1.609   4.604   7.648 -0.8196  1.2815  0.5427
 5884SOL    HW229115   1.573   4.536   7.523  3.1267 -1.4249  0.3399
 5885SOL     OW29116   2.057   2.995  12.038 -0.7305 -0.2527 -0.0153
 5885SOL    HW129117   1.971   2.962  12.014 -2.1363  2.5376  1.3185
 5885SOL    HW229118   2.065   2.959  12.126 -0.4983  0.6446  0.3269
 5886SOL     OW29119   1.614   0.423   3.426 -0.2550 -0.2275 -0.1800
 5886SOL    HW129120   1.562   0.381   3.358 -1.2299  2.9826 -1.4217
 5886SOL    HW229121   1.561   0.498   3.454 -1.2367 -1.5972  1.6630
 5887SOL     OW29122   4.244   4.079   0.325 -0.5254 -0.8569  0.5142
 5887SOL    HW129123   4.183   4.005   0.330 -0.2641 -1.1839 -1.2970
 5887SOL    HW229124   4.194   4.142   0.274  1.5349  0.9474  0.7683
 5888SOL     OW29125   0.320   3.760  13.550 -0.1425 -0.6067  0.0613
 5888SOL    HW129126   0.377   3.696  13.509  1.9850  0.9761  0.5441
 5888SOL    HW229127   0.340   3.753  13.643 -4.2479 -1.6781  0.8413
 5889SOL     OW29128   3.257   1.593  10.690 -0.8426 -0.4292  0.5981
 5889SOL    HW129129   3.327   1.555  10.744 -1.6863 -0.0966  1.9165
 5889SOL    HW229130   3.294   1.681  10.679 -2.3085  0.1689  0.5435
 5890SOL     OW29131   3.933   3.358  10.469 -0.2859 -0.2093 -0.0766
 5890SOL    HW129132   3.957   3.305  10.393  1.1135  2.5013 -1.5166
 5890SOL    HW229133   3.997   3.429  10.463  2.0120 -2.3725 -0.9685
 5891SOL     OW29134   2.395   4.465   8.171 -0.4271 -0.6598 -0.3032
 5891SOL    HW129135   2.465   4.420   8.218  0.4080  0.5495 -0.4062
 5891SOL    HW229136   2.368   4.395   8.111 -0.4262 -0.3529 -0.6645
 5892SOL     OW29137   1.801   1.026   4.861  0.1121  0.4574  0.5870
 5892SOL    HW129138   1.767   1.050   4.775  0.0085 -0.8804  0.2569
 5892SOL    HW229139   1.865   0.958   4.841 -0.6125 -0.2630  0.7287
 5893SOL     OW29140   0.443   0.160   2.541 -0.4047 -0.9129  0.1773
 5893SOL    HW129141   0.436   0.184   2.449  1.8619  1.2890  0.5631
 5893SOL    HW229142   0.532   0.182   2.569 -1.0543  1.2669  0.5031
 5894SOL     OW29143   1.766   2.578   3.356 -0.5259  0.3734 -0.3202
 5894SOL    HW129144   1.777   2.503   3.298 -0.4963  1.4108 -1.6468
 5894SOL    HW229145   1.735   2.535   3.435  0.6862  0.8058  0.3889
 5895SOL     OW29146   2.075   2.185   0.907 -0.2098  0.2436 -0.1680
 5895SOL    HW129147   2.043   2.218   0.823 -0.8273  2.5798  0.9744
 5895SOL    HW229148   2.082   2.091   0.888 -0.1457  0.3510 -0.6767
 5896SOL     OW29149   3.677   2.209  16.036  0.0545  0.0579 -0.0127
 5896SOL    HW129150   3.708   2.299  16.030 -1.3919  0.4847 -1.2360
 5896SOL    HW229151   3.677   2.202  16.132  2.2891 -1.6330 -0.1596
 5897SOL     OW29152   1.133   1.653   4.358  0.2440  0.3783  0.6362
 5897SOL    HW129153   1.052   1.630   4.312  0.2850 -1.0837  1.3053
 5897SOL    HW229154   1.183   1.597   4.299 -1.5195 -0.6381  0.1138
 5898SOL     OW29155   0.329   4.484   1.966  0.0262 -0.2429 -0.1192
 5898SOL    HW129156   0.302   4.571   1.996  2.3923  0.6405 -0.5709
 5898SOL    HW229157   0.406   4.466   2.020  0.0208 -1.2420 -0.4461
 5899SOL     OW29158   2.247   1.248  17.166 -0.3385  0.2970 -0.0225
 5899SOL    HW129159   2.328   1.220  17.123 -0.0151  0.9440  0.1547
 5899SOL    HW229160   2.183   1.222  17.100 -1.9466 -0.9774  2.0580
 5900SOL     OW29161   0.030   0.417   6.160 -0.1968  0.1254 -0.3883
 5900SOL    HW129162   0.031   0.346   6.095 -1.4828  0.3478 -0.6624
 5900SOL    HW229163   4.694   0.384   6.227 -0.7420  0.0349 -0.9167
 5901SOL     OW29164   1.553   3.718   7.164 -0.3615 -0.1766  0.3232
 5901SOL    HW129165   1.555   3.715   7.068 -2.4566  0.2379  0.2501
 5901SOL    HW229166   1.524   3.808   7.183 -0.6693 -0.0920 -0.5281
 5902SOL     OW29167   4.689   4.279   5.736 -0.2834 -0.6271  0.5657
 5902SOL    HW129168   4.644   4.202   5.771 -1.6993 -0.1949 -0.2861
 5902SOL    HW229169   4.638   4.341   5.787 -0.2618  0.7367 -1.0609
 5903SOL     OW29170   0.848   4.286   7.953 -0.5742  0.4980  0.5358
 5903SOL    HW129171   0.924   4.334   7.985 -0.0563  0.0223  0.0300
 5903SOL    HW229172   0.875   4.195   7.942 -1.8948  0.1392  0.3620
 5904SOL     OW29173   3.222   2.116   8.779 -0.3341  0.0815  0.0538
 5904SOL    HW129174   3.287   2.049   8.797 -0.2422 -0.1561 -1.2049
 5904SOL    HW229175   3.212   2.098   8.686 -0.7870  0.9899 -0.0785
 5905SOL     OW29176   0.844   3.778   1.605  0.6538  0.0972 -0.0254
 5905SOL    HW129177   0.912   3.805   1.667  0.5838  0.7489 -0.2410
 5905SOL    HW229178   0.874   3.796   1.516 -0.0192 -0.5903 -0.3959
 5906SOL     OW29179   4.201   3.102   1.256 -0.5904 -0.0808 -0.0068
 5906SOL    HW129180   4.191   3.189   1.216  0.3230  0.7134  1.4970
 5906SOL    HW229181   4.134   3.103   1.325  0.3817 -3.3792  0.9713
 5907SOL     OW29182   2.531   0.692   5.929  0.0862  0.3986 -0.0610
 5907SOL    HW129183   2.505   0.730   6.013  2.1024  0.0217  0.7464
 5907SOL    HW229184   2.467   0.622   5.922 -1.0345  1.0293  4.0514
 5908SOL     OW29185   0.279   3.334   1.810  0.1253 -0.5455  0.0611
 5908SOL    HW129186   0.233   3.356   1.891  0.3164 -0.5209  0.1656
 5908SOL    HW229187   0.300   3.421   1.778 -1.3291 -0.2952 -0.1964
 5909SOL     OW29188   0.436   2.394   7.185 -0.3320 -0.7993 -0.4413
 5909SOL    HW129189   0.495   2.319   7.182 -0.1038 -0.6243 -0.3672
 5909SOL    HW229190   0.456   2.445   7.263  0.1286 -0.0470 -1.0558
 5910SOL     OW29191   0.053   3.374  13.316  0.5204 -0.6895  0.5310
 5910SOL    HW129192   0.068   3.469  13.321  1.1809 -0.7974  0.6384
 5910SOL    HW229193   0.082   3.355  13.405  1.4063  0.1168  0.4118
 5911SOL     OW29194   3.245   3.276   3.100 -0.1298  0.2004 -0.1732
 5911SOL    HW129195   3.184   3.228   3.155  1.4349  0.2856  1.6304
 5911SOL    HW229196   3.306   3.206   3.074 -0.3048  0.4602 -1.3053
 5912SOL     OW29197   2.146   2.578   1.343  0.2158 -0.0726  0.0101
 5912SOL    HW129198   2.232   2.536   1.349 -0.6760 -1.8541  0.3335
 5912SOL    HW229199   2.141   2.575   1.247  1.1484  0.7835 -0.0567
 5913SOL     OW29200   2.126   2.225   8.820  0.1756  0.2745 -0.7780
 5913SOL    HW129201   2.095   2.233   8.730 -1.7366 -0.8323 -0.2083
 5913SOL    HW229202   2.096   2.307   8.859  3.3209 -0.1570  2.5233
 5914SOL     OW29203   4.051   3.439   7.178  0.0102  0.5313 -0.2171
 5914SOL    HW129204   4.080   3.524   7.212  0.9952  0.5740 -1.1639
 5914SOL    HW229205   4.117   3.382   7.217 -0.6237 -0.1972 -0.2170
 5915SOL     OW29206   1.773   4.340   7.265 -0.1614  0.2646  0.0503
 5915SOL    HW129207   1.811   4.369   7.182  1.6468 -0.1697  0.7226
 5915SOL    HW229208   1.796   4.421   7.310 -2.0476  2.0209 -2.1219
 5916SOL     OW29209   0.412   0.083   5.858  0.5546 -0.3636  0.0600
 5916SOL    HW129210   0.468   0.057   5.931 -0.1435  1.0907  1.1378
 5916SOL    HW229211   0.419   0.175   5.884 -0.8393  0.1356 -1.3128
 5917SOL     OW29212   1.630   2.945   6.866  0.3439  0.2778  0.2392
 5917SOL    HW129213   1.600   2.880   6.930  0.6359 -0.2713 -0.1739
 5917SOL    HW229214   1.551   2.961   6.813  0.1822  0.0379  0.4079
 5918SOL     OW29215   0.034   1.825  10.823  0.4330  0.4554  0.0651
 5918SOL    HW129216   0.020   1.796  10.733 -1.0229 -0.2873  0.5287
 5918SOL    HW229217   0.012   1.918  10.813 -2.2013 -0.1901 -0.0895
 5919SOL     OW29218   2.164   3.371  10.051  1.2155  0.1864 -0.6200
 5919SOL    HW129219   2.113   3.433   9.998 -0.0842 -1.1198 -0.8799
 5919SOL    HW229220   2.217   3.432  10.102 -0.5794  1.3137 -0.0969
 5920SOL     OW29221   1.508   1.312  14.715 -0.6385  0.2773  0.1500
 5920SOL    HW129222   1.483   1.297  14.624  2.2697 -1.1283 -0.4096
 5920SOL    HW229223   1.501   1.220  14.740  1.8455  0.0647  0.0041
 5921SOL     OW29224   4.140   2.902  14.918  0.3434  0.3456 -0.3438
 5921SOL    HW129225   4.108   2.932  14.833  0.2634  2.6457  0.5003
 5921SOL    HW229226   4.231   2.929  14.904  0.7820 -0.9396 -0.0473
 5922SOL     OW29227   1.745   1.724  15.351 -0.1701  0.4989  0.2237
 5922SOL    HW129228   1.653   1.700  15.354 -0.8217  2.8877 -0.3662
 5922SOL    HW229229   1.749   1.816  15.323  0.3086  0.5149  0.3328
 5923SOL     OW29230   1.651   2.131   2.175 -0.1080 -0.4714  0.2557
 5923SOL    HW129231   1.573   2.075   2.167  0.1046 -0.5247 -1.4499
 5923SOL    HW229232   1.629   2.187   2.101 -0.8610  0.3511  1.0939
 5924SOL     OW29233   0.232   0.273   8.494 -0.0446 -0.2012 -0.5082
 5924SOL    HW129234   0.180   0.319   8.428 -1.4112 -1.4444 -0.2693
 5924SOL    HW229235   0.236   0.330   8.571  1.2656 -0.5058 -0.3514
 5925SOL     OW29236   3.244   2.098   6.146 -0.4213  0.4379 -0.3167
 5925SOL    HW129237   3.152   2.110   6.171 -0.2822  0.8147  0.0084
 5925SOL    HW229238   3.286   2.172   6.190  2.3316 -0.7040 -1.0839
 5926SOL     OW29239   3.365   1.643   7.524 -0.3081  0.0900 -0.4476
 5926SOL    HW129240   3.422   1.656   7.600  0.4234  1.0875 -1.1699
 5926SOL    HW229241   3.383   1.728   7.484  1.7830 -0.4671 -0.6861
 5927SOL     OW29242   4.657   2.544   8.706  0.0003 -0.1949 -0.0029
 5927SOL    HW129243   4.656   2.469   8.765  0.7868 -1.3671 -1.4811
 5927SOL    HW229244   4.573   2.583   8.732 -0.6609 -2.5180  1.3364
 5928SOL     OW29245   1.109   0.842  16.960  0.3333  0.3945 -0.6012
 5928SOL    HW129246   1.065   0.785  17.023 -4.8114  0.7679 -3.8756
 5928SOL    HW229247   1.196   0.803  16.968  0.3621  0.9488  1.8768
 5929SOL     OW29248   2.895   2.639   3.240  0.1037 -0.2434  0.3250
 5929SOL    HW129249   2.877   2.618   3.148  0.4008 -1.1880  0.4880
 5929SOL    HW229250   2.916   2.550   3.266  0.0366 -0.8408 -1.6540
 5930SOL     OW29251   0.987   4.394   3.118  0.5130  0.4522  0.2879
 5930SOL    HW129252   1.071   4.419   3.156 -0.3226  2.6895  0.6707
 5930SOL    HW229253   0.958   4.474   3.074 -0.6568  2.3589  4.4739
 5931SOL     OW29254   2.831   1.750  11.443  0.1130  0.1640  0.4421
 5931SOL    HW129255   2.916   1.795  11.441 -0.6788  1.6052 -0.9878
 5931SOL    HW229256   2.844   1.657  11.461  2.9870  0.5737  0.5371
 5932SOL     OW29257   1.756   0.757   6.068  0.7927 -0.4278  0.1716
 5932SOL    HW129258   1.780   0.690   6.004  2.0631  0.4276 -0.2420
 5932SOL    HW229259   1.745   0.707   6.149  0.7531 -1.7604 -0.6475
 5933SOL     OW29260   3.215   1.364   2.405 -0.5756 -0.6797 -0.1254
 5933SOL    HW129261   3.123   1.383   2.389 -0.4532  0.8535  0.9456
 5933SOL    HW229262   3.242   1.338   2.317 -0.6778 -1.9708  0.2358
 5934SOL     OW29263   3.029   2.744   2.141 -0.1048  0.3354  0.3836
 5934SOL    HW129264   3.023   2.785   2.055 -3.4945 -1.7478 -0.3733
 5934SOL    HW229265   3.116   2.705   2.133 -0.9353 -1.1939 -1.0769
 5935SOL     OW29266   1.150   1.961   2.300  0.0303 -0.2273  0.5603
 5935SOL    HW129267   1.156   2.032   2.365  0.6111  0.6845 -0.4893
 5935SOL    HW229268   1.059   1.966   2.272 -0.0817  1.4171  1.1780
 5936SOL     OW29269   0.668   2.247   8.741  0.0831 -0.5149 -0.4242
 5936SOL    HW129270   0.742   2.262   8.682  2.5715 -1.4544  2.4629
 5936SOL    HW229271   0.598   2.222   8.681 -0.9251 -1.4024  1.1304
 5937SOL     OW29272   2.628   1.356  16.713  0.0666 -0.1686 -0.0430
 5937SOL    HW129273   2.694   1.308  16.662 -0.7446  1.5560 -2.7256
 5937SOL    HW229274   2.688   1.385  16.782  1.0003  1.4861 -1.5346
 5938SOL     OW29275   2.855   0.380   3.419 -0.0377  0.1909  0.1944
 5938SOL    HW129276   2.935   0.329   3.405 -0.7121 -1.6480  3.0853
 5938SOL    HW229277   2.834   0.348   3.507  0.0101  1.8274  0.7986
 5939SOL     OW29278   1.571   4.604   4.510  0.0008 -0.3011 -0.0805
 5939SOL    HW129279   1.518   4.627   4.586  0.6543  0.4623  0.1357
 5939SOL    HW229280   1.515   4.618   4.434 -0.5829 -0.6364  0.2887
 5940SOL     OW29281   1.784   1.224   5.742  0.2840  0.4009  0.4596
 5940SOL    HW129282   1.709   1.282   5.753  1.3267  1.7965  0.2878
 5940SOL    HW229283   1.852   1.291   5.728 -0.1625  0.5596 -0.9825
 5941SOL     OW29284   1.914   3.328   2.007  0.3296 -0.6083 -0.4591
 5941SOL    HW129285   1.899   3.395   2.073 -0.3083 -1.8791  0.6811
 5941SOL    HW229286   1.839   3.274   2.030  0.0854  0.3722  1.0507
 5942SOL     OW29287   1.295   1.180  10.086  0.1559  0.2082 -0.1377
 5942SOL    HW129288   1.219   1.157  10.139 -0.0966  0.8915 -0.1957
 5942SOL    HW229289   1.292   1.114  10.017 -2.0709 -0.8652  0.9808
 5943SOL     OW29290   0.541   0.989   3.765 -0.1023 -0.0682 -0.2269
 5943SOL    HW129291   0.613   0.926   3.763 -1.4953 -1.6415 -1.2168
 5943SOL    HW229292   0.506   0.990   3.854 -3.5531 -0.7831 -1.5798
 5944SOL     OW29293   1.707   4.687   1.960  0.3904 -0.2676  0.6758
 5944SOL    HW129294   1.614   4.685   1.983  0.3944  0.6937  0.7632
 5944SOL    HW229295   1.743   4.601   1.981 -2.3709 -1.9982 -1.6031
 5945SOL     OW29296   0.037   4.137   5.533 -0.0209  0.5856 -0.1289
 5945SOL    HW129297   0.110   4.186   5.496 -0.7434  0.4501 -1.7417
 5945SOL    HW229298   0.009   4.195   5.604 -0.2462  1.8334 -1.2400
 5946SOL     OW29299   1.373   1.704   7.552 -0.0770  0.0610  0.1806
 5946SOL    HW129300   1.398   1.655   7.473 -0.3643 -0.8083  0.6237
 5946SOL    HW229301   1.313   1.766   7.511 -1.7154 -1.8181 -0.2601
 5947SOL     OW29302   2.719   0.014   7.069 -0.0337  0.2574  0.0755
 5947SOL    HW129303   2.644   4.705   7.019  1.3805 -0.2303 -1.7019
 5947SOL    HW229304   2.770   0.050   6.997  1.2919 -1.2226  0.2802
 5948SOL     OW29305   4.354   2.146  17.092  0.3056 -0.4423  0.4163
 5948SOL    HW129306   4.308   2.225  17.066  1.3541 -0.5854 -1.8571
 5948SOL    HW229307   4.346   2.145  17.187 -2.1940 -1.6928  0.1818
 5949SOL     OW29308   1.502   3.893  13.649 -0.3424 -0.1606 -0.8094
 5949SOL    HW129309   1.509   3.987  13.664 -0.2446 -0.3283  0.1633
 5949SOL    HW229310   1.414   3.887  13.612 -0.4826  1.0209 -0.6805
 5950SOL     OW29311   2.287   1.283   3.535  0.3896  0.3353 -0.0740
 5950SOL    HW129312   2.211   1.331   3.569 -0.1270 -2.4980  2.7529
 5950SOL    HW229313   2.345   1.357   3.516  1.5790 -0.7907 -0.7528
 5951SOL     OW29314   4.583   1.539   5.769  0.0328  0.2374 -0.1329
 5951SOL    HW129315   4.546   1.622   5.800 -1.0912 -0.2270 -0.2486
 5951SOL    HW229316   4.505   1.484   5.771  1.1525 -1.3036  0.3932
 5952SOL     OW29317   1.628   1.790   8.929  0.2149 -0.0069 -0.1615
 5952SOL    HW129318   1.603   1.700   8.906  0.9274 -0.4984  0.9572
 5952SOL    HW229319   1.722   1.789   8.909 -0.0707 -0.0648 -1.5048
 5953SOL     OW29320   0.708   3.463   1.528 -0.5147 -0.2101  0.5163
 5953SOL    HW129321   0.799   3.473   1.553  0.1151 -1.1740 -1.3897
 5953SOL    HW229322   0.676   3.388   1.578 -1.1231 -2.9678 -3.9473
 5954SOL     OW29323   0.614   3.636   5.834  0.4158  0.0437 -0.3113
 5954SOL    HW129324   0.583   3.656   5.923  2.0776 -2.0207  0.7559
 5954SOL    HW229325   0.539   3.590   5.798 -0.5345 -0.1789  1.9087
 5955SOL     OW29326   0.120   3.965  13.068  0.6972 -0.5204  0.4401
 5955SOL    HW129327   0.060   3.926  13.005 -2.8191  2.7363  1.7941
 5955SOL    HW229328   0.161   4.041  13.027 -2.0895  1.0674  0.6385
 5956SOL     OW29329   2.848   0.301   6.922  0.2391 -0.6811 -0.1728
 5956SOL    HW129330   2.781   0.244   6.885  0.8229 -1.7120  0.3383
 5956SOL    HW229331   2.795   0.380   6.913  0.9450 -0.2158 -0.2708
 5957SOL     OW29332   3.281   4.355  11.201  0.2049  0.4040 -0.1021
 5957SOL    HW129333   3.316   4.331  11.287  0.6486  1.4029  0.0025
 5957SOL    HW229334   3.354   4.407  11.167 -0.3785  1.1927 -0.1545
 5958SOL     OW29335   0.384   0.918  10.158 -0.6189  0.0512  0.2869
 5958SOL    HW129336   0.447   0.948  10.092 -0.5502 -0.0457  0.3087
 5958SOL    HW229337   0.399   0.994  10.214  1.1945  1.4296 -2.0432
 5959SOL     OW29338   1.542   2.823   3.920  0.3988  0.9826  0.6168
 5959SOL    HW129339   1.594   2.797   3.996  0.4799 -0.5843  0.0262
 5959SOL    HW229340   1.454   2.837   3.954 -0.1344  1.7553 -1.1218
 5960SOL     OW29341   3.334   3.560   6.350 -0.4080 -0.2997 -0.3088
 5960SOL    HW129342   3.274   3.559   6.276 -0.5602 -1.0067 -0.1766
 5960SOL    HW229343   3.374   3.473   6.349  1.5673  0.5974  0.4451
 5961SOL     OW29344   2.609   3.602   5.065 -0.0019  0.4953 -0.3695
 5961SOL    HW129345   2.599   3.629   4.973 -0.9786  0.6618 -0.2152
 5961SOL    HW229346   2.702   3.622   5.077  0.0392 -0.9142  1.5879
 5962SOL     OW29347   2.828   1.648   9.176  0.1272 -0.3331  0.1008
 5962SOL    HW129348   2.885   1.606   9.112  0.0313 -3.1099  1.8512
 5962SOL    HW229349   2.747   1.604   9.150  1.7537 -3.2762 -0.0070
 5963SOL     OW29350   4.306   0.412  10.465  0.1750 -0.6734 -0.1066
 5963SOL    HW129351   4.299   0.505  10.487  2.0821 -0.8494  1.1744
 5963SOL    HW229352   4.283   0.375  10.550  0.6197  0.3678  0.4638
 5964SOL     OW29353   2.808   4.326   6.834 -0.2208  0.1648  0.2718
 5964SOL    HW129354   2.788   4.252   6.776  0.5137  0.1430  0.0450
 5964SOL    HW229355   2.740   4.384   6.800  0.8734  1.4447  0.2918
 5965SOL     OW29356   3.758   0.002   7.952  0.0251  0.4076  0.1099
 5965SOL    HW129357   3.823   4.664   7.986  0.2320  2.4414  3.4767
 5965SOL    HW229358   3.714   0.036   8.029 -0.9859  0.4967 -0.5170
 5966SOL     OW29359   1.314   1.672   3.438 -0.6460 -0.5100 -0.1988
 5966SOL    HW129360   1.368   1.673   3.360  0.7289 -0.6981  0.7560
 5966SOL    HW229361   1.317   1.762   3.473  0.3867  0.1131 -1.9120
 5967SOL     OW29362   0.242   1.612   3.755  0.0958 -0.3063 -0.1680
 5967SOL    HW129363   0.269   1.541   3.813  1.2034  1.9245  2.0520
 5967SOL    HW229364   0.239   1.688   3.813  0.9234  0.4398 -1.1259
 5968SOL     OW29365   2.706   2.041   6.012 -0.6173  0.2827  0.5250
 5968SOL    HW129366   2.763   2.035   5.935  0.3595  2.4827  1.0907
 5968SOL    HW229367   2.706   1.949   6.040  1.1931  0.1462  0.0591
 5969SOL     OW29368   2.420   0.906   7.286  0.1883  0.1724 -0.6465
 5969SOL    HW129369   2.450   0.891   7.376  0.5455  1.2217 -0.5876
 5969SOL    HW229370   2.482   0.969   7.248 -0.7575  1.8630  0.6433
 5970SOL     OW29371   3.627   3.086   3.146 -0.3491 -0.2286 -0.7476
 5970SOL    HW129372   3.574   3.082   3.066 -0.9867 -1.7308 -0.2382
 5970SOL    HW229373   3.704   3.130   3.108 -1.0248  0.7222 -1.0399
 5971SOL     OW29374   4.275   1.942   3.454  0.3977 -0.0345 -0.6850
 5971SOL    HW129375   4.334   1.977   3.387  0.3830 -0.4497 -0.9119
 5971SOL    HW229376   4.204   1.965   3.394 -0.7222  1.2106  1.1557
 5972SOL     OW29377   0.211   2.466   7.991 -0.6108  0.5170  0.0544
 5972SOL    HW129378   0.123   2.495   7.966 -0.8908 -0.0932  0.3435
 5972SOL    HW229379   0.222   2.508   8.076  1.7804 -0.2083  0.1255
 5973SOL     OW29380   2.553   3.633  10.363  0.1076  0.3645  0.3577
 5973SOL    HW129381   2.619   3.606  10.428  0.8449  2.9493  0.6744
 5973SOL    HW229382   2.546   3.556  10.307  2.9160  0.3504  0.0121
 5974SOL     OW29383   0.186   4.047   8.431 -0.2484  0.0908  0.3299
 5974SOL    HW129384   0.212   3.966   8.387  2.1427  0.1691  1.5884
 5974SOL    HW229385   0.222   4.111   8.370 -0.7808  0.2679  0.2034
 5975SOL     OW29386   2.650   1.024   9.221 -0.0170 -0.0769  0.1245
 5975SOL    HW129387   2.590   1.059   9.155  0.3821 -0.0367 -0.2124
 5975SOL    HW229388   2.724   1.084   9.216  0.2645 -0.5064 -0.7646
 5976SOL     OW29389   1.695   4.529  16.169  0.0795  0.1519  0.4931
 5976SOL    HW129390   1.681   4.622  16.151  0.6093  0.2880  0.7738
 5976SOL    HW229391   1.681   4.533  16.264  1.0574 -1.3167  0.7104
 5977SOL     OW29392   3.846   0.139  12.989  0.6898  0.0076 -0.0056
 5977SOL    HW129393   3.927   0.088  12.990 -2.4886 -5.0804 -0.4391
 5977SOL    HW229394   3.824   0.166  13.078 -1.3546 -0.9415 -0.2207
 5978SOL     OW29395   2.092   3.962   4.625 -0.6009  0.6954  0.5749
 5978SOL    HW129396   1.997   3.970   4.634 -1.0093 -1.5576 -2.0836
 5978SOL    HW229397   2.119   4.040   4.576  0.1748  0.4203  0.5631
 5979SOL     OW29398   4.724   0.913   9.854  0.4072 -0.2127 -0.3123
 5979SOL    HW129399   4.668   0.871   9.789 -0.1127  0.1759 -0.1128
 5979SOL    HW229400   4.686   0.999   9.874  3.4415  0.5026  2.3614
 5980SOL     OW29401   0.570   4.687  11.480 -0.7648  0.4995  0.8256
 5980SOL    HW129402   0.607   4.599  11.484  0.1638  0.7730 -1.4531
 5980SOL    HW229403   0.601   4.708  11.392 -2.1294  0.6616  0.3831
 5981SOL     OW29404   1.658   3.351   5.479  0.5267  0.2089  0.2414
 5981SOL    HW129405   1.604   3.430   5.471  1.2184  0.6717  0.1584
 5981SOL    HW229406   1.618   3.310   5.555  1.5840 -1.0115  0.1209
 5982SOL     OW29407   4.605   3.761  12.069 -0.3091 -0.7317 -0.2806
 5982SOL    HW129408   4.669   3.784  12.001  1.7723 -0.7773  1.6523
 5982SOL    HW229409   4.621   3.836  12.127  3.4877 -2.5032  0.9854
 5983SOL     OW29410   4.049   1.781   4.196 -0.4028 -1.0673 -0.0097
 5983SOL    HW129411   4.100   1.816   4.269 -1.5732  2.4091 -0.8360
 5983SOL    HW229412   4.086   1.827   4.120 -1.3705 -2.2907 -1.2205
 5984SOL     OW29413   0.876   0.734  14.045 -0.0266  0.1918  0.5332
 5984SOL    HW129414   0.866   0.647  14.008  0.5300 -0.1666  1.2124
 5984SOL    HW229415   0.914   0.778  13.969 -0.1531 -2.4975 -1.0820
 5985SOL     OW29416   4.447   0.272   2.138  0.7087 -0.1865 -0.4937
 5985SOL    HW129417   4.421   0.180   2.142  3.0675 -0.9081 -1.9972
 5985SOL    HW229418   4.534   0.271   2.179  0.2845  0.1487  0.4140
 5986SOL     OW29419   2.057   2.206   9.250  1.0895 -0.3863  0.6914
 5986SOL    HW129420   2.081   2.130   9.303 -0.2529  0.6719  2.8212
 5986SOL    HW229421   2.010   2.253   9.319 -2.3335 -1.0882 -1.1663
 5987SOL     OW29422   0.410   2.084  16.189  0.6835  0.2316 -0.8381
 5987SOL    HW129423   0.408   1.993  16.161 -0.6217  0.1125 -0.3587
 5987SOL    HW229424   0.317   2.108  16.182  0.7349  0.5743 -0.3587
 5988SOL     OW29425   2.205   3.753  16.673  0.1224 -0.1050  0.7530
 5988SOL    HW129426   2.154   3.674  16.657  0.9985 -0.6295  0.5707
 5988SOL    HW229427   2.145   3.816  16.713  2.5547  2.4003  0.4282
 5989SOL     OW29428   3.456   0.725   7.443  0.6245  0.0274 -0.2190
 5989SOL    HW129429   3.517   0.772   7.500 -0.5419  0.1204  0.9479
 5989SOL    HW229430   3.382   0.731   7.503 -1.5949  1.0895 -3.1086
 5990SOL     OW29431   2.602   2.114   9.364  0.1359 -0.2309  0.4394
 5990SOL    HW129432   2.617   2.140   9.273  2.3969  2.6500  1.6708
 5990SOL    HW229433   2.510   2.089   9.356 -0.2683  1.1443  0.7807
 5991SOL     OW29434   2.247   1.602   1.163 -0.1309  0.1316 -0.1714
 5991SOL    HW129435   2.313   1.560   1.217 -0.4688  1.9753  1.6558
 5991SOL    HW229436   2.162   1.563   1.185 -0.4168  0.7411 -0.1805
 5992SOL     OW29437   2.498   3.004   8.317  0.3914 -0.3940  0.0575
 5992SOL    HW129438   2.467   2.919   8.284 -0.2030 -0.2107  0.1346
 5992SOL    HW229439   2.426   3.023   8.378 -1.1556 -1.2561 -1.4934
 5993SOL     OW29440   2.556   2.045  12.713  0.0676  0.3215  0.3079
 5993SOL    HW129441   2.472   2.000  12.718 -1.3122  2.8053 -0.4989
 5993SOL    HW229442   2.536   2.117  12.653  0.4243  0.1600 -0.0086
 5994SOL     OW29443   4.665   3.496   6.682 -0.0432  0.1692  0.1733
 5994SOL    HW129444   4.625   3.410   6.700 -1.3874  0.4946 -1.2461
 5994SOL    HW229445   4.638   3.535   6.765 -1.9999  0.9300 -0.8129
 5995SOL     OW29446   3.763   0.968   9.408  0.1935 -0.0238 -0.1271
 5995SOL    HW129447   3.784   0.990   9.498 -2.1987 -1.6803  0.8296
 5995SOL    HW229448   3.740   0.876   9.418  0.0291  0.3014  2.3471
 5996SOL     OW29449   0.963   4.534  13.400 -0.7135 -0.3529 -0.1639
 5996SOL    HW129450   0.955   4.439  13.394 -1.0289 -0.3728  0.5191
 5996SOL    HW229451   0.899   4.548  13.470 -1.5441 -0.1894 -0.9592
 5997SOL     OW29452   0.065   2.518   7.086 -0.5115  0.0351 -0.0189
 5997SOL    HW129453   4.716   2.561   7.043 -1.1544 -1.6921 -0.6424
 5997SOL    HW229454   0.108   2.474   7.012 -3.3777 -0.3839 -1.4328
 5998SOL     OW29455   2.068   3.667   1.167  0.1196 -0.1843 -0.7265
 5998SOL    HW129456   1.980   3.665   1.129 -0.9466 -0.4444  1.7499
 5998SOL    HW229457   2.089   3.751   1.125  0.9632 -0.3769 -0.6840
 5999SOL     OW29458   0.808   2.636  17.050  0.3605  0.1820  0.5284
 5999SOL    HW129459   0.844   2.636  17.139  0.8570 -3.4722  0.3274
 5999SOL    HW229460   0.870   2.700  17.014  0.9892 -1.0833 -0.6433
 6000SOL     OW29461   0.692   1.363   4.385  0.3812  0.0382 -0.1245
 6000SOL    HW129462   0.643   1.428   4.335 -1.6684  0.2729  2.2350
 6000SOL    HW229463   0.619   1.333   4.438  2.6743 -2.0752  1.8188
 6001SOL     OW29464   0.525   4.051   5.384  0.0457  0.6143  0.3045
 6001SOL    HW129465   0.476   3.999   5.448  0.0827 -0.6489 -0.6691
 6001SOL    HW229466   0.523   3.989   5.311 -0.0665 -0.1536  0.9560
 6002SOL     OW29467   3.636   4.265   5.349 -0.1549  0.1308 -0.3151
 6002SOL    HW129468   3.638   4.325   5.423 -1.8238  0.1002 -0.2457
 6002SOL    HW229469   3.541   4.259   5.352 -0.0743 -0.6285  0.7598
 6003SOL     OW29470   1.558   0.699   4.292  0.0017  0.1601 -0.3199
 6003SOL    HW129471   1.561   0.694   4.387  0.8606  0.1542 -0.3460
 6003SOL    HW229472   1.582   0.614   4.256 -1.1195  0.1386 -1.0314
 6004SOL     OW29473   3.008   0.817   6.391 -0.0093  0.0987  0.5363
 6004SOL    HW129474   3.036   0.755   6.323 -2.7558 -2.3937  1.6354
 6004SOL    HW229475   2.944   0.765   6.440  0.5184 -1.1663 -0.0995
 6005SOL     OW29476   1.733   3.036   6.431  0.0271 -0.1084  0.0037
 6005SOL    HW129477   1.657   3.076   6.472  1.6450  1.7770  1.1773
 6005SOL    HW229478   1.805   3.035   6.494  0.9694  0.1159 -1.0712
 6006SOL     OW29479   4.505   0.001   2.636  0.5766 -0.5446  0.2463
 6006SOL    HW129480   4.462   0.022   2.719  0.9385 -1.3492  0.6383
 6006SOL    HW229481   4.574   0.068   2.636  1.4054 -1.4072 -2.3227
 6007SOL     OW29482   3.855   1.679   4.663  0.2185  0.2310 -0.1612
 6007SOL    HW129483   3.950   1.670   4.676  0.0683  0.3109  1.0353
 6007SOL    HW229484   3.841   1.650   4.573 -2.2480  2.1799 -0.4041
 6008SOL     OW29485   4.241   0.903   3.391  0.1173  0.6793 -0.3398
 6008SOL    HW129486   4.278   0.989   3.411 -0.3579  0.7044  0.4455
 6008SOL    HW229487   4.160   0.903   3.441  0.4705 -1.3018  0.2140
 6009SOL     OW29488   0.225   0.131   8.192 -0.2207  0.0358 -0.2031
 6009SOL    HW129489   0.212   0.223   8.171 -0.6942 -0.2122 -1.0021
 6009SOL    HW229490   0.299   0.142   8.252 -0.1049  2.5369 -0.8071
 6010SOL     OW29491   2.792   4.020   7.307  0.1641  0.4742  0.2608
 6010SOL    HW129492   2.778   4.088   7.373 -0.5402 -0.6039  1.2117
 6010SOL    HW229493   2.844   4.070   7.245 -2.7278  0.7958 -1.8915
 6011SOL     OW29494   4.106   0.478  10.252 -0.0505  0.1846  0.0768
 6011SOL    HW129495   4.045   0.407  10.234 -0.2892 -0.2095  2.4466
 6011SOL    HW229496   4.114   0.473  10.347  0.1392  1.0811  0.1108
 6012SOL     OW29497   2.519   2.588   2.239  0.2898  1.0957  0.2442
 6012SOL    HW129498   2.601   2.618   2.279  1.5194 -0.8293 -0.8201
 6012SOL    HW229499   2.478   2.669   2.209  1.3953  1.4179 -0.4120
 6013SOL     OW29500   3.865   3.706   3.612 -0.3747  0.6004  0.3502
 6013SOL    HW129501   3.937   3.711   3.549 -0.6948  2.3169  0.1167
 6013SOL    HW229502   3.789   3.689   3.556 -1.5132  1.1815  1.7061
 6014SOL     OW29503   1.395   2.159   1.906 -0.2082 -0.6174  0.7332
 6014SOL    HW129504   1.343   2.183   1.829  0.8959  0.5776  0.3490
 6014SOL    HW229505   1.408   2.067   1.883 -0.0920  0.5368 -3.8772
 6015SOL     OW29506   2.466   4.218  12.037 -0.0812  0.2624  0.6467
 6015SOL    HW129507   2.423   4.294  12.076  0.6780  1.6730 -1.3126
 6015SOL    HW229508   2.387   4.170  12.011 -0.4140  0.4600  1.3071
 6016SOL     OW29509   0.628   2.310   0.609  0.1306 -0.2348 -0.3630
 6016SOL    HW129510   0.541   2.349   0.597 -0.3628 -1.0222  0.6808
 6016SOL    HW229511   0.656   2.354   0.690  0.6747 -0.1516 -0.5956
 6017SOL     OW29512   1.077   3.915   8.230 -0.0945  0.3949  0.2870
 6017SOL    HW129513   1.070   3.889   8.321  0.1159 -1.1758 -0.1423
 6017SOL    HW229514   1.100   3.832   8.186  0.1088  0.4427  0.3002
 6018SOL     OW29515   0.092   1.798   3.943  0.0134 -0.5656  0.1919
 6018SOL    HW129516   0.145   1.815   4.021  1.7304  2.6816 -1.6756
 6018SOL    HW229517   0.093   1.889   3.914 -1.3962 -0.2936  1.0081
 6019SOL     OW29518   3.430   4.710   6.685  0.6984 -0.9829 -0.6725
 6019SOL    HW129519   3.515   4.667   6.698  0.7981 -0.7166 -0.4394
 6019SOL    HW229520   3.378   4.699   6.765 -0.1987 -1.3835 -1.3050
 6020SOL     OW29521   2.456   1.146   4.309 -0.9612 -0.1678 -0.3519
 6020SOL    HW129522   2.386   1.113   4.253  0.0426 -1.0478 -1.0755
 6020SOL    HW229523   2.458   1.079   4.377 -0.7183  0.2702  0.0719
 6021SOL     OW29524   3.360   2.588  10.431  0.3217  0.1693 -0.1307
 6021SOL    HW129525   3.352   2.583  10.526 -0.3498 -0.1218 -0.2056
 6021SOL    HW229526   3.418   2.664  10.430  0.7017 -0.1014  1.0603
 6022SOL     OW29527   1.180   3.419   7.305 -0.6542 -0.2535 -0.3034
 6022SOL    HW129528   1.159   3.478   7.233 -1.4007  1.5432  1.3842
 6022SOL    HW229529   1.240   3.356   7.267 -2.7309 -2.1798 -0.3970
 6023SOL     OW29530   3.242   0.463  13.646 -0.3179 -0.4160 -0.5203
 6023SOL    HW129531   3.255   0.478  13.553 -3.3489  1.4425 -0.6268
 6023SOL    HW229532   3.206   0.549  13.669 -0.9703 -0.3774 -1.7357
 6024SOL     OW29533   2.123   2.961   0.804  0.3170 -0.3413 -0.1217
 6024SOL    HW129534   2.167   2.968   0.720 -1.2239  0.0475 -0.8806
 6024SOL    HW229535   2.037   2.994   0.781  0.4093 -0.3887 -0.5312
 6025SOL     OW29536   3.305   4.014   7.367  0.4851 -0.3329 -0.4433
 6025SOL    HW129537   3.313   4.047   7.456  0.5133  0.7299 -0.8402
 6025SOL    HW229538   3.331   4.084   7.307  0.3997 -0.3333 -0.4807
 6026SOL     OW29539   1.183   1.790   7.960 -0.0431 -0.3441 -0.3142
 6026SOL    HW129540   1.229   1.822   8.038  1.2722  0.5129 -1.4463
 6026SOL    HW229541   1.199   1.857   7.895 -1.4333 -0.3778 -0.6697
 6027SOL     OW29542   0.846   2.470   6.255 -0.6853  0.0666  0.3628
 6027SOL    HW129543   0.918   2.414   6.226  0.5008  2.3669 -1.2283
 6027SOL    HW229544   0.784   2.461   6.183 -1.2594 -0.2296  0.9027
 6028SOL     OW29545   4.120   1.182   9.510  0.3376  0.1765 -0.1237
 6028SOL    HW129546   4.194   1.217   9.461  0.1851  1.4595  0.5930
 6028SOL    HW229547   4.153   1.196   9.598  0.3337 -0.6105  0.0050
 6029SOL     OW29548   0.577   2.414   3.877 -0.1902 -0.0087  0.1093
 6029SOL    HW129549   0.648   2.471   3.908  1.4911 -0.9575 -1.9884
 6029SOL    HW229550   0.521   2.489   3.856 -2.3462 -1.6689  0.0050
 6030SOL     OW29551   2.968   2.934  14.010 -0.3502 -0.6873  0.0671
 6030SOL    HW129552   2.880   2.971  13.998  0.3279  0.4608 -1.4010
 6030SOL    HW229553   2.955   2.870  14.080  1.4954  0.9355  1.9273
 6031SOL     OW29554   0.100   1.815   2.773  0.3510 -0.2456 -0.4587
 6031SOL    HW129555   0.029   1.772   2.725  0.7254 -0.7386 -0.5703
 6031SOL    HW229556   0.111   1.748   2.840 -0.1447 -1.4507 -1.5739
 6032SOL     OW29557   4.002   2.591  11.502 -0.3572  0.0547 -0.3807
 6032SOL    HW129558   3.938   2.559  11.565  0.9106 -0.7132  0.5198
 6032SOL    HW229559   3.946   2.578  11.425  0.5588  1.1291 -1.2260
 6033SOL     OW29560   3.680   2.902   9.399 -0.1431  0.4629 -0.1826
 6033SOL    HW129561   3.728   2.985   9.397  2.0401 -0.8148 -0.6676
 6033SOL    HW229562   3.747   2.841   9.428 -2.9127 -2.6444 -0.3404
 6034SOL     OW29563   3.976   2.107   4.311  0.2592 -0.3432 -0.1619
 6034SOL    HW129564   3.986   2.159   4.231  1.8930  0.8788  0.8222
 6034SOL    HW229565   3.898   2.054   4.296 -0.1854  0.1014  0.5641
 6035SOL     OW29566   3.713   3.326   6.878  0.9624 -0.6117 -0.1359
 6035SOL    HW129567   3.718   3.389   6.806 -2.3212  0.2052  0.3554
 6035SOL    HW229568   3.730   3.386   6.951 -1.0767 -2.0609  1.5274
 6036SOL     OW29569   2.297   3.090   4.975  0.5179 -0.0839  0.3292
 6036SOL    HW129570   2.376   3.144   4.978  0.9682 -0.6788 -0.7017
 6036SOL    HW229571   2.235   3.160   4.996 -0.8836 -1.4579  0.7865
 6037SOL     OW29572   0.355   2.455  13.809  0.1799  0.4455  0.0549
 6037SOL    HW129573   0.298   2.528  13.831 -0.4962  0.3009 -1.1617
 6037SOL    HW229574   0.298   2.378  13.815  0.2640  0.3795  0.0156
 6038SOL     OW29575   0.322   2.330   9.158  0.0282  1.2523  0.5483
 6038SOL    HW129576   0.343   2.396   9.224 -0.1635 -1.7488  3.6248
 6038SOL    HW229577   0.407   2.321   9.115 -0.9987 -2.6655 -0.7139
 6039SOL     OW29578   0.744   2.187  16.349 -0.4185  0.8979  0.0171
 6039SOL    HW129579   0.695   2.224  16.276 -1.6510 -1.4177 -0.3259
 6039SOL    HW229580   0.684   2.215  16.418  1.6269 -0.2564  2.2964
 6040SOL     OW29581   2.782   1.776   1.784 -0.1754 -0.4485  0.6696
 6040SOL    HW129582   2.833   1.696   1.794 -1.5805 -1.3624  0.4793
 6040SOL    HW229583   2.750   1.798   1.872 -0.0644  1.2789  0.2734
 6041SOL     OW29584   2.452   3.318   8.977  0.3409 -0.2755 -0.2379
 6041SOL    HW129585   2.429   3.397   8.928  2.0548  0.7380  0.6101
 6041SOL    HW229586   2.367   3.286   9.006  0.5183  0.6311  1.2564
 6042SOL     OW29587   3.933   0.649   5.263 -0.3596  0.2206 -0.5024
 6042SOL    HW129588   3.974   0.691   5.339 -0.6525  2.2233 -1.4618
 6042SOL    HW229589   3.998   0.660   5.193  1.1285  1.9167  1.1439
 6043SOL     OW29590   3.108   1.670  15.744  0.0636  0.6384  0.0308
 6043SOL    HW129591   3.102   1.576  15.727  0.6064  0.0592  3.0759
 6043SOL    HW229592   3.201   1.674  15.765  0.4325 -1.1035 -1.2195
 6044SOL     OW29593   4.423   1.798  14.025 -0.1438  0.6105 -0.0610
 6044SOL    HW129594   4.429   1.892  14.044  1.5972  0.5867 -0.5095
 6044SOL    HW229595   4.426   1.762  14.114 -0.1121  1.0311  0.1097
 6045SOL     OW29596   2.975   3.159   1.206  0.4223  0.2121  0.1857
 6045SOL    HW129597   2.898   3.187   1.256  0.3926 -1.2110  0.9430
 6045SOL    HW229598   2.939   3.105   1.135  1.9354  0.8877 -1.0998
 6046SOL     OW29599   3.754   3.293   6.517 -0.2803  0.1306  0.6472
 6046SOL    HW129600   3.780   3.378   6.553  2.9054 -1.0593  1.2209
 6046SOL    HW229601   3.831   3.240   6.538  0.0494 -0.0395 -1.0476
 6047SOL     OW29602   3.801   1.551   3.226  0.4803 -0.4911 -0.0622
 6047SOL    HW129603   3.814   1.607   3.150  0.0803  0.4125  0.5332
 6047SOL    HW229604   3.711   1.578   3.245  1.5120  1.5078  2.0358
 6048SOL     OW29605   4.028   4.265   0.627  0.4582 -0.0573  0.5920
 6048SOL    HW129606   4.060   4.326   0.561 -2.0186  1.9493  1.2480
 6048SOL    HW229607   4.013   4.331   0.695  2.5774 -0.1055  1.0835
 6049SOL     OW29608   0.106   3.520   5.973  0.4091 -0.2383 -0.6605
 6049SOL    HW129609   0.159   3.480   6.041 -0.6325 -0.0192  0.2891
 6049SOL    HW229610   0.057   3.581   6.028  0.6146 -0.4591 -0.2361
 6050SOL     OW29611   2.609   3.155   8.630  0.4689 -0.3987  0.5234
 6050SOL    HW129612   2.528   3.190   8.591  1.8167 -0.8553 -2.6510
 6050SOL    HW229613   2.578   3.115   8.712  0.1250  0.0977  0.6396
 6051SOL     OW29614   1.507   0.032   6.177  0.7549  0.2835 -0.5183
 6051SOL    HW129615   1.418   0.006   6.151  1.7013 -1.1332 -2.3120
 6051SOL    HW229616   1.525   0.112   6.128  0.5021  0.3114 -0.5675
 6052SOL     OW29617   2.503   3.921   3.203 -0.5549  0.5820 -0.0415
 6052SOL    HW129618   2.558   3.959   3.134  0.5995 -1.4157 -0.2037
 6052SOL    HW229619   2.499   3.998   3.260  0.9118 -1.1582  2.3831
 6053SOL     OW29620   2.931   2.347  17.439  0.4471 -0.1861  0.4076
 6053SOL    HW129621   2.851   2.331  17.390  0.1404 -0.6305  1.0684
 6053SOL    HW229622   2.960   2.429  17.398  1.2795 -0.0276  1.3199
 6054SOL     OW29623   4.624   0.893   6.468 -0.1952 -0.6120  0.3133
 6054SOL    HW129624   4.713   0.926   6.461 -0.3613  0.0645  1.3811
 6054SOL    HW229625   4.643   0.800   6.464  1.8221 -0.1372 -1.0007
 6055SOL     OW29626   1.452   3.802   2.581 -0.0899  0.1581 -0.2601
 6055SOL    HW129627   1.406   3.877   2.543 -0.6016  0.5131  1.0412
 6055SOL    HW229628   1.417   3.797   2.670 -0.1483  2.3893 -0.1508
 6056SOL     OW29629   0.115   4.219   4.336  0.0140 -0.4436 -0.1879
 6056SOL    HW129630   0.044   4.177   4.288 -1.3651  1.5283  0.1202
 6056SOL    HW229631   0.060   4.277   4.389  1.7009  2.4540 -1.6279
 6057SOL     OW29632   3.744   3.472   5.985  0.0163  0.0310 -0.1502
 6057SOL    HW129633   3.717   3.524   5.909 -0.4757 -0.9166 -0.6240
 6057SOL    HW229634   3.836   3.497   5.994  0.2306 -1.0396  0.6259
 6058SOL     OW29635   3.664   1.291   4.683 -0.4044 -0.0119  0.5302
 6058SOL    HW129636   3.634   1.303   4.593 -0.6271  1.4713  0.7974
 6058SOL    HW229637   3.753   1.326   4.679 -0.1169 -0.9766 -1.5811
 6059SOL     OW29638   0.586   4.208   1.970 -0.0571 -0.0751 -0.2073
 6059SOL    HW129639   0.646   4.264   1.920 -0.5979  0.9726  0.3106
 6059SOL    HW229640   0.604   4.264   2.046  1.7296 -0.4421 -0.3422
 6060SOL     OW29641   1.524   0.285   0.511 -0.3645 -0.1758  0.1065
 6060SOL    HW129642   1.471   0.224   0.563  0.3669 -1.2198 -0.3597
 6060SOL    HW229643   1.554   0.221   0.447 -2.5781 -0.7497 -0.3683
 6061SOL     OW29644   2.812   2.841   4.107 -0.0515  0.2614  0.1167
 6061SOL    HW129645   2.748   2.777   4.139  0.1461  0.8805  1.7336
 6061SOL    HW229646   2.795   2.853   4.013  2.6202  0.4784 -0.3261
 6062SOL     OW29647   0.197   2.948  13.164  0.5915  0.1098 -0.1773
 6062SOL    HW129648   0.135   2.966  13.094 -0.3484  1.5679  1.0011
 6062SOL    HW229649   0.164   2.868  13.205  0.4475 -0.8438 -2.2139
 6063SOL     OW29650   1.483   4.641   8.136  0.0724  0.0453 -0.0200
 6063SOL    HW129651   1.563   4.670   8.093  1.1704 -0.5245  1.6351
 6063SOL    HW229652   1.421   4.666   8.068  1.3878 -0.3825 -1.3897
 6064SOL     OW29653   1.926   0.430  15.907  0.3317  0.1041 -0.6143
 6064SOL    HW129654   2.003   0.454  15.855  0.8712 -1.4494 -0.5284
 6064SOL    HW229655   1.951   0.453  15.996  1.4240  0.2819 -0.9622
 6065SOL     OW29656   0.226   3.517  12.779 -0.0935  0.0026 -0.4914
 6065SOL    HW129657   0.316   3.551  12.784 -0.2809  0.8849 -3.0919
 6065SOL    HW229658   0.217   3.493  12.871  2.0593 -0.3823 -0.3605
 6066SOL     OW29659   2.496   3.467   9.206  0.0032  0.3114  0.5610
 6066SOL    HW129660   2.577   3.430   9.243  0.9505  2.4628  0.6026
 6066SOL    HW229661   2.497   3.436   9.115  0.0299 -0.1496  0.7138
 6067SOL     OW29662   3.682   4.151  16.451  0.0693  0.4287 -0.2761
 6067SOL    HW129663   3.622   4.128  16.380  0.5022  0.9391 -0.8100
 6067SOL    HW229664   3.704   4.065  16.486  0.5213  0.2598 -0.9765
 6068SOL     OW29665   2.733   4.487   7.209  0.4183  0.3173 -0.7691
 6068SOL    HW129666   2.802   4.460   7.270 -0.5701  0.1737  0.2816
 6068SOL    HW229667   2.770   4.573   7.193 -1.0672  0.1825 -4.8086
 6069SOL     OW29668   3.672   1.426   5.878 -0.0505 -0.7014 -0.1964
 6069SOL    HW129669   3.726   1.443   5.955 -0.2840 -2.5735  0.3643
 6069SOL    HW229670   3.723   1.454   5.802 -0.9702  1.0365 -0.1868
 6070SOL     OW29671   2.831   1.314   0.233 -0.5369 -0.1249 -0.2269
 6070SOL    HW129672   2.821   1.402   0.197 -0.3304 -0.7835 -1.9044
 6070SOL    HW229673   2.743   1.297   0.267  0.4260 -1.5198  1.5345
 6071SOL     OW29674   2.449   1.288  11.821 -0.4623  0.6075 -0.6384
 6071SOL    HW129675   2.452   1.316  11.912  0.8393  0.7109 -0.7053
 6071SOL    HW229676   2.398   1.207  11.821 -1.9013  1.5251 -0.5247
 6072SOL     OW29677   2.782   3.727   2.687 -0.0164  0.0377 -0.1246
 6072SOL    HW129678   2.870   3.765   2.690  0.5336 -1.3007  0.5149
 6072SOL    HW229679   2.807   3.644   2.646  0.1807 -0.2695  0.6178
 6073SOL     OW29680   3.849   2.590   6.518 -0.1864 -0.0422  0.6018
 6073SOL    HW129681   3.911   2.540   6.464  0.2874 -0.3762  1.4557
 6073SOL    HW229682   3.880   2.555   6.602 -0.0617 -1.1779  0.0868
 6074SOL     OW29683   1.123   3.722   5.174 -0.5032 -0.3001 -0.6812
 6074SOL    HW129684   1.053   3.661   5.197  0.2177 -0.5687  0.8042
 6074SOL    HW229685   1.144   3.759   5.260 -0.9935 -2.2141  0.2614
 6075SOL     OW29686   2.242   2.945  14.028  0.0960 -0.1663 -0.4131
 6075SOL    HW129687   2.265   3.027  13.984  0.3821 -0.2347 -0.3896
 6075SOL    HW229688   2.183   2.977  14.095 -0.7268  2.6158 -2.4719
 6076SOL     OW29689   0.727   3.426   8.786  0.2822  0.0106 -0.4442
 6076SOL    HW129690   0.714   3.340   8.746  1.7182 -0.0510 -0.8008
 6076SOL    HW229691   0.777   3.475   8.721  0.6142 -2.8879 -2.3810
 6077SOL     OW29692   4.454   0.459   9.273  0.8159 -0.0576 -0.3018
 6077SOL    HW129693   4.538   0.432   9.236  0.6697 -2.1365  0.9095
 6077SOL    HW229694   4.479   0.497   9.357  0.6626 -2.5688  0.8564
 6078SOL     OW29695   4.579   3.597  13.336 -0.0561  0.6085  0.4193
 6078SOL    HW129696   4.611   3.533  13.400  1.6202  1.2539  0.2160
 6078SOL    HW229697   4.612   3.679  13.371  2.0098  0.2583 -0.7366
 6079SOL     OW29698   2.389   2.205   8.109 -0.2768  0.7068  0.4935
 6079SOL    HW129699   2.483   2.205   8.127 -0.1139 -1.9909 -0.3807
 6079SOL    HW229700   2.373   2.134   8.046  0.6331  0.1982  0.8337
 6080SOL     OW29701   0.243   4.338   5.185 -0.0624  0.4290 -0.0967
 6080SOL    HW129702   0.210   4.425   5.163  0.1564  0.3415 -0.7719
 6080SOL    HW229703   0.166   4.283   5.199  0.2294  0.0839  0.1662
 6081SOL     OW29704   4.384   0.931  15.541  0.2377 -0.4508  0.3623
 6081SOL    HW129705   4.313   0.874  15.571 -1.7028  0.9306 -1.6487
 6081SOL    HW229706   4.337   1.006  15.505 -0.1513 -1.3315 -0.9498
 6082SOL     OW29707   1.867   3.946  16.453  0.1752  0.3197  0.4127
 6082SOL    HW129708   1.948   3.997  16.450  0.5182 -0.2663 -0.1923
 6082SOL    HW229709   1.880   3.893  16.532 -2.6275  0.6516  1.1113
 6083SOL     OW29710   4.282   2.005   3.012  0.4028  0.4072 -0.1964
 6083SOL    HW129711   4.204   1.971   2.968 -1.0083 -0.3745  2.9207
 6083SOL    HW229712   4.269   2.095   2.982 -1.2304  0.5248  0.8879
 6084SOL     OW29713   2.030   0.230   5.727  0.3720  0.1313  0.6367
 6084SOL    HW129714   2.077   0.150   5.703  0.2425  0.1652  0.2627
 6084SOL    HW229715   2.037   0.232   5.822 -0.2456  1.7812  0.6543
 6085SOL     OW29716   1.355   3.980   5.142 -0.4369 -0.6868  0.2671
 6085SOL    HW129717   1.358   3.898   5.191 -0.5857 -1.6649 -1.3856
 6085SOL    HW229718   1.370   4.045   5.211  0.8560  0.4284 -1.0708
 6086SOL     OW29719   0.465   3.690   7.694 -0.8702 -0.8322 -0.3941
 6086SOL    HW129720   0.408   3.746   7.642 -0.8393 -0.2716  0.1804
 6086SOL    HW229721   0.540   3.678   7.636 -1.3976 -0.2023 -1.1951
 6087SOL     OW29722   1.705   3.422   4.576  0.1938 -0.0820 -0.1923
 6087SOL    HW129723   1.665   3.465   4.500  0.5755  0.4548 -0.0893
 6087SOL    HW229724   1.641   3.358   4.606  0.3655 -1.6250 -3.1050
 6088SOL     OW29725   3.037   0.323  14.878 -0.1668 -0.2459 -0.2939
 6088SOL    HW129726   2.997   0.254  14.931 -0.3116 -0.1479 -0.2738
 6088SOL    HW229727   2.991   0.304  14.796 -0.6491 -1.2689  0.2144
 6089SOL     OW29728   3.847   3.777  15.966  0.2023 -0.6980 -0.4127
 6089SOL    HW129729   3.828   3.798  16.057 -1.4528  1.8290 -1.3461
 6089SOL    HW229730   3.833   3.862  15.924  0.3900  1.3581  3.7024
 6090SOL     OW29731   1.814   0.685   3.491 -0.2602 -0.0148 -0.4197
 6090SOL    HW129732   1.771   0.609   3.529  0.4109 -1.0394 -1.6732
 6090SOL    HW229733   1.895   0.687   3.543 -0.4615 -0.1546 -0.1039
 6091SOL     OW29734   0.925   1.846   2.936 -0.7465  0.7697 -0.5517
 6091SOL    HW129735   0.999   1.829   2.879  0.5311  1.4472  0.9161
 6091SOL    HW229736   0.870   1.782   2.891 -0.8391  0.6188 -0.2204
 6092SOL     OW29737   0.757   1.620  12.077 -0.6476  0.7236  0.4655
 6092SOL    HW129738   0.678   1.635  12.128 -0.5669  1.2034  0.4446
 6092SOL    HW229739   0.799   1.544  12.118 -1.5289 -0.4847 -0.8582
 6093SOL     OW29740   1.842   3.867  12.276 -0.2541  0.0639 -0.1641
 6093SOL    HW129741   1.848   3.950  12.229  0.9817  0.7387  1.2016
 6093SOL    HW229742   1.834   3.806  12.202 -1.1190 -0.7926  0.6320
 6094SOL     OW29743   1.431   3.936   4.653 -0.0009 -0.2355  0.4348
 6094SOL    HW129744   1.511   3.893   4.621 -0.6048 -2.0339  1.3217
 6094SOL    HW229745   1.457   3.959   4.742 -1.4368  3.1386 -0.0310
 6095SOL     OW29746   4.221   0.875  12.181 -0.1505  0.7282  0.3223
 6095SOL    HW129747   4.141   0.926  12.170  0.1743  1.1415 -0.1179
 6095SOL    HW229748   4.253   0.890  12.270  0.8170 -1.3631  0.3201
 6096SOL     OW29749   4.232   4.004  12.416 -0.3091  0.9566 -0.6205
 6096SOL    HW129750   4.194   3.996  12.328 -0.3662 -0.2281 -0.4856
 6096SOL    HW229751   4.265   3.918  12.438 -1.3682  1.2153  1.9402
 6097SOL     OW29752   1.636   4.541   3.371  0.0439  0.3110  0.5032
 6097SOL    HW129753   1.659   4.448   3.372  2.0100  0.7874 -1.8500
 6097SOL    HW229754   1.578   4.552   3.295  0.8631  1.3168  0.0254
 6098SOL     OW29755   3.941   1.504   4.189  0.0277  0.3047 -0.0362
 6098SOL    HW129756   3.985   1.586   4.166 -0.7308  0.4694 -0.9080
 6098SOL    HW229757   3.919   1.475   4.100 -0.8153 -0.9601  0.5930
 6099SOL     OW29758   3.052   4.087  11.440 -0.5169 -0.2081 -0.2356
 6099SOL    HW129759   3.088   4.000  11.424  1.0856  0.0512  1.9885
 6099SOL    HW229760   2.959   4.073  11.427 -0.3518 -2.2348  0.8851
 6100SOL     OW29761   2.944   1.181   3.025  0.3761  0.3603  0.2386
 6100SOL    HW129762   3.035   1.164   2.998 -0.0734 -0.7546 -0.5748
 6100SOL    HW229763   2.892   1.123   2.969  2.1429 -0.6776 -0.3191
 6101SOL     OW29764   0.444   2.069  11.858 -0.6094 -0.7143  0.6540
 6101SOL    HW129765   0.360   2.079  11.903 -1.6393  2.2202 -1.9903
 6101SOL    HW229766   0.465   1.980  11.888  1.2423  0.3262  2.4277
 6102SOL     OW29767   1.429   2.899   6.614 -0.6253 -0.6680  0.4387
 6102SOL    HW129768   1.374   2.864   6.685  0.3289 -0.5474  1.2425
 6102SOL    HW229769   1.371   2.956   6.564  1.8127  0.6066 -0.9204
 6103SOL     OW29770   4.452   4.332   8.396 -0.3309 -0.2426 -0.6231
 6103SOL    HW129771   4.449   4.236   8.403 -0.0923 -0.1218  1.0488
 6103SOL    HW229772   4.471   4.353   8.304  2.8530  0.3835  0.2122
 6104SOL     OW29773   3.791   3.798   2.792  0.0774  0.1222 -0.0691
 6104SOL    HW129774   3.857   3.730   2.803 -0.1086  0.2112  1.6689
 6104SOL    HW229775   3.763   3.803   2.883  0.7158  1.5622  0.0530
 6105SOL     OW29776   2.338   0.994   3.610 -0.2327  0.8688 -0.1810
 6105SOL    HW129777   2.373   1.010   3.523 -0.6642  0.3660 -0.4500
 6105SOL    HW229778   2.345   1.082   3.646  1.7654  1.7599 -2.7876
 6106SOL     OW29779   1.171   3.374   3.235  0.0980  0.2869 -0.8120
 6106SOL    HW129780   1.219   3.438   3.287 -1.7455 -2.1357  3.8107
 6106SOL    HW229781   1.196   3.390   3.144  0.9317  0.9975 -0.4609
 6107SOL     OW29782   4.471   2.458   7.635  0.3841  0.7948  0.2640
 6107SOL    HW129783   4.523   2.462   7.555  0.5388 -0.3781  0.3012
 6107SOL    HW229784   4.386   2.488   7.603 -0.0544  0.2473  0.9081
 6108SOL     OW29785   0.101   1.824   0.070 -0.7428  0.8665  0.1397
 6108SOL    HW129786   0.102   1.731   0.051 -1.3879  0.4448  2.1961
 6108SOL    HW229787   0.015   1.853   0.038  1.6013  3.5947 -3.7441
 6109SOL     OW29788   2.449   3.694   2.878  0.1863 -0.0240  0.2520
 6109SOL    HW129789   2.440   3.661   2.789  3.1150  2.2685 -0.8934
 6109SOL    HW229790   2.355   3.693   2.895  0.3641 -2.0429  1.1333
 6110SOL     OW29791   4.650   2.045  10.731 -0.7739 -0.3405  0.1584
 6110SOL    HW129792   4.573   2.074  10.780 -1.6384 -0.8400 -0.9045
 6110SOL    HW229793   4.624   2.025  10.641  1.0096  3.1683 -1.1710
 6111SOL     OW29794   0.854   0.951   8.718  0.0261  0.1727  0.0997
 6111SOL    HW129795   0.838   0.935   8.625  0.3982  1.6866 -0.2246
 6111SOL    HW229796   0.939   0.992   8.706 -0.2795 -0.1379 -3.2481
 6112SOL     OW29797   2.842   3.815  11.416 -0.2965  0.1174  0.0654
 6112SOL    HW129798   2.838   3.851  11.328  2.9461 -2.0540 -0.9442
 6112SOL    HW229799   2.779   3.875  11.457 -2.4258 -1.7507 -0.4859
 6113SOL     OW29800   1.233   3.443  11.795  0.2196 -0.3690 -0.4473
 6113SOL    HW129801   1.156   3.397  11.762  1.7619 -2.4251 -1.1991
 6113SOL    HW229802   1.188   3.523  11.823  0.3806 -0.2607 -0.4935
 6114SOL     OW29803   1.337   2.719  12.086  0.0346  0.2570  0.0971
 6114SOL    HW129804   1.331   2.690  11.995  0.3774  0.6877 -0.0612
 6114SOL    HW229805   1.246   2.738  12.109  0.2028 -1.3281  2.1298
 6115SOL     OW29806   0.698   2.650   3.112 -0.7458 -0.9484 -0.1537
 6115SOL    HW129807   0.702   2.682   3.022 -0.0852 -0.9289 -0.1183
 6115SOL    HW229808   0.635   2.712   3.148  2.9094  2.1732  0.9347
 6116SOL     OW29809   4.264   0.522   4.132  0.0974  0.0018 -0.0507
 6116SOL    HW129810   4.341   0.579   4.122  1.6243 -1.6084  2.5723
 6116SOL    HW229811   4.298   0.452   4.188  0.7796  1.2338  1.0871
 6117SOL     OW29812   0.396   2.348   0.868 -0.3276  0.7897  0.9039
 6117SOL    HW129813   0.380   2.254   0.873 -0.5126  0.7799  0.2396
 6117SOL    HW229814   0.380   2.362   0.774  1.3654 -1.2595  0.3148
 6118SOL     OW29815   2.554   1.128  14.735  0.2833  0.0201  0.1114
 6118SOL    HW129816   2.590   1.143  14.648  1.0046  0.2731  0.4493
 6118SOL    HW229817   2.528   1.036  14.731  1.1962 -0.2724  0.9003
 6119SOL     OW29818   0.219   2.773   3.356 -0.1519  0.0261 -0.5252
 6119SOL    HW129819   0.196   2.699   3.412 -0.0938  1.7351  1.7867
 6119SOL    HW229820   0.133   2.799   3.322 -0.1921  1.0927  0.3768
 6120SOL     OW29821   2.691   0.929   5.857 -0.2967  0.5012 -0.4678
 6120SOL    HW129822   2.647   0.846   5.841  0.1185  0.0008  0.9113
 6120SOL    HW229823   2.691   0.927   5.953  2.3735  2.0146 -0.4341
 6121SOL     OW29824   4.099   3.532   2.062 -0.3262  0.3478  0.8141
 6121SOL    HW129825   4.167   3.599   2.055 -1.0785  1.0520  0.1523
 6121SOL    HW229826   4.144   3.451   2.039 -0.8315  0.3484 -0.1819
 6122SOL     OW29827   2.711   2.269   3.733 -0.2511 -0.4968  0.1608
 6122SOL    HW129828   2.673   2.184   3.753 -2.3103  0.7049  1.3435
 6122SOL    HW229829   2.805   2.252   3.731  0.1134  1.6616 -1.6451
 6123SOL     OW29830   0.578   0.463  13.765 -0.4993 -0.0284  0.2913
 6123SOL    HW129831   0.527   0.533  13.805 -0.2444 -0.1135  0.7655
 6123SOL    HW229832   0.577   0.493  13.674  0.2574 -0.7101  0.0564
 6124SOL     OW29833   1.290   3.542   4.753  0.2422 -0.1793  0.2768
 6124SOL    HW129834   1.382   3.523   4.774 -0.4439 -2.4421  1.2517
 6124SOL    HW229835   1.269   3.604   4.823  2.0014  1.2083 -0.4000
 6125SOL     OW29836   3.672   3.209  11.885  0.7968 -0.3320  0.9817
 6125SOL    HW129837   3.636   3.225  11.797  0.6413 -3.1911  0.5304
 6125SOL    HW229838   3.616   3.269  11.935 -2.2066 -1.4206 -1.0572
 6126SOL     OW29839   0.452   1.701   8.738  0.0009 -0.3668  0.5121
 6126SOL    HW129840   0.464   1.627   8.678 -1.9005 -1.1503  1.1213
 6126SOL    HW229841   0.541   1.736   8.739  0.4528 -1.5496  2.2898
 6127SOL     OW29842   1.676   3.037   8.898  0.3732  0.3774  0.0653
 6127SOL    HW129843   1.618   3.075   8.963  0.1708 -0.6576  0.4896
 6127SOL    HW229844   1.607   3.011   8.836  1.3304  1.4003 -1.4438
 6128SOL     OW29845   1.389   0.927   3.494  0.2741 -0.5130  1.1828
 6128SOL    HW129846   1.456   0.931   3.425 -0.6753 -1.6749  0.1859
 6128SOL    HW229847   1.428   0.986   3.559  1.9209 -0.2349 -0.0491
 6129SOL     OW29848   3.817   0.485   2.025 -0.5202 -0.2766 -0.4227
 6129SOL    HW129849   3.900   0.516   1.987 -0.2500 -0.6096 -0.1018
 6129SOL    HW229850   3.768   0.565   2.006  0.2398  0.6068  1.3877
 6130SOL     OW29851   0.240   2.094   4.015  0.8632 -0.2189 -0.1872
 6130SOL    HW129852   0.243   2.063   3.925  1.3927  1.3306 -0.6945
 6130SOL    HW229853   0.327   2.133   4.029  0.8604 -0.7494  1.3850
 6131SOL     OW29854   1.775   1.064   8.421 -0.0219 -0.0018  0.6147
 6131SOL    HW129855   1.699   1.014   8.391 -1.4503  3.1531 -0.9960
 6131SOL    HW229856   1.729   1.132   8.470  4.0433  2.7371  0.6901
 6132SOL     OW29857   2.409   3.610   8.258  0.0370  0.8893 -0.4148
 6132SOL    HW129858   2.393   3.669   8.185  0.4312  1.8641  0.2794
 6132SOL    HW229859   2.354   3.536   8.233  0.8226 -0.0002  0.4882
 6133SOL     OW29860   1.846   2.653   1.240 -0.5253 -0.1880 -0.2689
 6133SOL    HW129861   1.821   2.662   1.148 -1.5316  1.2136  0.1378
 6133SOL    HW229862   1.865   2.560   1.248  2.6470  0.5813  1.0481
 6134SOL     OW29863   4.703   2.166   8.478 -0.1083 -0.1353  0.0892
 6134SOL    HW129864   0.045   2.122   8.424 -1.7933 -0.9058 -1.3471
 6134SOL    HW229865   4.637   2.097   8.471 -0.0445 -0.3851  1.9161
 6135SOL     OW29866   0.552   0.039  13.866  0.2352  0.1006 -0.1469
 6135SOL    HW129867   0.615   0.063  13.934  0.5765 -0.0666 -0.3983
 6135SOL    HW229868   0.599   0.067  13.787  0.6301  0.0426  0.0664
 6136SOL     OW29869   2.834   2.823   2.790  0.1494  0.1409 -0.0334
 6136SOL    HW129870   2.766   2.772   2.745 -1.3571  1.2403  1.0183
 6136SOL    HW229871   2.781   2.876   2.849 -0.9253  1.6741 -2.3870
 6137SOL     OW29872   1.385   3.297   7.193 -0.5893  0.2292 -0.4878
 6137SOL    HW129873   1.473   3.259   7.202 -0.3419  1.1984  1.3142
 6137SOL    HW229874   1.336   3.222   7.161  0.3056 -1.1454  1.3203
 6138SOL     OW29875   2.043   0.146   6.345 -0.0911  0.5457  0.2352
 6138SOL    HW129876   2.013   0.082   6.409 -0.7173 -0.6829 -1.2831
 6138SOL    HW229877   2.137   0.129   6.347 -0.2192 -0.4984 -2.7806
 6139SOL     OW29878   0.852   3.894   5.496  0.4340 -0.4819 -0.1848
 6139SOL    HW129879   0.806   3.923   5.575  0.3146  1.3330 -0.9215
 6139SOL    HW229880   0.786   3.832   5.463 -1.4304  0.4964  1.6901
 6140SOL     OW29881   1.703   3.941   8.653  0.2848 -0.0237  0.2256
 6140SOL    HW129882   1.637   4.005   8.624 -0.7392 -1.0265  0.3481
 6140SOL    HW229883   1.709   3.947   8.749  0.8906  1.6925  0.0849
 6141SOL     OW29884   4.576   1.686   5.397  0.3658 -0.3479  0.2056
 6141SOL    HW129885   4.570   1.729   5.312 -0.8620  0.9198  0.9533
 6141SOL    HW229886   4.639   1.614   5.389  1.6784  0.6126  1.7334
 6142SOL     OW29887   0.584   0.217   7.018 -0.1355 -0.0275  0.1303
 6142SOL    HW129888   0.539   0.271   7.082  0.0062  1.5245 -1.0944
 6142SOL    HW229889   0.580   0.269   6.937  0.9080  2.2675  1.5614
 6143SOL     OW29890   2.158   3.159   6.734 -0.4503  0.2498  0.4074
 6143SOL    HW129891   2.247   3.132   6.756 -1.6130 -3.3083  0.8271
 6143SOL    HW229892   2.104   3.083   6.757  1.2575 -0.5999  1.6064
 6144SOL     OW29893   4.646   0.699   5.142 -0.4942 -0.3808  0.6480
 6144SOL    HW129894   4.702   0.774   5.158  2.3013 -2.0303 -1.4404
 6144SOL    HW229895   4.571   0.739   5.097 -0.0829  1.2647  1.4681
 6145SOL     OW29896   4.160   4.080   2.118 -0.2287  0.3291  0.0884
 6145SOL    HW129897   4.197   4.021   2.052 -0.6954 -1.1504  1.1367
 6145SOL    HW229898   4.080   4.105   2.073  0.1746 -1.1487 -1.4340
 6146SOL     OW29899   0.307   3.023   7.010 -0.3138 -0.2025 -0.0473
 6146SOL    HW129900   0.354   3.039   6.928  1.0532 -0.4335  0.6924
 6146SOL    HW229901   0.304   3.112   7.046  0.8413  0.0990 -0.6899
 6147SOL     OW29902   3.110   2.968   5.371 -0.4174 -0.3032  0.4449
 6147SOL    HW129903   3.147   3.044   5.327 -0.2484  0.4063  1.8481
 6147SOL    HW229904   3.078   2.925   5.291 -5.2079 -1.0215  2.7525
 6148SOL     OW29905   3.149   3.384   9.885 -0.6530  0.3638  0.1030
 6148SOL    HW129906   3.218   3.332   9.844 -0.2699 -0.0760  1.3122
 6148SOL    HW229907   3.196   3.420   9.960  0.5148  0.8081 -0.8292
 6149SOL     OW29908   0.825   0.407   2.962  0.0763 -0.2665  0.2659
 6149SOL    HW129909   0.739   0.383   2.930 -0.2128  3.2677 -1.5978
 6149SOL    HW229910   0.853   0.318   2.981  1.1210 -0.8576 -4.0135
 6150SOL     OW29911   1.106   4.496   7.980 -0.4314  0.9115  0.4606
 6150SOL    HW129912   1.139   4.450   8.057 -1.2732  0.4491  0.5303
 6150SOL    HW229913   1.178   4.490   7.916 -1.6222  1.4464 -0.9439
 6151SOL     OW29914   0.106   0.435  12.812 -0.5486  0.0536 -0.3841
 6151SOL    HW129915   0.147   0.479  12.737  0.0855 -0.6306 -0.4429
 6151SOL    HW229916   0.179   0.378  12.838  0.1038  1.3705  0.6434
 6152SOL     OW29917   1.147   1.617   2.200 -0.0549 -0.3033  0.3077
 6152SOL    HW129918   1.237   1.613   2.166 -0.1179  1.8155 -0.1303
 6152SOL    HW229919   1.096   1.651   2.127 -2.2026  0.4242  2.1381
 6153SOL     OW29920   3.686   2.258   5.851  0.8409  0.3895  0.4960
 6153SOL    HW129921   3.702   2.256   5.756  1.1711 -2.5133  0.5967
 6153SOL    HW229922   3.774   2.262   5.888  0.4127  1.7692  1.3498
 6154SOL     OW29923   0.625   3.108   7.100 -0.4696 -0.0509 -0.0933
 6154SOL    HW129924   0.641   3.091   7.007 -0.5753 -3.4733  0.5003
 6154SOL    HW229925   0.717   3.092   7.122 -0.7390 -1.0941  0.2629
 6155SOL     OW29926   2.539   3.767   5.645  0.0687 -0.8268 -0.3449
 6155SOL    HW129927   2.597   3.793   5.717  1.6185  0.2207 -1.9857
 6155SOL    HW229928   2.465   3.823   5.670  1.4734  0.2412  1.4623
 6156SOL     OW29929   0.091   0.468   4.036 -0.1457  0.3418  0.3942
 6156SOL    HW129930   0.148   0.543   4.056  1.1911 -0.4606 -0.3734
 6156SOL    HW229931   0.083   0.429   4.123 -2.8572  1.6437  0.7000
 6157SOL     OW29932   1.531   3.151   2.273  0.4431  0.4638  0.0376
 6157SOL    HW129933   1.512   3.172   2.364  0.2415 -0.7583  0.2718
 6157SOL    HW229934   1.569   3.228   2.230  2.4682 -1.5398 -1.8023
 6158SOL     OW29935   0.170   1.990  17.125 -0.1831  0.0134 -0.0687
 6158SOL    HW129936   0.209   2.021  17.043 -0.0122 -0.2577 -0.0868
 6158SOL    HW229937   0.094   1.937  17.099  0.4768 -0.5169 -0.8892
 6159SOL     OW29938   1.449   0.172  12.073  0.1383 -0.0516  0.1801
 6159SOL    HW129939   1.435   0.084  12.037 -1.2654 -0.0562  0.7422
 6159SOL    HW229940   1.368   0.197  12.118 -0.0861 -1.3232  0.4732
 6160SOL     OW29941   3.379   4.102   4.212 -0.6076 -0.2496  0.0116
 6160SOL    HW129942   3.322   4.071   4.282  0.0541  1.2760  1.2295
 6160SOL    HW229943   3.319   4.113   4.138 -0.0878 -1.2743 -0.5574
 6161SOL     OW29944   1.571   0.420   9.351  0.2186 -0.2616  0.3918
 6161SOL    HW129945   1.503   0.388   9.410  0.1710 -0.1810  0.3812
 6161SOL    HW229946   1.595   0.344   9.300 -1.7975 -0.8783  0.3707
 6162SOL     OW29947   3.620   3.842   7.858 -0.6460  0.0520 -0.3348
 6162SOL    HW129948   3.624   3.750   7.832 -1.1420 -0.4745  1.4225
 6162SOL    HW229949   3.560   3.877   7.792 -0.6240  0.4497 -0.1406
 6163SOL     OW29950   3.351   2.374   5.537 -0.2223  0.0454  0.3311
 6163SOL    HW129951   3.403   2.412   5.608 -0.5673 -0.2938  0.7618
 6163SOL    HW229952   3.314   2.298   5.582  2.4035 -0.0053  2.4195
 6164SOL     OW29953   0.972   1.032  10.438  0.0023  0.6607  0.6338
 6164SOL    HW129954   0.950   0.941  10.457  0.1329  0.4019 -0.4214
 6164SOL    HW229955   0.901   1.074  10.488  0.4182  1.8906  0.1829
 6165SOL     OW29956   4.225   0.681   7.106  0.0873  0.2087 -0.0066
 6165SOL    HW129957   4.157   0.690   7.174 -0.4893 -2.2745 -0.2656
 6165SOL    HW229958   4.280   0.614   7.144  1.1985  0.3791 -1.3373
 6166SOL     OW29959   4.418   2.836   5.240  0.1882 -0.0158  0.2345
 6166SOL    HW129960   4.493   2.894   5.224  0.1276 -0.6220 -2.1470
 6166SOL    HW229961   4.411   2.788   5.158 -0.3758  2.1782 -0.9994
 6167SOL     OW29962   4.688   2.635   2.728 -0.2855  0.4225  0.4265
 6167SOL    HW129963   4.705   2.636   2.634 -2.0526 -0.6609  0.1017
 6167SOL    HW229964   0.005   2.718   2.753  0.2180  0.0894  0.6954
 6168SOL     OW29965   4.183   1.361  13.173 -0.3507  0.6109 -0.2671
 6168SOL    HW129966   4.094   1.363  13.137  0.3321 -1.3683 -2.0484
 6168SOL    HW229967   4.193   1.446  13.216 -1.2314  0.0377  1.0802
 6169SOL     OW29968   0.097   1.472   6.054 -0.0984 -0.0588 -0.0876
 6169SOL    HW129969   0.163   1.512   5.998  2.1646 -0.5844  2.1485
 6169SOL    HW229970   0.122   1.495   6.144 -1.2044  1.9685 -0.3250
 6170SOL     OW29971   0.527   4.408   5.756 -0.1959  0.3467  0.3379
 6170SOL    HW129972   0.590   4.432   5.825  1.5562  0.1130 -1.1732
 6170SOL    HW229973   0.573   4.339   5.708 -0.3741  2.3441 -2.6987
 6171SOL     OW29974   4.312   3.681  15.105  0.4060  0.3730  0.4072
 6171SOL    HW129975   4.361   3.711  15.181  2.2712  0.9385 -1.0276
 6171SOL    HW229976   4.228   3.670  15.150  0.8452 -1.7260  0.7228
 6172SOL     OW29977   2.315   4.399   6.191  0.3227  0.5600  0.6291
 6172SOL    HW129978   2.357   4.407   6.277 -1.7633 -0.3155  1.7218
 6172SOL    HW229979   2.325   4.492   6.169  1.1805  0.0065 -1.3678
 6173SOL     OW29980   4.710   4.282  13.189 -0.1113  0.4346  0.3468
 6173SOL    HW129981   4.712   4.289  13.094 -1.1465  1.8900  0.4347
 6173SOL    HW229982   0.006   4.191  13.212  1.2892  0.4010 -1.0302
 6174SOL     OW29983   3.658   0.918   9.835  0.5305 -0.4607 -0.0143
 6174SOL    HW129984   3.717   0.921   9.760  0.2871 -1.1081 -0.2400
 6174SOL    HW229985   3.669   0.825   9.857 -0.1306 -0.3419  0.8371
 6175SOL     OW29986   1.705   1.282   3.113  0.2120  0.6057  0.0962
 6175SOL    HW129987   1.756   1.239   3.044  0.7777  0.0055  0.8800
 6175SOL    HW229988   1.736   1.370   3.137  0.0805  0.6523  0.0931
 6176SOL     OW29989   3.602   4.287   8.818  0.1067 -0.2935 -0.2383
 6176SOL    HW129990   3.514   4.270   8.783 -0.9696  2.3217  1.2074
 6176SOL    HW229991   3.602   4.227   8.892  1.2809  0.8848  0.7076
 6177SOL     OW29992   3.399   0.997   6.806 -0.2684 -0.3166 -0.3353
 6177SOL    HW129993   3.364   0.999   6.717  1.1551  2.2204 -0.8433
 6177SOL    HW229994   3.488   0.972   6.780 -0.1308 -2.3146  2.1388
 6178SOL     OW29995   3.617   0.973  13.068 -0.1526  0.2287  0.2487
 6178SOL    HW129996   3.702   0.991  13.109  0.8824  2.1297 -2.6966
 6178SOL    HW229997   3.645   0.887  13.035  1.1830  0.3675  1.0169
 6179SOL     OW29998   2.251   4.639   8.351 -0.6931 -0.1814 -0.2025
 6179SOL    HW129999   2.285   4.578   8.285  0.3697  2.1939 -1.8503
 6179SOL    HW230000   2.194   4.574   8.393 -1.6641  0.2844 -0.7994
 6180SOL     OW30001   3.500   0.065  14.417  0.9537 -0.4945 -0.3336
 6180SOL    HW130002   3.553   0.132  14.375  0.7703 -0.0139  0.2114
 6180SOL    HW230003   3.430   0.118  14.454  3.2382  1.4600  1.1551
 6181SOL     OW30004   1.190   4.356  14.994 -0.0959 -0.1724  0.0106
 6181SOL    HW130005   1.158   4.444  15.017  0.1892 -0.0721  0.0304
 6181SOL    HW230006   1.183   4.363  14.899 -0.5076 -0.1024  0.0479
 6182SOL     OW30007   3.738   2.244  16.313  0.2234  0.3011  0.1979
 6182SOL    HW130008   3.694   2.252  16.397  0.6871 -0.6553  0.5213
 6182SOL    HW230009   3.828   2.268  16.333 -0.1257  2.4695 -0.7520
 6183SOL     OW30010   2.123   0.256   0.585 -0.0702 -0.1165 -0.3630
 6183SOL    HW130011   2.059   0.327   0.579 -0.8735 -0.7444  0.8714
 6183SOL    HW230012   2.067   0.194   0.538  2.1736  0.0273 -3.2778
 6184SOL     OW30013   4.717   0.221   3.571  0.5396  0.5883  0.3593
 6184SOL    HW130014   0.037   0.248   3.652  0.2923 -3.0019  1.6715
 6184SOL    HW230015   4.642   0.279   3.577 -0.5396 -0.4803 -3.3255
 6185SOL     OW30016   1.895   0.526   6.017  0.4672  0.0150 -0.0980
 6185SOL    HW130017   1.889   0.432   6.002 -0.3428  0.3302 -1.8218
 6185SOL    HW230018   1.941   0.523   6.101  0.0065 -1.5557  0.0979
 6186SOL     OW30019   2.414   0.629  13.144 -0.3487 -0.1711 -0.4898
 6186SOL    HW130020   2.406   0.534  13.140 -1.7238 -0.0299 -1.1373
 6186SOL    HW230021   2.433   0.634  13.237  0.3340  2.6744 -0.7590
 6187SOL     OW30022   2.120   3.118   8.216  0.0379 -0.1690 -0.7700
 6187SOL    HW130023   2.147   3.027   8.209  1.6403  0.0771  2.3369
 6187SOL    HW230024   2.166   3.154   8.291 -0.7804 -1.9452  0.5848
 6188SOL     OW30025   4.158   3.814   5.603  0.2623 -0.0571  0.4906
 6188SOL    HW130026   4.076   3.812   5.653  0.7777 -0.1500  1.3218
 6188SOL    HW230027   4.190   3.724   5.608 -2.9094 -1.1797  0.9425
 6189SOL     OW30028   4.055   0.826   8.658  0.1828  0.4800  0.1418
 6189SOL    HW130029   4.117   0.786   8.719 -0.5046  1.0167  1.1872
 6189SOL    HW230030   4.044   0.758   8.592  0.2852 -0.0137  0.6350
 6190SOL     OW30031   2.250   1.799   5.189 -0.4009 -0.4463  0.0055
 6190SOL    HW130032   2.209   1.856   5.255 -1.2923  0.9561 -1.7669
 6190SOL    HW230033   2.205   1.818   5.107  1.4991  0.8212 -0.7670
 6191SOL     OW30034   1.809   3.245   9.913 -0.3757 -0.9901 -0.5194
 6191SOL    HW130035   1.749   3.294   9.856 -1.4082 -0.4171  1.0408
 6191SOL    HW230036   1.831   3.303   9.985 -0.8433 -1.6216  0.1313
 6192SOL     OW30037   0.231   0.969  13.182 -0.1624 -0.7561  0.0978
 6192SOL    HW130038   0.291   0.905  13.219  0.0022 -0.5640  0.1633
 6192SOL    HW230039   0.159   0.966  13.244 -0.4274  1.4264 -0.1235
 6193SOL     OW30040   0.298   1.705   3.117 -0.5604  0.1721 -0.2056
 6193SOL    HW130041   0.337   1.735   3.199 -1.3532 -0.9700  0.5874
 6193SOL    HW230042   0.348   1.751   3.050 -0.3108  0.7976  0.4128
 6194SOL     OW30043   1.728   0.071   9.778 -0.2222  0.2299  0.0327
 6194SOL    HW130044   1.652   0.043   9.829 -0.3060 -0.2011 -0.3282
 6194SOL    HW230045   1.704   0.047   9.688  0.5522  0.5556 -0.2593
 6195SOL     OW30046   2.094   0.407   6.559 -0.4056  0.2170  0.1357
 6195SOL    HW130047   2.046   0.344   6.505  1.5202 -0.2967 -0.9637
 6195SOL    HW230048   2.146   0.344   6.610  2.1339  3.2326  1.2833
 6196SOL     OW30049   0.697   3.566  13.418 -0.7426 -0.0727  0.4402
 6196SOL    HW130050   0.752   3.583  13.342 -0.3920 -0.5617  0.5897
 6196SOL    HW230051   0.751   3.616  13.479  0.0625  0.2472 -0.5537
 6197SOL     OW30052   3.355   1.677   6.470  0.0717  0.2089 -0.5058
 6197SOL    HW130053   3.272   1.695   6.425 -0.6212  0.9259  1.0440
 6197SOL    HW230054   3.398   1.762   6.476 -0.8109  0.6132  0.2209
 6198SOL     OW30055   2.395   0.123  13.504 -0.7035  0.9093 -0.3760
 6198SOL    HW130056   2.351   0.134  13.588 -0.5125 -0.9093 -0.0439
 6198SOL    HW230057   2.485   0.134  13.537 -0.7821 -1.9186  0.7944
 6199SOL     OW30058   4.297   3.636   5.948  0.2584 -0.4870  0.0500
 6199SOL    HW130059   4.355   3.706   5.979 -1.2991  2.1317 -2.9893
 6199SOL    HW230060   4.323   3.559   5.999  1.4178  1.3048  2.1686
 6200SOL     OW30061   1.051   1.649   0.151  0.3978 -0.1599  0.3181
 6200SOL    HW130062   0.962   1.624   0.127  1.1110 -0.6517 -1.8850
 6200SOL    HW230063   1.029   1.737   0.180 -0.0142 -0.0968 -0.1873
 6201SOL     OW30064   4.572   2.784   7.244  0.3331  0.0939  0.4102
 6201SOL    HW130065   4.617   2.733   7.312  0.2243  2.6780  2.4361
 6201SOL    HW230066   4.551   2.722   7.175 -1.0083  0.9764  0.0207
 6202SOL     OW30067   0.393   4.040   7.140 -0.6854  0.3192 -0.1273
 6202SOL    HW130068   0.310   4.079   7.168 -1.7509 -0.6633 -1.9027
 6202SOL    HW230069   0.366   4.012   7.052  3.0016  1.2093 -1.5154
 6203SOL     OW30070   1.995   4.263   6.406  0.1405  0.2461  0.2468
 6203SOL    HW130071   2.063   4.206   6.444 -1.1726 -0.6823  1.1868
 6203SOL    HW230072   1.915   4.232   6.447  0.7167  0.0630  1.2197
 6204SOL     OW30073   1.727   3.896  16.217 -0.4093  0.2276  0.1822
 6204SOL    HW130074   1.748   3.812  16.176 -1.4143 -0.5946  1.3433
 6204SOL    HW230075   1.796   3.900  16.283  2.1747 -0.6403 -2.5139
 6205SOL     OW30076   1.641   2.392  10.188  0.5945  0.2379  0.7885
 6205SOL    HW130077   1.661   2.343  10.268 -0.1938 -1.3350  0.0407
 6205SOL    HW230078   1.652   2.322  10.124 -0.2324  0.7080  0.1295
 6206SOL     OW30079   4.589   2.603  14.242 -0.1628  0.0106  0.0840
 6206SOL    HW130080   4.548   2.665  14.302  1.2984  0.5045  0.5844
 6206SOL    HW230081   4.676   2.643  14.248 -0.0267 -0.3887  0.7919
 6207SOL     OW30082   1.654   1.531   8.847 -0.2611 -0.5049 -0.3505
 6207SOL    HW130083   1.584   1.473   8.875 -0.2050 -1.0483 -1.3409
 6207SOL    HW230084   1.725   1.467   8.838  0.7843  0.5325  0.4612
 6208SOL     OW30085   2.377   1.967  13.472 -0.7132  0.0052 -0.5520
 6208SOL    HW130086   2.317   2.004  13.537 -0.6877 -0.6624 -0.1521
 6208SOL    HW230087   2.386   2.031  13.401 -0.7713  1.9669  1.2086
 6209SOL     OW30088   4.011   2.347  11.276  0.6286  0.0810 -0.5113
 6209SOL    HW130089   4.052   2.309  11.354 -0.9791 -1.5053 -0.4492
 6209SOL    HW230090   3.937   2.383  11.325  0.7802  1.6164 -1.3839
 6210SOL     OW30091   0.761   0.042   4.125  0.5999 -0.2887  0.2451
 6210SOL    HW130092   0.853   0.034   4.150  0.7369 -0.6974 -0.3880
 6210SOL    HW230093   0.769   0.068   4.033 -2.2014  1.4322  0.4763
 6211SOL     OW30094   4.186   3.681   5.142 -0.9611  0.1501  0.1088
 6211SOL    HW130095   4.178   3.638   5.057  0.6522  1.0309 -0.4817
 6211SOL    HW230096   4.249   3.619   5.180 -1.4068 -0.1277  0.3882
 6212SOL     OW30097   0.375   1.808   6.537 -0.5161  0.2390  0.0621
 6212SOL    HW130098   0.292   1.785   6.494 -0.0929  0.6214 -0.9466
 6212SOL    HW230099   0.394   1.886   6.485 -0.9717  1.4267  1.6615
 6213SOL     OW30100   1.881   0.279   8.427 -0.4113 -0.3060  0.4038
 6213SOL    HW130101   1.869   0.319   8.341  1.3208  0.0583  0.3306
 6213SOL    HW230102   1.877   0.356   8.483 -1.3357  0.8296 -1.2118
 6214SOL     OW30103   0.003   2.380  12.402 -0.4443  0.1734  0.1774
 6214SOL    HW130104   4.633   2.391  12.390 -0.4295 -1.0005 -0.9817
 6214SOL    HW230105   0.015   2.402  12.494  1.5506  1.2884 -0.3579
 6215SOL     OW30106   2.727   0.128   8.605 -0.0168 -0.2287  0.8979
 6215SOL    HW130107   2.689   0.115   8.519 -0.8504  0.6146  1.1461
 6215SOL    HW230108   2.710   0.218   8.632  2.7140  0.3930  0.6181
 6216SOL     OW30109   3.832   0.920  14.592  0.1437 -0.0899 -0.0000
 6216SOL    HW130110   3.885   0.893  14.517 -1.2548  0.7301 -1.2612
 6216SOL    HW230111   3.889   0.916  14.669 -1.7188  1.2038  1.4485
 6217SOL     OW30112   3.985   4.497  10.212 -0.2135 -0.3298  0.3387
 6217SOL    HW130113   3.951   4.411  10.188 -0.6920 -0.4191  1.2987
 6217SOL    HW230114   4.077   4.485  10.189 -0.3754  0.8028 -0.8589
 6218SOL     OW30115   2.642   2.381   4.880  0.1683 -0.1432 -0.2183
 6218SOL    HW130116   2.548   2.372   4.862  0.2530 -1.2151 -0.1572
 6218SOL    HW230117   2.661   2.420   4.795 -2.4019  1.1909 -0.1746
 6219SOL     OW30118   4.174   4.052   7.943  0.2377 -0.3764  0.3296
 6219SOL    HW130119   4.250   4.037   7.886  1.2392 -0.9761  1.8476
 6219SOL    HW230120   4.219   4.052   8.027 -0.8758  0.6722  0.9203
 6220SOL     OW30121   4.575   1.448   4.759  0.1204 -0.8979  0.0987
 6220SOL    HW130122   4.502   1.477   4.814 -0.9232  1.0870 -2.3164
 6220SOL    HW230123   4.647   1.461   4.821  1.6213  1.4078 -2.1436
 6221SOL     OW30124   4.251   2.942   6.561  0.4571 -0.1223 -0.0460
 6221SOL    HW130125   4.163   2.979   6.557  1.6957  2.6457 -1.7129
 6221SOL    HW230126   4.300   3.024   6.559 -1.5405  1.0727 -0.0979
 6222SOL     OW30127   2.581   0.002   6.224 -0.0226  0.2224 -0.7431
 6222SOL    HW130128   2.675   4.713   6.213  0.3184 -0.2263  2.7421
 6222SOL    HW230129   2.587   0.089   6.187 -5.5200  0.3253 -1.4160
 6223SOL     OW30130   3.258   4.705   4.920 -0.6040  0.0675  0.2154
 6223SOL    HW130131   3.351   4.689   4.901 -0.9267  0.0899 -1.3786
 6223SOL    HW230132   3.257   0.076   4.930  0.0288  0.0837  0.1714
 6224SOL     OW30133   3.150   0.110  12.312 -0.1573  0.6462  0.2706
 6224SOL    HW130134   3.170   0.016  12.318 -1.3491  0.3780  0.0174
 6224SOL    HW230135   3.233   0.138  12.274 -0.7120  1.8931  0.0039
 6225SOL     OW30136   3.124   1.785   6.016 -0.3707 -0.5707  0.2648
 6225SOL    HW130137   3.147   1.694   6.000 -1.9078 -1.1172  1.1370
 6225SOL    HW230138   3.092   1.775   6.106 -2.5898  0.8579 -0.3513
 6226SOL     OW30139   1.680   4.198   8.815 -0.1895  0.0840 -0.0729
 6226SOL    HW130140   1.622   4.226   8.745  0.3804  0.8029 -0.2494
 6226SOL    HW230141   1.683   4.270   8.878 -1.8392  0.6617 -0.6530
 6227SOL     OW30142   2.099   0.097  11.903 -0.0384  0.1241 -0.1103
 6227SOL    HW130143   2.167   0.042  11.864  0.5979  1.6713 -1.1434
 6227SOL    HW230144   2.145   0.173  11.938 -0.8719  1.3335 -1.6170
 6228SOL     OW30145   0.278   3.221  14.525 -0.2019  0.1089  0.0843
 6228SOL    HW130146   0.332   3.143  14.538 -0.0474  0.6383  2.5779
 6228SOL    HW230147   0.317   3.280  14.589 -3.5537  2.1929  0.2081
 6229SOL     OW30148   3.777   2.250   6.854 -0.2420  0.8313 -0.3223
 6229SOL    HW130149   3.771   2.246   6.950  0.1254  0.2023 -0.3284
 6229SOL    HW230150   3.683   2.246   6.839 -0.2249  1.1019 -0.5047
 6230SOL     OW30151   4.680   1.045   9.185  0.4344 -0.4342 -0.4525
 6230SOL    HW130152   0.027   1.063   9.125  0.1220 -0.8263 -0.9421
 6230SOL    HW230153   0.001   1.018   9.265 -1.8610 -0.5444  0.8059
 6231SOL     OW30154   3.264   3.878  15.710 -0.2372  0.7142 -0.2742
 6231SOL    HW130155   3.318   3.813  15.756  0.0829 -0.0367 -1.7135
 6231SOL    HW230156   3.336   3.933  15.680 -0.0920  0.2232 -0.8365
 6232SOL     OW30157   2.292   3.752   0.882  0.3513 -0.1763 -0.5215
 6232SOL    HW130158   2.309   3.769   0.975  1.4207  0.8558 -0.9101
 6232SOL    HW230159   2.282   3.840   0.846  0.1846 -0.4436 -1.1350
 6233SOL     OW30160   4.273   1.267  11.146  0.3994  0.3452  0.1880
 6233SOL    HW130161   4.332   1.334  11.180  1.5525 -0.0893 -0.9698
 6233SOL    HW230162   4.188   1.312  11.147 -0.4962 -1.3830  4.0272
 6234SOL     OW30163   2.665   0.439   9.664 -0.4206 -0.3104  0.4696
 6234SOL    HW130164   2.625   0.512   9.617  0.4593 -0.3842 -0.3984
 6234SOL    HW230165   2.590   0.380   9.675  0.8969 -2.5254 -2.4596
 6235SOL     OW30166   3.535   3.737  15.337 -0.3311  0.8121  0.4691
 6235SOL    HW130167   3.476   3.739  15.412  0.5456 -3.0160  1.2269
 6235SOL    HW230168   3.622   3.718  15.372 -0.1779 -0.6215 -0.6797
 6236SOL     OW30169   2.652   1.527  10.828 -0.1225 -0.0046  0.0091
 6236SOL    HW130170   2.721   1.499  10.768  0.2992 -0.0735  0.5154
 6236SOL    HW230171   2.623   1.439  10.850  0.0852 -0.2647 -0.7826
 6237SOL     OW30172   3.031   2.391   7.209  0.1925  0.3289 -0.1549
 6237SOL    HW130173   3.114   2.408   7.164  0.5200 -0.5749  0.1013
 6237SOL    HW230174   3.038   2.297   7.191 -2.2380  0.0887  0.2249
 6238SOL     OW30175   3.794   4.162  12.843 -1.1248  0.5214 -0.1050
 6238SOL    HW130176   3.789   4.251  12.877 -0.9361  1.2045 -1.8605
 6238SOL    HW230177   3.725   4.170  12.777  0.3490  0.9822 -1.5801
 6239SOL     OW30178   4.038   0.397  13.725 -0.1039  0.1960  0.5115
 6239SOL    HW130179   4.133   0.386  13.717 -0.3652 -0.9267 -0.9435
 6239SOL    HW230180   4.014   0.327  13.786  1.4072 -0.6372  0.1460
 6240SOL     OW30181   3.265   1.963   2.899 -0.8850  0.2071 -0.1798
 6240SOL    HW130182   3.343   2.003   2.938  0.2713 -1.2200 -1.0052
 6240SOL    HW230183   3.306   1.904   2.836 -1.7405 -0.9736  0.3531
 6241SOL     OW30184   2.392   1.960   4.416 -0.2664  0.0139 -0.0326
 6241SOL    HW130185   2.314   1.954   4.472 -0.4740  0.4887 -0.2688
 6241SOL    HW230186   2.373   1.878   4.370  0.2387  0.5788 -1.2394
 6242SOL     OW30187   2.741   3.923   0.517  0.0570  0.1885 -0.2813
 6242SOL    HW130188   2.707   3.836   0.538 -1.8032  0.6917 -1.1943
 6242SOL    HW230189   2.660   3.969   0.495 -0.1291  0.2558  0.5470
 6243SOL     OW30190   1.101   2.980   3.918  0.3620  0.5488  0.0911
 6243SOL    HW130191   1.152   2.920   3.972 -0.0908  0.2496  0.1858
 6243SOL    HW230192   1.020   2.985   3.969  1.0869 -0.6246  1.3731
 6244SOL     OW30193   4.431   4.084   6.255 -0.2165 -0.4250 -0.3983
 6244SOL    HW130194   4.352   4.036   6.230 -0.7835 -0.6012  1.7637
 6244SOL    HW230195   4.464   4.109   6.169  1.6714 -1.2309  0.0993
 6245SOL     OW30196   4.392   2.587  15.212  0.3773  0.6277  0.4997
 6245SOL    HW130197   4.450   2.663  15.210  0.2413  0.7802  2.5727
 6245SOL    HW230198   4.393   2.554  15.122  1.1842 -1.6680  1.3574
 6246SOL     OW30199   4.296   3.334   8.412  0.2078  0.0914 -0.4720
 6246SOL    HW130200   4.351   3.408   8.387 -1.8069  0.8470 -2.6894
 6246SOL    HW230201   4.317   3.275   8.339  0.0022 -1.0969  0.4260
 6247SOL     OW30202   3.950   2.900   7.303 -0.4878  0.2002  0.0085
 6247SOL    HW130203   3.972   2.959   7.230 -0.6388  0.3515  0.0841
 6247SOL    HW230204   3.892   2.960   7.351 -0.9346 -0.4070  0.2311
 6248SOL     OW30205   4.151   0.462   9.970 -0.3429  0.2425 -0.1683
 6248SOL    HW130206   4.070   0.430   9.930  0.0248 -1.8396  0.8034
 6248SOL    HW230207   4.138   0.442  10.062 -0.1732 -1.4621 -0.5280
 6249SOL     OW30208   4.268   2.473   5.812  0.1428  0.0414  0.0946
 6249SOL    HW130209   4.180   2.447   5.782  0.0220  1.1285 -0.5155
 6249SOL    HW230210   4.324   2.421   5.754  1.1085  1.0392  0.1452
 6250SOL     OW30211   0.602   1.542   2.415  0.1414 -0.0761 -0.4158
 6250SOL    HW130212   0.529   1.578   2.466  1.8826  0.7163  1.5260
 6250SOL    HW230213   0.657   1.620   2.409 -0.8315  0.7149  0.8843
 6251SOL     OW30214   1.138   4.477   4.270  0.1203 -0.1185 -0.4721
 6251SOL    HW130215   1.167   4.424   4.195  1.1103 -0.1664 -0.0637
 6251SOL    HW230216   1.104   4.407   4.326  1.9145 -1.9219 -1.6257
 6252SOL     OW30217   0.169   0.807   8.624  0.1713  0.1632 -0.0376
 6252SOL    HW130218   0.210   0.852   8.551 -1.7053  1.1472 -0.4658
 6252SOL    HW230219   0.228   0.830   8.696 -1.7525  0.0153  1.5617
 6253SOL     OW30220   0.630   0.356  14.663 -0.0860 -0.2419 -0.6246
 6253SOL    HW130221   0.607   0.449  14.658  3.4395  0.5916 -1.5110
 6253SOL    HW230222   0.696   0.360  14.594  0.4224 -2.2681 -0.2462
 6254SOL     OW30223   0.895   0.800  10.667  0.2166 -0.1293 -0.0941
 6254SOL    HW130224   0.826   0.816  10.732  0.9860 -0.0564  0.7044
 6254SOL    HW230225   0.976   0.796  10.716 -0.0928 -0.2079  0.4118
 6255SOL     OW30226   0.072   4.175   9.228 -0.0690  0.0709  0.3576
 6255SOL    HW130227   0.091   4.268   9.229  0.0775  0.0536 -0.8702
 6255SOL    HW230228   0.054   4.156   9.136  1.4617  0.5008 -0.0251
 6256SOL     OW30229   1.387   2.187   9.265 -0.2119 -0.4298 -0.4750
 6256SOL    HW130230   1.417   2.277   9.252  0.0239 -0.4714 -0.2087
 6256SOL    HW230231   1.450   2.128   9.224 -1.7048 -2.1325 -0.3574
 6257SOL     OW30232   4.030   1.492   5.121 -0.0934 -0.1474  0.3110
 6257SOL    HW130233   4.113   1.455   5.149  0.4849  1.4820  0.7200
 6257SOL    HW230234   4.015   1.438   5.044 -0.1655 -0.5402  0.6019
 6258SOL     OW30235   4.450   3.836   4.832  0.4453 -0.8063  0.3793
 6258SOL    HW130236   4.454   3.740   4.829 -4.1708 -1.1355  4.0046
 6258SOL    HW230237   4.522   3.849   4.771 -1.6926 -2.3568 -2.4915
 6259SOL     OW30238   3.767   2.680  10.885  0.3288 -0.2822  0.4730
 6259SOL    HW130239   3.805   2.768  10.891 -1.5918  0.5856 -0.3870
 6259SOL    HW230240   3.823   2.626  10.829  2.2055  0.9119  1.1820
 6260SOL     OW30241   4.700   2.256   3.828 -0.5414  0.1562 -0.6374
 6260SOL    HW130242   0.052   2.272   3.773  0.0269  0.3908  0.2191
 6260SOL    HW230243   0.002   2.303   3.907 -0.3344 -0.0518 -0.5811
 6261SOL     OW30244   3.181   4.606   2.008 -0.1703  0.4844  0.0350
 6261SOL    HW130245   3.133   4.678   2.049 -3.6890 -1.3960 -0.8064
 6261SOL    HW230246   3.153   4.528   2.057 -0.2739  0.4192 -0.1321
 6262SOL     OW30247   0.443   3.645   2.007 -0.6780 -0.0050 -0.4631
 6262SOL    HW130248   0.531   3.643   1.968  0.9826  1.6531  3.1573
 6262SOL    HW230249   0.445   3.601   2.092 -0.4550 -0.8524 -0.9087
 6263SOL     OW30250   0.029   2.175   6.279  0.4339 -0.8078 -0.4618
 6263SOL    HW130251   0.036   2.088   6.239 -1.1243 -1.1129 -0.0824
 6263SOL    HW230252   0.091   2.220   6.223  0.5991 -2.6374 -1.7420
 6264SOL     OW30253   2.866   2.061  11.034 -0.0053 -0.1430  0.7357
 6264SOL    HW130254   2.877   2.102  11.119  0.7080  0.3061  0.4259
 6264SOL    HW230255   2.882   2.124  10.963  0.0261 -3.4009 -2.1586
 6265SOL     OW30256   3.045   4.093   2.137  0.5359  0.4666 -0.3239
 6265SOL    HW130257   3.119   4.064   2.189 -1.5515  1.8085  3.3820
 6265SOL    HW230258   3.064   4.093   2.043 -1.2166 -3.3326 -0.6655
 6266SOL     OW30259   3.016   0.527   5.825 -0.8472 -0.4047 -1.1075
 6266SOL    HW130260   2.991   0.533   5.733  1.9354 -1.5889 -1.9730
 6266SOL    HW230261   3.007   0.433   5.845 -0.8625 -0.4951 -1.5393
 6267SOL     OW30262   0.498   3.341   8.590 -0.0262  0.2331  0.2164
 6267SOL    HW130263   0.434   3.291   8.640  1.3793 -0.2859  1.4899
 6267SOL    HW230264   0.441   3.414   8.563  0.6976  0.2654 -1.2399
 6268SOL     OW30265   1.413   2.290  14.942  0.5539 -0.1444  0.1751
 6268SOL    HW130266   1.336   2.320  14.990  0.2611 -0.3428 -0.1740
 6268SOL    HW230267   1.475   2.363  14.951 -2.3743  2.0604  2.6817
 6269SOL     OW30268   2.414   0.399   6.987 -0.2408  0.1977 -0.5050
 6269SOL    HW130269   2.354   0.401   7.062 -0.3479 -0.9211 -0.5685
 6269SOL    HW230270   2.359   0.454   6.931  0.0846  0.9174 -0.1298
 6270SOL     OW30271   1.061   0.370  10.836 -0.4278 -0.3032 -0.0155
 6270SOL    HW130272   1.097   0.304  10.777 -0.9122 -0.7551  0.1954
 6270SOL    HW230273   1.124   0.442  10.837 -0.5910 -0.1660  0.3979
 6271SOL     OW30274   0.369   2.014   8.038 -0.5158 -0.4821 -0.0661
 6271SOL    HW130275   0.371   2.010   7.943 -1.7256  0.4481 -0.1213
 6271SOL    HW230276   0.286   1.972   8.060 -0.8645 -0.0262 -0.5235
 6272SOL     OW30277   2.622   3.761   4.267 -0.7348 -0.7063  0.8673
 6272SOL    HW130278   2.575   3.685   4.232 -1.3599  0.3159 -0.5129
 6272SOL    HW230279   2.605   3.824   4.197  1.1863  0.4145  1.3994
 6273SOL     OW30280   4.496   1.176   7.861  0.2294 -0.1670  0.1680
 6273SOL    HW130281   4.414   1.169   7.911 -0.0705  0.9191 -0.1680
 6273SOL    HW230282   4.542   1.097   7.890  1.8762  1.0239  0.7904
 6274SOL     OW30283   3.858   3.918   6.760  0.1325  0.4355  0.2376
 6274SOL    HW130284   3.829   3.998   6.803 -0.0115  1.6050 -2.0534
 6274SOL    HW230285   3.804   3.926   6.681 -0.0245 -0.7728  0.2226
 6275SOL     OW30286   2.840   3.473   2.637  0.1773 -0.7146 -0.3815
 6275SOL    HW130287   2.919   3.513   2.672  0.9428 -2.0052 -0.6538
 6275SOL    HW230288   2.863   3.393   2.590 -0.0275 -0.8133 -0.3154
 6276SOL     OW30289   3.648   2.189  17.256 -0.1886 -0.0575 -0.0905
 6276SOL    HW130290   3.744   2.195  17.253 -0.0887 -0.3433  2.2964
 6276SOL    HW230291   3.635   2.178  17.350 -2.4485  1.0095 -0.2994
 6277SOL     OW30292   2.750   3.089   4.893 -0.6607 -0.1513  0.0234
 6277SOL    HW130293   2.810   3.151   4.852 -1.7886  1.7385  1.2175
 6277SOL    HW230294   2.673   3.145   4.902 -0.6247 -0.1645  0.4282
 6278SOL     OW30295   2.314   0.071  17.018  0.0673 -0.0402  0.4751
 6278SOL    HW130296   2.231   0.097  17.059 -0.0734 -1.1955  0.9238
 6278SOL    HW230297   2.375   0.115  17.077  0.7628 -1.1235  0.5481
 6279SOL     OW30298   4.305   1.558   8.387  0.1299  0.0220  0.1753
 6279SOL    HW130299   4.232   1.616   8.363  0.1237 -0.5118 -1.0848
 6279SOL    HW230300   4.338   1.604   8.464  1.6962  2.0755 -1.7442
 6280SOL     OW30301   2.599   3.897   3.536 -0.3304 -0.1036 -0.2013
 6280SOL    HW130302   2.655   3.935   3.469 -0.6531 -0.7189 -0.8196
 6280SOL    HW230303   2.622   3.805   3.522  0.6298 -0.1429  1.5364
 6281SOL     OW30304   4.187   4.157   4.342 -0.3808  0.4351 -0.1992
 6281SOL    HW130305   4.218   4.125   4.426  1.2522 -0.0699 -1.0030
 6281SOL    HW230306   4.263   4.179   4.288 -1.0536  1.4177 -0.7613
 6282SOL     OW30307   2.817   4.580  15.220  0.3514 -0.5291  0.0878
 6282SOL    HW130308   2.734   4.532  15.216 -1.4634  2.6479 -0.7299
 6282SOL    HW230309   2.796   4.659  15.170 -0.1511 -1.2705 -0.8773
 6283SOL     OW30310   0.069   0.197   4.936 -0.6897  0.0009 -0.3218
 6283SOL    HW130311   0.087   0.275   4.988  0.3254  0.0888 -0.8133
 6283SOL    HW230312   0.048   0.237   4.851  1.0341  0.7609 -0.3878
 6284SOL     OW30313   3.919   1.706   5.235  0.3078  0.7700  0.3965
 6284SOL    HW130314   3.841   1.679   5.185 -1.0496  1.9603  1.8693
 6284SOL    HW230315   3.978   1.639   5.200 -2.1490 -1.8490  1.3066
 6285SOL     OW30316   2.181   4.383   9.136 -0.1009  0.2516  0.1327
 6285SOL    HW130317   2.243   4.456   9.143 -2.1758  2.0462 -0.0384
 6285SOL    HW230318   2.113   4.422   9.081 -1.0212 -0.8399  0.4902
 6286SOL     OW30319   1.418   0.518  15.701 -0.8031  0.0783  0.3469
 6286SOL    HW130320   1.507   0.495  15.728 -1.1191  1.4337  2.5038
 6286SOL    HW230321   1.431   0.526  15.607 -0.6891 -3.8318  0.0349
 6287SOL     OW30322   1.286   3.940  17.293 -0.3456 -0.9470 -0.0049
 6287SOL    HW130323   1.241   3.996  17.231 -1.0499  0.9513  2.2235
 6287SOL    HW230324   1.375   3.947  17.259  0.2549  1.2387  2.0395
 6288SOL     OW30325   4.185   3.538  14.627  0.0703 -0.6235 -0.1380
 6288SOL    HW130326   4.115   3.601  14.610  0.9025 -0.8630 -4.3361
 6288SOL    HW230327   4.238   3.592  14.686 -0.3869 -0.8707  0.4911
 6289SOL     OW30328   3.270   2.736   1.837 -0.1702 -0.4603  0.0079
 6289SOL    HW130329   3.274   2.664   1.899  0.8620 -0.0799  0.3811
 6289SOL    HW230330   3.180   2.765   1.848  0.0292 -0.3329  1.2413
 6290SOL     OW30331   2.008   3.463   2.644 -0.2716 -0.1737  0.2338
 6290SOL    HW130332   1.993   3.414   2.725  2.5660  0.0484  0.9001
 6290SOL    HW230333   2.033   3.548   2.681 -2.1241  0.4787 -0.0063
 6291SOL     OW30334   4.076   4.119   5.019  0.0528  0.4894 -0.0143
 6291SOL    HW130335   4.122   4.161   5.092  1.4091 -0.8409 -0.1222
 6291SOL    HW230336   4.010   4.067   5.065  1.7072 -1.0669  0.5697
 6292SOL     OW30337   2.807   2.652   2.290 -0.0392  0.5526 -0.0917
 6292SOL    HW130338   2.772   2.741   2.298 -0.2593  0.4487  0.0921
 6292SOL    HW230339   2.872   2.670   2.222  1.8882 -2.7626  0.8707
 6293SOL     OW30340   1.377   4.125   5.371  0.1939 -0.2520  0.6514
 6293SOL    HW130341   1.433   4.170   5.435  1.5393 -0.1215 -0.6111
 6293SOL    HW230342   1.294   4.099   5.412 -0.9211 -1.1368 -2.1914
 6294SOL     OW30343   3.078   1.845  11.447 -0.0781  0.3465  0.2036
 6294SOL    HW130344   3.123   1.908  11.504  1.5954 -0.0951 -0.6327
 6294SOL    HW230345   3.112   1.863  11.359  1.3333  0.9513  0.8622
 6295SOL     OW30346   0.339   4.417  15.065 -0.3631 -0.0970  0.4863
 6295SOL    HW130347   0.298   4.481  15.007 -0.5921 -1.0233 -0.3642
 6295SOL    HW230348   0.412   4.470  15.099 -0.1110 -0.5673  0.6783
 6296SOL     OW30349   4.099   0.420   7.249 -0.5470 -0.4236 -0.1043
 6296SOL    HW130350   4.103   0.503   7.297  1.5154 -1.4005  1.3929
 6296SOL    HW230351   4.145   0.368   7.314 -1.8082 -0.7983  0.4895
 6297SOL     OW30352   0.341   4.307  10.106  0.3959 -0.1453  0.0969
 6297SOL    HW130353   0.325   4.367  10.179  1.8467 -0.7571  0.9278
 6297SOL    HW230354   0.342   4.364  10.029  1.2221  1.9927  1.6741
 6298SOL     OW30355   1.695   2.741   1.771 -1.0965  0.1729 -0.4771
 6298SOL    HW130356   1.708   2.699   1.856 -1.4930 -0.6416 -0.8144
 6298SOL    HW230357   1.625   2.805   1.787 -1.2774 -0.3019  0.6360
 6299SOL     OW30358   4.147   4.203   6.967 -0.0488  0.3134 -0.6354
 6299SOL    HW130359   4.166   4.260   6.893  0.3334  0.7761 -0.1760
 6299SOL    HW230360   4.087   4.262   7.014 -0.7048 -0.0883 -0.9707
 6300SOL     OW30361   1.653   3.216   7.093  0.3505 -0.6696  1.1021
 6300SOL    HW130362   1.660   3.122   7.077  1.6077 -0.5967  1.2434
 6300SOL    HW230363   1.745   3.239   7.108 -0.5056  1.2051  3.4295
 6301SOL     OW30364   2.656   1.085   3.268 -0.1618 -0.3315 -0.1510
 6301SOL    HW130365   2.670   1.164   3.320  0.4011 -0.1268 -0.6181
 6301SOL    HW230366   2.611   1.028   3.330 -0.0127  0.4858  0.7103
 6302SOL     OW30367   3.473   1.091   2.894  0.0858 -0.4505 -0.0951
 6302SOL    HW130368   3.545   1.059   2.948 -0.0061  0.4943  0.5826
 6302SOL    HW230369   3.492   1.184   2.904  0.9880 -0.4028 -2.3459
 6303SOL     OW30370   1.817   1.749   0.765 -0.0421  0.3452 -0.5617
 6303SOL    HW130371   1.726   1.720   0.770 -0.6763  2.5228  0.4145
 6303SOL    HW230372   1.859   1.688   0.703 -0.7006  0.0568 -0.7251
 6304SOL     OW30373   4.088   0.852   9.500 -0.2435 -0.2883 -0.0928
 6304SOL    HW130374   4.163   0.873   9.555 -0.2784  1.4213 -0.6686
 6304SOL    HW230375   4.089   0.932   9.447  2.3153 -1.3384 -1.5873
 6305SOL     OW30376   0.968   0.671  10.388 -0.2891 -0.0822  0.4273
 6305SOL    HW130377   0.976   0.659  10.483 -2.3509  0.1503  0.6261
 6305SOL    HW230378   1.006   0.586  10.366  0.3327  1.2092 -3.5126
 6306SOL     OW30379   4.407   0.030  12.538  0.6759 -0.1726 -0.5350
 6306SOL    HW130380   4.489   0.024  12.489 -1.7675 -2.5066 -4.2862
 6306SOL    HW230381   4.361   4.674  12.515  0.0672 -0.0749  0.3341
 6307SOL     OW30382   0.275   3.203  12.471  0.0390  0.3595 -0.0935
 6307SOL    HW130383   0.206   3.266  12.489  0.9311  0.7324  2.0043
 6307SOL    HW230384   0.288   3.181  12.563 -1.4712  0.3061  0.0989
 6308SOL     OW30385   3.337   4.459   7.474  0.1870  0.9973 -0.4596
 6308SOL    HW130386   3.286   4.514   7.414 -1.2570  0.5882  0.3840
 6308SOL    HW230387   3.333   4.518   7.550 -0.7704  2.5913 -1.7392
 6309SOL     OW30388   0.701   1.903   7.145 -0.1345  0.3865 -0.0953
 6309SOL    HW130389   0.766   1.941   7.086 -0.6362  1.2837 -0.0616
 6309SOL    HW230390   0.719   1.811   7.125 -0.9253  0.2244 -0.0402
 6310SOL     OW30391   0.865   2.716   7.650  0.0885  0.0817  0.3824
 6310SOL    HW130392   0.855   2.811   7.658  0.9789  0.1931  0.1514
 6310SOL    HW230393   0.777   2.686   7.623  0.4271  0.5649 -1.2827
 6311SOL     OW30394   4.404   1.160   6.762 -0.8156  0.2304 -0.2309
 6311SOL    HW130395   4.312   1.149   6.787 -0.1613 -1.4368  1.4761
 6311SOL    HW230396   4.438   1.187   6.847  0.1279 -1.4049 -0.0758
 6312SOL     OW30397   0.352   0.314   8.945  0.2630 -0.0173 -0.2164
 6312SOL    HW130398   0.289   0.251   8.980  1.8969 -0.4694  1.9395
 6312SOL    HW230399   0.398   0.254   8.887  1.9321  0.4639  0.6005
 6313SOL     OW30400   3.182   1.476   4.033 -0.0216  0.2525 -0.3400
 6313SOL    HW130401   3.165   1.427   3.953 -1.5220  0.8155 -0.3700
 6313SOL    HW230402   3.204   1.418   4.106 -2.8444 -0.8282 -0.3653
 6314SOL     OW30403   3.175   2.989   6.549 -0.3242  0.2775  0.7584
 6314SOL    HW130404   3.090   2.992   6.591 -1.5822 -0.1342 -1.7228
 6314SOL    HW230405   3.160   2.943   6.466  0.1410  0.7917  0.3884
 6315SOL     OW30406   4.597   4.082   7.677  0.2236 -0.1038 -0.6450
 6315SOL    HW130407   4.626   3.991   7.664  0.7023  0.1373 -1.2547
 6315SOL    HW230408   4.670   4.125   7.632 -0.0604  1.3324  0.3050
 6316SOL     OW30409   2.333   1.602   6.468 -0.1564  0.0505 -0.1149
 6316SOL    HW130410   2.311   1.615   6.561  0.7342 -4.0567  0.6718
 6316SOL    HW230411   2.370   1.686   6.443  2.0129 -0.9552 -0.2862
 6317SOL     OW30412   1.012   2.246  13.289  0.2134 -0.5195  0.1452
 6317SOL    HW130413   1.095   2.203  13.267  1.0893  1.1360  0.2413
 6317SOL    HW230414   0.967   2.162  13.301 -1.1501 -0.3152 -3.4670
 6318SOL     OW30415   2.075   0.915  16.515  0.1972 -0.1880 -0.2071
 6318SOL    HW130416   2.128   0.939  16.591  2.3172  1.1440 -2.1108
 6318SOL    HW230417   2.131   0.946  16.444  0.6730  2.0824  1.1544
 6319SOL     OW30418   4.360   2.551   4.234 -0.3316  1.1404  0.3255
 6319SOL    HW130419   4.284   2.609   4.231 -1.6075 -0.4701  1.5178
 6319SOL    HW230420   4.416   2.575   4.309 -1.4652 -0.4500  1.6503
 6320SOL     OW30421   1.261   2.836   1.675 -0.1172 -0.6536 -0.6577
 6320SOL    HW130422   1.180   2.786   1.678 -0.8470  0.6181  0.8012
 6320SOL    HW230423   1.281   2.816   1.583  0.2696 -1.0886 -0.4786
 6321SOL     OW30424   1.156   1.098   2.955 -0.5158 -0.5083  0.7214
 6321SOL    HW130425   1.090   1.137   2.897  1.2490  0.2511 -0.8055
 6321SOL    HW230426   1.093   1.051   3.009 -0.3758 -0.3346  1.0382
 6322SOL     OW30427   0.758   3.059  12.535 -0.0887  0.5655 -0.1392
 6322SOL    HW130428   0.774   2.999  12.462 -0.1330  0.9631 -0.4742
 6322SOL    HW230429   0.674   3.096  12.505 -0.2150 -0.2826 -0.8275
 6323SOL     OW30430   2.105   2.663   8.953 -0.4927  0.0907 -0.3664
 6323SOL    HW130431   2.022   2.709   8.962  0.5907  1.9494  0.0065
 6323SOL    HW230432   2.080   2.577   8.989  2.1598  0.7428  3.0726
 6324SOL     OW30433   2.446   2.100   5.848  0.3061 -0.2067 -0.2659
 6324SOL    HW130434   2.394   2.126   5.925  2.1583 -1.8119  1.5289
 6324SOL    HW230435   2.479   2.014   5.874 -2.4118  0.2371  4.6525
 6325SOL     OW30436   0.521   3.575   3.992  0.8976  0.2558  0.9866
 6325SOL    HW130437   0.464   3.498   3.994  0.4836  0.5522  0.6963
 6325SOL    HW230438   0.523   3.582   3.897  0.7815  2.6431  1.1588
 6326SOL     OW30439   4.381   0.430   8.021 -0.5553  0.1591 -0.3930
 6326SOL    HW130440   4.432   0.350   8.006 -2.5414 -0.2683 -4.9058
 6326SOL    HW230441   4.420   0.443   8.108  0.0994 -1.0450 -0.5099
 6327SOL     OW30442   3.802   4.157   7.788 -0.1436  0.1393 -0.3131
 6327SOL    HW130443   3.801   4.123   7.878  1.1496 -6.0655 -2.6329
 6327SOL    HW230444   3.710   4.136   7.772  0.4004 -2.2621 -0.2399
 6328SOL     OW30445   4.177   2.457   1.872 -0.2407 -0.3199 -0.3938
 6328SOL    HW130446   4.175   2.395   1.945  2.6141  0.6111  0.4667
 6328SOL    HW230447   4.192   2.541   1.916 -0.3522 -0.3658 -0.2697
 6329SOL     OW30448   0.846   0.343   5.043 -0.6452 -0.1458 -0.0907
 6329SOL    HW130449   0.815   0.265   5.089  0.8027  0.6305  2.2460
 6329SOL    HW230450   0.870   0.404   5.113 -0.3966 -1.3723  0.8957
 6330SOL     OW30451   0.847   0.124   6.342 -0.4181 -0.6189 -0.1007
 6330SOL    HW130452   0.829   0.212   6.309 -1.3828 -0.5416  0.6238
 6330SOL    HW230453   0.885   0.094   6.260  0.4746  0.1641  0.0164
 6331SOL     OW30454   2.478   2.499   6.357  0.5235  0.3077  0.4319
 6331SOL    HW130455   2.565   2.484   6.321  0.3675  1.9569 -0.6312
 6331SOL    HW230456   2.487   2.586   6.393 -1.0777  0.5316  0.3238
 6332SOL     OW30457   0.465   2.801   3.796  0.8226  0.1512  0.1115
 6332SOL    HW130458   0.513   2.809   3.714  2.0728 -0.7617  0.7365
 6332SOL    HW230459   0.466   2.890   3.830  1.1778 -0.2119  1.0724
 6333SOL     OW30460   1.865   3.058   4.546 -0.2458 -0.0408 -0.0452
 6333SOL    HW130461   1.843   3.068   4.638  1.5830  1.8012  0.2020
 6333SOL    HW230462   1.818   2.978   4.526 -2.9912  1.7736 -0.8661
 6334SOL     OW30463   4.118   0.679   7.357  0.2486  0.3499  0.1014
 6334SOL    HW130464   4.057   0.749   7.334  1.7861  1.0380 -1.8372
 6334SOL    HW230465   4.180   0.731   7.409 -2.3089  0.1157  3.4121
 6335SOL     OW30466   1.913   0.175   3.129 -1.0103  0.6680  0.8425
 6335SOL    HW130467   1.973   0.247   3.107  1.7103 -1.7325  0.4612
 6335SOL    HW230468   1.977   0.104   3.128 -1.3434  0.3742 -0.1149
 6336SOL     OW30469   0.226   0.965   5.897  0.3025 -0.2681 -0.3868
 6336SOL    HW130470   0.142   0.971   5.943  0.5772 -1.1232  0.2362
 6336SOL    HW230471   0.210   0.995   5.808  5.7120  1.9206 -0.6123
 6337SOL     OW30472   0.749   3.048   9.455 -0.0349  0.2951 -0.7112
 6337SOL    HW130473   0.827   2.993   9.448 -0.7470 -0.7872  0.0682
 6337SOL    HW230474   0.740   3.073   9.363 -0.7138  0.2198 -0.6661
 6338SOL     OW30475   2.005   2.595   6.339 -0.4865  0.3966 -0.7545
 6338SOL    HW130476   2.086   2.644   6.352 -0.6792  0.6930 -0.6892
 6338SOL    HW230477   1.967   2.611   6.426  1.1747 -1.5377  0.3301
 6339SOL     OW30478   2.600   3.269   7.419  0.2604 -0.2586 -0.4004
 6339SOL    HW130479   2.626   3.181   7.392  0.7328 -0.0556 -0.6051
 6339SOL    HW230480   2.505   3.257   7.414  0.1772  1.4355 -2.8064
 6340SOL     OW30481   0.105   3.595   3.845  0.1215  0.1430  0.2350
 6340SOL    HW130482   0.092   3.607   3.939 -1.2644  0.9862 -0.0657
 6340SOL    HW230483   0.043   3.655   3.804  0.7371  0.9277  0.4507
 6341SOL     OW30484   2.495   2.444  17.610 -0.4370  0.4834  0.0081
 6341SOL    HW130485   2.513   2.353  17.631  0.3476  1.3852  3.2781
 6341SOL    HW230486   2.419   2.457  17.665 -0.4843  1.8902 -0.3732
 6342SOL     OW30487   4.384   1.432   3.602  0.2515 -0.0883  0.2873
 6342SOL    HW130488   4.370   1.526   3.611 -0.0232 -0.0366 -0.6668
 6342SOL    HW230489   4.463   1.418   3.551  0.3202  1.0612  0.0777
 6343SOL     OW30490   2.999   3.790  15.895 -0.4364 -0.2440  0.4065
 6343SOL    HW130491   2.916   3.786  15.941 -1.1607  0.0049 -0.8756
 6343SOL    HW230492   2.973   3.738  15.818  0.4616  0.2105 -0.2048
 6344SOL     OW30493   4.690   4.116   8.949 -0.1000  0.7018  0.4376
 6344SOL    HW130494   4.633   4.185   8.914  0.9911  1.4445  0.1179
 6344SOL    HW230495   0.042   4.129   8.893 -0.1714 -0.8289  0.0073
 6345SOL     OW30496   4.196   4.306   9.560  0.0108  0.0910 -0.1672
 6345SOL    HW130497   4.176   4.275   9.472 -1.9290 -0.1600  0.3675
 6345SOL    HW230498   4.115   4.283   9.605 -0.3959  0.8000 -0.5326
 6346SOL     OW30499   3.877   1.435   8.673  0.1724 -0.0413 -0.1862
 6346SOL    HW130500   3.948   1.374   8.694 -0.4302 -0.4690  0.6215
 6346SOL    HW230501   3.896   1.444   8.580  2.5326  0.1912  0.3113
 6347SOL     OW30502   2.210   2.247   5.937 -0.0390 -0.8182  0.6455
 6347SOL    HW130503   2.206   2.225   6.030  1.9260 -1.5407  0.5743
 6347SOL    HW230504   2.185   2.173   5.882  0.3786  0.4049 -1.2004
 6348SOL     OW30505   2.002   1.091   8.289  0.3736  0.2538  0.0134
 6348SOL    HW130506   1.917   1.084   8.332  0.7698 -1.1217  0.5538
 6348SOL    HW230507   2.015   0.999   8.269  1.0527  0.4590 -0.4799
 6349SOL     OW30508   2.075   2.053   6.663 -0.4581  0.1563 -0.5617
 6349SOL    HW130509   2.026   1.975   6.640  2.9425 -2.0204 -0.3910
 6349SOL    HW230510   2.167   2.026   6.655 -0.4450  0.1652 -0.4497
 6350SOL     OW30511   0.312   4.355   9.002 -0.3252 -0.5023  0.1669
 6350SOL    HW130512   0.365   4.425   8.964 -0.2105 -0.6740  0.0079
 6350SOL    HW230513   0.269   4.396   9.077  2.9116  0.6523  1.3938
 6351SOL     OW30514   0.689   2.697   5.884 -0.3658 -0.1799  0.1841
 6351SOL    HW130515   0.610   2.693   5.830 -0.6625 -2.8981  0.7962
 6351SOL    HW230516   0.750   2.749   5.832 -2.2336  1.2778 -0.5323
 6352SOL     OW30517   1.992   0.653   5.814 -0.8149 -0.4345 -0.3981
 6352SOL    HW130518   2.065   0.595   5.792 -0.2984  1.3320 -3.3695
 6352SOL    HW230519   1.939   0.599   5.872 -0.5726  1.0960  1.2346
 6353SOL     OW30520   0.754   2.733   7.054 -0.8284 -0.2259 -0.0958
 6353SOL    HW130521   0.801   2.753   6.973  1.6575  0.8395  1.5948
 6353SOL    HW230522   0.664   2.738   7.021 -0.5765  0.9141 -0.5821
 6354SOL     OW30523   2.152   1.130  12.302 -0.3028  0.1460 -0.4857
 6354SOL    HW130524   2.223   1.078  12.338 -0.5850 -1.3335 -2.0693
 6354SOL    HW230525   2.195   1.166  12.224  0.7939  0.5834  0.3279
 6355SOL     OW30526   1.183   2.544   4.994 -0.4272  0.0274  0.5752
 6355SOL    HW130527   1.118   2.566   4.927  1.8115  0.7024 -1.3897
 6355SOL    HW230528   1.246   2.615   5.003 -1.4864  1.3158 -2.3010
 6356SOL     OW30529   3.729   2.339   4.724  0.1101 -0.2308 -0.2569
 6356SOL    HW130530   3.812   2.336   4.677  0.1228  1.4345 -0.3628
 6356SOL    HW230531   3.754   2.368   4.812 -0.6628 -1.1507  0.2560
 6357SOL     OW30532   3.290   2.762   5.410  0.3344 -0.8061  0.8021
 6357SOL    HW130533   3.267   2.700   5.341 -0.1450 -0.3832  0.5856
 6357SOL    HW230534   3.221   2.827   5.398 -0.1734 -1.2551  1.2751
 6358SOL     OW30535   0.158   0.727   2.293 -0.0140  0.1791  0.0252
 6358SOL    HW130536   0.205   0.656   2.248 -0.9423 -1.6476  1.9589
 6358SOL    HW230537   0.217   0.801   2.277 -0.9903  0.7518 -0.9863
 6359SOL     OW30538   3.764   2.016   4.566 -0.4349 -0.5787  0.1246
 6359SOL    HW130539   3.682   2.011   4.518 -0.3166  2.4358 -0.3913
 6359SOL    HW230540   3.739   1.960   4.639  0.1720 -0.8373  0.1309
 6360SOL     OW30541   3.808   4.244   4.079  0.7338  0.3188  0.3238
 6360SOL    HW130542   3.838   4.172   4.024 -2.5253  0.1571 -1.2258
 6360SOL    HW230543   3.717   4.250   4.050  0.8043  1.9663  0.4506
 6361SOL     OW30544   1.682   1.179   8.017 -0.0157  0.0076 -0.5805
 6361SOL    HW130545   1.692   1.089   7.987  1.0338  0.8406 -2.7187
 6361SOL    HW230546   1.643   1.219   7.940 -2.9396 -0.1161  0.8222
 6362SOL     OW30547   1.322   3.526   3.392 -0.5826 -0.3511 -0.1593
 6362SOL    HW130548   1.287   3.613   3.411 -2.4801 -1.1273 -0.1640
 6362SOL    HW230549   1.381   3.518   3.467 -0.7423  0.0711  0.0178
 6363SOL     OW30550   0.081   0.897   5.313 -0.3784 -0.4644 -0.2119
 6363SOL    HW130551   0.018   0.850   5.368  2.4238  0.3230  3.6792
 6363SOL    HW230552   0.076   0.989   5.342 -1.4659  0.3572 -2.9520
 6364SOL     OW30553   3.842   2.022   2.464 -0.4342 -0.8086  0.0710
 6364SOL    HW130554   3.826   2.111   2.432 -0.0055 -1.4386 -1.9219
 6364SOL    HW230555   3.936   2.032   2.472 -0.6754  2.1041 -0.6748
 6365SOL     OW30556   4.315   1.848  11.614 -0.3596 -0.4132 -0.5876
 6365SOL    HW130557   4.383   1.819  11.554  1.1365  1.6011  0.1572
 6365SOL    HW230558   4.315   1.941  11.591  3.4559 -0.9769 -2.8093
 6366SOL     OW30559   1.090   1.921  10.072  0.4794  0.0185  0.3420
 6366SOL    HW130560   1.021   1.941  10.136 -0.1772  1.6097 -0.8555
 6366SOL    HW230561   1.157   1.984  10.099  0.7659 -0.9428  1.8621
 6367SOL     OW30562   2.544   3.543   8.652 -0.1260  0.4951 -0.2832
 6367SOL    HW130563   2.521   3.466   8.600  0.5067 -0.7483  1.2530
 6367SOL    HW230564   2.629   3.523   8.693 -0.5091  0.2054  0.3743
 6368SOL     OW30565   0.935   2.816   5.753  0.0915 -0.2284  0.2041
 6368SOL    HW130566   0.852   2.863   5.738  0.6357  1.0600  1.2177
 6368SOL    HW230567   0.987   2.895   5.740  0.4599 -0.9463 -2.5640
 6369SOL     OW30568   0.765   0.673   3.030  0.1677  0.0812 -0.2944
 6369SOL    HW130569   0.791   0.584   3.007 -0.7853  0.0274 -1.1724
 6369SOL    HW230570   0.727   0.661   3.118  0.5723  1.0440  0.0096
 6370SOL     OW30571   2.443   1.314   7.748 -0.2816 -0.0899 -0.0185
 6370SOL    HW130572   2.474   1.392   7.794 -0.5908 -0.7185  1.2586
 6370SOL    HW230573   2.372   1.289   7.807 -1.7877  0.7044 -1.5043
 6371SOL     OW30574   1.685   3.184  10.270 -0.8337  0.5131  0.0720
 6371SOL    HW130575   1.726   3.231  10.343 -0.4011  1.4480 -0.7747
 6371SOL    HW230576   1.734   3.211  10.193 -2.5488 -0.5380 -1.3656
 6372SOL     OW30577   1.492   0.131  10.379  0.1519  0.0695 -0.0856
 6372SOL    HW130578   1.545   0.111  10.456  0.1792 -0.0210 -0.1286
 6372SOL    HW230579   1.456   0.043  10.370  1.5837 -0.6271  1.0883
 6373SOL     OW30580   4.230   2.012   7.260 -0.5723  0.8017 -0.0733
 6373SOL    HW130581   4.296   2.070   7.300  0.9649 -1.0402  0.0843
 6373SOL    HW230582   4.277   1.983   7.182  2.5196  2.8064  1.0180
 6374SOL     OW30583   3.287   0.482   4.879 -0.0082  0.0337 -0.4191
 6374SOL    HW130584   3.287   0.534   4.959 -1.9539  1.4576 -1.3371
 6374SOL    HW230585   3.343   0.530   4.818  0.1999  0.7871  0.3657
 6375SOL     OW30586   4.431   3.769   5.488  0.0722 -0.3041 -0.3282
 6375SOL    HW130587   4.383   3.774   5.571  1.9714  1.6844  0.6654
 6375SOL    HW230588   4.441   3.674   5.483 -1.5006 -0.5306  0.7143
 6376SOL     OW30589   3.081   2.894   4.695  0.0512 -0.6404  0.1570
 6376SOL    HW130590   2.994   2.886   4.655  0.6468 -1.3340 -0.9932
 6376SOL    HW230591   3.129   2.863   4.619 -0.3086  0.0850 -0.3675
 6377SOL     OW30592   0.208   0.860   7.609 -0.0006 -0.1463  0.1054
 6377SOL    HW130593   0.257   0.913   7.546 -0.9827 -1.1173 -1.4805
 6377SOL    HW230594   0.179   0.790   7.550 -1.7921  0.3588  0.4080
 6378SOL     OW30595   1.447   4.313   7.008 -0.1012 -0.2923  0.0648
 6378SOL    HW130596   1.444   4.394   7.059 -1.5063 -0.7614  0.7387
 6378SOL    HW230597   1.359   4.276   7.014 -0.8578  1.2951 -1.1684
 6379SOL     OW30598   2.386   3.591   4.415 -0.6419 -0.1272 -1.0795
 6379SOL    HW130599   2.402   3.587   4.321 -1.1200  2.4024 -1.2796
 6379SOL    HW230600   2.328   3.517   4.431 -0.6650  0.2068  0.4113
 6380SOL     OW30601   1.200   2.668   5.576 -0.8823 -0.1920 -0.4933
 6380SOL    HW130602   1.162   2.676   5.663 -1.0052 -3.1104 -0.2586
 6380SOL    HW230603   1.177   2.576   5.560 -1.0773 -0.0600 -0.9831
 6381SOL     OW30604   0.989   1.853   0.362 -0.4956 -0.0303  0.0677
 6381SOL    HW130605   1.002   1.947   0.355 -1.9543  0.1876  0.1917
 6381SOL    HW230606   0.899   1.860   0.393 -0.7339  0.3300 -0.7009
 6382SOL     OW30607   2.535   2.039  11.929 -0.3324  0.4782 -0.2599
 6382SOL    HW130608   2.553   2.088  12.010 -0.8990 -3.4103  2.1933
 6382SOL    HW230609   2.503   2.111  11.874 -1.1622  2.1207  2.3805
 6383SOL     OW30610   2.805   2.163  13.770 -0.0163  0.2550 -0.2557
 6383SOL    HW130611   2.771   2.098  13.709 -1.0007  0.8965 -0.4006
 6383SOL    HW230612   2.751   2.241  13.757  0.3441  0.6842  0.8078
 6384SOL     OW30613   3.077   0.161   2.696 -0.2862 -0.0431  0.4679
 6384SOL    HW130614   3.107   0.071   2.694 -2.5946 -0.7718 -1.0711
 6384SOL    HW230615   3.155   0.216   2.698 -1.7562  2.0461  0.6596
 6385SOL     OW30616   2.203   0.646   7.630  0.1528  0.3411  0.7857
 6385SOL    HW130617   2.210   0.587   7.705 -2.1079 -0.7409  0.1293
 6385SOL    HW230618   2.109   0.661   7.638 -0.1603 -1.1317 -0.1618
 6386SOL     OW30619   1.966   3.771   5.656 -0.6732  0.2757  0.1832
 6386SOL    HW130620   1.932   3.682   5.666 -1.4584  0.3755 -1.5812
 6386SOL    HW230621   1.932   3.789   5.568 -1.1834  1.2252  0.5825
 6387SOL     OW30622   0.061   2.177   5.647  0.6697 -0.1951  0.3889
 6387SOL    HW130623   0.102   2.121   5.581 -0.2259  0.2367 -0.5430
 6387SOL    HW230624   0.007   2.124   5.706 -1.5179  1.5316 -0.0877
 6388SOL     OW30625   0.538   1.570   3.316  0.3476  0.0948  0.4652
 6388SOL    HW130626   0.511   1.479   3.314 -0.1160  0.2458  0.0314
 6388SOL    HW230627   0.632   1.555   3.301  0.1803 -0.3907 -0.0816
 6389SOL     OW30628   0.154   4.436   6.997 -0.2152 -0.0433  0.1190
 6389SOL    HW130629   0.113   4.499   7.057 -0.3781 -0.4792  0.4651
 6389SOL    HW230630   0.105   4.445   6.915 -2.0206  1.6581  1.3641
 6390SOL     OW30631   2.568   1.439   5.004  0.0072  0.0220  0.4276
 6390SOL    HW130632   2.547   1.447   4.911  1.4353  0.9459  0.1683
 6390SOL    HW230633   2.657   1.474   4.999 -0.4695  1.2898  0.8049
 6391SOL     OW30634   0.057   3.606  12.395 -0.2262  0.0049  0.0233
 6391SOL    HW130635   4.695   3.620  12.434 -0.0053  0.6611  0.2724
 6391SOL    HW230636   0.099   3.690  12.378 -0.3097  0.1541  0.5581
 6392SOL     OW30637   1.572   0.830   6.392  0.0168  0.0358  0.3009
 6392SOL    HW130638   1.547   0.840   6.300  1.0392 -1.4347 -0.1438
 6392SOL    HW230639   1.625   0.907   6.409  1.6244 -1.0436  0.2160
 6393SOL     OW30640   0.409   2.915   5.710 -0.3080  0.5179 -0.6405
 6393SOL    HW130641   0.361   2.985   5.665 -0.3278  0.0774 -1.3089
 6393SOL    HW230642   0.338   2.856   5.737  1.2022 -1.9296 -2.0509
 6394SOL     OW30643   2.098   2.509   2.186 -0.0612  0.1011  0.7094
 6394SOL    HW130644   2.160   2.541   2.252  0.2735  2.2165 -0.6134
 6394SOL    HW230645   2.103   2.574   2.116 -1.4454  0.7218  1.1717
 6395SOL     OW30646   3.802   0.562   7.498  0.2047 -0.3789 -1.1321
 6395SOL    HW130647   3.802   0.649   7.459  0.3456  1.3298  2.6571
 6395SOL    HW230648   3.884   0.574   7.546  1.1246  1.2121 -3.1230
 6396SOL     OW30649   4.205   3.014   4.082 -0.0889  0.1898 -0.8605
 6396SOL    HW130650   4.262   3.089   4.066 -0.0996  0.9213  2.5456
 6396SOL    HW230651   4.274   2.948   4.094  1.3889  1.8565 -0.0612
 6397SOL     OW30652   1.434   1.232   2.922  0.0006  0.2114  0.3982
 6397SOL    HW130653   1.364   1.167   2.922 -0.8434  1.1196 -1.1753
 6397SOL    HW230654   1.499   1.191   2.979 -1.0196 -1.0662  0.6370
 6398SOL     OW30655   2.083   1.646   8.254  0.0110  0.3565 -0.1960
 6398SOL    HW130656   2.118   1.561   8.230  2.1388  1.0167  0.5814
 6398SOL    HW230657   1.996   1.626   8.288 -0.0595 -1.5344 -1.5033
 6399SOL     OW30658   4.525   3.246   6.238  0.5652  0.2463  0.0473
 6399SOL    HW130659   4.511   3.188   6.163  1.7393 -2.3828  1.8374
 6399SOL    HW230660   4.514   3.186   6.312  0.9964  2.0666  1.5938
 6400SOL     OW30661   3.338   0.267   6.616 -0.3565  0.5523  0.1723
 6400SOL    HW130662   3.299   0.237   6.534  2.3562  0.3519 -1.0441
 6400SOL    HW230663   3.400   0.195   6.629  1.1673  1.8998  0.3236
 6401SOL     OW30664   1.191   3.476  13.284  0.4043  0.6781 -0.5862
 6401SOL    HW130665   1.119   3.452  13.342  2.2153 -1.8364  0.5900
 6401SOL    HW230666   1.147   3.439  13.208  0.2384  0.0418 -0.1777
 6402SOL     OW30667   3.654   4.590   3.495 -0.2474 -0.0636  0.0920
 6402SOL    HW130668   3.652   4.655   3.426  2.1278 -0.0116  0.0775
 6402SOL    HW230669   3.562   4.565   3.504 -0.1889 -0.1649  0.4305
 6403SOL     OW30670   2.856   1.333   6.040 -0.3559  0.2686  0.3748
 6403SOL    HW130671   2.852   1.379   5.956  0.7025 -0.4535 -0.0699
 6403SOL    HW230672   2.901   1.399   6.093  0.3651  1.2118 -1.4092
 6404SOL     OW30673   2.723   1.842  15.471  0.1653 -0.3839  0.2083
 6404SOL    HW130674   2.763   1.914  15.519 -0.2422 -0.8850  1.2918
 6404SOL    HW230675   2.779   1.770  15.498  0.9891  0.1167 -0.1590
 6405SOL     OW30676   2.085   1.627  16.710  0.0830  0.4428 -0.3698
 6405SOL    HW130677   2.126   1.549  16.748 -1.2359  0.0027  0.1428
 6405SOL    HW230678   2.020   1.640  16.778  1.6229  2.0645  0.8015
 6406SOL     OW30679   3.633   3.810   1.237  0.0981 -0.2306 -0.2443
 6406SOL    HW130680   3.595   3.888   1.198  0.1978 -0.2039 -0.2884
 6406SOL    HW230681   3.561   3.751   1.214  1.3496 -1.2124 -1.6737
 6407SOL     OW30682   3.243   2.214  12.892  0.1152  0.3212  0.2339
 6407SOL    HW130683   3.260   2.243  12.802 -0.9184  1.3836  0.3770
 6407SOL    HW230684   3.332   2.221  12.925  1.3868 -2.7191 -2.5296
 6408SOL     OW30685   2.306   4.667   2.971  0.3151 -0.5525  0.0804
 6408SOL    HW130686   2.304   4.608   2.895 -1.4256  0.1473 -0.4068
 6408SOL    HW230687   2.268   0.013   2.919  0.6397 -2.2123 -2.4357
 6409SOL     OW30688   4.471   0.047   4.650 -0.6532  0.6661 -0.1813
 6409SOL    HW130689   4.478   4.710   4.723 -0.8852  1.8406  0.8189
 6409SOL    HW230690   4.382   0.029   4.618 -0.0772 -0.2178 -1.2742
 6410SOL     OW30691   3.259   4.479   0.458  0.2696 -0.0350  0.3252
 6410SOL    HW130692   3.178   4.430   0.467  0.5142 -0.4341  0.3363
 6410SOL    HW230693   3.284   4.455   0.369  3.8615  0.5173  1.1474
 6411SOL     OW30694   3.022   3.827   2.705 -0.5049  0.2879  0.4159
 6411SOL    HW130695   3.021   3.921   2.688 -0.5574 -0.3436 -3.0204
 6411SOL    HW230696   3.095   3.796   2.652 -1.0911 -1.6765  0.7473
 6412SOL     OW30697   2.666   3.005  14.551 -0.0499 -0.2560  0.4189
 6412SOL    HW130698   2.743   3.047  14.589  0.7715 -1.5729  0.2106
 6412SOL    HW230699   2.594   3.055  14.589 -0.6388 -0.7794 -0.0202
 6413SOL     OW30700   3.910   1.086   1.885 -0.0369 -0.3523 -0.8341
 6413SOL    HW130701   3.821   1.117   1.898 -0.0874 -0.7162 -0.2916
 6413SOL    HW230702   3.962   1.166   1.876 -0.5462  0.1737  0.9580
 6414SOL     OW30703   1.946   0.110   9.007 -0.0116  0.0059 -0.3078
 6414SOL    HW130704   1.919   0.024   9.039 -1.7741  0.4507 -0.5885
 6414SOL    HW230705   1.863   0.158   9.017  0.7851  1.6113 -1.5624
 6415SOL     OW30706   1.671   4.562  16.454  0.5690 -0.0207 -0.1372
 6415SOL    HW130707   1.585   4.563  16.495 -0.5380 -2.1029 -2.3936
 6415SOL    HW230708   1.730   4.621  16.502  0.8959  0.0418 -0.6142
 6416SOL     OW30709   4.141   3.474   4.376  0.4145 -0.1467 -0.0382
 6416SOL    HW130710   4.139   3.568   4.395  1.9642  0.3722 -2.4766
 6416SOL    HW230711   4.220   3.457   4.428  0.9577  0.4849 -0.6502
 6417SOL     OW30712   3.052   0.226   5.330 -0.4191 -0.1042 -0.0662
 6417SOL    HW130713   3.124   0.177   5.292 -0.2435  1.2416 -1.4856
 6417SOL    HW230714   3.092   0.250   5.414 -0.9770  0.1365  0.1351
 6418SOL     OW30715   1.005   2.128   0.395  0.1678  0.3404 -0.2262
 6418SOL    HW130716   1.014   2.158   0.304  1.7270 -1.4587 -0.6584
 6418SOL    HW230717   1.096   2.132   0.423  0.2085  3.4654 -0.9043
 6419SOL     OW30718   3.530   0.828   6.239  0.1304  0.4457  0.1980
 6419SOL    HW130719   3.550   0.735   6.233 -1.1714  0.3650 -2.6906
 6419SOL    HW230720   3.481   0.839   6.158  1.2211  1.3431 -0.3323
 6420SOL     OW30721   1.268   3.531  14.645  0.0849 -0.0441  0.2076
 6420SOL    HW130722   1.295   3.446  14.611  1.6517  1.5483 -2.5154
 6420SOL    HW230723   1.172   3.524  14.643 -0.1442  3.0927  0.2465
 6421SOL     OW30724   0.351   4.085   4.497  0.3107 -0.6474 -0.8911
 6421SOL    HW130725   0.291   4.021   4.459  1.4792 -1.3575 -1.5498
 6421SOL    HW230726   0.292   4.160   4.500  0.0432 -0.8807 -0.2936
 6422SOL     OW30727   0.319   3.577  13.972  0.3366 -0.6835  0.0195
 6422SOL    HW130728   0.249   3.642  13.964  1.2166  0.3898  1.0087
 6422SOL    HW230729   0.373   3.593  13.895  0.1539 -1.1497 -0.2069
 6423SOL     OW30730   4.552   4.347   3.310  0.3870 -0.1493  0.3770
 6423SOL    HW130731   4.612   4.370   3.239  1.6690  0.0994  1.5380
 6423SOL    HW230732   4.466   4.374   3.279  0.5547 -2.2901 -2.0049
 6424SOL     OW30733   2.129   2.749   7.109 -0.2955  0.2328  0.1227
 6424SOL    HW130734   2.211   2.712   7.078  0.1878  0.7443  0.7902
 6424SOL    HW230735   2.134   2.727   7.202  0.8860 -0.3939 -0.0955
 6425SOL     OW30736   3.197   1.079   8.038  0.6019 -0.4428 -0.2488
 6425SOL    HW130737   3.164   0.990   8.027 -0.4260 -0.1509  0.5226
 6425SOL    HW230738   3.125   1.138   8.056  0.9979  0.0449 -0.2713
 6426SOL     OW30739   3.403   0.496   4.350 -0.0480  0.6574 -0.1143
 6426SOL    HW130740   3.486   0.461   4.320 -0.7996 -0.8869 -0.3660
 6426SOL    HW230741   3.424   0.537   4.434 -0.1051 -1.5622  0.9631
 6427SOL     OW30742   0.353   3.211   8.782  0.5138 -0.1329  0.5229
 6427SOL    HW130743   0.369   3.285   8.841  0.4542  2.3055 -2.5097
 6427SOL    HW230744   0.353   3.136   8.840  1.7648 -0.5630 -0.0291
 6428SOL     OW30745   3.276   4.491  11.500  0.2270 -0.0240 -0.4571
 6428SOL    HW130746   3.323   4.553  11.443 -0.1120  1.5521  0.9621
 6428SOL    HW230747   3.276   4.543  11.580  0.7393 -2.2297  0.9811
 6429SOL     OW30748   3.141   0.665   6.854  0.0096  0.0630  0.2006
 6429SOL    HW130749   3.170   0.630   6.938 -1.8254  0.9914  1.2399
 6429SOL    HW230750   3.110   0.582   6.817 -0.5096 -0.0143  0.8047
 6430SOL     OW30751   4.410   3.839   7.593  0.5246  0.3732  0.1879
 6430SOL    HW130752   4.337   3.873   7.542 -0.6525 -0.3563  1.3974
 6430SOL    HW230753   4.387   3.861   7.683  1.5110  0.7981  0.3331
 6431SOL     OW30754   3.638   3.414   8.749 -0.1356 -0.1491 -0.6759
 6431SOL    HW130755   3.572   3.483   8.752 -1.1616 -1.0458 -3.1914
 6431SOL    HW230756   3.658   3.405   8.842  0.6575  1.4504 -0.6798
 6432SOL     OW30757   1.539   2.024  12.805  0.0693  0.2050 -0.2356
 6432SOL    HW130758   1.557   1.969  12.882  1.8983  0.7298 -0.3021
 6432SOL    HW230759   1.627   2.051  12.779  0.1725  0.1646  0.0617
 6433SOL     OW30760   2.199   4.085   4.074  0.5188  0.1504  0.1156
 6433SOL    HW130761   2.199   4.020   4.003 -1.2952 -0.6780  0.8717
 6433SOL    HW230762   2.238   4.041   4.150 -0.1958  0.5063  0.6951
 6434SOL     OW30763   1.725   2.883   3.397  0.0509  0.0851  0.2423
 6434SOL    HW130764   1.716   2.790   3.373 -0.7280  0.8033 -2.3056
 6434SOL    HW230765   1.710   2.879   3.491  2.6000 -1.9037  0.5826
 6435SOL     OW30766   2.960   3.501  15.788  0.2948 -0.4353  0.1100
 6435SOL    HW130767   2.990   3.517  15.877 -0.2664  0.5831  0.1248
 6435SOL    HW230768   2.951   3.406  15.794 -1.2781 -0.4935 -3.3246
 6436SOL     OW30769   3.578   1.688   4.441  0.0568 -0.4694 -0.0640
 6436SOL    HW130770   3.671   1.673   4.425  0.4839  1.2791  0.7948
 6436SOL    HW230771   3.553   1.596   4.428 -0.2931 -0.5063  0.8497
 6437SOL     OW30772   4.094   4.100  15.685 -0.5500  0.4237  0.6182
 6437SOL    HW130773   4.003   4.091  15.714 -1.7674  0.5900 -3.1586
 6437SOL    HW230774   4.140   4.078  15.766 -0.7162  1.5136  1.0207
 6438SOL     OW30775   0.007   1.485   7.076  0.2233  0.1053  0.0465
 6438SOL    HW130776   0.090   1.513   7.113  0.4059  1.3317 -1.3144
 6438SOL    HW230777   4.703   1.572   7.048  0.2769 -0.3636 -1.4873
 6439SOL     OW30778   4.587   0.485  12.320 -0.4460  0.0446 -0.0919
 6439SOL    HW130779   4.570   0.527  12.235  1.2250  1.6047  0.3429
 6439SOL    HW230780   4.647   0.413  12.299  0.0486  0.3886  0.1552
 6440SOL     OW30781   2.851   0.190   9.023  0.2654 -0.1022  0.2280
 6440SOL    HW130782   2.782   0.239   8.979  0.1265  2.3019  3.1479
 6440SOL    HW230783   2.900   0.168   8.943  0.1174 -1.8954  0.6193
 6441SOL     OW30784   3.125   4.104   3.441 -0.1166 -0.0697 -0.5851
 6441SOL    HW130785   3.069   4.030   3.464  0.4012  0.1624  1.4604
 6441SOL    HW230786   3.126   4.101   3.345 -2.2309  3.2167 -0.7119
 6442SOL     OW30787   1.977   3.212  15.823 -0.2653 -0.5404 -0.5924
 6442SOL    HW130788   1.946   3.224  15.912  3.9202  1.5598  0.6050
 6442SOL    HW230789   1.966   3.297  15.780  1.9287 -0.3934 -0.8454
 6443SOL     OW30790   3.400   0.155   5.762 -0.0886  0.2248  0.1916
 6443SOL    HW130791   3.438   0.082   5.812 -0.4151 -0.4131 -0.4797
 6443SOL    HW230792   3.459   0.228   5.780  0.2673  0.0424 -0.2124
 6444SOL     OW30793   1.417   4.423   3.811 -0.4947 -0.3185 -0.1265
 6444SOL    HW130794   1.437   4.361   3.882 -1.4607 -0.6602 -0.1446
 6444SOL    HW230795   1.505   4.458   3.796 -0.2550 -0.4841  0.8788
 6445SOL     OW30796   3.685   3.427   9.059 -0.4647  0.1472 -0.2611
 6445SOL    HW130797   3.617   3.469   9.111  0.7791  0.1462  1.3568
 6445SOL    HW230798   3.716   3.495   8.999 -0.0247 -0.7171 -1.0267
 6446SOL     OW30799   2.370   4.352   2.309  0.2975  0.2016  0.2893
 6446SOL    HW130800   2.288   4.304   2.323 -0.4561  1.1527 -0.8031
 6446SOL    HW230801   2.347   4.401   2.230 -0.1936 -0.0098  0.3007
 6447SOL     OW30802   0.016   4.691   8.696  0.1551 -0.1412  0.2824
 6447SOL    HW130803   4.671   4.629   8.674 -3.0496  2.9912  1.5942
 6447SOL    HW230804   0.063   4.683   8.613  0.3307  2.2083  0.1545
 6448SOL     OW30805   0.930   4.042   5.210 -0.4308  0.6941  0.3342
 6448SOL    HW130806   0.969   4.032   5.297  0.0409  0.2213  0.0691
 6448SOL    HW230807   0.860   4.104   5.232 -0.6185  0.3730  0.6314
 6449SOL     OW30808   1.145   0.091   3.480  0.4411 -0.3543  0.5169
 6449SOL    HW130809   1.058   0.114   3.513  0.3748  2.0972 -1.3509
 6449SOL    HW230810   1.156   0.145   3.402 -1.3373  1.1265  1.2782
 6450SOL     OW30811   2.268   3.231   0.542  0.4175 -0.2611  0.1956
 6450SOL    HW130812   2.177   3.202   0.548  0.0656  0.8721  0.2852
 6450SOL    HW230813   2.310   3.151   0.510  0.3075  1.1332 -3.4180
 6451SOL     OW30814   1.792   0.342   7.258 -0.1503  0.4669 -0.1914
 6451SOL    HW130815   1.860   0.304   7.202  0.5175 -0.5325  1.2989
 6451SOL    HW230816   1.731   0.269   7.266  2.8327 -2.1899 -1.9807
 6452SOL     OW30817   3.104   2.215   4.418  0.4043 -0.3598 -0.4671
 6452SOL    HW130818   3.089   2.121   4.426  1.1126 -0.6706 -2.6593
 6452SOL    HW230819   3.196   2.226   4.437  0.1475 -0.2888  0.7010
 6453SOL     OW30820   2.266   4.372  12.785 -0.6157  0.2464 -0.1326
 6453SOL    HW130821   2.360   4.371  12.805 -0.4657  2.3085 -0.6927
 6453SOL    HW230822   2.253   4.467  12.778 -3.4130 -0.0921  0.3390
 6454SOL     OW30823   4.135   2.180   3.638  0.3857  0.0870  0.0516
 6454SOL    HW130824   4.044   2.148   3.641  0.5808 -0.2174  2.4553
 6454SOL    HW230825   4.140   2.215   3.549  1.3429  1.5047  0.6815
 6455SOL     OW30826   1.303   3.134   8.136  0.3451 -0.0563 -0.2071
 6455SOL    HW130827   1.222   3.139   8.085  0.0086  1.0552  0.4397
 6455SOL    HW230828   1.337   3.222   8.125  1.9833 -0.5351  1.0172
 6456SOL     OW30829   4.407   0.847   7.011  0.0132 -0.2167  0.1063
 6456SOL    HW130830   4.339   0.783   7.032 -0.2659 -0.5193 -1.6900
 6456SOL    HW230831   4.373   0.929   7.048  0.5125 -0.7380  1.7048
 6457SOL     OW30832   2.197   2.809  10.743 -0.3945  1.0084  0.0071
 6457SOL    HW130833   2.165   2.857  10.666 -0.5539 -1.3654 -1.4261
 6457SOL    HW230834   2.280   2.850  10.766 -1.4965  1.8927  2.3035
 6458SOL     OW30835   0.999   0.951   4.512  0.3963 -0.3377 -0.5380
 6458SOL    HW130836   0.972   0.993   4.431 -2.2550 -4.0498 -1.5636
 6458SOL    HW230837   1.072   1.005   4.543 -0.1543  0.7325 -1.1029
 6459SOL     OW30838   1.777   4.440   2.078 -0.1121 -0.5681  0.2756
 6459SOL    HW130839   1.726   4.371   2.035 -0.5089 -0.9350  1.3224
 6459SOL    HW230840   1.860   4.429   2.031 -0.2589 -0.9906  0.1183
 6460SOL     OW30841   4.564   4.514   5.852 -0.7023 -0.6526  0.0855
 6460SOL    HW130842   4.575   4.488   5.943 -2.5449  1.8238  1.0094
 6460SOL    HW230843   4.469   4.510   5.843 -0.5465 -0.9684 -1.4607
 6461SOL     OW30844   2.121   0.752   2.922  0.0947  0.2708 -0.6248
 6461SOL    HW130845   2.045   0.805   2.943  0.9026  1.3022 -0.3433
 6461SOL    HW230846   2.083   0.666   2.905 -0.5350  0.8688 -2.1522
 6462SOL     OW30847   2.109   4.413  14.907  0.5236 -0.3655 -0.1672
 6462SOL    HW130848   2.074   4.484  14.961 -0.5115  1.0707 -2.7572
 6462SOL    HW230849   2.038   4.406  14.844  0.1557  1.3148  0.0603
 6463SOL     OW30850   3.790   2.398   6.148 -0.1778 -0.3612  0.1436
 6463SOL    HW130851   3.779   2.317   6.100  2.6682 -1.1402  0.8120
 6463SOL    HW230852   3.828   2.361   6.227  1.2214  2.6936  0.9155
 6464SOL     OW30853   1.266   2.334   4.073  0.3586  0.1789 -0.2460
 6464SOL    HW130854   1.313   2.252   4.090 -1.8947 -1.0005  0.3126
 6464SOL    HW230855   1.189   2.325   4.129  0.8782  2.0074  0.7348
 6465SOL     OW30856   1.437   4.601   4.730 -0.6351  0.6130 -0.2698
 6465SOL    HW130857   1.363   4.552   4.694 -0.8174  0.3428  0.4490
 6465SOL    HW230858   1.446   4.553   4.813  2.0968  0.3173 -0.7255
 6466SOL     OW30859   2.087   2.129   2.474 -0.4470 -0.0852 -0.9697
 6466SOL    HW130860   2.102   2.167   2.388 -1.5873 -1.8039 -1.9299
 6466SOL    HW230861   2.134   2.046   2.480  1.3959  0.8527 -2.5232
 6467SOL     OW30862   1.327   3.629   2.354  0.6156 -0.4188  0.6455
 6467SOL    HW130863   1.404   3.655   2.405  1.6343 -0.6507 -0.7779
 6467SOL    HW230864   1.363   3.570   2.288 -0.2766  0.4426 -0.5949
 6468SOL     OW30865   2.288   2.708   3.739 -0.1663  0.2721  0.1787
 6468SOL    HW130866   2.287   2.647   3.813 -0.3483 -0.2985 -0.2926
 6468SOL    HW230867   2.224   2.664   3.682 -0.5524  1.0870 -0.0156
 6469SOL     OW30868   1.222   3.804   3.412  0.1108 -0.1643 -0.1174
 6469SOL    HW130869   1.153   3.856   3.370 -0.9327 -1.5820 -0.1190
 6469SOL    HW230870   1.300   3.833   3.364  2.0301 -0.1221  3.0300
 6470SOL     OW30871   1.036   2.689   3.019  0.5159 -0.6802 -0.2278
 6470SOL    HW130872   1.121   2.720   3.050 -0.2735 -0.8885  2.1144
 6470SOL    HW230873   1.011   2.621   3.081  1.1753 -0.9736 -0.2799
 6471SOL     OW30874   3.715   2.439   5.171 -0.2720  0.3075 -0.0082
 6471SOL    HW130875   3.630   2.409   5.202 -0.5457  1.4326  0.3484
 6471SOL    HW230876   3.700   2.519   5.120  0.1486  0.4112  0.0250
 6472SOL     OW30877   3.181   0.781   3.491  0.4882 -0.1069  0.2176
 6472SOL    HW130878   3.096   0.802   3.453 -0.2945 -1.4935  1.2296
 6472SOL    HW230879   3.229   0.864   3.496 -0.4475  0.3983  0.6964
 6473SOL     OW30880   1.514   4.444  10.891  0.1698 -0.6751 -0.2703
 6473SOL    HW130881   1.505   4.499  10.814  0.0666 -0.8578 -0.3875
 6473SOL    HW230882   1.579   4.491  10.944  1.0446 -1.2040 -0.8826
 6474SOL     OW30883   3.622   0.349   5.759  0.3865  0.2995  0.1021
 6474SOL    HW130884   3.662   0.265   5.735 -0.7361 -0.5493  1.1719
 6474SOL    HW230885   3.689   0.389   5.815  2.2191 -1.2471 -0.9871
 6475SOL     OW30886   4.478   3.964   1.684 -0.0025 -0.2138  0.3067
 6475SOL    HW130887   4.569   3.962   1.715 -0.5110 -1.1193  1.7326
 6475SOL    HW230888   4.484   3.919   1.600 -3.5821 -1.7072  0.8940
 6476SOL     OW30889   2.057   2.318   6.376  0.1075 -0.0923  0.2776
 6476SOL    HW130890   2.143   2.330   6.417  1.1961 -0.8604 -1.7866
 6476SOL    HW230891   2.043   2.408   6.347 -0.6540 -0.5850 -0.8393
 6477SOL     OW30892   3.255   2.402  11.045 -0.5888  0.4050 -0.0798
 6477SOL    HW130893   3.189   2.397  10.976 -1.3451 -0.1627  0.6858
 6477SOL    HW230894   3.232   2.323  11.094  1.2959 -0.2664 -0.2509
 6478SOL     OW30895   4.567   0.350   9.994  0.1300 -0.1525 -0.5475
 6478SOL    HW130896   4.476   0.358  10.022  0.0828 -2.0790 -0.1170
 6478SOL    HW230897   4.580   0.257   9.973 -1.3111  0.0324 -2.2865
 6479SOL     OW30898   2.306   2.001   2.940  0.4163  0.5755 -0.6351
 6479SOL    HW130899   2.367   1.934   2.908 -0.0722  0.5064 -1.4384
 6479SOL    HW230900   2.233   1.941   2.955 -0.0042  1.3134  0.2266
 6480SOL     OW30901   2.778   2.080  15.636 -0.0019  0.1119 -0.2926
 6480SOL    HW130902   2.795   2.164  15.678 -0.4759 -0.3390  0.7791
 6480SOL    HW230903   2.865   2.041  15.632 -1.1677 -2.5954  1.5774
 6481SOL     OW30904   4.397   1.598   8.996  0.2673  0.0976 -1.0994
 6481SOL    HW130905   4.466   1.546   8.955 -0.2576 -2.7049  1.5208
 6481SOL    HW230906   4.343   1.531   9.039  3.0078 -0.5541  1.2872
 6482SOL     OW30907   3.714   0.126   2.638  0.1931  0.1980 -0.0829
 6482SOL    HW130908   3.701   0.090   2.551 -0.3522 -1.9694  0.9097
 6482SOL    HW230909   3.763   0.055   2.680 -1.4120 -1.9556 -1.9032
 6483SOL     OW30910   0.964   2.061   9.827  0.2975  0.2143 -0.1877
 6483SOL    HW130911   0.984   1.980   9.780 -0.5821 -1.8150  2.9172
 6483SOL    HW230912   1.054   2.074   9.855  0.3726 -0.0736 -0.2906
 6484SOL     OW30913   0.488   0.037   4.188 -0.1993 -0.3511 -0.5930
 6484SOL    HW130914   0.496   4.666   4.183  0.5552 -0.2215 -1.8786
 6484SOL    HW230915   0.570   0.058   4.143 -0.2150  0.1985 -0.3639
 6485SOL     OW30916   0.323   1.459   1.108  0.0132 -0.2576 -0.1386
 6485SOL    HW130917   0.285   1.445   1.195 -0.8261 -0.0387 -0.4745
 6485SOL    HW230918   0.243   1.456   1.056  0.6749  1.6621 -1.2239
 6486SOL     OW30919   3.872   3.621   6.280  0.1904 -0.2441  0.0275
 6486SOL    HW130920   3.783   3.653   6.292 -0.1617 -1.9282  1.9867
 6486SOL    HW230921   3.918   3.660   6.354  0.0501  0.3660 -0.2057
 6487SOL     OW30922   0.441   3.778   8.812 -0.3530  1.1540  0.0792
 6487SOL    HW130923   0.432   3.864   8.773  0.3067  2.2573  2.3394
 6487SOL    HW230924   0.436   3.788   8.907 -1.8801 -0.7612  0.1990
 6488SOL     OW30925   2.387   1.715   0.163 -0.0363  0.2484  0.0950
 6488SOL    HW130926   2.335   1.706   0.083  1.6714 -2.0096 -0.7793
 6488SOL    HW230927   2.373   1.808   0.178  0.3343  0.1357  1.1065
 6489SOL     OW30928   4.546   4.548  14.293 -0.5585 -0.2819 -0.2058
 6489SOL    HW130929   4.478   4.482  14.304 -0.0463 -0.6291  0.8881
 6489SOL    HW230930   4.498   4.630  14.282 -0.6736 -0.4961 -1.3730
 6490SOL     OW30931   4.256   3.872  12.111 -0.0232  0.3329  0.2843
 6490SOL    HW130932   4.298   3.862  12.026  0.1979  0.9291  0.3202
 6490SOL    HW230933   4.274   3.784  12.145 -0.6997  0.1380  0.1289
 6491SOL     OW30934   2.109   2.245   5.543 -0.6198 -0.2007 -0.6259
 6491SOL    HW130935   2.174   2.287   5.600 -0.3090 -1.7961  0.2000
 6491SOL    HW230936   2.170   2.200   5.486 -1.4301 -1.2047 -0.6978
 6492SOL     OW30937   3.253   3.921  14.511  0.6514  0.1206  0.1078
 6492SOL    HW130938   3.289   3.864  14.443  2.8960 -0.1061  1.4845
 6492SOL    HW230939   3.303   3.897  14.588  1.0956 -3.5948 -1.3217
 6493SOL     OW30940   2.120   3.533   0.827 -0.3971 -0.0387  1.1361
 6493SOL    HW130941   2.152   3.538   0.737  2.4238  0.0148  2.1365
 6493SOL    HW230942   2.185   3.582   0.877 -1.5716  1.0879  1.5391
 6494SOL     OW30943   3.226   1.843   6.694 -0.0075  0.1122  0.4925
 6494SOL    HW130944   3.184   1.913   6.645  1.2429  1.7481  1.7670
 6494SOL    HW230945   3.194   1.768   6.643 -0.7055  0.8927 -0.2016
 6495SOL     OW30946   0.909   3.422  11.979  0.1651 -0.2258 -0.4074
 6495SOL    HW130947   0.842   3.471  11.932  0.2203  0.4255  0.1927
 6495SOL    HW230948   0.987   3.465  11.944 -0.1149 -0.1583 -0.9523
 6496SOL     OW30949   0.172   2.209  16.136 -0.2321 -0.0103 -0.0134
 6496SOL    HW130950   0.097   2.261  16.164 -0.3441  0.4829 -1.2512
 6496SOL    HW230951   0.133   2.164  16.061  0.4867 -1.1071  0.2610
 6497SOL     OW30952   2.821   0.953  11.493  0.1760  0.4555 -0.5966
 6497SOL    HW130953   2.908   0.921  11.472 -0.3152 -1.1917 -0.1817
 6497SOL    HW230954   2.775   0.903  11.426 -1.4194  1.5981 -0.3545
 6498SOL     OW30955   0.270   3.388   7.497  0.0332 -0.1341 -0.6451
 6498SOL    HW130956   0.305   3.319   7.440 -1.6390 -1.0215 -0.6156
 6498SOL    HW230957   0.205   3.438   7.448  1.9303  1.6073 -1.3724
 6499SOL     OW30958   2.391   0.836   5.405 -0.3919 -0.0928 -0.0469
 6499SOL    HW130959   2.466   0.894   5.396 -0.7713  0.3455 -0.3702
 6499SOL    HW230960   2.345   0.880   5.333 -0.1120  0.1519 -0.0761
 6500SOL     OW30961   4.463   3.637   6.847 -0.2106  0.0577 -0.2776
 6500SOL    HW130962   4.405   3.711   6.868  0.9636  0.3857  1.7613
 6500SOL    HW230963   4.482   3.657   6.755  1.6357 -0.5231 -0.0206
 6501SOL     OW30964   1.441   0.019   8.394 -0.2173 -0.4898  0.7012
 6501SOL    HW130965   1.463   0.020   8.301 -1.7179 -0.6376  0.3434
 6501SOL    HW230966   1.461   0.108   8.424 -0.9100  0.6129 -2.0436
 6502SOL     OW30967   0.556   3.362   2.891  0.3238  0.3419 -0.1476
 6502SOL    HW130968   0.505   3.365   2.811  1.2615 -1.2679 -0.7949
 6502SOL    HW230969   0.630   3.418   2.868  0.1221  0.1199 -1.3007
 6503SOL     OW30970   1.600   0.605   5.431 -0.2307 -0.1715  0.5165
 6503SOL    HW130971   1.622   0.634   5.520 -1.7028 -2.2279  1.5857
 6503SOL    HW230972   1.687   0.576   5.404 -0.2783 -0.6713  0.8986
 6504SOL     OW30973   1.973   1.575   3.933 -0.2638  0.5759  0.3247
 6504SOL    HW130974   1.895   1.559   3.880  0.1346 -0.2199 -0.0091
 6504SOL    HW230975   2.048   1.567   3.873 -0.6946  1.9505 -0.3987
 6505SOL     OW30976   0.610   1.506   3.986  0.4855  0.1665  0.0697
 6505SOL    HW130977   0.544   1.440   3.964  0.0308  0.2433  1.1992
 6505SOL    HW230978   0.615   1.543   3.898  0.3777 -1.4425 -0.6014
 6506SOL     OW30979   2.153   1.280   6.459  0.5355 -0.7219 -0.2300
 6506SOL    HW130980   2.162   1.195   6.415 -0.1251  0.4428 -2.6204
 6506SOL    HW230981   2.196   1.333   6.392  0.1754 -2.4248 -1.8150
 6507SOL     OW30982   4.701   3.695   2.588 -0.0253 -0.4915  0.4216
 6507SOL    HW130983   0.020   3.743   2.517  1.3126  0.2633  1.7438
 6507SOL    HW230984   4.672   3.610   2.555  0.1809  0.8394 -3.2066
 6508SOL     OW30985   3.160   1.414   9.449  0.8071  0.2732  0.6892
 6508SOL    HW130986   3.252   1.398   9.427 -0.0940 -2.4043 -1.1394
 6508SOL    HW230987   3.160   1.439   9.541  3.6189 -0.8983  1.0055
 6509SOL     OW30988   2.959   3.514   0.569 -0.3672 -0.0712  0.0539
 6509SOL    HW130989   2.868   3.537   0.590  0.0099  2.9086 -1.6277
 6509SOL    HW230990   2.955   3.430   0.523  0.5268  0.5470 -1.1476
 6510SOL     OW30991   1.588   2.873   4.681  0.0880 -0.3781  0.7895
 6510SOL    HW130992   1.631   2.888   4.597 -0.9928 -3.9591 -0.3953
 6510SOL    HW230993   1.500   2.907   4.665  0.6400  0.3430 -0.6827
 6511SOL     OW30994   2.057   3.481  14.560 -0.2730 -0.0513 -0.9538
 6511SOL    HW130995   2.062   3.576  14.568  0.8769 -0.3748  1.9988
 6511SOL    HW230996   2.086   3.453  14.647 -1.4135  0.7130 -0.3295
 6512SOL     OW30997   2.149   0.196   8.468  0.3859  0.1074  0.2014
 6512SOL    HW130998   2.175   0.111   8.433  0.5233 -0.1450  0.9141
 6512SOL    HW230999   2.060   0.183   8.498  0.7895  0.0748  1.3847
 6513SOL     OW31000   1.302   3.117   6.491 -0.2722  0.2870  0.7250
 6513SOL    HW131001   1.297   3.198   6.442  1.7054 -1.1641 -1.8488
 6513SOL    HW231002   1.209   3.101   6.510 -1.1917  2.9030 -1.6519
 6514SOL     OW31003   3.169   0.363   7.466  0.2093  0.0161 -0.3611
 6514SOL    HW131004   3.130   0.439   7.511 -1.5742 -1.0864 -0.0377
 6514SOL    HW231005   3.259   0.386   7.445 -0.0898  0.8300 -0.7673
 6515SOL     OW31006   1.495   3.105   1.803 -0.6314 -0.0872 -0.0422
 6515SOL    HW131007   1.456   3.120   1.717 -0.2731 -0.4919 -0.2743
 6515SOL    HW231008   1.579   3.148   1.787 -1.1328 -0.0204 -2.5143
 6516SOL     OW31009   2.872   4.642   8.755  0.2006 -0.2282 -0.6032
 6516SOL    HW131010   2.796   4.698   8.740  0.2501  0.6687  2.4702
 6516SOL    HW231011   2.932   4.693   8.700  0.0999 -0.5449 -1.0053
 6517SOL     OW31012   0.100   1.845  15.387  0.3657  0.2643 -0.3433
 6517SOL    HW131013   0.195   1.837  15.394  0.2275 -0.7183  0.4049
 6517SOL    HW231014   0.081   1.782  15.318 -2.0914  1.9088 -1.1958
 6518SOL     OW31015   4.642   0.432  14.117 -0.0278 -0.2842  0.0291
 6518SOL    HW131016   4.558   0.473  14.134  0.3026  0.3424  0.1480
 6518SOL    HW231017   4.641   0.364  14.185 -0.4921  0.7126  1.0049
 6519SOL     OW31018   2.347   4.374  11.113  0.1001  0.7873  0.4911
 6519SOL    HW131019   2.274   4.435  11.115  0.3890  1.2114 -1.4546
 6519SOL    HW231020   2.417   4.439  11.104 -1.2578  2.1348 -0.3368
 6520SOL     OW31021   3.305   3.409   2.006  0.6568  0.0331  0.0648
 6520SOL    HW131022   3.334   3.495   1.978  2.7156 -0.3452  1.0513
 6520SOL    HW231023   3.376   3.353   1.975  0.7600 -0.6620  1.5720
 6521SOL     OW31024   4.261   0.286   7.403 -0.6430  0.4225  0.5408
 6521SOL    HW131025   4.284   0.351   7.469 -1.3711 -0.1614  1.3730
 6521SOL    HW231026   4.289   0.201   7.436 -0.5904 -0.0104 -0.6508
 6522SOL     OW31027   2.452   2.403   5.989  0.4738 -0.0128 -0.1615
 6522SOL    HW131028   2.364   2.370   5.975  0.4733 -0.1586  0.1891
 6522SOL    HW231029   2.483   2.342   6.056  0.1089  0.9647  0.8896
 6523SOL     OW31030   2.580   2.690   3.822  0.8373 -0.3068 -0.2831
 6523SOL    HW131031   2.610   2.781   3.826  0.7262 -0.1421 -3.8111
 6523SOL    HW231032   2.501   2.698   3.770  2.0784 -0.4702 -2.2137
 6524SOL     OW31033   0.011   0.177   0.488  0.0972  0.4302  0.0267
 6524SOL    HW131034   4.671   0.243   0.516  1.2570  1.2848  0.6646
 6524SOL    HW231035   0.031   0.200   0.397 -0.0564 -0.1806 -0.1583
 6525SOL     OW31036   0.027   1.920   4.344 -0.1563  0.1778 -0.1574
 6525SOL    HW131037   4.696   1.860   4.293  0.3956  0.2881 -0.8734
 6525SOL    HW231038   0.060   1.863   4.413 -1.4705  0.8522  1.0407
 6526SOL     OW31039   4.106   0.123   4.305 -0.0911  0.0392 -0.0645
 6526SOL    HW131040   4.027   0.150   4.353 -0.9133  1.1369 -2.0551
 6526SOL    HW231041   4.081   0.060   4.238 -0.5654 -0.4752  0.5854
 6527SOL     OW31042   1.477   3.971   7.464 -0.0513  0.1573  0.2835
 6527SOL    HW131043   1.391   3.954   7.425  1.4674 -1.9551 -2.1421
 6527SOL    HW231044   1.527   4.013   7.395  0.8828  2.0782  2.1185
 6528SOL     OW31045   3.917   0.213  10.681 -0.4421 -0.7433  0.0573
 6528SOL    HW131046   3.919   0.285  10.618 -1.2984 -0.9308 -0.1881
 6528SOL    HW231047   4.010   0.199  10.698 -0.0181  1.8070 -0.2038
 6529SOL     OW31048   4.461   0.705  12.088 -0.0935  0.1141  0.1402
 6529SOL    HW131049   4.506   0.781  12.051  2.6779 -0.2432  2.6845
 6529SOL    HW231050   4.412   0.751  12.156 -1.6321 -2.7041  0.9293
 6530SOL     OW31051   2.297   2.248   7.366  0.1419  0.3070  0.6108
 6530SOL    HW131052   2.236   2.210   7.428  1.5345 -2.0404  0.5460
 6530SOL    HW231053   2.248   2.260   7.285  0.8534 -0.8478  0.0054
 6531SOL     OW31054   4.065   1.706   0.906 -0.0017  0.4237  0.2475
 6531SOL    HW131055   4.042   1.793   0.937  0.1642 -0.4707  2.8282
 6531SOL    HW231056   4.027   1.645   0.969  0.8135 -1.3196 -0.9292
 6532SOL     OW31057   3.726   3.530  15.581 -0.0583 -0.3317 -0.2038
 6532SOL    HW131058   3.649   3.486  15.618 -1.1167 -1.2953 -3.5558
 6532SOL    HW231059   3.780   3.534  15.660 -1.5359  1.8762  0.7188
 6533SOL     OW31060   1.187   2.629   9.581 -0.0913 -0.3737 -0.0709
 6533SOL    HW131061   1.128   2.601   9.511  0.0292 -1.9357  0.4623
 6533SOL    HW231062   1.126   2.673   9.640 -0.1836  1.6008 -1.6295
 6534SOL     OW31063   3.448   3.530   9.201 -0.0339  0.5003 -0.0767
 6534SOL    HW131064   3.363   3.527   9.157 -0.4065  2.0871  0.5377
 6534SOL    HW231065   3.448   3.622   9.228 -2.7644  0.1282  1.1700
 6535SOL     OW31066   0.888   1.220   0.733  0.0893 -0.4204  0.4016
 6535SOL    HW131067   0.852   1.190   0.816 -0.6739  1.6157  0.8200
 6535SOL    HW231068   0.978   1.241   0.758  0.1536 -1.1850  0.7981
 6536SOL     OW31069   1.003   4.101   5.731  0.4108 -0.3595 -0.2340
 6536SOL    HW131070   1.062   4.156   5.782 -1.3686  1.2706  0.0774
 6536SOL    HW231071   0.924   4.135   5.773  1.3110  0.5517  0.7115
 6537SOL     OW31072   0.103   1.738   8.768  0.3232  0.5861  0.1024
 6537SOL    HW131073   0.145   1.682   8.834 -0.6429  1.3717  1.3992
 6537SOL    HW231074   0.122   1.821   8.812 -0.4459 -0.1994  1.9662
 6538SOL     OW31075   4.524   3.215   3.028  0.2570  0.1254  0.0099
 6538SOL    HW131076   4.499   3.150   3.093 -2.0445 -0.6071 -1.6097
 6538SOL    HW231077   4.609   3.241   3.063  0.2244 -1.7473  1.4707
 6539SOL     OW31078   0.876   3.379   5.449  0.2918  0.2372 -0.7739
 6539SOL    HW131079   0.821   3.432   5.507  0.3441 -0.4267 -0.1146
 6539SOL    HW231080   0.889   3.297   5.497  1.8838  1.2235  0.5114
 6540SOL     OW31081   0.265   4.702  17.121  0.0778  0.0302  0.1044
 6540SOL    HW131082   0.206   4.627  17.109  1.4111 -1.0580  0.4398
 6540SOL    HW231083   0.353   4.670  17.140 -0.0776 -1.0878 -0.9810
 6541SOL     OW31084   2.325   0.514  15.105  0.5889  0.5915 -0.5210
 6541SOL    HW131085   2.250   0.472  15.064  1.6144 -1.3916 -0.4246
 6541SOL    HW231086   2.334   0.605  15.077  0.8531  1.2897  1.8487
 6542SOL     OW31087   2.141   0.232   8.887  0.1209  0.9430 -0.2389
 6542SOL    HW131088   2.205   0.268   8.948 -1.3982  3.6576 -0.2521
 6542SOL    HW231089   2.073   0.184   8.934  0.1853  1.6935  0.6197
 6543SOL     OW31090   4.314   2.293   3.411 -0.5857 -0.0407  0.0076
 6543SOL    HW131091   4.313   2.362   3.344  0.4740  0.8096  0.8575
 6543SOL    HW231092   4.398   2.283   3.455 -1.3289 -0.3977  1.3642
 6544SOL     OW31093   3.183   1.784  11.821  0.0623  0.4395  0.0216
 6544SOL    HW131094   3.109   1.751  11.873  0.1922 -0.2173 -0.2102
 6544SOL    HW231095   3.185   1.719  11.751 -1.8266  0.4988 -0.0846
 6545SOL     OW31096   1.802   1.819   7.371  0.6584 -0.4829 -0.4515
 6545SOL    HW131097   1.854   1.802   7.450  3.1264  1.1102 -1.7459
 6545SOL    HW231098   1.782   1.912   7.379 -0.4777 -1.0458  3.4203
 6546SOL     OW31099   2.804   3.815  10.427 -0.1468  0.4418  0.0145
 6546SOL    HW131100   2.799   3.735  10.479  1.6728  0.8702  0.8417
 6546SOL    HW231101   2.846   3.788  10.346 -1.0179  0.2697 -0.3828
 6547SOL     OW31102   2.741   0.297  10.979  0.6887  0.1235 -0.6404
 6547SOL    HW131103   2.785   0.212  10.984  1.2030  0.3608 -1.2102
 6547SOL    HW231104   2.683   0.276  10.905 -0.8619  1.0986  0.3024
 6548SOL     OW31105   4.335   3.146   2.432 -0.4013 -0.8718 -0.0255
 6548SOL    HW131106   4.309   3.231   2.400 -0.3113 -0.8414 -0.0187
 6548SOL    HW231107   4.262   3.126   2.490 -0.6181  0.3878  0.1254
 6549SOL     OW31108   0.638   3.988  13.602  0.1611  0.5673 -0.3268
 6549SOL    HW131109   0.593   4.014  13.521 -1.8400  0.7798  0.8391
 6549SOL    HW231110   0.563   3.991  13.662  1.7833 -4.0085  1.9455
 6550SOL     OW31111   2.371   3.009   4.028  0.1459 -0.1454  0.1927
 6550SOL    HW131112   2.350   3.085   3.974 -1.6328 -0.7617  0.0336
 6550SOL    HW231113   2.334   3.043   4.110  0.7154  1.4985 -0.2321
 6551SOL     OW31114   2.124   0.524   4.660  0.0303 -0.3553 -0.2773
 6551SOL    HW131115   2.184   0.513   4.587 -1.7332 -2.4581 -1.3942
 6551SOL    HW231116   2.038   0.554   4.628 -0.4327  0.4426  1.6583
 6552SOL     OW31117   3.120   3.663  15.454  0.8469  0.1312 -0.4162
 6552SOL    HW131118   3.189   3.649  15.518 -0.1060  1.2035  0.8421
 6552SOL    HW231119   3.162   3.730  15.400 -0.8097  1.3378 -0.2176
 6553SOL     OW31120   4.434   2.093   6.043  0.0053 -0.1316  0.4642
 6553SOL    HW131121   4.345   2.127   6.033  0.4634  0.7556 -0.6105
 6553SOL    HW231122   4.424   2.046   6.126 -0.1875 -1.5861 -0.3748
 6554SOL     OW31123   0.489   3.482  13.114 -0.1119 -0.4756 -0.0714
 6554SOL    HW131124   0.518   3.403  13.159  1.1252  1.2325  2.0900
 6554SOL    HW231125   0.486   3.449  13.024  0.7723  1.8405 -0.9369
 6555SOL     OW31126   4.611   3.467   1.530 -0.5282  0.1235 -0.0041
 6555SOL    HW131127   4.642   3.527   1.462  2.4521  0.5838  1.7617
 6555SOL    HW231128   4.647   3.508   1.608 -0.9214 -1.1744  0.8658
 6556SOL     OW31129   4.116   2.792   6.274 -0.6600  0.3186 -0.2509
 6556SOL    HW131130   4.093   2.699   6.282  0.4610 -0.0432 -1.2150
 6556SOL    HW231131   4.193   2.798   6.331  0.1051  1.9892 -1.4682
 6557SOL     OW31132   4.673   0.859   5.840 -0.0676 -0.1551  0.4838
 6557SOL    HW131133   4.628   0.903   5.767  2.1319 -0.0728 -0.8253
 6557SOL    HW231134   4.719   0.789   5.794 -0.5232  0.0054 -0.2230
 6558SOL     OW31135   4.345   0.421   5.239  0.2525  0.2857  0.1313
 6558SOL    HW131136   4.273   0.386   5.186  0.0226  0.1246  0.5542
 6558SOL    HW231137   4.323   0.380   5.322 -4.1728  1.3099 -0.5704
 6559SOL     OW31138   1.394   4.646   5.677  0.1509  0.0370  0.0925
 6559SOL    HW131139   1.439   4.638   5.593  2.1529 -2.3419  1.4098
 6559SOL    HW231140   1.448   4.590   5.733  0.3298  0.1334  0.0188
 6560SOL     OW31141   3.009   3.531  16.049 -0.0636 -0.3398 -0.5478
 6560SOL    HW131142   2.982   3.548  16.140 -1.2654 -0.1570 -0.9435
 6560SOL    HW231143   3.103   3.549  16.061 -0.0973  1.4374 -2.8222
 6561SOL     OW31144   1.002   3.220   1.523  0.0807 -0.6194  0.2477
 6561SOL    HW131145   0.983   3.160   1.596  0.1568  0.7457  1.3882
 6561SOL    HW231146   0.996   3.309   1.558  1.8405 -0.3954 -0.0337
 6562SOL     OW31147   1.422   3.171   5.235  0.5114 -0.4542 -0.4378
 6562SOL    HW131148   1.515   3.173   5.214  0.4946  2.6210 -0.1545
 6562SOL    HW231149   1.432   3.118   5.314 -0.5573  0.6730  0.4556
 6563SOL     OW31150   0.782   0.337   3.290  0.0610 -0.1996  0.0564
 6563SOL    HW131151   0.738   0.376   3.215  0.3379 -0.4394 -0.2292
 6563SOL    HW231152   0.721   0.344   3.364 -0.2540 -0.6538 -0.1558
 6564SOL     OW31153   2.724   3.812   8.701  0.3535 -0.1960  0.4646
 6564SOL    HW131154   2.648   3.847   8.655  1.8754  4.0504  1.2037
 6564SOL    HW231155   2.685   3.794   8.787  1.0559 -1.6669  0.4814
 6565SOL     OW31156   0.312   1.437   2.138  0.6640 -0.2726 -0.6144
 6565SOL    HW131157   0.252   1.494   2.187  0.4887 -1.2172  0.2866
 6565SOL    HW231158   0.285   1.463   2.050 -1.9038  0.9015  0.5178
 6566SOL     OW31159   0.804   4.317   1.571 -0.4237 -0.6088  0.3504
 6566SOL    HW131160   0.739   4.304   1.502  0.7636  1.8045 -1.2528
 6566SOL    HW231161   0.868   4.253   1.540 -1.4335 -0.7700 -1.4307
 6567SOL     OW31162   3.893   0.973   7.702 -0.1223 -0.1268  0.1874
 6567SOL    HW131163   3.975   1.013   7.730 -0.1888 -0.9253  1.4893
 6567SOL    HW231164   3.931   0.886   7.692  1.3034  0.4331  0.7372
 6568SOL     OW31165   4.137   4.446   6.247  0.0104 -0.0376  0.5763
 6568SOL    HW131166   4.078   4.481   6.179  2.3786 -0.8616 -1.9083
 6568SOL    HW231167   4.081   4.378   6.286 -2.3129  0.9583 -0.9791
 6569SOL     OW31168   3.360   0.451   1.333 -0.2498 -0.1816  0.1484
 6569SOL    HW131169   3.391   0.537   1.360  0.5073 -0.5825  0.5510
 6569SOL    HW231170   3.396   0.394   1.400  2.2113  0.5634 -0.5501
 6570SOL     OW31171   0.980   2.932  10.387  0.7939  0.2138 -0.1147
 6570SOL    HW131172   0.965   2.891  10.472  1.6791 -0.1435 -0.1285
 6570SOL    HW231173   1.061   2.982  10.393  0.0097  1.5182 -0.2282
 6571SOL     OW31174   0.056   0.714  11.068 -0.2367 -0.1250  0.1593
 6571SOL    HW131175   0.003   0.651  11.020  3.3465 -2.8760 -0.1707
 6571SOL    HW231176   0.091   0.779  11.007 -0.6194  1.0635  1.2047
 6572SOL     OW31177   3.729   0.609  11.454 -0.2947  0.2694  0.6947
 6572SOL    HW131178   3.741   0.516  11.477  1.5340  0.4715  0.5365
 6572SOL    HW231179   3.810   0.633  11.409 -0.2240 -0.3390  0.4884
 6573SOL     OW31180   1.493   4.679   3.581 -0.7682 -0.0920  0.3404
 6573SOL    HW131181   1.534   4.660   3.496 -2.5635 -0.1781 -0.5033
 6573SOL    HW231182   1.562   0.013   3.614  0.6166 -0.7779 -1.3159
 6574SOL     OW31183   3.960   4.086   2.736  0.2110  0.0771 -0.1085
 6574SOL    HW131184   3.980   4.172   2.700 -1.9736  0.4835 -0.3487
 6574SOL    HW231185   4.027   4.090   2.804  0.3533 -0.1396 -0.2352
 6575SOL     OW31186   2.772   0.247   9.279  0.2893  0.2413 -0.1099
 6575SOL    HW131187   2.804   0.253   9.189 -1.1308  0.4504 -0.6063
 6575SOL    HW231188   2.818   0.166   9.298  0.5574  0.4316  0.0488
 6576SOL     OW31189   3.991   4.378   7.109  0.3731 -0.2922  0.4814
 6576SOL    HW131190   4.044   4.455   7.129 -2.0120  1.2424  0.9850
 6576SOL    HW231191   3.951   4.362   7.194  0.6454 -1.0924  0.4531
 6577SOL     OW31192   2.881   4.509  10.975  0.1281  0.1421 -0.1708
 6577SOL    HW131193   2.877   4.499  10.880  2.0973 -1.7325 -0.0616
 6577SOL    HW231194   2.962   4.460  10.983 -1.4066 -2.3234  0.4184
 6578SOL     OW31195   2.981   1.121  17.293 -0.3082 -0.1870 -0.1887
 6578SOL    HW131196   3.052   1.097  17.234 -0.2379 -0.9997  0.2377
 6578SOL    HW231197   2.905   1.095  17.240 -1.0474 -1.0886  1.3049
 6579SOL     OW31198   4.711   3.697  14.654  0.7536 -0.2112 -0.0176
 6579SOL    HW131199   0.041   3.769  14.686  1.3763  0.3189 -2.2240
 6579SOL    HW231200   4.639   3.751  14.624  0.4259  0.2117  1.5459
 6580SOL     OW31201   1.071   1.971   4.587  0.2762  0.0952 -0.2616
 6580SOL    HW131202   1.122   1.960   4.668 -0.7455 -0.6327  0.2859
 6580SOL    HW231203   1.122   2.034   4.536 -1.5776  1.7611 -0.0593
 6581SOL     OW31204   1.275   2.674  15.289 -0.3189  0.3310  0.8593
 6581SOL    HW131205   1.225   2.604  15.246  1.6884 -1.5725  1.6108
 6581SOL    HW231206   1.223   2.668  15.369  2.4333  0.8857  2.6761
 6582SOL     OW31207   0.730   1.567   2.115  0.1350 -0.0577  0.4209
 6582SOL    HW131208   0.807   1.590   2.063 -0.7002  0.1324 -0.7364
 6582SOL    HW231209   0.768   1.489   2.155  0.8217  0.1180  0.1106
 6583SOL     OW31210   0.856   0.333   8.510  0.2801  0.2990  0.3830
 6583SOL    HW131211   0.780   0.340   8.452  0.2804  0.7139  0.4294
 6583SOL    HW231212   0.929   0.329   8.448  0.1213  0.0720  0.2111
 6584SOL     OW31213   3.614   4.458   9.307  0.5747 -0.2355  0.1411
 6584SOL    HW131214   3.553   4.489   9.374  1.1650  0.4700  0.3583
 6584SOL    HW231215   3.632   4.539   9.260  2.0297 -0.2134  0.7408
 6585SOL     OW31216   0.519   3.192   3.506 -0.2891  0.0728 -0.6161
 6585SOL    HW131217   0.587   3.125   3.508 -1.1112 -0.7089  1.2368
 6585SOL    HW231218   0.443   3.139   3.532 -0.6775  0.6721 -0.5309
 6586SOL     OW31219   1.223   4.206  13.360 -0.2387 -0.8462 -0.2206
 6586SOL    HW131220   1.219   4.171  13.449 -3.6017  1.9706  0.7508
 6586SOL    HW231221   1.221   4.126  13.308 -0.7909 -0.5939 -0.5934
 6587SOL     OW31222   1.746   1.952   6.649  0.0208  0.5093  0.5551
 6587SOL    HW131223   1.757   1.970   6.743 -0.8550  0.8232  0.5968
 6587SOL    HW231224   1.785   2.024   6.600 -0.1787 -0.4808 -1.0498
 6588SOL     OW31225   3.461   0.364   3.505  0.3170  0.0510  0.2370
 6588SOL    HW131226   3.544   0.318   3.518 -0.5702 -1.7940 -0.6125
 6588SOL    HW231227   3.433   0.344   3.416 -0.0420  1.5075  0.0164
 6589SOL     OW31228   1.400   3.499  14.873 -0.2908 -0.6346  0.1548
 6589SOL    HW131229   1.339   3.518  14.802  0.1197  2.4153  0.6342
 6589SOL    HW231230   1.469   3.454  14.825  0.2531 -0.9241  1.2033
 6590SOL     OW31231   3.260   1.391  10.511 -0.0025  0.0801 -0.3239
 6590SOL    HW131232   3.173   1.354  10.527  0.4692  0.1731  2.5561
 6590SOL    HW231233   3.251   1.473  10.559 -1.4449 -0.7291  0.7945
 6591SOL     OW31234   2.072   0.975   3.642 -0.4564  0.4771  0.3431
 6591SOL    HW131235   2.165   0.964   3.626 -0.7239  2.2042 -2.5721
 6591SOL    HW231236   2.061   1.060   3.598  1.3301  1.3531  1.6316
 6592SOL     OW31237   3.192   4.168   5.710  0.0881  0.3418  0.1496
 6592SOL    HW131238   3.123   4.210   5.658  0.7062 -0.1074 -1.0413
 6592SOL    HW231239   3.156   4.085   5.739 -1.3808  0.4143 -1.4678
 6593SOL     OW31240   1.792   3.828   8.936 -0.0939 -0.0421  0.2764
 6593SOL    HW131241   1.773   3.782   9.018 -1.9985 -0.9368 -0.6886
 6593SOL    HW231242   1.787   3.755   8.874 -0.9014  1.6137 -1.5859
 6594SOL     OW31243   3.101   0.314  17.352 -0.0914 -0.6590  0.7850
 6594SOL    HW131244   3.023   0.351  17.393 -1.1617 -1.4912 -0.4985
 6594SOL    HW231245   3.172   0.340  17.410 -0.3449 -0.3415  0.9539
 6595SOL     OW31246   2.365   4.027   3.544 -0.8506  0.1322  0.5150
 6595SOL    HW131247   2.408   4.110   3.564 -2.1768  1.1995 -1.0529
 6595SOL    HW231248   2.449   3.988   3.521  0.4084  3.2486 -0.1690
 6596SOL     OW31249   1.885   3.181  12.908 -0.2837  0.0234 -0.2032
 6596SOL    HW131250   1.809   3.238  12.900  0.5751  0.8880 -2.0847
 6596SOL    HW231251   1.948   3.250  12.928  1.7044 -2.2715  1.5215
 6597SOL     OW31252   2.659   2.852   5.014  0.5279 -0.3092 -0.1222
 6597SOL    HW131253   2.676   2.931   4.963 -0.4117  0.8453  1.3438
 6597SOL    HW231254   2.712   2.798   4.956  2.3708  0.3969  0.9199
 6598SOL     OW31255   0.940   0.157   9.148  0.2585  0.1097 -0.0688
 6598SOL    HW131256   0.846   0.141   9.149  0.1165  0.8213 -2.0692
 6598SOL    HW231257   0.954   0.240   9.193 -1.1734 -0.4866  1.4863
 6599SOL     OW31258   0.401   3.248   4.758 -0.3678  0.3819 -0.4518
 6599SOL    HW131259   0.341   3.315   4.788  0.0685  0.6164 -0.0979
 6599SOL    HW231260   0.346   3.177   4.726 -0.0131 -0.0980 -0.0051
 6600SOL     OW31261   0.150   3.230   2.469 -0.7301 -0.2018 -0.3320
 6600SOL    HW131262   0.127   3.257   2.558  1.3716 -0.6185  0.3506
 6600SOL    HW231263   0.101   3.148   2.471 -1.6135  0.3426  0.9915
 6601SOL     OW31264   0.569   4.425   0.384 -0.2674 -0.1213 -0.1286
 6601SOL    HW131265   0.651   4.427   0.336 -0.3044  1.0870 -0.1405
 6601SOL    HW231266   0.545   4.511   0.419 -0.1809  0.4463 -1.5040
 6602SOL     OW31267   4.240   4.142  16.979  0.5413 -0.1010 -0.2258
 6602SOL    HW131268   4.317   4.198  16.983 -0.2104  0.9135  0.1697
 6602SOL    HW231269   4.186   4.207  16.934  2.4071  1.7510  0.2197
 6603SOL     OW31270   2.896   0.309   3.698 -0.6094 -0.3104 -0.2974
 6603SOL    HW131271   2.974   0.334   3.746 -0.2026  2.1609 -2.2501
 6603SOL    HW231272   2.822   0.331   3.755  0.1342 -1.2582  1.0426
 6604SOL     OW31273   0.246   0.156   4.660 -0.4043  0.1745 -0.2794
 6604SOL    HW131274   0.216   0.069   4.631 -1.5281  0.2986  0.5275
 6604SOL    HW231275   0.160   0.198   4.657 -0.0921  0.9349  1.7359
 6605SOL     OW31276   2.314   3.698   5.474 -0.6428 -0.6388  0.2223
 6605SOL    HW131277   2.334   3.707   5.381  0.0303 -0.5187  0.3832
 6605SOL    HW231278   2.385   3.747   5.517 -0.8338  0.2599 -0.4888
 6606SOL     OW31279   2.937   3.736   5.832 -0.0022  0.6175  0.5194
 6606SOL    HW131280   3.003   3.742   5.901 -1.3946  0.6897  1.8408
 6606SOL    HW231281   2.855   3.742   5.882 -0.8757 -2.9278 -0.4485
 6607SOL     OW31282   0.509   1.507   0.278  0.2279  0.3261  0.4239
 6607SOL    HW131283   0.486   1.427   0.326 -0.3699  0.3481  0.1828
 6607SOL    HW231284   0.438   1.503   0.213 -0.4218 -2.2867  1.2783
 6608SOL     OW31285   3.263   1.881   4.134 -0.2027  0.0906 -0.2211
 6608SOL    HW131286   3.273   1.889   4.229 -0.0783  0.2588 -0.2492
 6608SOL    HW231287   3.187   1.936   4.113  0.9134  2.4574  2.0034
 6609SOL     OW31288   2.788   2.981   5.256 -0.7484 -0.4366  0.9633
 6609SOL    HW131289   2.870   2.933   5.244 -0.0778  0.3651  2.3374
 6609SOL    HW231290   2.734   2.952   5.183 -0.6246  1.2391  0.1949
 6610SOL     OW31291   1.992   2.583   6.662 -0.2620  0.6219 -0.4353
 6610SOL    HW131292   1.902   2.611   6.646  0.9410  2.9503 -3.1515
 6610SOL    HW231293   1.984   2.490   6.684 -1.0217  0.4348 -1.5088
 6611SOL     OW31294   0.973   2.963   3.468  0.6671  0.5982  0.2191
 6611SOL    HW131295   1.042   3.001   3.414 -0.4719  1.3725 -0.6889
 6611SOL    HW231296   0.978   3.023   3.543 -0.3988  0.3711  0.4761
 6612SOL     OW31297   0.734   0.592   1.250 -0.0457  0.7652 -0.1731
 6612SOL    HW131298   0.730   0.514   1.307  2.8473 -0.0960 -1.1635
 6612SOL    HW231299   0.791   0.651   1.299 -1.6146  0.7378  1.6611
 6613SOL     OW31300   2.755   4.173   7.557  0.0890 -0.3036  0.0915
 6613SOL    HW131301   2.836   4.150   7.602  0.6313  2.1416  0.3606
 6613SOL    HW231302   2.721   4.084   7.562 -3.7677  1.1191 -0.6832
 6614SOL     OW31303   2.704   4.655   9.524 -0.1563  0.3617  0.2204
 6614SOL    HW131304   2.769   4.721   9.498  1.9495 -2.0257 -0.6151
 6614SOL    HW231305   2.712   4.677   9.617  0.0280 -0.6867  0.4556
 6615SOL     OW31306   2.619   3.144   2.748 -0.6255 -0.4350  0.1068
 6615SOL    HW131307   2.677   3.149   2.672 -1.0689 -0.2285 -0.2170
 6615SOL    HW231308   2.560   3.081   2.707  0.9293 -1.0401 -1.1864
 6616SOL     OW31309   4.371   1.892   2.569 -0.9459 -0.2234 -0.3482
 6616SOL    HW131310   4.441   1.929   2.623  0.4887 -0.5221 -2.0131
 6616SOL    HW231311   4.386   1.803   2.600 -3.5891 -0.8065 -0.7256
 6617SOL     OW31312   1.757   0.922   0.889 -0.3960 -0.5996  0.1683
 6617SOL    HW131313   1.814   0.855   0.850  1.2735  0.5280  0.6613
 6617SOL    HW231314   1.785   1.003   0.848  1.5099 -2.2950 -1.9155
 6618SOL     OW31315   0.496   3.627   6.094  0.0032  0.5358  0.4264
 6618SOL    HW131316   0.450   3.710   6.109  1.1275  1.3089 -0.3879
 6618SOL    HW231317   0.534   3.610   6.180  0.1179  0.0636  0.2849
 6619SOL     OW31318   1.604   0.220   8.623 -0.3054  0.3435  0.0181
 6619SOL    HW131319   1.666   0.245   8.554  0.5465  0.3070  0.7763
 6619SOL    HW231320   1.639   0.264   8.700  0.1190 -2.1877  1.2571
 6620SOL     OW31321   1.101   2.212   6.498 -0.0194  0.4704  0.3730
 6620SOL    HW131322   1.042   2.287   6.503  0.6958  1.1238 -1.1263
 6620SOL    HW231323   1.103   2.185   6.406 -2.5889 -0.9024  0.7082
 6621SOL     OW31324   3.440   3.634   1.923 -0.2566 -0.4366 -0.3019
 6621SOL    HW131325   3.367   3.664   1.869 -1.0274 -0.6894  0.5913
 6621SOL    HW231326   3.493   3.597   1.852 -1.3579  0.0895 -1.4033
 6622SOL     OW31327   1.184   1.700   8.444  0.0991  0.0588 -0.2660
 6622SOL    HW131328   1.245   1.762   8.484 -1.2576  1.0181  0.3094
 6622SOL    HW231329   1.241   1.658   8.380  0.0254  2.0430 -1.6141
 6623SOL     OW31330   3.093   3.537   2.714 -0.6177 -0.6966  0.5317
 6623SOL    HW131331   3.129   3.464   2.764  1.3637 -2.2305 -3.1883
 6623SOL    HW231332   3.158   3.560   2.648 -2.4131  1.0806 -0.6022
 6624SOL     OW31333   2.917   1.966   5.386  0.3703  0.5133  0.2886
 6624SOL    HW131334   2.837   2.009   5.416  0.2408 -1.1621  2.3273
 6624SOL    HW231335   2.878   1.891   5.341  3.3556 -0.8828  0.0531
 6625SOL     OW31336   3.849   3.068   7.481  0.1255 -0.0704  0.5338
 6625SOL    HW131337   3.889   3.110   7.557  1.1331 -1.1278  0.5850
 6625SOL    HW231338   3.760   3.065   7.515 -0.1285 -1.7236 -0.2675
 6626SOL     OW31339   2.505   4.708   7.936  0.1789  0.2183  0.2546
 6626SOL    HW131340   2.520   4.641   7.870  1.7606  0.7015  0.1196
 6626SOL    HW231341   2.500   4.654   8.015  1.5944 -0.5038 -0.1528
 6627SOL     OW31342   4.627   0.726   1.587 -0.1495 -0.0761  0.0821
 6627SOL    HW131343   4.680   0.715   1.666 -0.7587 -1.8466  0.2388
 6627SOL    HW231344   4.572   0.649   1.602 -1.5821  0.9654  0.1924
 6628SOL     OW31345   0.975   4.694   6.545 -0.2837  0.0040  0.4854
 6628SOL    HW131346   1.061   0.001   6.515 -0.5728  0.7362  0.4360
 6628SOL    HW231347   0.916   4.724   6.476  1.2059  0.8785 -0.4016
 6629SOL     OW31348   1.368   2.137   4.250  0.5706 -0.1798 -0.0236
 6629SOL    HW131349   1.460   2.117   4.261  0.3542 -1.1719 -0.0822
 6629SOL    HW231350   1.333   2.050   4.231  1.4538 -0.8335  1.3730
 6630SOL     OW31351   3.779   4.473   2.441  0.0551  0.0731  0.4792
 6630SOL    HW131352   3.791   4.529   2.365 -2.8559  0.3190  0.2159
 6630SOL    HW231353   3.844   4.403   2.433 -0.8362 -0.7238  0.2263
 6631SOL     OW31354   0.823   1.210   4.134 -0.5472  0.1849 -0.2291
 6631SOL    HW131355   0.832   1.303   4.157  0.8377  0.1319 -0.5486
 6631SOL    HW231356   0.753   1.177   4.190 -0.7874  3.0356  1.1610
 6632SOL     OW31357   3.815   4.373   3.493 -0.1082  0.2190 -0.2632
 6632SOL    HW131358   3.883   4.438   3.511 -0.6387  0.6616  0.1496
 6632SOL    HW231359   3.748   4.438   3.471 -0.5369  0.0032  0.4002
 6633SOL     OW31360   0.631   0.497  14.262  0.1558  0.0159  0.1588
 6633SOL    HW131361   0.537   0.486  14.281 -0.0877  0.9648 -0.5124
 6633SOL    HW231362   0.638   0.458  14.174 -2.3867  0.8356 -0.4129
 6634SOL     OW31363   4.347   2.065   9.103 -0.2489  0.2892  0.3803
 6634SOL    HW131364   4.353   1.977   9.140  0.1533  1.0635  2.1730
 6634SOL    HW231365   4.263   2.052   9.059  0.6402 -1.2998 -0.8577
 6635SOL     OW31366   0.375   3.352   6.854  0.3557 -0.0826 -0.4140
 6635SOL    HW131367   0.454   3.344   6.801  1.4001 -1.6420  1.3746
 6635SOL    HW231368   0.306   3.331   6.792 -0.5385 -0.6922  0.8053
 6636SOL     OW31369   3.136   3.587   7.443 -0.1317 -0.2251  0.1851
 6636SOL    HW131370   3.073   3.520   7.417  0.9622 -1.1572 -0.0784
 6636SOL    HW231371   3.165   3.616   7.356 -0.3096 -2.7284 -0.7047
 6637SOL     OW31372   4.567   3.168   9.008  0.1463  0.1092 -0.1548
 6637SOL    HW131373   4.498   3.193   8.947  1.3141  0.1670 -1.4654
 6637SOL    HW231374   4.642   3.212   8.968 -0.9363  2.5578  0.5224
 6638SOL     OW31375   0.989   4.122   9.511  0.0212 -0.1898  0.5234
 6638SOL    HW131376   0.911   4.178   9.516  0.5199  0.5717 -0.2985
 6638SOL    HW231377   1.018   4.123   9.602 -0.0030  0.7976  0.5138
 6639SOL     OW31378   1.719   1.262  13.770 -0.3261 -0.5924 -0.0901
 6639SOL    HW131379   1.769   1.336  13.805  0.1311 -0.9982  0.1161
 6639SOL    HW231380   1.793   1.217  13.730  1.8192  2.1116  0.8588
 6640SOL     OW31381   2.534   1.058  16.670  0.0922 -0.0978 -0.1600
 6640SOL    HW131382   2.536   1.004  16.749 -0.2959  0.1884  0.0437
 6640SOL    HW231383   2.617   1.100  16.647 -1.1898  1.2423 -2.4172
 6641SOL     OW31384   3.135   3.039   2.870 -0.1127 -0.3808  0.1493
 6641SOL    HW131385   3.063   2.997   2.917 -2.0370  0.7861 -1.7427
 6641SOL    HW231386   3.141   2.993   2.786  1.7871  2.4988 -1.2919
 6642SOL     OW31387   0.963   2.179   7.684 -0.4454 -0.0534  0.1157
 6642SOL    HW131388   1.003   2.185   7.771 -1.3594 -0.1162  0.5421
 6642SOL    HW231389   0.921   2.094   7.699  1.0983 -0.5801  1.3875
 6643SOL     OW31390   4.592   0.538  10.579 -0.6235  0.1187  0.1123
 6643SOL    HW131391   4.540   0.546  10.660  1.0329 -0.6682  1.2486
 6643SOL    HW231392   4.538   0.590  10.519 -1.8850 -0.1670  0.9861
 6644SOL     OW31393   0.463   1.141   6.004  0.3861  0.6864 -0.2164
 6644SOL    HW131394   0.386   1.117   5.953  0.7275  0.7424 -0.7564
 6644SOL    HW231395   0.511   1.059   5.994  0.7033  0.5585  2.4494
 6645SOL     OW31396   4.196   2.792   2.573 -0.0390  0.0557  0.2498
 6645SOL    HW131397   4.169   2.717   2.520 -0.8979 -0.3037  1.1974
 6645SOL    HW231398   4.132   2.861   2.553 -0.0416  0.1582  0.6171
 6646SOL     OW31399   1.301   2.896   9.486 -0.1338 -0.4622 -0.0056
 6646SOL    HW131400   1.381   2.843   9.481  1.7960  2.3610  0.3928
 6646SOL    HW231401   1.246   2.831   9.530 -1.1070 -0.2479 -0.9220
 6647SOL     OW31402   1.508   4.115   2.458  0.0174 -0.5895 -0.1966
 6647SOL    HW131403   1.457   4.194   2.476 -1.5071 -1.3218 -1.2630
 6647SOL    HW231404   1.446   4.080   2.394  0.3995 -1.6332  0.0093
 6648SOL     OW31405   0.097   1.680   5.776  0.4574  0.1156 -0.4612
 6648SOL    HW131406   0.014   1.632   5.767  1.9112 -2.3500 -0.6637
 6648SOL    HW231407   0.156   1.631   5.719  1.5228 -0.4332  1.1145
 6649SOL     OW31408   3.922   0.355   2.512  0.5225 -0.0679 -0.3818
 6649SOL    HW131409   3.862   0.386   2.444  0.0026  1.7591  0.9355
 6649SOL    HW231410   3.919   0.435   2.564  2.3223  0.4097 -0.9974
 6650SOL     OW31411   0.691   2.757   6.622  0.1427 -0.3044  0.3795
 6650SOL    HW131412   0.646   2.783   6.703 -0.2932 -0.9391  0.3409
 6650SOL    HW231413   0.708   2.669   6.655  1.4295 -0.8679 -1.7972
 6651SOL     OW31414   4.600   2.041  11.470 -0.0606 -0.2606  0.0711
 6651SOL    HW131415   4.611   2.119  11.415 -0.2408  1.9034  3.0823
 6651SOL    HW231416   4.514   2.046  11.511  0.2955  0.7177  0.7148
 6652SOL     OW31417   0.812   3.083   2.218 -0.5275  0.3115  0.6776
 6652SOL    HW131418   0.863   3.045   2.147 -2.6284 -0.8559 -0.1838
 6652SOL    HW231419   0.864   3.149   2.266 -0.5816  0.4860  0.4932
 6653SOL     OW31420   3.303   1.224   8.287  0.6217 -0.1490 -0.5343
 6653SOL    HW131421   3.332   1.313   8.306 -2.0610  0.1548  2.1811
 6653SOL    HW231422   3.229   1.245   8.230  0.2401 -2.4620 -0.8866
 6654SOL     OW31423   0.008   4.184   2.275 -0.2817 -0.2058  0.1571
 6654SOL    HW131424   0.094   4.212   2.305  0.3861 -0.3939 -1.5834
 6654SOL    HW231425   0.023   4.182   2.180  1.4611 -2.3619  0.4949
 6655SOL     OW31426   0.930   4.675   2.372  0.0148  0.5672  0.0869
 6655SOL    HW131427   0.927   4.579   2.371 -1.1677  0.6065  0.0137
 6655SOL    HW231428   0.873   4.701   2.300  1.3290 -0.3015 -1.2513
 6656SOL     OW31429   2.088   2.162   1.514 -0.2845 -0.5454  0.3579
 6656SOL    HW131430   2.056   2.247   1.545 -0.5183 -0.6119  0.2967
 6656SOL    HW231431   2.180   2.188   1.504 -0.5683 -0.6140 -2.5113
 6657SOL     OW31432   4.406   1.814   9.199  0.5124  0.1553  0.0091
 6657SOL    HW131433   4.405   1.749   9.129  0.0259  0.0619  0.0997
 6657SOL    HW231434   4.454   1.776   9.273 -1.2344 -1.6012  0.2280
 6658SOL     OW31435   1.260   2.059  13.805  0.1524 -0.7822  0.2743
 6658SOL    HW131436   1.248   1.966  13.781 -1.9060 -1.0112  2.2215
 6658SOL    HW231437   1.257   2.048  13.900 -0.1504  0.5867  0.4203
 6659SOL     OW31438   0.985   0.696   4.290 -0.0762  0.1858  0.0950
 6659SOL    HW131439   1.020   0.752   4.359  1.3633  0.9957 -1.2900
 6659SOL    HW231440   0.956   0.760   4.225 -1.6049 -1.0886 -0.5150
 6660SOL     OW31441   4.139   4.699   4.829 -0.0106 -1.1403  0.6665
 6660SOL    HW131442   4.128   4.623   4.887 -0.2661 -0.9935  0.8106
 6660SOL    HW231443   4.221   0.016   4.857 -1.1094  0.0612  2.1160
 6661SOL     OW31444   2.917   3.524   3.581  0.1469  0.2856  0.0867
 6661SOL    HW131445   2.867   3.506   3.661 -1.3819  2.2264 -0.4432
 6661SOL    HW231446   2.931   3.434   3.553 -1.1935 -0.0943  0.5945
 6662SOL     OW31447   3.903   2.484  17.132 -0.1781 -0.3914  0.0552
 6662SOL    HW131448   3.810   2.479  17.112  0.1040  0.8441 -1.5882
 6662SOL    HW231449   3.932   2.427  17.061  2.1314 -1.0784  1.5535
 6663SOL     OW31450   2.399   2.087   0.941 -0.0936  0.3645 -0.5173
 6663SOL    HW131451   2.338   2.087   1.015  0.6115  1.3591  0.0566
 6663SOL    HW231452   2.447   2.009   0.967  1.0333  0.7367 -1.5018
 6664SOL     OW31453   3.688   3.030  12.841  0.1631  0.3464  0.5700
 6664SOL    HW131454   3.670   3.101  12.903 -1.1241  0.8000 -0.3261
 6664SOL    HW231455   3.691   3.081  12.760 -1.9359  0.3304  0.4810
 6665SOL     OW31456   4.023   3.143   8.134 -0.1011  0.0557 -0.2184
 6665SOL    HW131457   3.985   3.104   8.055 -0.9789 -3.4586  1.9363
 6665SOL    HW231458   4.051   3.063   8.178  1.0369  0.0509 -0.9493
 6666SOL     OW31459   3.339   2.978   3.737  0.0587 -0.0079  0.3625
 6666SOL    HW131460   3.378   2.925   3.807 -0.6324 -0.3229  0.5082
 6666SOL    HW231461   3.303   3.048   3.792  2.0114  3.1109 -2.3994
 6667SOL     OW31462   3.270   3.833   5.005  0.1755  0.0248 -0.6081
 6667SOL    HW131463   3.220   3.751   5.001 -1.2709  0.9168 -1.0471
 6667SOL    HW231464   3.312   3.837   5.090  0.5637  3.2035 -0.9496
 6668SOL     OW31465   2.963   1.360   3.628 -0.5077 -0.0984  0.0472
 6668SOL    HW131466   2.955   1.408   3.710 -1.0771  0.0278 -0.0846
 6668SOL    HW231467   3.024   1.418   3.582 -0.9501  0.5667  0.3217
 6669SOL     OW31468   1.981   1.193   8.645 -0.0729 -0.1982 -0.4776
 6669SOL    HW131469   1.986   1.211   8.551 -0.3144 -2.2196 -0.8700
 6669SOL    HW231470   2.072   1.200   8.674 -0.4062 -0.1058  0.5570
 6670SOL     OW31471   0.150   3.232  13.532 -0.6045  0.1510  0.0891
 6670SOL    HW131472   0.101   3.238  13.614 -1.7448  0.9791 -0.6515
 6670SOL    HW231473   0.136   3.139  13.515 -0.0262  0.0433  0.2154
 6671SOL     OW31474   4.611   0.597  12.870  0.0896  0.3941 -0.9976
 6671SOL    HW131475   4.568   0.587  12.785  1.7959 -1.1227 -1.6854
 6671SOL    HW231476   4.695   0.558  12.846 -0.8814 -1.3057 -1.6906
 6672SOL     OW31477   2.324   0.055   5.233 -0.1887 -0.3899  0.0285
 6672SOL    HW131478   2.395   0.116   5.216  1.6646 -2.1337  1.5757
 6672SOL    HW231479   2.258   0.091   5.174  2.4037  0.9319 -2.0453
 6673SOL     OW31480   2.341   4.067  15.638 -0.6777 -0.0236 -0.3398
 6673SOL    HW131481   2.400   3.992  15.622  0.5691  0.8362  0.2453
 6673SOL    HW231482   2.254   4.029  15.623  0.2434 -2.0151 -0.7313
 6674SOL     OW31483   0.275   0.207   4.121 -0.2484  0.3082 -0.5789
 6674SOL    HW131484   0.317   0.291   4.103  1.9855 -0.6890  0.0472
 6674SOL    HW231485   0.347   0.151   4.149 -1.7776 -1.6093 -0.5183
 6675SOL     OW31486   1.169   2.909   8.471  0.1919 -0.5731  0.1406
 6675SOL    HW131487   1.218   2.828   8.458 -3.3616 -2.7225  0.0833
 6675SOL    HW231488   1.100   2.905   8.405 -1.3177 -0.6799  1.7116
 6676SOL     OW31489   3.786   3.833  15.153 -0.0636 -0.5453 -0.6929
 6676SOL    HW131490   3.762   3.856  15.063 -0.2259 -2.3003 -1.1009
 6676SOL    HW231491   3.839   3.756  15.134 -0.3480 -1.1203  0.8206
 6677SOL     OW31492   2.595   1.663   3.901 -0.1212  0.2845  0.3315
 6677SOL    HW131493   2.629   1.589   3.951  0.2534  0.9310  1.0279
 6677SOL    HW231494   2.532   1.698   3.963 -1.1362  2.1690 -1.7705
 6678SOL     OW31495   0.263   2.123  13.894 -0.3851 -0.1878 -0.5570
 6678SOL    HW131496   0.173   2.123  13.863  0.8355  0.7523 -4.1947
 6678SOL    HW231497   0.309   2.135  13.811  0.0846  1.5055 -0.0633
 6679SOL     OW31498   4.216   0.455  15.942  0.1101  0.0384 -0.2297
 6679SOL    HW131499   4.169   0.533  15.973  2.6323  1.1050  0.9533
 6679SOL    HW231500   4.303   0.481  15.913  1.1503 -2.8697  0.3093
 6680SOL     OW31501   1.891   0.556   2.574  0.5388 -0.0677  0.0283
 6680SOL    HW131502   1.979   0.579   2.543  1.3098 -3.4217 -0.2888
 6680SOL    HW231503   1.909   0.556   2.668  0.5896  1.9712  0.0197
 6681SOL     OW31504   3.573   4.025   7.208 -0.9973 -0.0073 -0.5002
 6681SOL    HW131505   3.598   4.075   7.286  0.0798 -2.1085  0.4790
 6681SOL    HW231506   3.499   4.076   7.174 -0.0709  0.7151 -1.4265
 6682SOL     OW31507   4.623   2.895   0.840 -0.4989 -0.4595  0.1112
 6682SOL    HW131508   4.707   2.895   0.793 -0.5137  0.9595  0.0816
 6682SOL    HW231509   4.618   2.800   0.851 -1.9702 -0.5172 -1.0031
 6683SOL     OW31510   1.603   2.667   8.007  0.2409 -0.1793 -0.3870
 6683SOL    HW131511   1.537   2.598   8.018 -0.9616  1.2873  1.5570
 6683SOL    HW231512   1.581   2.737   8.069  1.1825 -1.1221  0.9980
 6684SOL     OW31513   2.749   3.710  16.218  0.5027  0.3535  0.6805
 6684SOL    HW131514   2.694   3.785  16.240  1.6288  0.5931  2.6167
 6684SOL    HW231515   2.692   3.641  16.251  1.8765  0.7937  3.9686
 6685SOL     OW31516   1.108   3.556   9.457 -0.1672  0.6173  0.0570
 6685SOL    HW131517   1.074   3.471   9.487 -0.5295  0.8380  0.2800
 6685SOL    HW231518   1.029   3.601   9.428  0.6956  1.5540 -0.8127
 6686SOL     OW31519   0.247   0.602  14.734  0.0480  0.1147  0.3983
 6686SOL    HW131520   0.243   0.507  14.744 -0.9306  0.0482 -0.6692
 6686SOL    HW231521   0.156   0.630  14.732  1.0879  3.3725 -0.7003
 6687SOL     OW31522   1.993   2.972  13.065  0.0782  0.2898  0.6441
 6687SOL    HW131523   1.926   2.935  13.122  0.1724  0.7999  1.0886
 6687SOL    HW231524   1.946   3.033  13.009 -3.2036 -0.3453  2.7072
 6688SOL     OW31525   0.223   0.261  10.960 -0.2504 -0.1454 -0.1380
 6688SOL    HW131526   0.239   0.281  11.052 -0.7731  0.9510 -0.2926
 6688SOL    HW231527   0.198   0.351  10.939 -0.4763  0.1374  1.3735
 6689SOL     OW31528   1.129   4.049  16.803 -0.6664  0.1766 -0.0572
 6689SOL    HW131529   1.098   3.974  16.753 -0.1998 -1.2702  1.8141
 6689SOL    HW231530   1.112   4.124  16.746  0.1600 -1.7900 -2.8828
 6690SOL     OW31531   3.388   2.997   7.025  0.5006 -0.8696  0.5684
 6690SOL    HW131532   3.331   3.073   7.016  0.9782 -0.5742  0.0446
 6690SOL    HW231533   3.472   3.040   7.044  0.4024 -0.9982  1.3003
 6691SOL     OW31534   3.704   4.600   6.735  0.1410  0.1329 -0.8244
 6691SOL    HW131535   3.755   4.538   6.788  1.7544  1.0781 -1.2845
 6691SOL    HW231536   3.699   4.673   6.797  0.7126  2.0360 -3.0244
 6692SOL     OW31537   1.444   1.673   4.735  0.2139  0.4036  0.5787
 6692SOL    HW131538   1.377   1.679   4.803 -0.1007 -2.1309  0.5110
 6692SOL    HW231539   1.473   1.581   4.739 -0.5805  0.2717  3.4465
 6693SOL     OW31540   2.298   2.554  10.793 -0.5663 -0.5035  0.1211
 6693SOL    HW131541   2.326   2.546  10.884  0.3830  1.3177 -0.0009
 6693SOL    HW231542   2.272   2.646  10.793  1.8364  0.1903 -2.4596
 6694SOL     OW31543   3.564   4.061   1.144 -0.2484 -0.0804 -0.2376
 6694SOL    HW131544   3.470   4.061   1.127 -0.4898  4.5424  1.3146
 6694SOL    HW231545   3.590   4.061   1.052  0.0264  0.8210 -0.1600
 6695SOL     OW31546   2.342   3.719  10.507  0.3187  0.5511  0.3143
 6695SOL    HW131547   2.378   3.704  10.594  0.6804 -0.8845 -0.0770
 6695SOL    HW231548   2.425   3.699  10.464 -2.1556 -3.5105 -2.6559
 6696SOL     OW31549   0.464   4.653   6.862 -0.4248  0.0429 -0.3915
 6696SOL    HW131550   0.385   4.662   6.808  0.1571  3.9920 -0.6348
 6696SOL    HW231551   0.425   4.683   6.944 -1.6170 -2.8795  0.1120
 6697SOL     OW31552   3.414   3.789   7.058  0.2819  0.4788  0.3626
 6697SOL    HW131553   3.477   3.752   6.995  0.8672  1.0061  0.6344
 6697SOL    HW231554   3.470   3.857   7.096  0.6944  1.7953 -2.5925
 6698SOL     OW31555   1.858   2.694   2.006  0.0200 -0.4525 -0.5035
 6698SOL    HW131556   1.873   2.602   2.029 -1.9062 -0.7316 -0.3411
 6698SOL    HW231557   1.946   2.720   1.979 -0.3674  2.2678  0.8733
 6699SOL     OW31558   0.072   0.416   8.888  0.1955  0.1062  0.1439
 6699SOL    HW131559   0.153   0.453   8.851  1.8887 -3.4231  0.3422
 6699SOL    HW231560   0.004   0.476   8.857  0.0924 -1.0363 -1.8384
 6700SOL     OW31561   3.740   4.100   3.443  0.4133  0.0511  0.4025
 6700SOL    HW131562   3.772   4.190   3.449  1.4091 -0.6568  5.4641
 6700SOL    HW231563   3.681   4.101   3.368  0.6504  1.3091  0.2389
 6701SOL     OW31564   4.622   4.167   6.760 -0.2040  0.1420  0.1050
 6701SOL    HW131565   4.575   4.173   6.677 -0.1867  1.1129  0.1701
 6701SOL    HW231566   4.582   4.088   6.796  0.0189  0.7183  1.6199
 6702SOL     OW31567   1.211   4.558   2.183  0.0771  0.0695  0.3015
 6702SOL    HW131568   1.121   4.577   2.157 -0.3242  2.2279  3.4017
 6702SOL    HW231569   1.232   4.503   2.107 -0.7983  0.9749 -0.5850
 6703SOL     OW31570   0.138   2.477  14.141 -0.5338 -0.3909  0.6129
 6703SOL    HW131571   0.128   2.500  14.233  2.3776 -0.5588  0.9551
 6703SOL    HW231572   0.194   2.399  14.147 -1.1139 -1.0607 -2.8747
 6704SOL     OW31573   3.650   4.158   8.548 -0.4142  0.0627 -0.4047
 6704SOL    HW131574   3.643   4.234   8.605  0.6390 -0.4088  0.3334
 6704SOL    HW231575   3.743   4.155   8.529  0.1084  0.4088  2.1195
 6705SOL     OW31576   1.826   1.527   3.430 -0.4199  0.1729 -0.5043
 6705SOL    HW131577   1.879   1.565   3.360 -0.0294 -1.3633 -1.0410
 6705SOL    HW231578   1.739   1.537   3.392 -0.7795 -0.7275  0.0668
 6706SOL     OW31579   1.531   2.153   0.043 -0.4804 -0.3295 -0.2768
 6706SOL    HW131580   1.596   2.223   0.042 -2.5377  1.6050 -0.2782
 6706SOL    HW231581   1.586   2.075   0.050  1.8637  1.4214  0.9544
 6707SOL     OW31582   2.532   4.436   3.280 -0.2978 -0.1402 -0.2683
 6707SOL    HW131583   2.535   4.509   3.218 -0.3080 -0.9054 -1.1681
 6707SOL    HW231584   2.574   4.362   3.235  0.4197  0.1829 -0.1400
 6708SOL     OW31585   2.906   1.847   4.759  0.2743  0.0390  0.5682
 6708SOL    HW131586   2.854   1.811   4.831 -0.6422  1.8461  0.8047
 6708SOL    HW231587   2.835   1.890   4.711  0.7085  0.2749  0.1403
 6709SOL     OW31588   0.133   3.888   4.435  0.0432 -0.1165 -0.1648
 6709SOL    HW131589   0.052   3.924   4.400  0.3626  1.6617  0.9379
 6709SOL    HW231590   0.096   3.818   4.488 -0.7923 -0.2579 -0.9278
 6710SOL     OW31591   4.044   0.907   4.556 -0.3079  0.0480  0.2278
 6710SOL    HW131592   4.036   0.847   4.482 -2.4393  0.0546  0.4665
 6710SOL    HW231593   4.107   0.974   4.529  1.3511 -1.4052  0.4922
 6711SOL     OW31594   0.860   1.105   7.343 -0.1754  0.3168 -0.5828
 6711SOL    HW131595   0.897   1.159   7.273  1.7799 -1.1293 -0.6579
 6711SOL    HW231596   0.940   1.054   7.343 -0.8284 -0.7056 -0.0924
 6712SOL     OW31597   1.480   1.204   4.127 -0.4274 -0.0584 -0.0895
 6712SOL    HW131598   1.459   1.139   4.060 -0.5059 -1.5066  1.3134
 6712SOL    HW231599   1.393   1.212   4.165 -1.1330 -2.5061 -1.1709
 6713SOL     OW31600   3.986   2.313  14.796  0.3260 -0.2302  0.7119
 6713SOL    HW131601   4.028   2.329  14.881 -2.3312  0.2059  1.9590
 6713SOL    HW231602   3.894   2.296  14.816 -0.2366  1.7430 -0.3151
 6714SOL     OW31603   0.911   1.364   3.110 -0.3658 -0.7318  0.0213
 6714SOL    HW131604   1.003   1.388   3.102 -0.8555  1.6326  1.5105
 6714SOL    HW231605   0.903   1.299   3.041  2.9791  1.4063 -2.4098
 6715SOL     OW31606   1.018   4.612   4.507 -0.2338 -0.1247 -0.5545
 6715SOL    HW131607   0.933   4.569   4.513 -0.6105  0.8328  1.1117
 6715SOL    HW231608   1.032   4.616   4.413  1.0702  1.0342 -0.3140
 6716SOL     OW31609   1.005   2.805   8.271  0.0822 -0.3096 -0.1642
 6716SOL    HW131610   1.015   2.714   8.301 -1.0222 -0.8389 -1.3766
 6716SOL    HW231611   0.925   2.822   8.321 -0.3355 -2.0178 -0.2303
 6717SOL     OW31612   2.999   1.178   1.431 -0.4526  0.2459 -0.9068
 6717SOL    HW131613   2.929   1.156   1.369 -1.6597  1.3546  0.0726
 6717SOL    HW231614   2.961   1.124   1.501 -0.9997 -0.5522 -1.8147
 6718SOL     OW31615   4.123   1.907   6.538  0.1588 -0.1762 -0.0572
 6718SOL    HW131616   4.070   1.831   6.560  0.7244 -0.7028 -0.5013
 6718SOL    HW231617   4.209   1.894   6.578  0.5223 -0.3992 -0.9123
 6719SOL     OW31618   3.571   1.223  13.308  0.4590  0.5953 -0.2245
 6719SOL    HW131619   3.650   1.172  13.288 -1.0323 -1.3751 -1.0193
 6719SOL    HW231620   3.542   1.177  13.387 -1.1225  1.9527 -0.0238
 6720SOL     OW31621   2.290   4.500   3.756 -0.0081  0.0968  0.3438
 6720SOL    HW131622   2.374   4.520   3.797  1.5440 -0.8927 -2.3567
 6720SOL    HW231623   2.224   4.499   3.825 -0.9869 -1.8629 -0.6269
 6721SOL     OW31624   0.783   2.888  15.240 -0.2788 -0.3945  0.3098
 6721SOL    HW131625   0.755   2.916  15.327 -1.9429 -2.3293  0.4011
 6721SOL    HW231626   0.864   2.938  15.229 -0.4794  0.1340  1.2422
 6722SOL     OW31627   1.391   0.161  11.454 -0.0580  0.2009 -0.0691
 6722SOL    HW131628   1.396   0.124  11.365  1.3496  0.0652  0.0556
 6722SOL    HW231629   1.460   0.228  11.449  1.7556 -1.6757 -0.5000
 6723SOL     OW31630   4.549   1.358   6.632  0.3200 -0.0934 -0.6076
 6723SOL    HW131631   4.621   1.301   6.604  0.3216 -0.0165 -0.7621
 6723SOL    HW231632   4.499   1.285   6.667  1.4216 -1.2057 -1.3440
 6724SOL     OW31633   1.758   0.148   5.502 -0.0242  0.3563 -0.1853
 6724SOL    HW131634   1.835   0.175   5.451  0.0596  0.9155  0.2356
 6724SOL    HW231635   1.753   0.057   5.472  1.3499  0.2396 -0.0874
 6725SOL     OW31636   2.022   2.140   4.780  0.2315  0.6939 -0.5463
 6725SOL    HW131637   2.039   2.225   4.739 -0.9077  0.5926 -1.1931
 6725SOL    HW231638   2.055   2.074   4.719 -0.3054  1.2937 -1.4648
 6726SOL     OW31639   4.410   2.302  15.960 -0.0844  0.2108  0.7120
 6726SOL    HW131640   4.350   2.356  16.013  0.5550 -0.4268  2.1011
 6726SOL    HW231641   4.422   2.353  15.880  0.4751  1.3987  1.5440
 6727SOL     OW31642   1.502   3.059   8.333 -0.0938  0.6543  0.2272
 6727SOL    HW131643   1.568   3.120   8.301 -1.1891  1.2354 -0.9060
 6727SOL    HW231644   1.447   3.062   8.255  2.3890  0.6912 -1.4952
 6728SOL     OW31645   0.063   3.125   4.818 -0.0718 -0.6731  0.2607
 6728SOL    HW131646   4.708   3.074   4.798  0.7305 -1.4821 -0.8040
 6728SOL    HW231647   0.083   3.096   4.907  0.6896  3.1049  1.3336
 6729SOL     OW31648   2.577   1.322   6.020  0.2180 -0.3235  0.5295
 6729SOL    HW131649   2.541   1.250   6.071 -1.3203 -0.2832 -0.4934
 6729SOL    HW231650   2.670   1.325   6.043 -0.0347  1.9821  1.2272
 6730SOL     OW31651   0.315   3.132   8.067 -0.0008 -0.5071  0.1974
 6730SOL    HW131652   0.249   3.068   8.041  1.7009 -2.1119 -0.1502
 6730SOL    HW231653   0.383   3.116   8.002 -0.8283  0.6604 -0.9535
 6731SOL     OW31654   4.488   1.417   5.110 -0.5281 -0.1750 -0.5986
 6731SOL    HW131655   4.539   1.336   5.112 -1.2143 -0.5911  0.0316
 6731SOL    HW231656   4.508   1.454   5.197  0.3935 -0.1690 -0.8146
 6732SOL     OW31657   2.330   4.082   2.100  0.0404  0.4751  0.7860
 6732SOL    HW131658   2.342   3.997   2.143  0.2754  0.0386 -0.1469
 6732SOL    HW231659   2.246   4.068   2.055  1.3530 -1.9362 -0.9423
 6733SOL     OW31660   4.711   0.533   7.711 -0.9822  0.3733  0.0828
 6733SOL    HW131661   4.658   0.529   7.631 -1.2282  0.6425  0.2318
 6733SOL    HW231662   0.071   0.542   7.666  0.5225  3.1243  3.4951
 6734SOL     OW31663   3.053   3.551   8.890  0.0878  0.4476  0.5299
 6734SOL    HW131664   3.047   3.456   8.893 -1.9783  0.5017 -1.3272
 6734SOL    HW231665   3.040   3.561   8.795  1.7688  0.3027  0.2820
 6735SOL     OW31666   0.204   4.095   2.994  0.1740  0.1575 -0.5896
 6735SOL    HW131667   0.216   4.161   2.925  1.1077  0.2675 -0.3251
 6735SOL    HW231668   0.280   4.113   3.051 -0.5591 -0.9448  0.7258
 6736SOL     OW31669   2.598   3.587   1.698 -0.2125 -0.6505 -0.1321
 6736SOL    HW131670   2.580   3.605   1.790 -2.2231 -0.9718 -0.4747
 6736SOL    HW231671   2.628   3.671   1.663  0.2926 -1.2635 -1.1640
 6737SOL     OW31672   4.019   4.254  13.577  0.1421 -0.0933 -0.4307
 6737SOL    HW131673   4.059   4.180  13.623 -0.6121  1.2319  2.3921
 6737SOL    HW231674   3.969   4.287  13.652 -0.1835 -0.5155 -0.4633
 6738SOL     OW31675   2.192   2.815   5.748 -0.6917 -1.0061 -0.1941
 6738SOL    HW131676   2.148   2.900   5.737  0.4291 -0.6842 -2.2602
 6738SOL    HW231677   2.268   2.832   5.692 -1.2132 -0.4283 -0.7317
 6739SOL     OW31678   2.960   0.853  14.487  0.6038  0.1570  0.3140
 6739SOL    HW131679   2.939   0.764  14.517 -1.8936  0.8060  0.4669
 6739SOL    HW231680   3.031   0.829  14.427  0.0970 -0.8510  0.1159
 6740SOL     OW31681   2.484   1.165  14.997  0.1042 -0.1440  0.0104
 6740SOL    HW131682   2.519   1.253  14.984  1.9974 -0.4661  2.9864
 6740SOL    HW231683   2.491   1.127  14.909 -0.5989 -0.0022 -0.1032
 6741SOL     OW31684   0.604   4.662  12.662 -0.1082 -0.2726 -0.2932
 6741SOL    HW131685   0.682   4.706  12.696  0.2998 -0.5235 -0.9178
 6741SOL    HW231686   0.539   4.699  12.722 -0.5308 -2.5645  0.6746
 6742SOL     OW31687   3.230   1.853   8.335  0.3500 -0.1428 -0.5870
 6742SOL    HW131688   3.181   1.787   8.385  0.1306  0.1369 -0.4350
 6742SOL    HW231689   3.284   1.880   8.409  2.1031 -2.5166 -0.9895
 6743SOL     OW31690   1.006   3.677   6.704  0.9425  0.2670 -0.3249
 6743SOL    HW131691   0.989   3.743   6.637  0.5331 -1.8055 -2.2592
 6743SOL    HW231692   0.938   3.699   6.767  3.3297  1.0546  1.9633
 6744SOL     OW31693   1.544   1.719   0.733  0.6564 -0.7797  0.2513
 6744SOL    HW131694   1.518   1.658   0.664  0.1258 -0.6616  0.3441
 6744SOL    HW231695   1.458   1.751   0.761  1.0319  0.1397  0.3467
 6745SOL     OW31696   1.954   2.221   0.380  0.4542 -0.9176  0.2412
 6745SOL    HW131697   1.927   2.291   0.322 -0.2977 -0.6430  0.9193
 6745SOL    HW231698   1.873   2.171   0.369  1.0240 -1.4829 -1.4431
 6746SOL     OW31699   1.265   4.479  13.384  0.4686 -0.1458 -0.1630
 6746SOL    HW131700   1.180   4.519  13.363  0.8465  0.0869 -1.2545
 6746SOL    HW231701   1.251   4.386  13.369 -0.6459 -0.4110  2.4721
 6747SOL     OW31702   2.256   2.162  15.990  0.3926  0.0422 -0.6258
 6747SOL    HW131703   2.343   2.126  16.007  0.5423  0.6296 -0.1620
 6747SOL    HW231704   2.236   2.114  15.909 -0.5199  1.4051 -1.2248
 6748SOL     OW31705   0.609   0.628   3.604 -0.5206 -0.0906  0.2425
 6748SOL    HW131706   0.652   0.548   3.634 -0.6245 -0.5198 -0.7590
 6748SOL    HW231707   0.670   0.685   3.650  0.8497 -0.6310 -0.9322
 6749SOL     OW31708   0.223   0.806  13.549  0.1145  0.3570 -0.1545
 6749SOL    HW131709   0.172   0.877  13.509 -0.7071  0.3166  0.8093
 6749SOL    HW231710   0.277   0.784  13.473  0.2568  0.7023 -0.1528
 6750SOL     OW31711   3.961   4.675   8.611  0.0925 -0.8095 -0.1786
 6750SOL    HW131712   3.875   4.715   8.596 -0.6733 -1.3442  2.6935
 6750SOL    HW231713   3.933   4.590   8.645 -1.8778  1.0360  2.8999
 6751SOL     OW31714   2.466   1.848   8.307 -0.1254 -0.4993  0.2728
 6751SOL    HW131715   2.484   1.920   8.367  1.1497 -0.5820 -0.0016
 6751SOL    HW231716   2.374   1.837   8.328 -0.6046  1.0670 -0.9747
 6752SOL     OW31717   0.366   0.685   1.654 -0.2401 -0.6665 -0.2388
 6752SOL    HW131718   0.431   0.639   1.600 -0.0702 -1.3814  0.5640
 6752SOL    HW231719   0.309   0.613   1.682  0.2997 -1.4999 -1.2530
 6753SOL     OW31720   1.884   1.246   2.862 -0.5451  0.2616 -0.1013
 6753SOL    HW131721   1.837   1.262   2.780 -1.2889  0.6333  0.3919
 6753SOL    HW231722   1.930   1.164   2.843 -0.8526 -0.1761  1.0207
 6754SOL     OW31723   3.638   1.389   4.942 -0.2194 -0.2657 -0.2057
 6754SOL    HW131724   3.632   1.391   4.846  1.5108 -0.3623 -0.3170
 6754SOL    HW231725   3.553   1.369   4.981 -0.3108  1.8581  0.6495
 6755SOL     OW31726   1.289   1.502   7.731  0.4265 -0.2695 -0.3816
 6755SOL    HW131727   1.346   1.571   7.699 -1.0354  0.9455 -0.3578
 6755SOL    HW231728   1.252   1.474   7.647  1.5322 -0.3827 -0.8357
 6756SOL     OW31729   1.821   1.628   6.609 -0.9316  0.7123  0.0048
 6756SOL    HW131730   1.750   1.686   6.633 -2.3034 -1.4233  1.1409
 6756SOL    HW231731   1.849   1.600   6.696 -0.2072 -0.5017 -0.6026
 6757SOL     OW31732   3.101   3.949   8.755  0.0373 -0.1885  0.3530
 6757SOL    HW131733   3.048   3.988   8.825  0.7087 -0.3918  0.9651
 6757SOL    HW231734   3.035   3.950   8.685  0.4261  2.8724  0.0202
 6758SOL     OW31735   0.162   3.426  13.068 -0.1131  0.1703 -0.2811
 6758SOL    HW131736   0.096   3.431  13.137 -1.5343  1.6854 -1.7684
 6758SOL    HW231737   0.214   3.354  13.104 -0.9978 -0.1097  0.4331
 6759SOL     OW31738   0.150   0.598  13.870  0.0671 -0.0073 -0.1255
 6759SOL    HW131739   0.235   0.613  13.828 -0.0655  1.6341  0.1621
 6759SOL    HW231740   0.174   0.565  13.957  2.4391  0.2302 -0.6740
 6760SOL     OW31741   1.781   3.311   2.582 -0.3914  0.1118 -0.5098
 6760SOL    HW131742   1.866   3.349   2.605  0.2235 -0.7606 -1.3376
 6760SOL    HW231743   1.769   3.259   2.661  1.0246  0.0912 -0.3083
 6761SOL     OW31744   3.702   3.050   9.764  0.0778  0.7941 -0.1684
 6761SOL    HW131745   3.616   3.009   9.776 -0.1859  2.1345  2.4519
 6761SOL    HW231746   3.751   3.010   9.835 -1.0745 -1.3072 -0.5482
 6762SOL     OW31747   4.143   3.187   2.837 -0.1096  0.6557 -0.2017
 6762SOL    HW131748   4.213   3.252   2.832  0.7222 -0.2263 -0.0663
 6762SOL    HW231749   4.058   3.230   2.832 -0.4530  0.2067  1.5338
 6763SOL     OW31750   4.199   2.374   7.087  0.1481 -0.5437 -0.5499
 6763SOL    HW131751   4.240   2.288   7.098  0.0912 -0.1782  2.6063
 6763SOL    HW231752   4.193   2.381   6.992 -0.2944  1.2520 -0.3840
 6764SOL     OW31753   1.033   4.207   4.815  0.2200 -0.5642  0.1626
 6764SOL    HW131754   1.043   4.300   4.835 -0.5500 -0.8137  1.7644
 6764SOL    HW231755   1.097   4.166   4.874  0.0300 -0.4005  0.4867
 6765SOL     OW31756   2.226   1.587   9.167  0.0548 -0.2713  0.1686
 6765SOL    HW131757   2.171   1.581   9.245 -1.8926  1.2470 -1.0830
 6765SOL    HW231758   2.250   1.680   9.163 -0.1727 -0.1843  0.9067
 6766SOL     OW31759   2.601   2.307   6.711 -0.1254 -0.2193  0.3654
 6766SOL    HW131760   2.588   2.380   6.652  1.1075 -0.0443  0.3119
 6766SOL    HW231761   2.563   2.338   6.793 -1.2250  1.9168 -0.9506
 6767SOL     OW31762   2.670   3.346   5.163 -0.1185  0.4692  1.3510
 6767SOL    HW131763   2.687   3.340   5.256 -0.1639 -0.8119  1.2712
 6767SOL    HW231764   2.666   3.441   5.147 -2.3688 -0.1432 -1.7356
 6768SOL     OW31765   4.289   4.425  16.767 -0.7255 -0.1348  0.3195
 6768SOL    HW131766   4.258   4.437  16.857  0.8922 -2.3172  1.1661
 6768SOL    HW231767   4.363   4.366  16.782  1.1087  1.9401 -0.6168
 6769SOL     OW31768   0.255   4.287   2.404  0.3708  0.4175  0.1402
 6769SOL    HW131769   0.350   4.284   2.396  0.4172  1.7258  0.2447
 6769SOL    HW231770   0.236   4.237   2.484  1.4722  0.5384  0.4747
 6770SOL     OW31771   2.459   4.375   4.485 -0.1278  0.1419  0.5681
 6770SOL    HW131772   2.494   4.461   4.462 -1.7715  1.1807  1.9144
 6770SOL    HW231773   2.400   4.361   4.412 -0.0855 -0.2268  0.6024
 6771SOL     OW31774   4.194   2.230   1.427 -0.2479  0.2065  0.1982
 6771SOL    HW131775   4.197   2.324   1.445  0.6398 -0.2845  2.5922
 6771SOL    HW231776   4.181   2.192   1.514 -1.2564 -1.5964 -0.7276
 6772SOL     OW31777   0.735   0.408   4.004  0.0107 -0.2254 -0.0061
 6772SOL    HW131778   0.724   0.413   3.909  1.4854 -1.3381 -0.2320
 6772SOL    HW231779   0.813   0.353   4.007  0.9071  1.0152 -0.6823
 6773SOL     OW31780   1.017   3.438   8.973 -0.2015 -0.0195 -0.5590
 6773SOL    HW131781   0.959   3.387   9.029  0.1936  0.3690  0.2032
 6773SOL    HW231782   1.085   3.375   8.949  3.0533  2.2515  2.6796
 6774SOL     OW31783   3.647   2.800   5.858  0.0744 -0.0397 -0.4988
 6774SOL    HW131784   3.642   2.725   5.917  2.6657 -0.1522 -0.4365
 6774SOL    HW231785   3.643   2.869   5.924  0.1356  0.2129 -0.7594
 6775SOL     OW31786   3.519   1.915   3.082 -0.0896  0.0799 -0.9146
 6775SOL    HW131787   3.506   2.007   3.060  1.0072  0.2348 -0.8834
 6775SOL    HW231788   3.562   1.931   3.166 -2.5440  0.0698  0.3503
 6776SOL     OW31789   2.139   1.858   2.464 -0.4827 -0.2100 -0.5108
 6776SOL    HW131790   2.232   1.841   2.476 -0.5426 -0.4135 -0.3347
 6776SOL    HW231791   2.106   1.771   2.442 -2.7120  1.4884 -3.9172
 6777SOL     OW31792   4.652   1.173   8.256 -0.2110  0.6885 -0.4420
 6777SOL    HW131793   4.721   1.159   8.191 -0.1386 -1.8129  0.1703
 6777SOL    HW231794   4.704   1.203   8.331 -1.7680 -1.2582  1.4009
 6778SOL     OW31795   2.334   4.030   7.598 -0.3311 -0.2791  1.1223
 6778SOL    HW131796   2.361   4.066   7.683 -0.5766 -0.1246  1.1352
 6778SOL    HW231797   2.338   4.108   7.542  0.3183 -1.2828 -0.2126
 6779SOL     OW31798   1.016   2.070   5.134  0.2773  0.3150  0.1024
 6779SOL    HW131799   0.955   2.030   5.072  0.7524 -1.0872  0.5399
 6779SOL    HW231800   1.073   1.994   5.150  2.0235  1.4599 -0.6385
 6780SOL     OW31801   1.873   1.996  17.649  0.8909 -0.4241 -0.1113
 6780SOL    HW131802   1.822   2.029  17.575  0.8382 -0.2332  0.0110
 6780SOL    HW231803   1.809   1.948   0.003  1.5297 -0.4873  0.6047
 6781SOL     OW31804   2.771   2.847  10.188  0.3807  0.3791 -0.6701
 6781SOL    HW131805   2.708   2.871  10.255  2.2482 -1.1495  1.6513
 6781SOL    HW231806   2.847   2.847  10.246 -0.2180 -0.1349  0.1200
 6782SOL     OW31807   0.132   1.400   8.866 -0.1853  0.0777 -0.4252
 6782SOL    HW131808   0.187   1.323   8.849 -2.7009 -1.5008 -1.4649
 6782SOL    HW231809   0.207   1.454   8.892 -0.7847  0.3248  0.8083
 6783SOL     OW31810   3.489   4.187   9.293 -0.0331 -0.8039  0.3338
 6783SOL    HW131811   3.505   4.281   9.298  1.0684 -0.9356 -0.7932
 6783SOL    HW231812   3.503   4.189   9.198  4.1976  0.2198  0.9692
 6784SOL     OW31813   3.127   2.854  11.612  0.0746  0.3768 -0.0071
 6784SOL    HW131814   3.033   2.873  11.614 -0.0421  0.1814 -3.2495
 6784SOL    HW231815   3.152   2.898  11.693  2.2367 -0.4762 -0.2210
 6785SOL     OW31816   4.724   0.287   1.928 -0.0072  0.6372 -0.0216
 6785SOL    HW131817   4.724   0.266   2.021 -0.7254 -0.8382 -0.3526
 6785SOL    HW231818   0.090   0.267   1.904  0.8658  1.7221  2.3279
 6786SOL     OW31819   1.825   4.049   2.623  0.0706  0.7344 -0.7482
 6786SOL    HW131820   1.861   4.107   2.556 -0.4366  0.0069 -1.6586
 6786SOL    HW231821   1.765   4.109   2.668  0.2608 -1.6163  2.6390
 6787SOL     OW31822   1.746   1.038  15.413 -0.0129  0.1272 -0.0331
 6787SOL    HW131823   1.769   1.060  15.323 -2.2328 -1.8934 -1.0943
 6787SOL    HW231824   1.715   1.125  15.439 -0.4163 -0.8364  2.7386
 6788SOL     OW31825   0.229   2.859   1.996 -0.3918  0.0832  0.2632
 6788SOL    HW131826   0.279   2.917   2.053 -2.8984  2.0867  0.3895
 6788SOL    HW231827   0.254   2.902   1.914 -0.0810 -0.0960  0.2637
 6789SOL     OW31828   0.969   1.485   7.316 -0.0849 -0.2394  0.4586
 6789SOL    HW131829   0.888   1.466   7.362 -1.7375  2.5469 -1.2807
 6789SOL    HW231830   0.946   1.575   7.294 -1.5097 -0.5921  0.4821
 6790SOL     OW31831   3.237   3.873  15.330 -0.5279  0.2984  0.3655
 6790SOL    HW131832   3.277   3.924  15.401  3.7706 -0.3753 -1.6262
 6790SOL    HW231833   3.302   3.860  15.262  1.1201  2.3245  1.5530
 6791SOL     OW31834   0.856   2.688  15.987 -0.2681 -0.2546  0.4848
 6791SOL    HW131835   0.910   2.737  15.924  0.6507 -1.7615  0.1100
 6791SOL    HW231836   0.770   2.706  15.949  0.2815  0.3631 -0.4544
 6792SOL     OW31837   2.404   0.128   7.162 -0.1229 -0.5351  0.4190
 6792SOL    HW131838   2.438   0.192   7.099 -1.2741  0.0714  0.4117
 6792SOL    HW231839   2.420   0.047   7.114  1.5525 -0.4767  0.8830
 6793SOL     OW31840   2.311   4.496   2.076 -0.2176  0.1464 -0.4474
 6793SOL    HW131841   2.386   4.504   2.017 -0.8643  1.3430 -1.0939
 6793SOL    HW231842   2.237   4.491   2.016  0.6392 -2.1577 -1.3191
 6794SOL     OW31843   2.199   3.050   9.906  0.0110 -0.1364 -0.1502
 6794SOL    HW131844   2.235   3.105   9.837  0.9910 -0.1798  0.3242
 6794SOL    HW231845   2.231   2.971   9.864 -0.9530 -0.8034  0.3615
 6795SOL     OW31846   0.390   0.445   4.093  0.0933  0.7084 -0.0239
 6795SOL    HW131847   0.405   0.483   4.006  1.8914  0.0288 -0.0181
 6795SOL    HW231848   0.364   0.522   4.143  2.4254  1.6245 -0.2429
 6796SOL     OW31849   3.674   1.570   6.378 -0.5116  0.2359  0.0814
 6796SOL    HW131850   3.606   1.636   6.389 -0.0506  0.6999  0.1390
 6796SOL    HW231851   3.725   1.612   6.309 -2.0219  1.2006 -0.4427
 6797SOL     OW31852   4.200   2.815   6.018  0.1227  0.3924 -0.1575
 6797SOL    HW131853   4.190   2.792   6.110 -0.6934  1.0969 -0.0660
 6797SOL    HW231854   4.115   2.799   5.976  0.0202  1.3803 -0.3115
 6798SOL     OW31855   0.500   0.786   2.431  0.2002  0.0663  0.2596
 6798SOL    HW131856   0.504   0.798   2.336 -4.5393  1.6721  0.2730
 6798SOL    HW231857   0.425   0.841   2.450  1.4348  2.0549 -0.6679
 6799SOL     OW31858   4.394   2.665   8.175  0.6587 -0.5824  0.1202
 6799SOL    HW131859   4.363   2.754   8.162  1.7996 -0.4503 -1.6973
 6799SOL    HW231860   4.464   2.677   8.238  1.2352 -0.6370 -0.5182
 6800SOL     OW31861   3.008   3.386   0.900  0.2812  0.4005 -0.1754
 6800SOL    HW131862   3.090   3.428   0.874  0.6613 -0.3454 -0.1669
 6800SOL    HW231863   3.014   3.307   0.845  0.0638 -0.3520  0.8947
 6801SOL     OW31864   0.862   4.285  10.457  0.2565  0.0658 -0.5418
 6801SOL    HW131865   0.849   4.221  10.527  1.0963 -2.1135 -2.3720
 6801SOL    HW231866   0.824   4.239  10.382 -0.6877 -0.9326  0.5616
 6802SOL     OW31867   3.183   1.526   5.029  0.3173 -0.4072  0.6500
 6802SOL    HW131868   3.143   1.591   4.971  0.3263 -1.9715 -1.0914
 6802SOL    HW231869   3.261   1.576   5.054  1.1769 -1.8468  0.8379
 6803SOL     OW31870   3.236   2.104   0.002 -0.5054  0.1106  0.0392
 6803SOL    HW131871   3.187   2.186   0.003  2.6054  2.0203 -2.0089
 6803SOL    HW231872   3.312   2.120   0.059 -1.2435 -1.6036  1.4815
 6804SOL     OW31873   2.031   1.283  11.532 -0.2026  0.5501  0.2738
 6804SOL    HW131874   2.123   1.260  11.538 -0.1111  0.6512 -0.8938
 6804SOL    HW231875   2.015   1.272  11.439 -2.4206  2.6383  0.4140
 6805SOL     OW31876   2.791   3.296   2.012  0.0507  0.2597  0.2168
 6805SOL    HW131877   2.792   3.388   1.983 -0.7439  0.5233  1.0190
 6805SOL    HW231878   2.709   3.275   1.968  0.1436 -0.2479  0.2922
 6806SOL     OW31879   2.202   1.788   0.530 -0.4322  0.3624  0.1712
 6806SOL    HW131880   2.259   1.797   0.606  1.5993  2.8872 -1.6492
 6806SOL    HW231881   2.203   1.876   0.492  0.8306  0.2532 -0.0212
 6807SOL     OW31882   0.774   0.045  16.622 -0.2855  0.1592 -0.4451
 6807SOL    HW131883   0.848   0.004  16.576  0.0146 -0.0176  0.1999
 6807SOL    HW231884   0.700   0.009  16.573 -2.1390  2.8522  0.4208
 6808SOL     OW31885   1.672   2.234   3.547  0.4165  0.2153 -0.2145
 6808SOL    HW131886   1.638   2.248   3.459  0.6942  0.4303 -0.2863
 6808SOL    HW231887   1.669   2.326   3.573 -3.5628 -0.1153  0.4817
 6809SOL     OW31888   4.377   1.882   0.817  0.0884  0.0228  0.0377
 6809SOL    HW131889   4.423   1.883   0.901 -0.1848  1.6498  0.1683
 6809SOL    HW231890   4.372   1.788   0.800  0.7173 -0.5713  2.9729
 6810SOL     OW31891   4.090   2.507  17.634  0.2514 -0.1092 -0.7311
 6810SOL    HW131892   4.053   2.424  17.666 -0.7214  0.6747  0.1706
 6810SOL    HW231893   4.055   2.525  17.547 -1.2786  0.2689 -0.0500
 6811SOL     OW31894   4.209   4.095   9.809  0.0868 -0.0627 -0.5668
 6811SOL    HW131895   4.243   4.180   9.838 -1.2461  0.5668 -0.8378
 6811SOL    HW231896   4.135   4.110   9.749  0.8178 -1.0462 -1.7250
 6812SOL     OW31897   4.686   2.952   6.628 -0.1546  0.0746 -0.0627
 6812SOL    HW131898   4.671   2.859   6.615 -2.3542  0.3797  0.1865
 6812SOL    HW231899   0.053   2.965   6.602  0.4726 -0.2174  1.9498
 6813SOL     OW31900   4.304   1.225   9.738 -0.0838  0.5195 -0.5690
 6813SOL    HW131901   4.364   1.176   9.794  1.1751  1.5380 -1.0255
 6813SOL    HW231902   4.309   1.313   9.775  1.2694 -0.1443  0.8106
 6814SOL     OW31903   2.992   3.521   1.976  0.1703  0.0949 -0.2374
 6814SOL    HW131904   3.006   3.605   1.932 -0.3872  0.4757  0.3121
 6814SOL    HW231905   2.976   3.541   2.068 -0.3267 -0.3874 -0.2148
 6815SOL     OW31906   4.204   2.022   4.940 -0.1531  0.6426  0.0010
 6815SOL    HW131907   4.194   2.039   4.846 -1.5825 -1.1484 -0.1757
 6815SOL    HW231908   4.194   1.927   4.932 -0.3504  0.5827  0.9819
 6816SOL     OW31909   0.271   1.646   4.239  0.1072 -0.1166  0.2914
 6816SOL    HW131910   0.177   1.648   4.257 -0.1126 -1.1346 -0.7445
 6816SOL    HW231911   0.303   1.682   4.322 -0.1794  0.2042  0.2608
 6817SOL     OW31912   2.434   4.536   5.648 -0.2979 -0.1194 -0.4065
 6817SOL    HW131913   2.502   4.569   5.589 -1.1062  0.9186 -0.7533
 6817SOL    HW231914   2.372   4.608   5.639 -0.0046  0.1480 -0.2912
 6818SOL     OW31915   1.737   0.570   8.821  0.0129 -0.4006  0.9981
 6818SOL    HW131916   1.816   0.529   8.856  1.5509  0.6671 -1.1937
 6818SOL    HW231917   1.678   0.545   8.892 -0.0201 -2.2763  0.3222
 6819SOL     OW31918   0.937   1.447   5.260  0.0739  0.3316 -0.0260
 6819SOL    HW131919   0.981   1.510   5.318 -0.9545  0.8569  0.1690
 6819SOL    HW231920   0.846   1.475   5.265  0.0227 -0.0712  1.3979
 6820SOL     OW31921   0.063   4.129   6.096 -0.2067  0.3900 -0.3789
 6820SOL    HW131922   4.702   4.171   6.090  0.3686  1.3186 -2.2702
 6820SOL    HW231923   0.110   4.168   6.022  2.6252 -0.0685  1.1485
 6821SOL     OW31924   1.965   4.213   8.386 -0.8511 -0.3534  0.0767
 6821SOL    HW131925   1.891   4.175   8.338  1.4481 -2.8694 -1.5238
 6821SOL    HW231926   2.011   4.134   8.417  0.8758  0.2910 -0.8464
 6822SOL     OW31927   2.972   0.635   0.392 -0.7288 -0.5225  0.1037
 6822SOL    HW131928   3.015   0.559   0.353  0.8564  0.2117  0.4324
 6822SOL    HW231929   2.923   0.604   0.468  2.8328 -0.3500  2.4565
 6823SOL     OW31930   3.991   0.156   6.255  0.2170 -0.2791 -0.2792
 6823SOL    HW131931   3.903   0.144   6.291 -1.1712 -3.0511 -4.6148
 6823SOL    HW231932   4.025   0.210   6.325  1.1550 -0.7433 -0.3759
 6824SOL     OW31933   2.551   3.487   5.397  0.3485 -0.2090 -0.4422
 6824SOL    HW131934   2.496   3.416   5.431 -0.2144 -0.2845 -1.4889
 6824SOL    HW231935   2.485   3.522   5.337  0.2862 -0.5516 -0.5772
 6825SOL     OW31936   1.829   0.108  11.802 -0.2235 -0.7036  0.3816
 6825SOL    HW131937   1.918   0.092  11.833  0.8109  2.3172 -1.0315
 6825SOL    HW231938   1.838   0.131  11.709 -1.6597 -3.2572 -0.3890
 6826SOL     OW31939   3.539   1.950   4.399 -0.1898 -0.2229 -0.2714
 6826SOL    HW131940   3.447   1.926   4.388 -0.8348  1.6699  1.0165
 6826SOL    HW231941   3.569   1.867   4.436  2.7674  0.5808 -0.8834
 6827SOL     OW31942   3.152   4.368   7.890 -0.3249  0.3765 -0.2917
 6827SOL    HW131943   3.225   4.353   7.949 -0.0608 -1.6341 -1.1151
 6827SOL    HW231944   3.093   4.293   7.901  0.5791 -0.1054  1.1965
 6828SOL     OW31945   2.161   2.313   7.136 -0.4950 -0.1908 -0.5571
 6828SOL    HW131946   2.142   2.401   7.106 -0.3216  0.0179 -0.0554
 6828SOL    HW231947   2.183   2.286   7.047 -0.9274 -1.3815 -0.3065
 6829SOL     OW31948   3.149   1.693   7.846 -0.1255  0.3509 -0.9064
 6829SOL    HW131949   3.061   1.726   7.867 -0.1656 -0.2748 -0.1140
 6829SOL    HW231950   3.173   1.761   7.784  0.6971 -0.7121 -1.7417
 6830SOL     OW31951   2.346   3.568  13.352 -0.4191  0.0559  0.2095
 6830SOL    HW131952   2.385   3.488  13.389  0.4896 -0.6288 -2.2220
 6830SOL    HW231953   2.358   3.543  13.260  0.7344  1.3028  0.0171
 6831SOL     OW31954   1.676   2.675  12.327 -0.3026 -0.8144  0.2128
 6831SOL    HW131955   1.627   2.593  12.326  0.5519 -1.2929 -1.7967
 6831SOL    HW231956   1.624   2.728  12.388 -0.4981  0.1634 -0.8141
 6832SOL     OW31957   1.367   0.620   7.728 -0.0543  0.0227 -0.3863
 6832SOL    HW131958   1.358   0.712   7.752  1.1847 -0.2624  1.1787
 6832SOL    HW231959   1.400   0.587   7.811  0.0860 -0.4874 -0.6454
 6833SOL     OW31960   0.801   1.279   7.586 -0.3133 -0.5021  0.0477
 6833SOL    HW131961   0.827   1.215   7.520  0.9262  1.2803 -1.2042
 6833SOL    HW231962   0.753   1.346   7.537  0.7912  0.3427  0.1063
 6834SOL     OW31963   2.310   2.490   0.112 -0.2820 -0.2165 -0.1191
 6834SOL    HW131964   2.382   2.548   0.137  0.2630 -1.0100  0.1704
 6834SOL    HW231965   2.301   2.436   0.191 -0.6026 -0.1725 -0.1251
 6835SOL     OW31966   2.086   1.975   2.046  0.5195 -0.4471  0.3481
 6835SOL    HW131967   2.172   2.014   2.030 -0.3410  0.4325 -2.1763
 6835SOL    HW231968   2.025   2.048   2.052 -1.3118 -2.0713  1.3516
 6836SOL     OW31969   2.131   3.865  15.966 -0.8163  0.2374  0.3504
 6836SOL    HW131970   2.146   3.788  15.911 -1.8168  2.3049 -2.8406
 6836SOL    HW231971   2.085   3.831  16.042 -1.0116 -1.4041 -0.5095
 6837SOL     OW31972   4.000   3.918   0.262 -0.3169  0.3623  0.4500
 6837SOL    HW131973   4.038   3.834   0.287  2.3474  1.5433  0.3527
 6837SOL    HW231974   3.930   3.928   0.326 -2.5043 -2.2901 -1.5337
 6838SOL     OW31975   1.099   2.854  17.247  0.4486 -0.0963  0.2304
 6838SOL    HW131976   1.084   2.764  17.221  0.6807 -0.3226  0.8743
 6838SOL    HW231977   1.090   2.907  17.167 -0.5922 -1.7607 -0.7437
 6839SOL     OW31978   2.999   4.539   6.580 -0.0925 -0.4195 -0.5911
 6839SOL    HW131979   3.012   4.633   6.596 -2.9279  0.0595 -1.1316
 6839SOL    HW231980   3.091   4.515   6.570 -0.8476 -3.7297  0.4932
 6840SOL     OW31981   4.562   0.942   9.624 -0.4419 -0.9896 -0.5318
 6840SOL    HW131982   4.630   1.005   9.597 -1.1983  0.6517  1.4188
 6840SOL    HW231983   4.544   0.903   9.538 -0.7765  1.9903 -1.8294
 6841SOL     OW31984   2.856   4.266   5.023  0.0062 -0.0356 -0.0685
 6841SOL    HW131985   2.833   4.305   4.938  0.8905  1.4687  0.4049
 6841SOL    HW231986   2.860   4.342   5.081 -2.6478 -0.0370  0.1178
 6842SOL     OW31987   3.260   1.677   5.363  0.2222 -0.1120 -0.4365
 6842SOL    HW131988   3.206   1.612   5.408  0.0170  0.2775 -0.1147
 6842SOL    HW231989   3.258   1.755   5.418 -1.0775  0.4499 -1.2610
 6843SOL     OW31990   3.251   0.528   2.889  0.1357  0.2218  0.2990
 6843SOL    HW131991   3.214   0.524   2.977  2.2156 -0.6919  1.1128
 6843SOL    HW231992   3.315   0.457   2.900  0.5126  0.7019  1.1855
 6844SOL     OW31993   2.942   3.951   9.244 -0.2547  0.3063 -0.0143
 6844SOL    HW131994   2.896   4.029   9.214  0.7548  1.7002  2.0676
 6844SOL    HW231995   2.917   3.897   9.170 -0.9601  0.3506  0.1906
 6845SOL     OW31996   3.931   3.410   7.981 -0.2762  0.1421  0.2884
 6845SOL    HW131997   3.839   3.402   7.957 -0.6691  1.7238  1.2562
 6845SOL    HW231998   3.936   3.381   8.072 -1.0349 -0.1602  0.2270
 6846SOL     OW31999   1.632   2.332   6.589 -0.2585 -0.0910  0.5871
 6846SOL    HW132000   1.658   2.357   6.500 -0.3354  0.2151  0.6490
 6846SOL    HW232001   1.552   2.283   6.573 -1.3043  0.9496  2.5288
 6847SOL     OW32002   4.577   3.210   4.581  0.1101  0.3024  0.0064
 6847SOL    HW132003   4.543   3.169   4.501 -0.2653 -1.0482  0.8453
 6847SOL    HW232004   4.572   3.135   4.641  3.1015 -0.6707 -0.9999
 6848SOL     OW32005   0.898   2.090   3.016 -0.1573 -0.4005 -0.4508
 6848SOL    HW132006   0.990   2.108   2.996 -0.4350  1.6421  0.0757
 6848SOL    HW232007   0.894   2.001   2.983  0.3382 -0.4594 -0.3509
 6849SOL     OW32008   0.869   3.479   2.797 -0.3795  0.4971 -0.0582
 6849SOL    HW132009   0.827   3.503   2.715 -3.4285  1.4257  1.7927
 6849SOL    HW232010   0.857   3.384   2.801  0.9869  0.3199 -0.0830
 6850SOL     OW32011   3.472   3.503   0.617 -0.5235 -0.4283  0.2361
 6850SOL    HW132012   3.474   3.529   0.710 -0.2726 -0.2017  0.1679
 6850SOL    HW232013   3.445   3.411   0.618 -0.8612 -0.3199  2.0176
 6851SOL     OW32014   3.492   2.792   2.953  0.4714  0.2168  0.4300
 6851SOL    HW132015   3.478   2.884   2.974  1.8066  0.3593  0.7332
 6851SOL    HW232016   3.517   2.755   3.038 -0.0514 -1.4555 -0.1529
 6852SOL     OW32017   3.992   0.346   5.740  0.3985 -0.0413 -0.3486
 6852SOL    HW132018   4.036   0.285   5.800 -2.8315 -1.1051  0.9661
 6852SOL    HW232019   3.999   0.294   5.660  0.4967  0.4112 -0.6360
 6853SOL     OW32020   3.116   0.523  16.618  0.0051 -0.6236  0.1266
 6853SOL    HW132021   3.142   0.436  16.588  0.3733  0.8498 -3.8328
 6853SOL    HW232022   3.118   0.507  16.713  3.5196 -1.3805 -0.0641
 6854SOL     OW32023   0.682   3.785  10.504  0.1632  0.2657 -0.0634
 6854SOL    HW132024   0.629   3.835  10.441 -0.0782 -0.7167 -0.6330
 6854SOL    HW232025   0.749   3.735  10.457 -0.6055 -0.6702 -0.1498
 6855SOL     OW32026   0.953   0.191   1.754  0.4031  0.1301 -0.0381
 6855SOL    HW132027   0.992   0.117   1.801  0.5890  0.9624  1.1250
 6855SOL    HW232028   0.998   0.267   1.790  1.9515 -1.1763  0.8115
 6856SOL     OW32029   3.364   1.846   7.740  0.2745  0.3116 -0.1606
 6856SOL    HW132030   3.455   1.873   7.728  0.6235 -1.2483 -1.1032
 6856SOL    HW232031   3.314   1.915   7.695  1.6147  0.9526 -0.6456
 6857SOL     OW32032   1.568   2.686   7.023 -0.3740 -0.3597 -0.2453
 6857SOL    HW132033   1.609   2.660   7.106  1.9852  1.0056 -1.0227
 6857SOL    HW232034   1.535   2.603   6.988  1.2051 -1.8377  1.7197
 6858SOL     OW32035   4.035   0.022   2.816  0.5593 -0.2670  0.0808
 6858SOL    HW132036   4.028   4.674   2.754  1.5740  0.8119 -1.2874
 6858SOL    HW232037   4.083   0.080   2.758  2.2865 -2.3792 -0.5927
 6859SOL     OW32038   0.201   0.095  11.821  0.1043 -0.1209 -0.3212
 6859SOL    HW132039   0.131   0.041  11.785  0.4047 -0.2378 -0.7236
 6859SOL    HW232040   0.279   0.051  11.789  0.7580 -0.0751  1.1936
 6860SOL     OW32041   3.247   0.944   3.855 -0.3748 -0.0314 -0.1670
 6860SOL    HW132042   3.215   0.909   3.939 -0.6216  0.3847 -0.0881
 6860SOL    HW232043   3.178   1.010   3.849 -1.2424 -0.9060  0.1068
 6861SOL     OW32044   2.591   4.479   9.794  0.4265  0.4672  0.3983
 6861SOL    HW132045   2.618   4.472   9.886 -0.2423 -0.5430  0.5129
 6861SOL    HW232046   2.632   4.557   9.758  3.1503 -1.6060 -0.9737
 6862SOL     OW32047   1.614   3.655   3.774  0.2063  0.1462 -0.3676
 6862SOL    HW132048   1.570   3.641   3.858 -0.6808  0.4255 -0.7869
 6862SOL    HW232049   1.575   3.740   3.755  2.3211  1.0817 -0.5255
 6863SOL     OW32050   4.321   1.001   2.542  0.0843  0.2395 -0.0875
 6863SOL    HW132051   4.345   0.929   2.600 -0.8591 -0.5441 -0.6701
 6863SOL    HW232052   4.408   1.041   2.542  1.4256 -2.6628  0.9567
 6864SOL     OW32053   1.750   4.114   2.302 -0.0152  0.2383  0.1998
 6864SOL    HW132054   1.693   4.118   2.379  1.8699 -1.8767  1.7104
 6864SOL    HW232055   1.697   4.152   2.232  0.2925  0.4036  0.0589
 6865SOL     OW32056   4.500   0.184   4.999 -0.0693  0.0283 -0.3307
 6865SOL    HW132057   4.476   0.256   4.940 -0.2627  1.4607  1.4875
 6865SOL    HW232058   4.591   0.171   4.970  0.0790 -0.8641  0.5338
 6866SOL     OW32059   4.622   3.210   1.302  0.8356 -0.1142  0.4242
 6866SOL    HW132060   4.577   3.270   1.243  1.7129  1.0553  0.9446
 6866SOL    HW232061   4.588   3.128   1.266  0.1922  0.5394 -0.4403
 6867SOL     OW32062   1.900   1.636   5.049 -0.1729 -0.3203 -0.3512
 6867SOL    HW132063   1.817   1.660   5.007  0.2706  0.8873 -0.5334
 6867SOL    HW232064   1.938   1.723   5.046 -1.2921  0.1657 -0.4251
 6868SOL     OW32065   0.372   1.944   7.772  0.2163 -0.4453  0.1278
 6868SOL    HW132066   0.393   1.936   7.679 -0.8469  1.9338 -0.3277
 6868SOL    HW232067   0.289   1.897   7.769 -0.3841  0.5608  0.8939
 6869SOL     OW32068   2.050   1.308   0.816 -0.6033 -0.0425 -0.1488
 6869SOL    HW132069   2.049   1.400   0.788  2.3180  0.3948  1.1947
 6869SOL    HW232070   2.062   1.309   0.911 -0.3365  0.6061 -0.1900
 6870SOL     OW32071   3.004   0.768   5.325 -0.5535  0.1047 -1.1219
 6870SOL    HW132072   3.096   0.757   5.351 -1.3294 -2.5855  0.5113
 6870SOL    HW232073   3.002   0.759   5.230 -1.7644  2.0695 -1.2720
 6871SOL     OW32074   0.074   4.701   4.137  0.3264 -0.0046  0.2181
 6871SOL    HW132075   0.107   0.038   4.203  2.4124  1.0170 -1.7747
 6871SOL    HW232076   0.125   4.623   4.156 -0.9378 -0.4079  1.9589
 6872SOL     OW32077   0.386   2.322  13.239 -0.7195  0.4842  0.1827
 6872SOL    HW132078   0.328   2.255  13.274 -0.7618  0.7083  0.5470
 6872SOL    HW232079   0.470   2.280  13.220  0.5074  2.3328  1.4798
 6873SOL     OW32080   3.255   1.305   3.755 -0.3151 -0.1245  0.2434
 6873SOL    HW132081   3.229   1.345   3.672 -3.2836 -1.3222  0.6032
 6873SOL    HW232082   3.178   1.252   3.774 -0.3450 -0.0467  0.3389
 6874SOL     OW32083   4.523   4.550   4.839 -0.0272 -0.0327 -0.6843
 6874SOL    HW132084   4.619   4.543   4.834 -0.3041 -2.5899 -2.0912
 6874SOL    HW232085   4.506   4.456   4.838 -1.5073  0.2236  0.6775
 6875SOL     OW32086   4.481   1.450  11.253 -0.5147 -0.2095 -0.2690
 6875SOL    HW132087   4.555   1.508  11.274  0.1596 -0.4339 -2.0112
 6875SOL    HW232088   4.492   1.382  11.320 -1.2111 -0.3950 -0.3532
 6876SOL     OW32089   3.443   1.008   9.688 -0.0385  0.5021  0.1342
 6876SOL    HW132090   3.401   0.935   9.643  1.7932 -0.2686 -0.3234
 6876SOL    HW232091   3.524   0.975   9.727  1.0866  2.3453 -0.6240
 6877SOL     OW32092   3.075   0.139   3.062 -0.1056  0.1476 -0.3390
 6877SOL    HW132093   3.109   0.226   3.083  0.0880  0.2814 -1.1791
 6877SOL    HW232094   3.152   0.107   3.013 -0.7575 -3.0306  0.7142
 6878SOL     OW32095   3.912   2.501   1.465  0.4658 -0.1210  0.3363
 6878SOL    HW132096   4.001   2.529   1.441  0.4683 -1.7089 -1.5520
 6878SOL    HW232097   3.920   2.466   1.554  0.3747 -1.6223 -0.2465
 6879SOL     OW32098   3.524   3.745  12.471  0.3027 -0.7583  0.2296
 6879SOL    HW132099   3.540   3.835  12.501  1.4507 -1.5040  1.8241
 6879SOL    HW232100   3.430   3.736  12.455  0.5392 -0.2330 -1.5057
 6880SOL     OW32101   0.944   3.424   6.611  0.3798  0.3779  0.6411
 6880SOL    HW132102   0.971   3.512   6.636  0.8852 -0.2970  2.4848
 6880SOL    HW232103   0.854   3.429   6.645 -0.6936 -3.4672 -1.7013
 6881SOL     OW32104   1.910   2.285   4.469  0.4469 -0.2545 -0.0023
 6881SOL    HW132105   1.961   2.251   4.395  1.8405  1.8023  0.0333
 6881SOL    HW232106   1.836   2.225   4.453  1.8228 -1.9972  0.1638
 6882SOL     OW32107   1.099   2.319   2.777  0.3760 -0.0704 -0.3680
 6882SOL    HW132108   1.130   2.348   2.692  0.3449  3.7947  0.9475
 6882SOL    HW232109   1.162   2.361   2.835  0.2402  0.6235 -0.7325
 6883SOL     OW32110   2.732   3.720  15.929  0.6232 -0.7458 -0.1886
 6883SOL    HW132111   2.736   3.714  16.025  2.3484  3.3499  0.0130
 6883SOL    HW232112   2.643   3.748  15.910  0.1207 -0.4870  2.5365
 6884SOL     OW32113   3.697   0.696   5.969  0.3990  0.3931  0.1432
 6884SOL    HW132114   3.669   0.662   6.054 -0.1410  0.2657 -0.0859
 6884SOL    HW232115   3.624   0.683   5.909 -0.3040 -0.1135  1.1157
 6885SOL     OW32116   0.548   1.889  14.200  0.5301 -0.1361 -0.1964
 6885SOL    HW132117   0.538   1.886  14.295  0.7113  0.7838 -0.1502
 6885SOL    HW232118   0.594   1.973  14.194 -0.0855  0.3579  1.8287
 6886SOL     OW32119   1.002   0.272  10.545  0.5929 -0.4085  0.4126
 6886SOL    HW132120   0.933   0.337  10.560  2.1390  0.7919  2.3195
 6886SOL    HW232121   1.018   0.286  10.452 -0.1061  5.6938  1.1813
 6887SOL     OW32122   3.865   1.004  10.284 -0.3534 -0.1325  0.3358
 6887SOL    HW132123   3.868   0.921  10.332  0.8992 -0.8445 -0.9645
 6887SOL    HW232124   3.772   1.018  10.269 -0.0469  1.3380 -0.0915
 6888SOL     OW32125   4.334   4.229   7.634  0.2141 -0.1770 -0.4167
 6888SOL    HW132126   4.417   4.187   7.655  0.0658  1.4281  3.4453
 6888SOL    HW232127   4.358   4.283   7.558 -1.4384 -1.5787 -1.9428
 6889SOL     OW32128   4.559   1.446   0.234  0.3836  0.1083 -0.9037
 6889SOL    HW132129   4.481   1.468   0.184 -1.1017 -3.1671 -0.0278
 6889SOL    HW232130   4.541   1.493   0.316  0.6260 -0.3941 -0.5627
 6890SOL     OW32131   0.981   2.105   8.383  0.7176  0.0125  0.1036
 6890SOL    HW132132   0.934   2.120   8.465  0.7825 -1.2316  0.3638
 6890SOL    HW232133   0.992   2.010   8.381  1.7413  0.1350 -0.0927
 6891SOL     OW32134   4.179   1.910   4.674 -0.1571  0.1866  0.1149
 6891SOL    HW132135   4.266   1.917   4.713 -0.0191  1.5869 -0.4345
 6891SOL    HW232136   4.191   1.969   4.599  2.2786  0.4917  0.7502
 6892SOL     OW32137   0.474   2.142  16.456 -0.0979  0.0590 -0.3826
 6892SOL    HW132138   0.449   2.189  16.376 -2.3192 -1.6623 -0.7081
 6892SOL    HW232139   0.471   2.049  16.434 -1.1889 -0.4632  1.9615
 6893SOL     OW32140   2.871   1.030   1.582 -0.3475 -0.0796  0.4048
 6893SOL    HW132141   2.795   0.988   1.542  1.3009 -2.3151 -0.4230
 6893SOL    HW232142   2.911   0.965   1.639 -2.0446 -1.7366 -0.2903
 6894SOL     OW32143   4.341   0.242   9.625 -0.1814  0.0350 -0.4512
 6894SOL    HW132144   4.322   0.330   9.657 -0.0730  0.2799 -1.0512
 6894SOL    HW232145   4.341   0.190   9.705 -0.7101 -0.7207 -0.9447
 6895SOL     OW32146   0.941   4.100   1.478 -0.8198  0.1132 -0.2330
 6895SOL    HW132147   1.015   4.060   1.524 -1.0526 -0.5066 -0.3936
 6895SOL    HW232148   0.953   4.049   1.398  0.8876 -0.7641  0.5918
 6896SOL     OW32149   1.543   1.508   6.369 -0.7590 -0.3005 -0.5058
 6896SOL    HW132150   1.510   1.463   6.446 -2.8121  3.1399  0.5830
 6896SOL    HW232151   1.462   1.511   6.318 -1.6659  1.8239  1.0649
 6897SOL     OW32152   4.666   0.994   7.973  0.0068  0.1239 -0.2432
 6897SOL    HW132153   0.026   1.021   8.009  0.2839  1.6145 -1.9953
 6897SOL    HW232154   4.693   0.958   7.889 -0.7585 -1.5728  0.2427
 6898SOL     OW32155   1.279   3.226   3.578 -0.3252  0.3753  0.1670
 6898SOL    HW132156   1.217   3.296   3.598 -0.6929  0.7740 -2.3622
 6898SOL    HW232157   1.294   3.184   3.663  0.3719 -2.7007 -1.4611
 6899SOL     OW32158   0.824   2.940   0.475 -0.0726 -0.0368  0.8456
 6899SOL    HW132159   0.919   2.951   0.479 -0.1652  0.1520  2.6582
 6899SOL    HW232160   0.789   3.028   0.485 -0.2450  0.0558 -0.6607
 6900SOL     OW32161   2.158   2.069  17.281  0.2671  0.1326  0.3936
 6900SOL    HW132162   2.157   2.105  17.192 -1.4334 -0.6579  0.0975
 6900SOL    HW232163   2.153   2.151  17.331 -2.7026 -0.3476  0.9075
 6901SOL     OW32164   2.187   3.438   9.134 -0.2942  0.1716  0.6215
 6901SOL    HW132165   2.177   3.387   9.053  1.3638  0.6093  0.1375
 6901SOL    HW232166   2.109   3.493   9.134 -0.6096 -0.2788  0.3074
 6902SOL     OW32167   4.482   3.690   2.092  0.2002  0.3776  0.4335
 6902SOL    HW132168   4.402   3.682   2.040  1.2428 -0.2497 -1.0756
 6902SOL    HW232169   4.477   3.605   2.136  0.3284 -0.7932 -1.8063
 6903SOL     OW32170   4.399   4.478   4.529  0.0108  0.2285  0.2945
 6903SOL    HW132171   4.353   4.399   4.556  1.1292  0.7690  3.7446
 6903SOL    HW232172   4.351   4.547   4.574 -1.0238  0.8698 -1.8237
 6904SOL     OW32173   1.029   2.454   4.475 -0.2963 -0.5553 -0.0485
 6904SOL    HW132174   0.996   2.544   4.470  0.3190 -0.4443 -1.7525
 6904SOL    HW232175   1.016   2.433   4.568  2.5860  0.3717  0.5587
 6905SOL     OW32176   2.254   3.846   0.550 -0.0227 -0.1016  0.8893
 6905SOL    HW132177   2.176   3.863   0.603 -0.5093  0.2419  0.0637
 6905SOL    HW232178   2.264   3.755   0.577 -1.0928  0.3805  2.9294
 6906SOL     OW32179   3.448   0.749   1.365  0.3503  0.7455  0.1558
 6906SOL    HW132180   3.461   0.797   1.283 -2.1422 -2.7143 -2.2729
 6906SOL    HW232181   3.535   0.718   1.392  0.1011  1.0477  1.3146
 6907SOL     OW32182   1.868   2.892   4.019  0.1373 -0.6263 -0.0335
 6907SOL    HW132183   1.851   2.809   4.064 -0.5147 -0.1750  0.5621
 6907SOL    HW232184   1.963   2.891   4.018  0.1429 -3.0442  2.6270
 6908SOL     OW32185   0.454   2.302   4.396 -0.2416 -0.1824 -0.4811
 6908SOL    HW132186   0.507   2.237   4.440  1.4834  0.8357 -1.0658
 6908SOL    HW232187   0.394   2.249   4.344  0.2159 -0.3354 -0.8478
 6909SOL     OW32188   0.934   2.941   4.131 -0.0388  0.3383  0.0246
 6909SOL    HW132189   0.856   2.886   4.130  0.6022 -0.5237 -3.9610
 6909SOL    HW232190   0.981   2.907   4.207 -0.1780 -1.4931 -0.7057
 6910SOL     OW32191   0.914   3.417  11.473 -0.1853 -0.1819  0.4074
 6910SOL    HW132192   0.826   3.381  11.462  0.1527 -0.9831  0.2867
 6910SOL    HW232193   0.892   3.506  11.446 -0.0984 -0.5447 -0.8900
 6911SOL     OW32194   2.867   1.638  15.590  0.0396 -0.0975 -0.1449
 6911SOL    HW132195   2.938   1.668  15.647  0.3919 -0.6501 -0.2952
 6911SOL    HW232196   2.815   1.587  15.653  1.8736  0.2110  1.5954
 6912SOL     OW32197   0.143   2.590   3.558  0.0376 -0.6815  0.4164
 6912SOL    HW132198   0.116   2.637   3.637  1.8279 -0.1412  0.7093
 6912SOL    HW232199   0.072   2.529   3.536 -1.2992  0.4896  1.4617
 6913SOL     OW32200   4.442   0.205   7.764 -0.6159 -0.0450 -0.1919
 6913SOL    HW132201   4.350   0.193   7.787 -0.5219  0.7737  0.5909
 6913SOL    HW232202   4.467   0.113   7.754  0.4638  0.2889 -0.6089
 6914SOL     OW32203   3.728   3.309   4.295  0.8945  0.2467 -0.1820
 6914SOL    HW132204   3.755   3.352   4.214  2.1336  0.0692  0.1508
 6914SOL    HW232205   3.675   3.384   4.323  2.1274  0.2089  2.2293
 6915SOL     OW32206   1.470   0.660   9.676 -0.6045 -0.5465 -0.0715
 6915SOL    HW132207   1.531   0.627   9.743 -0.9720 -0.2242  0.4213
 6915SOL    HW232208   1.487   0.595   9.608  2.2621  1.2618 -1.0315
 6916SOL     OW32209   3.628   3.548   4.466 -0.1257 -0.0282 -0.2150
 6916SOL    HW132210   3.618   3.512   4.554  0.6883  0.4795  0.0900
 6916SOL    HW232211   3.718   3.581   4.463 -0.5313  1.2232  0.8773
 6917SOL     OW32212   3.015   0.164   8.804  0.4447 -0.3538  0.0312
 6917SOL    HW132213   3.088   0.117   8.764  0.1603  0.3254 -1.2760
 6917SOL    HW232214   3.021   0.248   8.760  0.6142 -0.0677  0.5996
 6918SOL     OW32215   0.754   3.748  16.510 -0.4886 -0.1994 -0.0202
 6918SOL    HW132216   0.795   3.730  16.594 -1.1734 -1.9801 -0.0470
 6918SOL    HW232217   0.754   3.843  16.502  1.2821 -0.1725  0.2975
 6919SOL     OW32218   1.719   1.852   8.603 -0.0078 -0.7137  0.3133
 6919SOL    HW132219   1.796   1.881   8.652 -0.5578  0.2903  0.5835
 6919SOL    HW232220   1.750   1.762   8.589  0.1464 -0.6799  0.4361
 6920SOL     OW32221   4.127   0.120  11.014 -0.3384  0.2636  0.2870
 6920SOL    HW132222   4.159   0.037  10.980  0.7926  0.5580  0.6327
 6920SOL    HW232223   4.046   0.091  11.055 -0.4138  0.2750  0.1465
 6921SOL     OW32224   3.911   0.323   9.862 -0.4187 -0.3709  0.3900
 6921SOL    HW132225   3.825   0.289   9.889 -1.4809  0.8713 -1.4021
 6921SOL    HW232226   3.958   0.241   9.879 -1.3490 -0.8966  0.4582
 6922SOL     OW32227   1.414   0.223   3.325  0.2534  0.1856 -0.6789
 6922SOL    HW132228   1.364   0.266   3.255  0.9990  1.2245 -0.5685
 6922SOL    HW232229   1.346   0.226   3.392 -0.3551  1.3834 -1.3482
 6923SOL     OW32230   0.534   3.083   1.261 -0.3642  0.3283 -0.5680
 6923SOL    HW132231   0.491   3.079   1.347  0.7934  1.1233  0.0496
 6923SOL    HW232232   0.575   3.168   1.276 -1.1519  0.3712  1.3290
 6924SOL     OW32233   1.560   3.260   3.464  0.1736  1.0097 -0.1233
 6924SOL    HW132234   1.482   3.211   3.490  0.7206 -0.9034 -2.0867
 6924SOL    HW232235   1.541   3.335   3.520 -2.2926 -0.4524  1.0095
 6925SOL     OW32236   0.698   0.145   6.579 -0.0488 -0.5428  0.0030
 6925SOL    HW132237   0.746   0.177   6.656  1.3947 -2.3250 -0.1563
 6925SOL    HW232238   0.772   0.135   6.518 -1.9300 -1.4650 -2.1129
 6926SOL     OW32239   2.786   4.330   3.360 -0.4502 -0.9705 -0.0196
 6926SOL    HW132240   2.787   4.336   3.264  0.1691 -0.5845  0.0100
 6926SOL    HW232241   2.691   4.335   3.363 -0.5163 -2.2242 -0.2017
 6927SOL     OW32242   1.719   3.047   5.248  0.2418  0.1627  0.3126
 6927SOL    HW132243   1.680   3.049   5.336  2.4504 -0.0761  1.2879
 6927SOL    HW232244   1.754   2.958   5.244 -2.2725 -0.7968 -0.9233
 6928SOL     OW32245   0.391   4.695   3.769  0.0685  0.1287  0.3207
 6928SOL    HW132246   0.427   4.613   3.803 -1.7771  0.0499  2.0948
 6928SOL    HW232247   0.303   4.697   3.805 -0.2189  1.1947 -0.4525
 6929SOL     OW32248   2.546   0.293  14.110  0.0484  0.1986 -0.2223
 6929SOL    HW132249   2.497   0.300  14.192 -1.1715 -2.1774 -0.7440
 6929SOL    HW232250   2.630   0.255  14.136 -0.1170 -0.4226 -0.5959
 6930SOL     OW32251   3.029   3.623   2.981 -0.2212  0.0596  0.3666
 6930SOL    HW132252   2.936   3.600   2.975 -0.1430  0.3003 -1.7621
 6930SOL    HW232253   3.052   3.605   2.890 -2.1927 -1.3767  0.1483
 6931SOL     OW32254   3.977   2.584   9.013 -0.6062 -0.2730 -0.3098
 6931SOL    HW132255   3.973   2.502   8.962 -0.4014  0.2275 -1.1398
 6931SOL    HW232256   4.020   2.552   9.092  0.8302 -0.1553 -1.0394
 6932SOL     OW32257   3.649   1.663   6.797  0.3637 -0.1883  0.1890
 6932SOL    HW132258   3.640   1.749   6.755 -1.4895 -1.4471 -1.9719
 6932SOL    HW232259   3.740   1.633   6.798 -0.1302 -1.6157  0.9521
 6933SOL     OW32260   2.462   1.930   5.021  0.0350 -0.1208  0.4471
 6933SOL    HW132261   2.413   1.966   5.095 -2.2535 -2.5943  0.1648
 6933SOL    HW232262   2.552   1.951   5.047 -0.1757  3.1037 -1.4495
 6934SOL     OW32263   0.664   0.274   2.635 -0.4458 -0.5442 -0.4158
 6934SOL    HW132264   0.701   0.363   2.625  0.7986 -0.8388  1.4795
 6934SOL    HW232265   0.735   0.221   2.672 -0.4003  0.6249  1.2171
 6935SOL     OW32266   3.195   2.759   6.317  0.4279  0.8167  0.5019
 6935SOL    HW132267   3.268   2.766   6.379 -1.1770  1.8395  2.2901
 6935SOL    HW232268   3.245   2.741   6.238 -1.0177 -0.7132 -0.0484
 6936SOL     OW32269   0.449   3.061   6.760  0.2670  0.4693 -0.6893
 6936SOL    HW132270   0.535   3.045   6.799 -1.0484  0.6991  2.2875
 6936SOL    HW232271   0.470   3.134   6.701 -1.5912  1.1399 -0.5224
 6937SOL     OW32272   3.418   2.269   7.731 -0.0759 -0.2631  0.4064
 6937SOL    HW132273   3.393   2.177   7.734 -2.3031  0.3328 -0.0600
 6937SOL    HW232274   3.345   2.319   7.695 -0.6141 -0.8042  0.7557
 6938SOL     OW32275   2.540   3.947   4.110 -0.0403  0.0199 -0.0041
 6938SOL    HW132276   2.546   3.958   4.015  1.6698 -0.0328  0.1075
 6938SOL    HW232277   2.587   4.024   4.142 -0.1599 -0.3722  1.1158
 6939SOL     OW32278   2.600   3.734   7.784  0.9212  0.2031  0.4122
 6939SOL    HW132279   2.513   3.717   7.750  1.6771  1.9070 -2.3754
 6939SOL    HW232280   2.629   3.659   7.836 -0.9606  0.5035  1.8710
 6940SOL     OW32281   3.439   2.193  10.881  0.5855 -0.5696  0.2935
 6940SOL    HW132282   3.357   2.240  10.867  0.6133 -0.3534  0.8442
 6940SOL    HW232283   3.411   2.102  10.891 -1.4824  0.0175 -0.1261
 6941SOL     OW32284   4.555   0.765  12.394 -0.0239 -0.7779  0.1401
 6941SOL    HW132285   4.589   0.681  12.361 -0.8812 -1.8826  2.0722
 6941SOL    HW232286   4.464   0.745  12.416 -0.0601 -1.5921 -0.7406
 6942SOL     OW32287   0.499   3.646  16.497 -0.0019  0.1157  0.0369
 6942SOL    HW132288   0.593   3.656  16.483  0.2476 -1.6331  0.4404
 6942SOL    HW232289   0.487   3.737  16.526  2.0645  0.3910  0.0424
 6943SOL     OW32290   0.498   0.643  14.897  0.9268  0.0484 -0.2412
 6943SOL    HW132291   0.416   0.633  14.849  0.4471  0.8812  0.4169
 6943SOL    HW232292   0.549   0.701  14.840 -0.2080 -0.3623 -1.6595
 6944SOL     OW32293   1.751   1.370  12.207 -1.0300  0.6218 -0.1295
 6944SOL    HW132294   1.672   1.415  12.238 -1.3834 -0.3476  0.3781
 6944SOL    HW232295   1.789   1.445  12.161  0.1208 -1.6648 -2.9060
 6945SOL     OW32296   4.464   1.033  15.920  0.1847  0.6051  0.7905
 6945SOL    HW132297   4.421   1.108  15.881 -1.7654 -0.0025  1.7906
 6945SOL    HW232298   4.555   1.064  15.919  0.0963  0.8484 -0.4887
 6946SOL     OW32299   0.768   0.491   4.273  0.2594  0.2297  0.3380
 6946SOL    HW132300   0.836   0.558   4.261  1.1120 -0.2049  2.8363
 6946SOL    HW232301   0.724   0.489   4.188  0.2747 -1.3684  0.3717
 6947SOL     OW32302   1.510   4.216   3.956 -0.4797  0.1697 -0.1633
 6947SOL    HW132303   1.541   4.138   4.002 -0.9862 -0.0060 -0.1209
 6947SOL    HW232304   1.596   4.247   3.928 -0.8623 -0.7020 -2.2811
 6948SOL     OW32305   1.002   4.217   2.908 -0.5452  0.3804 -0.3633
 6948SOL    HW132306   1.016   4.129   2.943  0.7618  1.5065  1.9741
 6948SOL    HW232307   1.018   4.261   2.991  1.1161 -1.4052  0.2785
 6949SOL     OW32308   1.130   2.910   2.281 -0.3091 -0.0819  0.5926
 6949SOL    HW132309   1.220   2.926   2.252 -0.2053  0.6637  1.3253
 6949SOL    HW232310   1.137   2.952   2.366 -2.2894 -1.6505  1.5307
 6950SOL     OW32311   4.231   1.898   6.014  0.0114  0.1148  0.1590
 6950SOL    HW132312   4.220   1.987   5.981 -2.5177  0.3032  1.5316
 6950SOL    HW232313   4.149   1.878   6.059  0.8922 -0.4791  1.4862
 6951SOL     OW32314   1.579   0.356  11.465  0.3904  0.2225  0.0540
 6951SOL    HW132315   1.573   0.370  11.370 -3.0241  2.5414  0.6047
 6951SOL    HW232316   1.585   0.447  11.495 -2.2380  0.7422 -0.9476
 6952SOL     OW32317   2.069   0.235   1.627  0.1219 -0.2368 -0.0173
 6952SOL    HW132318   2.055   0.295   1.701 -1.8395 -0.1325 -0.4916
 6952SOL    HW232319   2.123   0.292   1.573 -0.3428  1.0224  0.8465
 6953SOL     OW32320   4.704   2.347   3.536  0.2824  0.0090  0.4382
 6953SOL    HW132321   0.043   2.359   3.465 -1.1469  1.0590 -0.6590
 6953SOL    HW232322   4.686   2.254   3.522 -2.4765  0.1560  3.1117
 6954SOL     OW32323   4.643   2.146   2.074 -0.4255 -0.9330  0.6139
 6954SOL    HW132324   4.719   2.191   2.110  1.3907 -2.0738 -1.8361
 6954SOL    HW232325   4.579   2.212   2.102 -0.8433 -1.3031  0.5417
 6955SOL     OW32326   0.425   3.167   9.359 -0.3509 -0.3447  0.1033
 6955SOL    HW132327   0.405   3.258   9.382 -1.1496 -0.7144  0.8801
 6955SOL    HW232328   0.469   3.146   9.441  1.2781 -0.9108 -0.9330
 6956SOL     OW32329   1.119   0.929   3.444 -0.2407  0.6508 -0.4677
 6956SOL    HW132330   1.091   0.999   3.503 -0.0416  2.1807 -2.1840
 6956SOL    HW232331   1.212   0.936   3.461 -0.4914  0.8080  0.8234
 6957SOL     OW32332   0.115   3.384  12.577  0.0306 -0.0008 -0.5425
 6957SOL    HW132333   0.091   3.462  12.527 -1.3293 -0.6268 -0.8435
 6957SOL    HW232334   0.166   3.422  12.649 -1.1829 -0.9741  0.8312
 6958SOL     OW32335   4.701   0.817  14.016 -0.4191 -0.4650 -0.3046
 6958SOL    HW132336   0.031   0.739  14.002  0.1615 -0.0085 -0.5496
 6958SOL    HW232337   4.705   0.840  13.923  1.1396  1.8427  0.3589
 6959SOL     OW32338   4.220   0.900  11.887  0.2941 -0.0685 -0.0852
 6959SOL    HW132339   4.171   0.854  11.954  1.8698  1.9311  2.4578
 6959SOL    HW232340   4.262   0.965  11.944 -0.2069  0.8317 -0.7346
 6960SOL     OW32341   1.603   4.305   7.944 -0.3956  0.3025 -0.6914
 6960SOL    HW132342   1.575   4.224   7.901 -0.4120 -0.9996  1.7892
 6960SOL    HW232343   1.545   4.311   8.020  1.5991 -0.5080  0.8969
 6961SOL     OW32344   1.064   4.035   9.233  0.9249 -0.2149  0.0075
 6961SOL    HW132345   1.056   4.068   9.322 -0.2368 -3.4272  1.0989
 6961SOL    HW232346   1.135   3.972   9.248  0.0584 -1.1599  0.1505
 6962SOL     OW32347   3.536   0.672  16.817  0.1924  0.2739  0.2437
 6962SOL    HW132348   3.465   0.735  16.815  1.5629  1.8910  3.4159
 6962SOL    HW232349   3.507   0.615  16.746 -2.6475  0.4364  1.3057
 6963SOL     OW32350   0.473   0.284   6.737 -0.0492  0.7551 -0.0806
 6963SOL    HW132351   0.419   0.304   6.660  1.3994 -0.9717 -1.5237
 6963SOL    HW232352   0.550   0.238   6.705 -0.6966 -0.3343 -0.1008
 6964SOL     OW32353   1.067   3.485   8.513 -0.2656 -0.1734 -0.0910
 6964SOL    HW132354   1.010   3.445   8.579  0.8136  0.4335  1.2129
 6964SOL    HW232355   1.106   3.549   8.573 -0.5334  0.7636 -0.9143
 6965SOL     OW32356   3.585   1.107  13.556 -0.1841 -0.2371  0.0861
 6965SOL    HW132357   3.676   1.124  13.583 -0.8327  2.1463  0.7630
 6965SOL    HW232358   3.540   1.137  13.635 -0.8082  1.5288 -0.9467
 6966SOL     OW32359   1.617   1.012   0.110 -0.5009  0.2178 -0.5396
 6966SOL    HW132360   1.672   1.000   0.188  1.0057 -0.8787 -1.7728
 6966SOL    HW232361   1.533   0.993   0.152  0.4018 -2.4035  0.1148
 6967SOL     OW32362   2.217   4.101   7.231  0.2301  0.6231 -0.0918
 6967SOL    HW132363   2.300   4.070   7.195  1.0799  0.7225  1.7703
 6967SOL    HW232364   2.175   4.132   7.151  0.1649  0.7976  0.0105
 6968SOL     OW32365   2.998   4.108   7.924 -0.5955  0.1708 -0.1156
 6968SOL    HW132366   2.916   4.064   7.902 -0.9209  0.7904 -0.1493
 6968SOL    HW232367   3.066   4.057   7.880 -0.2721  1.4078 -1.0290
 6969SOL     OW32368   1.406   2.809   4.317  0.3887 -0.3260  0.0693
 6969SOL    HW132369   1.368   2.729   4.352 -0.6131  0.6376  1.1912
 6969SOL    HW232370   1.479   2.774   4.266 -0.7333 -0.2804 -1.5741
 6970SOL     OW32371   1.554   0.092   0.322 -0.0894 -0.5637  0.4432
 6970SOL    HW132372   1.546   0.106   0.228  0.4294 -0.5956  0.3918
 6970SOL    HW232373   1.593   0.004   0.325 -1.2432 -1.0589  0.9083
 6971SOL     OW32374   0.281   1.751  17.021 -0.1603 -0.8380  0.1960
 6971SOL    HW132375   0.253   1.791  16.939 -1.9277 -1.5920  0.4274
 6971SOL    HW232376   0.342   1.811  17.064  0.7778 -1.9315  0.4035
 6972SOL     OW32377   4.404   1.384   2.878  0.0414  0.0147  0.2456
 6972SOL    HW132378   4.325   1.438   2.879 -0.8486 -1.2547 -2.1305
 6972SOL    HW232379   4.438   1.412   2.963 -0.4994 -0.4385  0.6090
 6973SOL     OW32380   2.412   1.189   4.725 -0.0830  0.2694 -0.2235
 6973SOL    HW132381   2.414   1.148   4.812  2.0820 -0.5118 -0.6182
 6973SOL    HW232382   2.507   1.205   4.723  0.1437 -0.7108  1.7641
 6974SOL     OW32383   3.633   2.382   6.632 -0.3398  0.8134 -0.3640
 6974SOL    HW132384   3.556   2.426   6.668  0.0280  0.3760  0.9900
 6974SOL    HW232385   3.695   2.455   6.636 -1.5758  1.7151  2.7383
 6975SOL     OW32386   3.549   2.341  12.625 -0.1270 -0.3093  0.7745
 6975SOL    HW132387   3.493   2.406  12.582  0.4976  0.0667  0.5373
 6975SOL    HW232388   3.493   2.264  12.616 -0.2832 -0.1794  0.6288
 6976SOL     OW32389   4.714   1.546  12.571  0.2645 -0.2913 -0.5475
 6976SOL    HW132390   0.017   1.483  12.504  0.4533 -0.4427 -0.3298
 6976SOL    HW232391   4.621   1.526  12.574  0.4393 -1.2547 -1.4232
 6977SOL     OW32392   3.643   1.513  13.382 -0.1313 -0.1826  0.0956
 6977SOL    HW132393   3.694   1.594  13.384 -4.1792  2.3738 -0.1615
 6977SOL    HW232394   3.593   1.513  13.464  0.3929 -2.4919  0.4148
 6978SOL     OW32395   1.885   0.671  13.088 -0.2264 -0.1752 -0.1548
 6978SOL    HW132396   1.908   0.764  13.096 -0.4953 -0.2268  1.2354
 6978SOL    HW232397   1.812   0.678  13.026  0.9991  1.5463 -1.4064
 6979SOL     OW32398   0.755   2.247   3.197 -0.1989 -0.5490 -0.5257
 6979SOL    HW132399   0.799   2.192   3.132  0.0331 -1.1543  0.1332
 6979SOL    HW232400   0.762   2.193   3.277 -3.2839 -0.1765 -0.0076
 6980SOL     OW32401   2.716   3.357   6.445 -0.1634  0.2241 -0.5133
 6980SOL    HW132402   2.681   3.429   6.391 -0.6598  0.2962 -0.0898
 6980SOL    HW232403   2.809   3.378   6.432  0.0642 -0.6124 -0.2098
 6981SOL     OW32404   1.343   2.626   1.988  0.6190 -0.3322  0.2745
 6981SOL    HW132405   1.380   2.701   1.943  2.4413 -0.4704  1.5352
 6981SOL    HW232406   1.424   2.574   1.991  0.1756 -1.1096 -2.0054
 6982SOL     OW32407   0.829   4.461   0.242  0.2292  0.0769 -0.4097
 6982SOL    HW132408   0.798   4.433   0.156  0.0285  1.6230 -0.8399
 6982SOL    HW232409   0.800   4.552   0.240 -1.1596 -0.3964 -1.8578
 6983SOL     OW32410   1.836   4.654   6.397  0.5085 -0.3120 -0.0246
 6983SOL    HW132411   1.809   4.627   6.309  0.4993  0.8827 -0.3905
 6983SOL    HW232412   1.753   4.646   6.444  0.7234 -2.8816 -0.0736
 6984SOL     OW32413   4.149   4.237   0.115  0.1200 -0.4039 -0.4313
 6984SOL    HW132414   4.234   4.280   0.111  0.3615 -1.0569 -2.5743
 6984SOL    HW232415   4.149   4.202   0.026  2.1055 -1.8227  0.1372
 6985SOL     OW32416   3.853   2.782   2.980  0.4122 -0.0626 -0.1656
 6985SOL    HW132417   3.903   2.818   2.907  4.3566 -0.5321  2.3442
 6985SOL    HW232418   3.800   2.854   3.014  0.9199 -0.5605  1.6582
 6986SOL     OW32419   1.907   1.216   9.037  0.0069  0.0764  0.3056
 6986SOL    HW132420   1.943   1.146   8.983 -1.5185 -0.7342  0.3325
 6986SOL    HW232421   1.905   1.290   8.976 -0.2723  0.9479  1.3639
 6987SOL     OW32422   3.759   0.183   6.065  0.6502 -0.0156 -0.1953
 6987SOL    HW132423   3.762   0.261   6.010  1.4687  0.2882  0.2670
 6987SOL    HW232424   3.846   0.182   6.105  0.5332 -1.7021 -0.0165
 6988SOL     OW32425   2.045   1.153   3.926 -0.1748  0.6924  0.0009
 6988SOL    HW132426   2.059   1.100   3.848  1.6256  1.1675  0.0047
 6988SOL    HW232427   1.975   1.212   3.896 -1.3776 -1.4932 -1.4408
 6989SOL     OW32428   2.556   0.843  10.898  0.2810 -0.2191  0.0925
 6989SOL    HW132429   2.557   0.848  10.803  1.2096  0.4301  0.1425
 6989SOL    HW232430   2.614   0.916  10.919  0.6276  0.2757 -2.6205
 6990SOL     OW32431   1.658   3.800   6.616 -0.1838 -0.0773 -0.1626
 6990SOL    HW132432   1.724   3.779   6.681 -2.0268  0.8344  2.0191
 6990SOL    HW232433   1.619   3.882   6.647 -0.3419 -0.2243  0.0287
 6991SOL     OW32434   1.275   0.052  17.190  0.7277 -0.0231  0.0369
 6991SOL    HW132435   1.277   0.136  17.146  1.1498 -0.1901 -0.2623
 6991SOL    HW232436   1.190   0.057  17.234 -0.3951  0.3608 -2.1811
 6992SOL     OW32437   1.824   3.553   4.984  0.2238 -0.0469 -0.0774
 6992SOL    HW132438   1.884   3.500   4.932 -1.8662 -0.1506 -2.3725
 6992SOL    HW232439   1.817   3.500   5.063  0.9741 -0.1635 -0.0900
 6993SOL     OW32440   0.245   2.516   6.822 -0.1932  0.3160  0.0084
 6993SOL    HW132441   0.298   2.443   6.789 -1.5124  0.0509 -1.5026
 6993SOL    HW232442   0.302   2.556   6.888  0.3169  0.6269 -0.6203
 6994SOL     OW32443   3.408   2.851   5.104  0.2798 -0.2672  0.1207
 6994SOL    HW132444   3.335   2.868   5.045 -1.4186 -0.7697  2.0931
 6994SOL    HW232445   3.377   2.762   5.119  2.4830 -1.3852 -1.9325
 6995SOL     OW32446   4.182   2.836   4.445  0.0755 -0.7517 -0.5932
 6995SOL    HW132447   4.179   2.911   4.386  0.4201 -0.6778 -0.5185
 6995SOL    HW232448   4.194   2.760   4.388  1.1114 -0.0207 -1.3575
 6996SOL     OW32449   2.167   2.528   8.698  0.2596 -0.7011 -0.4434
 6996SOL    HW132450   2.167   2.591   8.770  2.9708 -0.2486 -0.8286
 6996SOL    HW232451   2.078   2.529   8.665  0.2257 -0.9904 -0.3611
 6997SOL     OW32452   3.637   2.338   3.731 -0.1795 -0.1631  0.0287
 6997SOL    HW132453   3.557   2.292   3.708 -0.8580  1.1720 -0.2838
 6997SOL    HW232454   3.602   2.423   3.703  0.0285  0.1921  0.8296
 6998SOL     OW32455   0.052   4.038  13.320  0.3272 -0.1748 -0.1970
 6998SOL    HW132456   0.075   4.009  13.232  1.1919  2.0880 -0.7268
 6998SOL    HW232457   0.025   3.954  13.356  2.1717 -0.3057  0.8776
 6999SOL     OW32458   3.444   1.107   5.153  0.1263  0.8916 -0.2709
 6999SOL    HW132459   3.365   1.058   5.176  2.7980 -2.7240  1.3240
 6999SOL    HW232460   3.420   1.170   5.085 -0.5163  1.3967  0.4283
 7000SOL     OW32461   0.790   2.382   7.876  0.0993 -0.1739 -0.5214
 7000SOL    HW132462   0.839   2.403   7.955  1.5409 -5.1774 -0.0462
 7000SOL    HW232463   0.855   2.333   7.824  0.2799 -0.7207  0.2249
 7001SOL     OW32464   0.681   0.849  10.217 -0.9170  0.4498 -0.2776
 7001SOL    HW132465   0.614   0.887  10.161 -1.5284  1.9836  1.5228
 7001SOL    HW232466   0.672   0.895  10.300  1.6411 -0.3953  0.4618
 7002SOL     OW32467   4.228   4.338   3.541  0.5812  0.1704  0.2890
 7002SOL    HW132468   4.287   4.413   3.549 -1.4322  1.7606  0.1682
 7002SOL    HW232469   4.198   4.353   3.452 -1.3713  0.6574  1.0227
 7003SOL     OW32470   0.431   1.312   8.140 -0.2761 -0.1126 -0.4182
 7003SOL    HW132471   0.514   1.361   8.134 -0.0501 -0.3099  1.0422
 7003SOL    HW232472   0.429   1.277   8.051  2.3687  1.7323 -1.2312
 7004SOL     OW32473   3.253   4.369   6.550 -0.1316 -0.2077  0.8297
 7004SOL    HW132474   3.327   4.378   6.610  0.8051 -0.8547 -0.2270
 7004SOL    HW232475   3.193   4.326   6.610 -1.5381  0.4699 -0.1016
 7005SOL     OW32476   2.226   3.731  12.690  0.3877  0.7286 -0.6198
 7005SOL    HW132477   2.265   3.795  12.749  1.4598 -1.4298  1.0470
 7005SOL    HW232478   2.169   3.795  12.647  2.4735  3.0388  0.0676
 7006SOL     OW32479   2.024   0.168   3.893  0.1182 -0.0299  0.2524
 7006SOL    HW132480   1.987   0.250   3.860  2.3474  0.8879 -0.0065
 7006SOL    HW232481   2.086   0.157   3.821 -1.5580 -0.3188 -1.1429
 7007SOL     OW32482   0.716   1.714   6.964 -0.3092 -0.2195  0.0300
 7007SOL    HW132483   0.805   1.723   6.930  0.0642  0.0241  1.0615
 7007SOL    HW232484   0.663   1.686   6.889 -1.5499  3.2077 -0.3812
 7008SOL     OW32485   3.027   1.208  15.107 -0.9456 -0.2024  0.4404
 7008SOL    HW132486   3.035   1.286  15.053  1.1704 -1.4454 -1.0400
 7008SOL    HW232487   2.936   1.207  15.138 -1.3368  3.9339 -0.6087
 7009SOL     OW32488   3.777   1.098   3.954  0.2057  0.2094  0.1821
 7009SOL    HW132489   3.763   1.079   4.047  0.7914 -1.0640  0.0128
 7009SOL    HW232490   3.689   1.079   3.920  1.4733 -0.7176 -2.5055
 7010SOL     OW32491   0.574   1.122  17.354 -0.0102  0.3731  0.0960
 7010SOL    HW132492   0.480   1.133  17.363 -0.0745 -0.6324  0.6457
 7010SOL    HW232493   0.574   1.032  17.321  1.1118  0.3389  0.1841
 7011SOL     OW32494   3.747   2.297  14.883  0.0074 -0.1411  0.4061
 7011SOL    HW132495   3.667   2.289  14.832  0.9839  0.9764 -1.2954
 7011SOL    HW232496   3.707   2.275  14.967  2.7453 -0.3692  1.6625
 7012SOL     OW32497   0.886   4.502   1.728  0.2611  0.4936 -0.2123
 7012SOL    HW132498   0.960   4.455   1.766 -0.1266  0.2862  0.2844
 7012SOL    HW232499   0.850   4.435   1.670 -0.1465 -0.7892  1.5200
 7013SOL     OW32500   0.522   2.986  13.284 -0.4295 -0.3858 -0.6854
 7013SOL    HW132501   0.554   2.896  13.290 -0.6183 -0.3729  0.4278
 7013SOL    HW232502   0.562   3.034  13.356  1.4169 -0.8180 -1.4248
 7014SOL     OW32503   0.910   3.562   5.251  0.0477 -0.5000 -0.3953
 7014SOL    HW132504   0.883   3.491   5.309  0.5389 -1.7336 -1.6788
 7014SOL    HW232505   0.827   3.604   5.228  1.8379  2.9551 -0.5930
 7015SOL     OW32506   2.280   1.530  15.478  0.4865 -0.3521  0.4728
 7015SOL    HW132507   2.230   1.612  15.484 -0.3008 -0.8359  0.5001
 7015SOL    HW232508   2.363   1.576  15.469  0.6767 -0.3655  2.2315
 7016SOL     OW32509   3.622   1.126   1.646  0.3360 -0.5209 -0.2811
 7016SOL    HW132510   3.535   1.134   1.607  1.5374  2.1011 -2.5044
 7016SOL    HW232511   3.600   1.115   1.738  0.9886  0.8345  0.0502
 7017SOL     OW32512   2.986   1.466  14.968  0.0050  0.7183 -0.4936
 7017SOL    HW132513   3.081   1.462  14.958  0.0116 -0.5338  0.1009
 7017SOL    HW232514   2.984   1.561  14.981 -1.0004  0.6431 -0.1491
 7018SOL     OW32515   3.582   0.350   2.645  0.0079  0.1637  0.3759
 7018SOL    HW132516   3.531   0.333   2.566 -0.0895 -0.8718  0.6597
 7018SOL    HW232517   3.624   0.264   2.646 -2.0360 -0.8440  0.6475
 7019SOL     OW32518   3.960   0.888   7.269  0.4108 -0.2435  0.2018
 7019SOL    HW132519   3.865   0.897   7.263  0.5262  0.5295 -0.4902
 7019SOL    HW232520   3.984   0.978   7.291  0.4964 -0.1465 -0.2942
 7020SOL     OW32521   1.320   0.288  13.131  0.0267 -0.0657  0.0338
 7020SOL    HW132522   1.243   0.258  13.082  0.4974 -0.1704 -0.6564
 7020SOL    HW232523   1.325   0.373  13.088  1.0988  1.3334  2.9535
 7021SOL     OW32524   4.287   2.122  17.348  0.2320  0.3171 -0.6923
 7021SOL    HW132525   4.256   2.154  17.433  1.1086 -3.1705  0.9359
 7021SOL    HW232526   4.262   2.030  17.360 -1.5437  0.5553 -2.5414
 7022SOL     OW32527   4.508   4.678   7.660  0.7244  0.2635  0.4619
 7022SOL    HW132528   4.596   4.641   7.656  0.1578 -0.9113 -0.9664
 7022SOL    HW232529   4.471   4.621   7.727  2.3241  0.2643  1.3395
 7023SOL     OW32530   3.293   2.802   6.860  0.0646 -0.1889 -0.0368
 7023SOL    HW132531   3.209   2.846   6.872 -0.4595 -1.4692  1.0280
 7023SOL    HW232532   3.348   2.842   6.928  1.7697 -1.2813 -0.7571
 7024SOL     OW32533   1.468   0.275  15.966 -0.0946 -0.3421 -0.4120
 7024SOL    HW132534   1.536   0.279  15.899 -1.4480 -0.7318 -1.8071
 7024SOL    HW232535   1.382   0.294  15.930 -0.5142  1.4921  1.5610
 7025SOL     OW32536   4.123   1.131   6.806 -0.1151 -0.0907 -0.3888
 7025SOL    HW132537   4.082   1.047   6.786  0.9089 -0.5777 -0.4760
 7025SOL    HW232538   4.093   1.137   6.896 -1.1287  0.3512 -0.7622
 7026SOL     OW32539   1.055   3.189   0.200  0.1764  0.0684  0.0864
 7026SOL    HW132540   1.057   3.146   0.285  1.7391 -0.1552 -0.0644
 7026SOL    HW232541   1.145   3.222   0.204 -0.0853  0.8089 -0.0714
 7027SOL     OW32542   0.352   3.813   6.317  0.3101  0.3264 -0.0673
 7027SOL    HW132543   0.315   3.750   6.379  2.6063  1.2513  2.2476
 7027SOL    HW232544   0.267   3.845   6.289  0.3353  1.7513  1.4460
 7028SOL     OW32545   4.543   4.307  16.827 -0.7543 -0.1175  0.4836
 7028SOL    HW132546   4.577   4.362  16.897  2.9210 -0.1824 -1.2815
 7028SOL    HW232547   4.570   4.223  16.865 -0.0319 -0.1893 -0.1847
 7029SOL     OW32548   2.012   4.699   6.604  0.0152  0.0397  0.0731
 7029SOL    HW132549   1.966   0.051   6.640 -0.5531 -1.1507  1.8420
 7029SOL    HW232550   1.949   4.676   6.535 -0.8604  0.1083  0.8540
 7030SOL     OW32551   3.229   1.040  15.289  0.2261  0.0125  0.1478
 7030SOL    HW132552   3.233   0.952  15.325  1.3230 -0.0289 -0.0764
 7030SOL    HW232553   3.209   1.088  15.369 -1.2183  0.5808 -0.5488
 7031SOL     OW32554   1.060   2.140  16.785 -0.2743  0.0420 -0.5061
 7031SOL    HW132555   1.114   2.155  16.863 -0.4600  1.5017 -0.6620
 7031SOL    HW232556   1.009   2.220  16.778 -2.3875 -1.2859 -0.4290
 7032SOL     OW32557   2.953   0.046   1.394  0.2989  0.4013  0.4997
 7032SOL    HW132558   2.883   4.720   1.436  0.4617 -0.2107  0.0231
 7032SOL    HW232559   2.980   4.707   1.329 -2.0295  0.5150 -0.5668
 7033SOL     OW32560   1.995   2.786   3.431  0.5277  0.2460  0.0293
 7033SOL    HW132561   1.980   2.848   3.503 -0.9314 -0.6305  0.4656
 7033SOL    HW232562   1.907   2.751   3.417  1.2551 -1.9077  0.9036
 7034SOL     OW32563   0.702   2.427  13.159 -0.3825 -0.4098 -0.6735
 7034SOL    HW132564   0.625   2.482  13.149  1.6606  2.3289 -1.2550
 7034SOL    HW232565   0.734   2.436  13.069 -0.5241 -0.5544 -0.7378
 7035SOL     OW32566   2.107   1.437   5.943 -0.0809 -0.4398 -0.4522
 7035SOL    HW132567   2.011   1.433   5.942 -0.0658 -0.5021 -1.5817
 7035SOL    HW232568   2.126   1.518   5.897 -1.5331  1.3581  2.0671
 7036SOL     OW32569   2.490   3.349   4.670 -0.2461  0.0619  0.3703
 7036SOL    HW132570   2.490   3.351   4.765 -1.7643  0.8918  0.3602
 7036SOL    HW232571   2.442   3.267   4.664  0.4027 -0.2315 -0.8046
 7037SOL     OW32572   4.284   3.578   5.668 -0.0466 -0.0374 -0.1399
 7037SOL    HW132573   4.316   3.493   5.639  1.4913  0.2172  0.8185
 7037SOL    HW232574   4.312   3.571   5.759  1.7239 -0.3994 -0.7246
 7038SOL     OW32575   1.194   3.428   2.622  0.3137 -0.1912 -0.0305
 7038SOL    HW132576   1.285   3.418   2.594  0.1639 -2.2384  0.1989
 7038SOL    HW232577   1.147   3.452   2.542  1.9998  1.0422 -0.6588
 7039SOL     OW32578   1.643   3.354   2.163  0.2268  0.0648  0.0054
 7039SOL    HW132579   1.695   3.372   2.241 -1.5974 -0.1696  1.2796
 7039SOL    HW232580   1.588   3.432   2.164 -1.1095 -0.8441 -2.9117
 7040SOL     OW32581   3.453   4.089  14.762 -0.1482  0.7056  0.1277
 7040SOL    HW132582   3.378   4.116  14.816 -0.7399 -0.6979  0.0180
 7040SOL    HW232583   3.517   4.160  14.771  1.0076 -0.0350 -2.4059
 7041SOL     OW32584   1.950   2.458   6.989 -0.0717 -0.3807 -0.0886
 7041SOL    HW132585   1.861   2.478   7.019  0.6274  1.1216  0.9899
 7041SOL    HW232586   1.934   2.394   6.920 -3.0619  0.0563  0.1787
 7042SOL     OW32587   0.615   1.198  10.169  0.2470 -0.2826 -0.1995
 7042SOL    HW132588   0.588   1.150  10.091 -2.4969  0.4634  0.3120
 7042SOL    HW232589   0.535   1.213  10.219  0.7249  0.2356  0.4148
 7043SOL     OW32590   0.526   0.420   2.932 -0.1508  0.5474 -0.0876
 7043SOL    HW132591   0.487   0.496   2.889 -0.6083 -0.4666 -1.4560
 7043SOL    HW232592   0.500   0.349   2.874 -0.6219  1.1576 -0.6260
 7044SOL     OW32593   0.140   0.359   7.160  0.0082 -0.3730 -0.1226
 7044SOL    HW132594   0.186   0.283   7.126  0.1772  0.4753 -1.7942
 7044SOL    HW232595   0.145   0.416   7.084 -1.4661  0.2833  0.2654
 7045SOL     OW32596   3.697   4.404  16.149 -0.8240  0.1325  0.7868
 7045SOL    HW132597   3.670   4.480  16.098 -1.7473 -0.8860 -0.2517
 7045SOL    HW232598   3.752   4.452  16.210  0.7306 -2.1982  1.2110
 7046SOL     OW32599   2.142   1.818  16.294  1.0503  0.4275  0.4393
 7046SOL    HW132600   2.197   1.891  16.267  0.5354 -0.5320 -3.2054
 7046SOL    HW232601   2.099   1.793  16.212  0.2094  0.6163  0.8241
 7047SOL     OW32602   2.628   0.766   7.503 -0.1372 -0.0603 -0.0753
 7047SOL    HW132603   2.686   0.805   7.567 -1.1126  0.7390  0.3217
 7047SOL    HW232604   2.678   0.773   7.422 -2.3177 -3.0238 -1.6846
 7048SOL     OW32605   2.337   4.106   6.760 -0.2048 -0.4467  0.1549
 7048SOL    HW132606   2.374   4.023   6.789 -0.9477 -0.0264  2.2991
 7048SOL    HW232607   2.414   4.147   6.721 -1.7892  1.3952 -1.0223
 7049SOL     OW32608   0.245   1.662  10.580  0.6263 -0.3428 -0.1326
 7049SOL    HW132609   0.339   1.655  10.563  0.7992 -1.5339  1.3068
 7049SOL    HW232610   0.239   1.754  10.605 -0.2112 -0.3680 -0.2495
 7050SOL     OW32611   1.983   0.808   7.129  0.3038  0.1687 -0.5857
 7050SOL    HW132612   1.958   0.855   7.208 -0.2643 -3.0823  1.1626
 7050SOL    HW232613   2.034   0.874   7.082 -0.2894  0.6177 -0.5948
 7051SOL     OW32614   0.680   2.254  15.911  0.0471  0.0141  0.3767
 7051SOL    HW132615   0.693   2.160  15.924  0.2053 -0.0173  0.0142
 7051SOL    HW232616   0.644   2.253  15.822  3.1283 -0.2677 -0.9038
 7052SOL     OW32617   4.668   1.705  17.532 -0.2796 -0.7247 -0.2331
 7052SOL    HW132618   0.020   1.716  17.475  0.2801  2.7989  1.2128
 7052SOL    HW232619   4.618   1.785  17.518 -2.0451 -1.8488 -0.2874
 7053SOL     OW32620   1.841   3.962   1.168 -0.5355  0.1572 -0.5266
 7053SOL    HW132621   1.780   4.019   1.121 -0.7419  1.0066  0.7576
 7053SOL    HW232622   1.919   3.944   1.117  1.0063  1.6499  1.3064
 7054SOL     OW32623   0.985   2.807   5.377  0.4763  0.2700  0.3829
 7054SOL    HW132624   1.017   2.871   5.313 -0.4925  0.7706  0.3913
 7054SOL    HW232625   1.065   2.775   5.417 -0.9826 -0.2031  2.9169
 7055SOL     OW32626   2.469   0.245   9.748 -0.0872 -0.0341  0.1523
 7055SOL    HW132627   2.468   0.217   9.839 -1.1377  1.1313  0.5014
 7055SOL    HW232628   2.380   0.230   9.715  0.1795 -1.7269  0.2235
 7056SOL     OW32629   1.812   2.891  11.963 -0.1065  0.2084 -0.1108
 7056SOL    HW132630   1.763   2.945  11.901  1.2210  0.1981 -1.1777
 7056SOL    HW232631   1.753   2.819  11.987  1.0773 -0.1125  1.8366
 7057SOL     OW32632   0.862   2.488   7.163 -0.0172  0.0800 -0.0195
 7057SOL    HW132633   0.810   2.557   7.122  0.8527 -0.8166 -2.5981
 7057SOL    HW232634   0.872   2.521   7.253  1.7766  1.2283 -0.6453
 7058SOL     OW32635   2.559   1.412   7.509 -0.1486 -0.5260  0.1332
 7058SOL    HW132636   2.646   1.426   7.546  0.2531 -2.0130 -0.2547
 7058SOL    HW232637   2.527   1.350   7.574 -0.1781 -1.1307 -0.4596
 7059SOL     OW32638   0.723   1.789  11.863  0.5954  0.2628  0.9572
 7059SOL    HW132639   0.734   1.746  11.947 -0.0629  1.6115  1.7349
 7059SOL    HW232640   0.635   1.828  11.864  0.4621 -0.0624  1.9267
 7060SOL     OW32641   4.289   4.471   5.850  0.3854  0.2670 -0.0648
 7060SOL    HW132642   4.263   4.382   5.827 -1.2509  0.4009  1.2434
 7060SOL    HW232643   4.247   4.520   5.780 -1.5033 -1.0389  0.1563
 7061SOL     OW32644   1.103   4.094   5.452  0.4230 -0.2533  0.0318
 7061SOL    HW132645   1.071   4.106   5.542 -0.6517 -2.0611 -0.1124
 7061SOL    HW232646   1.086   4.175   5.405  1.3181 -0.8205 -1.2443
 7062SOL     OW32647   4.447   4.040   2.664  0.0768  0.0712 -0.2857
 7062SOL    HW132648   4.388   3.968   2.643 -1.9236  1.9931 -1.2662
 7062SOL    HW232649   4.520   4.019   2.605  0.2940  1.4979 -0.5267
 7063SOL     OW32650   1.195   1.220   3.298 -0.0168 -0.2155  0.2339
 7063SOL    HW132651   1.106   1.191   3.319 -1.4950  3.1839 -1.2914
 7063SOL    HW232652   1.210   1.307   3.335 -1.2595  0.2778 -0.4155
 7064SOL     OW32653   0.625   0.953   7.293 -0.5519  0.6159  0.4969
 7064SOL    HW132654   0.690   1.022   7.311  0.8110 -0.7993  1.0304
 7064SOL    HW232655   0.615   0.966   7.199 -1.5302 -1.5042  0.2998
 7065SOL     OW32656   0.842   1.817  17.493  0.1316 -0.2129 -0.0412
 7065SOL    HW132657   0.757   1.858  17.476  0.5755  1.8195  2.7548
 7065SOL    HW232658   0.861   1.837  17.584  2.9537  1.3919 -0.9808
 7066SOL     OW32659   3.191   3.712   8.647 -0.6950  0.2641 -0.4743
 7066SOL    HW132660   3.103   3.691   8.617 -1.7720  1.4925  1.8555
 7066SOL    HW232661   3.165   3.782   8.706  1.3746 -0.3624  1.1867
 7067SOL     OW32662   0.376   2.733  12.983  0.0025  0.5945 -0.5234
 7067SOL    HW132663   0.348   2.824  12.972  3.7264  1.4226 -3.0230
 7067SOL    HW232664   0.471   2.735  13.000 -0.0875  1.8613 -0.1720
 7068SOL     OW32665   0.767   1.498  10.801  0.1254  1.2701  0.3835
 7068SOL    HW132666   0.833   1.521  10.735  0.0380 -1.9603 -0.8121
 7068SOL    HW232667   0.764   1.570  10.864  0.4609  1.1162  0.5776
 7069SOL     OW32668   1.605   3.208   1.399 -0.0702  0.2947 -0.2156
 7069SOL    HW132669   1.620   3.169   1.313 -0.8091  0.9506 -0.6369
 7069SOL    HW232670   1.659   3.287   1.393  1.6717 -0.8237  0.8104
 7070SOL     OW32671   0.489   1.691   1.609  0.8347 -0.1459 -0.4922
 7070SOL    HW132672   0.530   1.682   1.523  1.3673 -1.4629 -0.0883
 7070SOL    HW232673   0.462   1.599   1.612  0.6210 -0.1148 -1.4601
 7071SOL     OW32674   1.917   4.501  17.409 -0.6447 -0.0266 -0.3406
 7071SOL    HW132675   1.962   4.555  17.344 -0.5444 -1.3815 -1.3989
 7071SOL    HW232676   1.991   4.485  17.469 -1.9018  0.2141  1.2894
 7072SOL     OW32677   1.996   0.290   2.751  0.5219 -0.3333 -0.0129
 7072SOL    HW132678   1.931   0.249   2.695  0.5056 -1.5337  0.8687
 7072SOL    HW232679   1.944   0.351   2.803 -0.6856  0.5333 -2.2701
 7073SOL     OW32680   0.548   2.219   0.303  0.2733  0.3422 -0.4353
 7073SOL    HW132681   0.502   2.150   0.255  3.3338  0.4205 -3.4896
 7073SOL    HW232682   0.548   2.189   0.394 -0.7855  0.2563 -0.4648
 7074SOL     OW32683   0.010   3.676   1.400 -0.5668  0.2744 -0.2070
 7074SOL    HW132684   0.097   3.672   1.442  1.1670 -0.9049 -3.9315
 7074SOL    HW232685   0.041   3.711   1.317  0.7842  0.8422  0.5365
 7075SOL     OW32686   3.303   1.362  14.312  0.5633 -0.2496  0.4578
 7075SOL    HW132687   3.290   1.447  14.352 -2.1072 -1.1766  1.5062
 7075SOL    HW232688   3.399   1.366  14.317  0.6433 -1.6550  0.1787
 7076SOL     OW32689   0.469   0.001  11.806  0.5465  0.2540 -0.1649
 7076SOL    HW132690   0.549   0.020  11.854  1.1792  2.8961 -2.2460
 7076SOL    HW232691   0.503   4.645  11.766  0.9667 -0.8828  2.4975
 7077SOL     OW32692   4.551   1.892   7.299 -0.2376  0.3322 -0.0316
 7077SOL    HW132693   4.562   1.916   7.391  0.3260  1.5094 -0.4039
 7077SOL    HW232694   4.632   1.921   7.259 -1.5518  2.2937 -1.2316
 7078SOL     OW32695   3.729   3.423   0.477  0.7359  0.6263  0.4221
 7078SOL    HW132696   3.649   3.473   0.492  2.6365  2.9814  2.6363
 7078SOL    HW232697   3.717   3.343   0.529 -0.5955  1.0978  0.8473
 7079SOL     OW32698   1.677   4.286   6.044 -0.3483  0.2508  0.4078
 7079SOL    HW132699   1.633   4.223   6.101  0.5205 -0.6843  0.0422
 7079SOL    HW232700   1.761   4.240   6.033 -0.9894 -0.9499  0.5786
 7080SOL     OW32701   0.039   2.997   3.282  0.1616  0.2951 -0.2247
 7080SOL    HW132702   0.065   3.078   3.325  0.4523  0.6561 -1.0874
 7080SOL    HW232703   4.676   2.986   3.321  0.1971  1.0959  0.0703
 7081SOL     OW32704   2.726   0.035  15.026 -0.5455  0.2204 -0.0368
 7081SOL    HW132705   2.686   0.088  14.957  0.1232  1.5757  0.6161
 7081SOL    HW232706   2.814   0.073  15.028 -0.1804 -0.6657  0.9529
 7082SOL     OW32707   0.078   1.566  16.743  0.4247 -0.3576 -0.2148
 7082SOL    HW132708   0.097   1.482  16.786  0.0717 -1.2486 -1.8088
 7082SOL    HW232709   4.711   1.577  16.767  1.1070 -0.7627  2.5919
 7083SOL     OW32710   4.458   4.237   4.835  0.5177  0.3445  0.1178
 7083SOL    HW132711   4.376   4.281   4.813 -0.3931 -1.8068 -0.7026
 7083SOL    HW232712   4.435   4.160   4.887 -1.6396  0.1357 -1.1346
 7084SOL     OW32713   3.457   4.279   6.739 -0.2176 -0.4838 -0.5274
 7084SOL    HW132714   3.551   4.267   6.724  0.3433  0.5826  2.0059
 7084SOL    HW232715   3.456   4.286   6.835  2.0628 -0.0599 -0.5187
 7085SOL     OW32716   3.117   0.820   7.929  0.4854  0.0213 -0.1065
 7085SOL    HW132717   3.205   0.799   7.896  0.4453 -1.5422  0.7640
 7085SOL    HW232718   3.068   0.746   7.895  0.4587 -0.1613  0.3208
 7086SOL     OW32719   0.674   3.713   2.366  0.1883  0.4920 -0.6910
 7086SOL    HW132720   0.603   3.663   2.326 -0.9665  2.1373 -0.6969
 7086SOL    HW232721   0.648   3.708   2.458 -2.8667 -0.2440 -1.6010
 7087SOL     OW32722   2.363   4.600   4.862 -0.3003  0.3900 -0.3535
 7087SOL    HW132723   2.434   4.635   4.915  0.8217 -1.1636 -0.8451
 7087SOL    HW232724   2.407   4.600   4.777  0.3672  0.3758 -0.0022
 7088SOL     OW32725   0.130   1.842   8.053  0.1278  0.0599 -0.7968
 7088SOL    HW132726   0.127   1.759   8.101 -1.2772  0.7404  0.2886
 7088SOL    HW232727   0.046   1.852   8.008  0.7136  0.8156 -1.7280
 7089SOL     OW32728   2.264   1.542  16.473 -0.4330  0.1752 -0.5231
 7089SOL    HW132729   2.342   1.558  16.526 -1.5098 -2.2131  1.8186
 7089SOL    HW232730   2.246   1.455  16.509  0.0459 -0.2585 -1.3346
 7090SOL     OW32731   2.834   0.624   8.251 -0.1246 -0.2924 -0.0433
 7090SOL    HW132732   2.778   0.663   8.183  1.1543  2.5846  0.5729
 7090SOL    HW232733   2.795   0.540   8.225  0.9822  0.5831 -4.5959
 7091SOL     OW32734   1.346   1.887   2.901  0.2609  0.2196  0.1934
 7091SOL    HW132735   1.260   1.878   2.862  2.7820 -0.1607 -5.2146
 7091SOL    HW232736   1.393   1.879   2.818  1.8408 -1.3403  1.2180
 7092SOL     OW32737   1.430   3.005   3.369  0.1939  0.1103  0.1918
 7092SOL    HW132738   1.423   3.071   3.300  0.5666 -2.7694 -2.6110
 7092SOL    HW232739   1.525   3.007   3.380  0.1356  1.1899  0.5315
 7093SOL     OW32740   1.206   4.474   4.678 -0.1467  0.2202 -0.7807
 7093SOL    HW132741   1.151   4.490   4.602 -1.1814 -0.4455 -0.1794
 7093SOL    HW232742   1.138   4.476   4.745  1.1741 -1.4371  0.6195
 7094SOL     OW32743   1.460   1.379  15.137 -0.1106 -0.3344 -0.0442
 7094SOL    HW132744   1.447   1.329  15.217 -0.9243  1.4135  0.9148
 7094SOL    HW232745   1.378   1.429  15.134  0.0460 -0.0173  1.0436
 7095SOL     OW32746   0.122   0.748  10.496  0.0891 -0.0989  0.3982
 7095SOL    HW132747   0.192   0.804  10.531 -0.2989  1.0040 -0.5784
 7095SOL    HW232748   0.087   0.725  10.581  1.2842 -3.1293  0.0803
 7096SOL     OW32749   3.238   0.753  13.451 -0.0296  0.3049  0.8499
 7096SOL    HW132750   3.278   0.831  13.491  1.9838  0.2616 -1.0741
 7096SOL    HW232751   3.233   0.776  13.358 -1.0087 -0.2890  0.7605
 7097SOL     OW32752   1.703   0.953   1.386  0.2806  0.3016  0.1242
 7097SOL    HW132753   1.700   0.863   1.355 -1.1516  0.6149 -0.6395
 7097SOL    HW232754   1.716   0.940   1.480  0.3807  0.8624  0.1892
 7098SOL     OW32755   2.654   2.658   2.668  0.2464  0.0144  0.1828
 7098SOL    HW132756   2.580   2.718   2.659 -1.5437 -1.8854  2.0888
 7098SOL    HW232757   2.614   2.594   2.727  2.6402 -0.7083  0.9964
 7099SOL     OW32758   2.137   4.238   1.523 -0.0550 -0.5155 -0.4789
 7099SOL    HW132759   2.059   4.225   1.470  0.4209 -0.9453 -1.0743
 7099SOL    HW232760   2.169   4.316   1.477 -0.9062 -1.5342 -2.7700
 7100SOL     OW32761   0.329   2.424  16.230 -0.2261 -0.9456 -0.9324
 7100SOL    HW132762   0.266   2.422  16.302  0.4426  3.1070 -0.2644
 7100SOL    HW232763   0.297   2.358  16.168  0.2197  0.2040 -2.3750
 7101SOL     OW32764   1.959   1.906   5.997 -0.4148  0.5428  0.0674
 7101SOL    HW132765   1.889   1.962   6.031 -0.0797  0.9009  0.1704
 7101SOL    HW232766   1.907   1.849   5.941  1.5264 -0.0086 -1.1940
 7102SOL     OW32767   3.985   2.268  15.930 -0.0963  0.3249 -0.1191
 7102SOL    HW132768   3.993   2.343  15.990 -0.1707 -0.7224  1.1880
 7102SOL    HW232769   3.990   2.197  15.994  1.4430 -0.2158 -0.8519
 7103SOL     OW32770   4.115   0.884   2.873  0.0544 -0.2985 -0.7013
 7103SOL    HW132771   4.146   0.911   2.787 -0.4967 -0.9059 -1.0996
 7103SOL    HW232772   4.029   0.844   2.856 -0.8315 -0.7780  4.8354
 7104SOL     OW32773   4.701   0.257  13.728 -0.0644 -0.1658  0.1453
 7104SOL    HW132774   0.068   0.285  13.717 -0.6245  1.4940 -0.2766
 7104SOL    HW232775   4.665   0.340  13.758  1.8781  0.4194  0.8736
 7105SOL     OW32776   1.150   2.535  16.062 -0.0313 -0.4835  0.0489
 7105SOL    HW132777   1.056   2.517  16.065  0.0401 -1.0008 -0.6786
 7105SOL    HW232778   1.164   2.505  16.152  0.2859  0.6017  0.3591
 7106SOL     OW32779   2.561   1.587   8.298  0.4009 -0.0361  0.1543
 7106SOL    HW132780   2.486   1.529   8.281 -0.4379  1.2653 -0.5767
 7106SOL    HW232781   2.533   1.676   8.281 -0.2868 -0.6192 -1.7246
 7107SOL     OW32782   2.072   4.461   2.248  0.9772 -0.0434  0.7341
 7107SOL    HW132783   2.049   4.408   2.172  1.1768  3.3209 -1.6398
 7107SOL    HW232784   2.077   4.552   2.219 -0.4414 -0.3507 -0.4632
 7108SOL     OW32785   3.882   2.313   2.478 -0.1268 -0.2398 -0.6274
 7108SOL    HW132786   3.895   2.341   2.387  1.0139  0.1387 -0.3466
 7108SOL    HW232787   3.819   2.377   2.512  0.2333  0.4499 -1.2650
 7109SOL     OW32788   3.402   2.512   6.402  0.1821 -0.3240  0.8483
 7109SOL    HW132789   3.392   2.594   6.352  0.7878 -0.1605  0.9974
 7109SOL    HW232790   3.437   2.531   6.488  1.4053  0.9727  0.0658
 7110SOL     OW32791   2.221   0.376   8.260 -0.1434 -0.2086 -0.1470
 7110SOL    HW132792   2.136   0.357   8.220  0.5797 -2.8537 -0.3706
 7110SOL    HW232793   2.221   0.323   8.339 -0.4146 -0.1070 -0.0779
 7111SOL     OW32794   0.302   0.598   2.467  0.1585  0.0524  0.0197
 7111SOL    HW132795   0.234   0.657   2.436  2.5412  3.5446  1.4532
 7111SOL    HW232796   0.369   0.661   2.495 -0.2833  0.9222 -0.8844
 7112SOL     OW32797   4.334   2.928   8.144  0.6226 -0.1674 -0.0211
 7112SOL    HW132798   4.330   3.023   8.159 -1.0806 -0.3689  0.8128
 7112SOL    HW232799   4.347   2.931   8.049 -2.0826 -2.2365 -0.4691
 7113SOL     OW32800   4.684   0.066   7.383  0.3302 -0.5108 -0.5737
 7113SOL    HW132801   0.045   0.081   7.343  0.2928 -0.2495 -0.5561
 7113SOL    HW232802   4.703   0.009   7.458  0.9545  2.0259  1.1735
 7114SOL     OW32803   1.602   2.437   9.151 -0.0480 -0.1827 -0.2880
 7114SOL    HW132804   1.544   2.407   9.081 -1.1696  0.9520  0.1613
 7114SOL    HW232805   1.547   2.506   9.188 -0.0612  0.6919 -1.9573
 7115SOL     OW32806   3.839   4.368  13.783  0.3214  0.4484  0.2332
 7115SOL    HW132807   3.775   4.298  13.801 -0.5593  0.7195 -1.8922
 7115SOL    HW232808   3.789   4.444  13.813  0.3643  1.2498 -1.7798
 7116SOL     OW32809   2.940   3.269   8.435 -0.0502 -0.0158  0.0504
 7116SOL    HW132810   2.882   3.315   8.496 -3.6329 -1.0941 -2.4947
 7116SOL    HW232811   2.926   3.182   8.473  1.9324 -0.3169  0.0822
 7117SOL     OW32812   1.920   4.581   5.772  0.3937 -0.4902  0.2124
 7117SOL    HW132813   1.901   4.596   5.865 -1.1383 -1.4009  0.0408
 7117SOL    HW232814   1.833   4.602   5.737  0.7438  2.0573  0.8183
 7118SOL     OW32815   4.038   0.397   0.410  0.3712  0.7139  0.2869
 7118SOL    HW132816   3.949   0.429   0.421  0.0297 -0.2693  0.3733
 7118SOL    HW232817   4.060   0.349   0.490 -0.4077 -0.0034  0.0717
 7119SOL     OW32818   2.132   3.286   5.081 -0.3436 -0.5731  0.4637
 7119SOL    HW132819   2.114   3.350   5.012  0.0005 -1.5497 -0.5168
 7119SOL    HW232820   2.049   3.289   5.129 -1.4983 -1.7567 -1.4398
 7120SOL     OW32821   2.991   1.745  14.934 -0.6587 -0.9447  0.4354
 7120SOL    HW132822   2.930   1.790  14.993  0.3120  0.0435  0.6954
 7120SOL    HW232823   2.972   1.791  14.852 -0.8880  1.9897  2.1129
 7121SOL     OW32824   2.140   1.383  13.507 -0.0823 -0.1770 -0.3212
 7121SOL    HW132825   2.140   1.313  13.572 -1.3964  0.3701  0.2568
 7121SOL    HW232826   2.054   1.422  13.516  0.6749  1.1373  1.1627
 7122SOL     OW32827   1.316   3.538  14.316  0.5472  0.1600 -0.0962
 7122SOL    HW132828   1.353   3.474  14.377  0.4372  0.6391  0.4783
 7122SOL    HW232829   1.377   3.535  14.243 -0.5682  2.8975 -1.1527
 7123SOL     OW32830   2.692   3.338   0.278  0.0323  0.3997 -0.3618
 7123SOL    HW132831   2.601   3.313   0.299 -0.2834 -1.9663 -4.4156
 7123SOL    HW232832   2.720   3.266   0.221 -0.9018 -0.5003  0.3029
 7124SOL     OW32833   3.492   2.944  10.808  0.3925  0.1165 -0.2444
 7124SOL    HW132834   3.505   2.859  10.850  2.1916  0.1758 -0.6843
 7124SOL    HW232835   3.568   2.938  10.751  0.6010 -0.4976  0.0907
 7125SOL     OW32836   3.502   2.458   4.089  0.3682  0.4511 -0.2483
 7125SOL    HW132837   3.440   2.462   4.016  1.4463 -1.0889 -1.2616
 7125SOL    HW232838   3.512   2.362   4.085  4.3222  0.8842 -0.7525
 7126SOL     OW32839   1.732   3.371   6.381  0.3494  0.5998 -0.0705
 7126SOL    HW132840   1.694   3.329   6.458  2.3238  0.5851  0.8940
 7126SOL    HW232841   1.714   3.295   6.324 -1.3497  1.7442 -1.0639
 7127SOL     OW32842   3.543   1.460   7.755 -0.9019  0.4839 -0.2177
 7127SOL    HW132843   3.453   1.428   7.760 -0.3756 -1.4419 -2.9407
 7127SOL    HW232844   3.527   1.536   7.810 -1.8679 -0.3400  0.6391
 7128SOL     OW32845   0.067   3.810  16.919 -0.3842 -0.1951  0.1741
 7128SOL    HW132846   0.020   3.727  16.930 -2.0489  0.6464 -0.5682
 7128SOL    HW232847   0.134   3.811  16.988  1.5033  1.5474 -1.7061
 7129SOL     OW32848   1.742   0.741   0.081 -0.0372  0.7014 -0.3709
 7129SOL    HW132849   1.731   0.765  17.688 -0.8855 -0.0158 -0.4606
 7129SOL    HW232850   1.745   0.645   0.077 -0.8228  0.7119 -1.1435
 7130SOL     OW32851   3.604   0.129   8.949  0.5792 -0.7397  0.0114
 7130SOL    HW132852   3.547   0.183   8.896 -0.5177 -1.0972  0.8350
 7130SOL    HW232853   3.693   0.156   8.925  0.3750  1.1176  1.3519
 7131SOL     OW32854   1.233   4.613   6.778  0.1545 -0.5449  0.0162
 7131SOL    HW132855   1.236   4.581   6.868  0.1011 -2.7378 -0.7469
 7131SOL    HW232856   1.161   4.561   6.742 -2.0483  2.3964  0.2040
 7132SOL     OW32857   4.649   3.218   7.900  0.4384 -0.0893  0.3725
 7132SOL    HW132858   4.687   3.211   7.988 -1.2059 -0.7459  1.0319
 7132SOL    HW232859   4.633   3.130   7.867 -0.2297 -0.5409  1.9051
 7133SOL     OW32860   0.115   1.811  11.122 -0.2979  0.1912  0.1840
 7133SOL    HW132861   0.189   1.809  11.183 -0.0656 -1.8448 -0.1824
 7133SOL    HW232862   0.145   1.883  11.067 -0.5773  1.6446  1.9109
 7134SOL     OW32863   2.633   4.038   5.224 -0.7464 -0.1767 -0.6012
 7134SOL    HW132864   2.641   3.980   5.299 -0.0542 -0.3761 -0.8255
 7134SOL    HW232865   2.649   3.980   5.149  2.8173  0.8298 -0.5867
 7135SOL     OW32866   3.079   4.680   4.287 -0.3612  0.3541  0.0895
 7135SOL    HW132867   3.133   4.623   4.233 -0.2505  2.9538 -2.5053
 7135SOL    HW232868   3.128   0.038   4.286 -1.0347  0.7716  1.4232
 7136SOL     OW32869   4.565   1.967   1.880 -0.6364 -0.1116 -0.5152
 7136SOL    HW132870   4.486   2.009   1.845 -0.7494  0.5149  0.4830
 7136SOL    HW232871   4.605   2.044   1.919 -1.0507  0.4124 -1.1166
 7137SOL     OW32872   4.671   2.086   4.895  0.4623 -0.3664 -0.0257
 7137SOL    HW132873   4.718   2.006   4.875 -0.0887 -0.9164  0.8439
 7137SOL    HW232874   4.589   2.052   4.931  1.5052  0.6032  3.2682
 7138SOL     OW32875   0.044   2.982   9.121 -0.5163 -0.0474 -0.1616
 7138SOL    HW132876   0.128   3.026   9.126 -1.6151  2.0531  0.0804
 7138SOL    HW232877   4.706   3.045   9.085 -1.3807 -0.0106  1.4073
 7139SOL     OW32878   4.227   4.704   4.520 -0.0036 -0.5188  0.0676
 7139SOL    HW132879   4.149   0.014   4.563  0.1408 -2.9092  2.2173
 7139SOL    HW232880   4.214   0.014   4.432  0.9447 -0.5439 -0.0841
 7140SOL     OW32881   1.038   3.608   4.514  0.2625 -0.0806  0.0207
 7140SOL    HW132882   1.095   3.569   4.448  0.0983 -1.7036  0.8278
 7140SOL    HW232883   1.032   3.699   4.485 -0.2024  0.7002  2.5591
 7141SOL     OW32884   1.472   3.170   4.844 -0.1809 -0.0170 -0.2068
 7141SOL    HW132885   1.421   3.249   4.823  0.5651  0.5609  0.1570
 7141SOL    HW232886   1.510   3.148   4.759 -0.9798 -2.5467  0.0980
 7142SOL     OW32887   2.565   1.558  16.324  0.4272 -0.0837  0.3079
 7142SOL    HW132888   2.474   1.576  16.301  0.0631 -1.0841  0.9653
 7142SOL    HW232889   2.570   1.482  16.267 -0.4818  0.1450 -0.0761
 7143SOL     OW32890   0.899   1.534   2.624  0.6981  0.4314 -0.3446
 7143SOL    HW132891   0.842   1.457   2.629 -0.3016  1.2086  0.1534
 7143SOL    HW232892   0.949   1.521   2.705 -1.1087 -1.3821  0.4624
 7144SOL     OW32893   0.470   0.995   8.024  0.1311 -0.0069  0.7208
 7144SOL    HW132894   0.505   1.067   7.972 -0.7003 -1.6260 -2.0751
 7144SOL    HW232895   0.392   0.965   7.977  0.3727  0.6864 -0.1144
 7145SOL     OW32896   3.562   3.316   1.962  0.1885 -0.5331 -0.0202
 7145SOL    HW132897   3.649   3.355   1.976 -0.3133 -0.4813  2.9404
 7145SOL    HW232898   3.576   3.250   1.895 -1.6199 -0.1193 -0.8028
 7146SOL     OW32899   3.865   1.286   2.609  0.1760 -0.2835 -0.6096
 7146SOL    HW132900   3.932   1.336   2.561  2.5267 -0.0996  2.8824
 7146SOL    HW232901   3.894   1.204   2.569  0.1502 -1.0868  1.0331
 7147SOL     OW32902   0.108   2.707   7.651 -0.2377  0.0652  0.4433
 7147SOL    HW132903   0.199   2.736   7.642 -0.3284 -0.0141 -0.7429
 7147SOL    HW232904   0.102   2.708   7.746 -1.5745 -1.0190  0.3695
 7148SOL     OW32905   4.712   1.626  11.281  0.1729  0.1100 -0.7456
 7148SOL    HW132906   0.061   1.591  11.332 -0.0682  1.1780  0.3092
 7148SOL    HW232907   0.038   1.696  11.239  0.5361  0.4096  0.2009
 7149SOL     OW32908   0.273   0.508   8.040  0.4561  0.1679  0.6280
 7149SOL    HW132909   0.334   0.457   7.986 -1.2914 -1.6842  0.4189
 7149SOL    HW232910   0.240   0.437   8.095 -1.5697 -1.8118 -3.1486
 7150SOL     OW32911   3.481   1.633   8.446 -0.8013  0.2060 -0.3466
 7150SOL    HW132912   3.576   1.646   8.455 -0.5386 -0.8749 -1.4984
 7150SOL    HW232913   3.456   1.707   8.500  0.1231  0.2279  0.0627
 7151SOL     OW32914   0.945   3.572  15.488 -0.1559  0.2534  0.2983
 7151SOL    HW132915   0.883   3.574  15.414  1.2773 -1.5837 -0.9608
 7151SOL    HW232916   1.015   3.516  15.454 -0.6687 -0.1664 -0.0747
 7152SOL     OW32917   1.831   1.158   6.766  0.0593 -0.1923  0.4456
 7152SOL    HW132918   1.807   1.182   6.856  0.3216  0.8817  0.2241
 7152SOL    HW232919   1.892   1.230   6.751  0.4848 -0.4830  0.7697
 7153SOL     OW32920   2.561   1.635   4.391  0.1209 -0.6226 -0.3519
 7153SOL    HW132921   2.542   1.544   4.417 -1.2697 -0.2384 -0.0443
 7153SOL    HW232922   2.474   1.655   4.357  0.0135  0.6666  0.6745
 7154SOL     OW32923   2.448   0.427   6.396 -0.3656 -0.8220  0.0459
 7154SOL    HW132924   2.446   0.402   6.489  0.4078 -2.8073 -0.4670
 7154SOL    HW232925   2.480   0.516   6.397 -1.1410 -0.5139 -2.3693
 7155SOL     OW32926   4.482   0.061   8.385 -0.1440  0.0079  0.9193
 7155SOL    HW132927   4.453   4.704   8.343 -0.1524  0.7771 -0.5652
 7155SOL    HW232928   4.568   0.029   8.413 -0.5928 -0.1465  2.1414
 7156SOL     OW32929   0.620   0.817   4.389  0.0613 -0.3871 -0.6510
 7156SOL    HW132930   0.671   0.799   4.467 -2.2302 -3.1835  0.1927
 7156SOL    HW232931   0.578   0.732   4.378  2.2603 -1.7148  1.3723
 7157SOL     OW32932   3.796   4.070  15.806 -0.1380  0.1615 -0.5872
 7157SOL    HW132933   3.701   4.070  15.817 -0.1779  1.1695 -0.9607
 7157SOL    HW232934   3.826   4.123  15.880 -1.0184  0.0421 -0.1466
 7158SOL     OW32935   0.418   0.691  10.011 -0.0099  0.7577 -0.4626
 7158SOL    HW132936   0.462   0.745   9.946  1.5061  1.3734  1.0775
 7158SOL    HW232937   0.423   0.758  10.080  0.4007  1.2704 -0.9886
 7159SOL     OW32938   4.653   0.189   8.854 -0.2439 -0.1086 -0.0509
 7159SOL    HW132939   4.719   0.256   8.873  0.5767 -0.0915 -2.9334
 7159SOL    HW232940   4.713   0.125   8.816 -0.4340 -0.2751 -0.0726
 7160SOL     OW32941   2.434   4.579  12.868  0.0574  0.0478 -0.0323
 7160SOL    HW132942   2.483   4.557  12.947 -0.9216  0.5027  0.7094
 7160SOL    HW232943   2.492   4.624  12.807 -0.6874  0.8330 -0.1518
 7161SOL     OW32944   4.694   2.315   7.460  0.2427  0.2448 -0.8389
 7161SOL    HW132945   4.705   2.285   7.550  2.0956 -0.7692 -1.4151
 7161SOL    HW232946   0.024   2.251   7.414 -1.4261 -1.9979  0.3617
 7162SOL     OW32947   4.317   3.213   6.554 -0.1488 -0.3982 -0.3899
 7162SOL    HW132948   4.321   3.278   6.484  2.5730  1.0642  1.1259
 7162SOL    HW232949   4.392   3.155   6.538 -0.3698 -0.1044 -2.5732
 7163SOL     OW32950   1.397   0.631   2.187 -0.4569  0.2066 -0.1086
 7163SOL    HW132951   1.362   0.556   2.140  1.0373 -0.4497 -0.1749
 7163SOL    HW232952   1.411   0.689   2.112  0.8627 -0.5344 -0.4276
 7164SOL     OW32953   2.678   0.918   4.122 -0.0231 -0.9279 -0.1501
 7164SOL    HW132954   2.663   0.930   4.029  1.2192 -1.2507 -0.3978
 7164SOL    HW232955   2.626   0.994   4.148  1.0397 -0.4719  0.6314
 7165SOL     OW32956   1.406   0.227   8.942 -0.0664 -0.2156 -0.0559
 7165SOL    HW132957   1.371   0.280   8.870 -0.9839  0.8871  1.2238
 7165SOL    HW232958   1.355   0.259   9.016 -1.0353 -1.7912 -0.0487
 7166SOL     OW32959   1.501   1.098   7.667  0.3489 -0.7519  0.4639
 7166SOL    HW132960   1.505   1.176   7.723  2.5098 -1.0617  0.7531
 7166SOL    HW232961   1.555   1.040   7.720  2.2752 -0.7717 -1.5059
 7167SOL     OW32962   3.483   3.930  15.141  0.1446 -0.1882 -0.1961
 7167SOL    HW132963   3.523   3.854  15.184  2.2195  0.6643 -0.6121
 7167SOL    HW232964   3.442   3.890  15.064 -1.1515  1.7512 -0.4921
 7168SOL     OW32965   1.539   0.415  14.258 -0.1819 -0.3741  0.3519
 7168SOL    HW132966   1.456   0.383  14.293 -0.4215  1.6218  1.6574
 7168SOL    HW232967   1.580   0.456  14.334  1.6907  0.3130 -1.0309
 7169SOL     OW32968   4.095   2.989  14.646 -0.2641  0.0528  0.1299
 7169SOL    HW132969   4.185   2.955  14.644 -0.3044 -0.0258 -0.2596
 7169SOL    HW232970   4.114   3.079  14.672 -1.1009  0.2018  0.2094
 7170SOL     OW32971   3.649   0.132  12.790  0.0429 -0.0080  0.3543
 7170SOL    HW132972   3.655   0.214  12.741  1.3459 -0.7995 -0.8035
 7170SOL    HW232973   3.704   0.146  12.867 -0.2511  0.4767  0.4741
 7171SOL     OW32974   0.814   1.666   6.365 -0.3284  0.2798 -0.2994
 7171SOL    HW132975   0.845   1.756   6.351  0.9818 -0.1066  0.1224
 7171SOL    HW232976   0.721   1.688   6.360  0.0746  2.1507  0.1009
 7172SOL     OW32977   2.621   1.381   1.696 -0.5927  0.5384  0.3469
 7172SOL    HW132978   2.574   1.367   1.614 -1.5148  1.5661  0.6962
 7172SOL    HW232979   2.557   1.443   1.731  0.8703  0.3521  3.4009
 7173SOL     OW32980   1.888   3.568   2.161  0.0310 -0.3334  0.3242
 7173SOL    HW132981   1.945   3.613   2.223 -0.1588  0.2610  0.0696
 7173SOL    HW232982   1.818   3.542   2.221 -1.4003  3.3318  0.3098
 7174SOL     OW32983   4.132   3.531  15.718 -0.2170  0.4881  0.1287
 7174SOL    HW132984   4.209   3.487  15.755 -0.7950 -1.8611 -1.4384
 7174SOL    HW232985   4.172   3.540  15.632 -1.4799 -1.5491 -0.6709
 7175SOL     OW32986   3.262   2.555   9.222  0.0830 -1.0278  0.5449
 7175SOL    HW132987   3.346   2.591   9.250 -0.6977  0.5573  0.8276
 7175SOL    HW232988   3.249   2.579   9.131 -0.0715  0.9206  1.0881
 7176SOL     OW32989   3.085   4.098   4.749  0.3030  0.5878 -0.5480
 7176SOL    HW132990   3.072   4.159   4.677  1.1765  0.9424 -0.4163
 7176SOL    HW232991   3.000   4.058   4.768  1.2771 -1.0269  0.4177
 7177SOL     OW32992   1.073   0.484   3.562 -0.1011  0.4246 -0.8524
 7177SOL    HW132993   1.127   0.477   3.483  2.2152 -0.3130  0.7822
 7177SOL    HW232994   1.121   0.426   3.621  0.1046  2.9092  1.4356
 7178SOL     OW32995   1.536   2.427   2.387  0.2742  0.6391 -0.0420
 7178SOL    HW132996   1.472   2.494   2.361 -0.0429  0.1906 -0.4187
 7178SOL    HW232997   1.592   2.471   2.450  1.9293 -2.4642  0.6468
 7179SOL     OW32998   1.562   3.814   3.102  0.0267  0.2068 -0.0300
 7179SOL    HW132999   1.598   3.885   3.155 -1.4883  1.3550 -0.5755
 7179SOL    HW233000   1.614   3.811   3.022 -1.0936 -0.8206 -0.7264
 7180SOL     OW33001   2.822   3.947   4.768  0.5123 -0.2779  0.0046
 7180SOL    HW133002   2.733   3.984   4.776 -0.6713 -2.4398 -3.0875
 7180SOL    HW233003   2.838   3.938   4.862 -2.5564  0.2127  0.5923
 7181SOL     OW33004   0.936   0.214  13.234 -0.4740 -0.6017 -0.5607
 7181SOL    HW133005   0.968   0.229  13.145  1.3784  1.1110  0.3852
 7181SOL    HW233006   0.997   0.284  13.257  0.8785 -2.1756  0.5625
 7182SOL     OW33007   2.260   4.119   6.113 -0.0236 -0.0560  0.0654
 7182SOL    HW133008   2.181   4.133   6.061 -0.6043  3.0118  1.7944
 7182SOL    HW233009   2.284   4.208   6.138  0.6365 -0.0808 -0.5044
 7183SOL     OW33010   3.592   0.561   1.545  0.8217  0.0984  0.1061
 7183SOL    HW133011   3.669   0.509   1.567  0.5267 -0.2646  0.2761
 7183SOL    HW233012   3.533   0.536   1.617  0.3965 -1.6718 -0.8678
 7184SOL     OW33013   3.861   0.972   8.454  0.2106 -0.5815 -0.1528
 7184SOL    HW133014   3.809   1.035   8.404 -0.3111 -0.8997 -0.0117
 7184SOL    HW233015   3.948   0.975   8.414  0.3907 -0.3655  0.2568
 7185SOL     OW33016   3.343   2.179   4.625  0.2106 -0.0409  0.4551
 7185SOL    HW133017   3.310   2.266   4.647  2.0821  0.1173  2.6852
 7185SOL    HW233018   3.397   2.212   4.553 -0.2473 -0.5600 -0.1177
 7186SOL     OW33019   1.420   1.190   4.918  0.4002 -0.5997  0.3911
 7186SOL    HW133020   1.456   1.102   4.929  3.1237  0.7998  2.5839
 7186SOL    HW233021   1.332   1.181   4.953  1.5077 -3.2632  2.5074
 7187SOL     OW33022   2.742   0.480   9.136  0.0517 -0.2020 -0.6487
 7187SOL    HW133023   2.728   0.408   9.198  2.9843 -0.2228 -0.0390
 7187SOL    HW233024   2.650   0.489   9.109 -0.6265 -2.8188  0.7873
 7188SOL     OW33025   1.553   3.151   3.142 -0.0641  0.1228  0.7398
 7188SOL    HW133026   1.590   3.237   3.160 -1.0855  1.1727 -2.1002
 7188SOL    HW233027   1.617   3.104   3.088 -0.2246  0.8766 -0.1091
 7189SOL     OW33028   1.806   4.022   4.757  0.2408  0.4005 -0.0445
 7189SOL    HW133029   1.720   4.056   4.734 -0.3503  0.0436  1.6084
 7189SOL    HW233030   1.852   4.101   4.784  0.4555 -0.3167  1.7386
 7190SOL     OW33031   2.691   2.923   2.393 -0.4643 -0.3758 -0.5202
 7190SOL    HW133032   2.676   3.000   2.339 -2.5352  0.9595  1.9472
 7190SOL    HW233033   2.787   2.917   2.391 -0.4318 -0.2165  0.5389
 7191SOL     OW33034   1.278   3.225   1.985 -0.0476  0.7996 -0.6779
 7191SOL    HW133035   1.369   3.199   1.975 -0.0522  1.1480 -1.6067
 7191SOL    HW233036   1.230   3.152   1.946  0.1613 -0.4271  1.3051
 7192SOL     OW33037   1.018   3.301   1.874  0.1208 -0.5464  0.1298
 7192SOL    HW133038   1.081   3.373   1.880  0.7088 -1.1475  0.9727
 7192SOL    HW233039   1.073   3.233   1.835 -1.3738 -1.6472 -0.0765
 7193SOL     OW33040   3.952   1.708  10.856 -0.2671  0.3633  0.0674
 7193SOL    HW133041   3.961   1.655  10.777 -1.8774  1.3322 -0.7585
 7193SOL    HW233042   4.014   1.780  10.843  0.9407 -0.5067  0.9951
 7194SOL     OW33043   3.619   4.461   7.472  0.0646 -0.4665 -0.0421
 7194SOL    HW133044   3.534   4.428   7.444  1.2418 -1.7343 -2.1728
 7194SOL    HW233045   3.591   4.524   7.538 -0.4610 -1.3977  0.6292
 7195SOL     OW33046   0.154   0.094   1.598 -0.3501 -0.4362  0.1776
 7195SOL    HW133047   0.082   0.099   1.534  1.7237 -0.0938 -2.1054
 7195SOL    HW233048   0.216   0.052   1.538 -0.8079  0.3490 -0.8557
 7196SOL     OW33049   1.835   4.346   4.771 -0.4564  0.0084 -0.3598
 7196SOL    HW133050   1.837   4.432   4.730  1.1239  0.9041  1.5986
 7196SOL    HW233051   1.752   4.306   4.745 -0.6645  1.1669 -1.4641
 7197SOL     OW33052   0.339   3.156   7.318  0.2013  0.1432  0.7038
 7197SOL    HW133053   0.428   3.179   7.344  1.0686  0.6272 -2.7194
 7197SOL    HW233054   0.327   3.195   7.232 -1.5598 -0.3391  0.7291
 7198SOL     OW33055   1.449   4.134   9.602 -0.8861 -0.5903  0.4384
 7198SOL    HW133056   1.410   4.210   9.560  2.0314  1.3518  1.2581
 7198SOL    HW233057   1.497   4.175   9.674 -0.3351  0.3765 -0.4964
 7199SOL     OW33058   3.293   4.258   2.295 -0.5680  0.3266  0.6351
 7199SOL    HW133059   3.301   4.232   2.387  2.0913 -0.7684  0.0966
 7199SOL    HW233060   3.242   4.338   2.300  1.4261  1.5311  1.4968
 7200SOL     OW33061   0.541   2.269   2.921  0.3706  0.0881 -0.2885
 7200SOL    HW133062   0.628   2.251   2.888 -0.0724  0.7794 -1.8050
 7200SOL    HW233063   0.485   2.234   2.851  0.3123  1.5480 -0.9587
 7201SOL     OW33064   1.957   2.550  15.808  0.3994  0.1416  0.3256
 7201SOL    HW133065   1.869   2.580  15.788  0.6365  1.8139  1.8101
 7201SOL    HW233066   1.985   2.506  15.728  2.2523  0.8631  0.5815
 7202SOL     OW33067   2.393   0.072   1.664 -0.2951 -0.1189  0.1149
 7202SOL    HW133068   2.472   0.127   1.668  1.0123 -1.9063 -1.0743
 7202SOL    HW233069   2.370   0.088   1.573  0.3128  1.0835  0.1616
 7203SOL     OW33070   0.930   3.990   7.979 -0.6004  0.3672  0.0806
 7203SOL    HW133071   0.979   3.954   7.906  0.8955  1.4222  0.5610
 7203SOL    HW233072   0.968   3.952   8.059 -0.3827  0.4261  0.0036
 7204SOL     OW33073   3.438   0.336   2.907 -0.1226  0.5100  0.4946
 7204SOL    HW133074   3.518   0.341   2.855  1.3868 -0.2243  2.7342
 7204SOL    HW233075   3.408   0.252   2.872  0.5461  0.0445  1.0442
 7205SOL     OW33076   1.217   0.436   7.896  0.1086  0.0054  0.1466
 7205SOL    HW133077   1.306   0.461   7.923  0.3675  2.9107 -3.4006
 7205SOL    HW233078   1.203   0.355   7.945  0.6292  0.4966  1.1170
 7206SOL     OW33079   3.863   2.713  16.921  0.0629 -0.1086 -0.0279
 7206SOL    HW133080   3.788   2.715  16.861  0.7777 -1.2354 -0.9436
 7206SOL    HW233081   3.909   2.631  16.901  0.2607 -0.4301  1.7397
 7207SOL     OW33082   0.201   4.287   5.894  0.4106 -0.3958 -0.0869
 7207SOL    HW133083   0.171   4.308   5.805 -2.0882  0.1627  0.9112
 7207SOL    HW233084   0.275   4.347   5.898  0.3554 -0.2034 -1.6260
 7208SOL     OW33085   2.916   1.958   0.931  0.0252  0.0785  0.0441
 7208SOL    HW133086   2.915   1.863   0.922 -1.0397  0.0895  0.0296
 7208SOL    HW233087   2.845   1.975   0.994  1.8178 -0.5987  2.2670
 7209SOL     OW33088   2.956   2.416   6.865  0.4000  0.7300 -0.1075
 7209SOL    HW133089   2.964   2.321   6.869  0.1616  0.6074 -2.4173
 7209SOL    HW233090   2.877   2.428   6.812  0.3450 -1.0795 -0.4449
 7210SOL     OW33091   0.258   3.627   1.493 -0.0274  0.0584  0.6370
 7210SOL    HW133092   0.354   3.623   1.489 -0.0948 -0.2288 -0.6642
 7210SOL    HW233093   0.256   3.651   1.586  1.9861 -0.7467  0.8986
 7211SOL     OW33094   1.334   1.429   3.586  0.6997 -0.4044 -0.2882
 7211SOL    HW133095   1.380   1.365   3.531  0.6886  0.9653 -1.8986
 7211SOL    HW233096   1.336   1.509   3.533 -1.9382  1.0365  1.7974
 7212SOL     OW33097   1.492   2.794   5.694 -0.3039  0.6392  0.1556
 7212SOL    HW133098   1.489   2.699   5.699  0.7180  0.5920 -0.1349
 7212SOL    HW233099   1.445   2.821   5.615  0.7813  1.2221 -0.3081
 7213SOL     OW33100   3.100   3.580   5.455  0.3698  0.0687  0.7821
 7213SOL    HW133101   3.023   3.623   5.494 -0.8337 -2.5521  1.2672
 7213SOL    HW233102   3.093   3.498   5.504 -0.5847  0.7799  1.8427
 7214SOL     OW33103   3.440   0.486  16.635 -0.2749 -0.0701  0.6283
 7214SOL    HW133104   3.373   0.425  16.666  0.0476 -0.9600 -0.4137
 7214SOL    HW233105   3.425   0.473  16.541  2.7597  1.3986 -0.0402
 7215SOL     OW33106   2.301   2.158  17.549  0.1357  0.1950  0.2349
 7215SOL    HW133107   2.246   2.111  17.612  2.0364  0.9267  2.4384
 7215SOL    HW233108   2.249   2.233  17.519  1.1415 -0.4794 -3.2263
 7216SOL     OW33109   2.922   2.124  16.434 -0.0981  0.2415  0.2189
 7216SOL    HW133110   2.931   2.038  16.475  1.5325 -0.7999 -2.3395
 7216SOL    HW233111   2.935   2.183  16.508 -0.5510 -0.2998  0.7241
 7217SOL     OW33112   0.912   3.677  17.039  0.3422 -0.0983 -0.0223
 7217SOL    HW133113   0.992   3.627  17.025  0.0613 -0.0872 -1.6803
 7217SOL    HW233114   0.940   3.747  17.099 -1.8167  1.1104 -0.4053
 7218SOL     OW33115   3.541   1.486  14.234  0.2022 -0.3726  0.2209
 7218SOL    HW133116   3.626   1.511  14.271 -0.0920  2.5351 -1.0356
 7218SOL    HW233117   3.562   1.403  14.191 -0.3042 -0.6729  0.5615
 7219SOL     OW33118   3.058   3.527   0.222 -0.4018 -0.2495  0.2736
 7219SOL    HW133119   3.112   3.505   0.298 -2.8143  3.0358  2.9204
 7219SOL    HW233120   3.077   3.454   0.162  0.5647  1.2519 -1.2636
 7220SOL     OW33121   0.179   3.416   4.927  0.0282 -0.3317  0.0683
 7220SOL    HW133122   0.194   3.406   5.021 -1.3357  2.6342  0.5687
 7220SOL    HW233123   0.130   3.336   4.909  1.3382 -1.0771 -0.2289
 7221SOL     OW33124   4.408   3.838   7.148  0.0908 -0.0101 -0.5289
 7221SOL    HW133125   4.469   3.773   7.181  1.5958  1.6321 -0.0376
 7221SOL    HW233126   4.327   3.804   7.186 -0.1744  0.7409 -0.4225
 7222SOL     OW33127   1.022   2.846  15.832 -0.9819  0.4038  0.0101
 7222SOL    HW133128   1.080   2.920  15.818  1.6793 -1.3049  1.9693
 7222SOL    HW233129   0.987   2.829  15.744 -0.7642 -0.0692  0.0140
 7223SOL     OW33130   3.792   0.580   3.339 -0.7399  0.0780  0.0771
 7223SOL    HW133131   3.827   0.589   3.250  0.3994  0.4212  0.5638
 7223SOL    HW233132   3.701   0.557   3.318 -0.1861  1.2833 -3.7043
 7224SOL     OW33133   0.818   2.211  17.233  0.5100 -0.4881  0.0860
 7224SOL    HW133134   0.857   2.126  17.213 -0.6971 -0.7731 -1.0348
 7224SOL    HW233135   0.825   2.257  17.150 -0.8773 -0.3158  0.0638
 7225SOL     OW33136   1.531   4.571   2.224  0.5567 -0.9010 -0.3765
 7225SOL    HW133137   1.496   4.549   2.137 -3.6265  1.7804  0.6213
 7225SOL    HW233138   1.518   4.488   2.268 -1.8065 -1.1773 -1.5783
 7226SOL     OW33139   2.293   1.553  16.190 -0.0603  0.2086 -0.0802
 7226SOL    HW133140   2.260   1.554  16.280  1.3375  2.2665  0.4310
 7226SOL    HW233141   2.233   1.600  16.132 -1.7170 -1.5783  0.1972
 7227SOL     OW33142   2.854   0.758  15.679 -0.3321 -0.4301  0.3515
 7227SOL    HW133143   2.934   0.773  15.729 -0.1854 -0.8841  0.2552
 7227SOL    HW233144   2.866   0.809  15.599  0.8474 -0.7892  0.3039
 7228SOL     OW33145   1.272   1.860   9.839 -0.4401 -0.3273 -0.6499
 7228SOL    HW133146   1.211   1.858   9.765  0.5210 -1.1512 -1.4346
 7228SOL    HW233147   1.204   1.866   9.905 -0.2337  2.5302 -0.6983
 7229SOL     OW33148   1.017   0.987   7.902 -0.1067  0.0654 -0.1475
 7229SOL    HW133149   0.986   1.075   7.882 -1.7865 -0.4123  0.2577
 7229SOL    HW233150   0.995   0.942   7.820  1.6182 -2.8001  0.9673
 7230SOL     OW33151   3.118   2.788  13.829  0.4392 -0.0183 -0.0708
 7230SOL    HW133152   3.079   2.860  13.880  0.9375  1.2476 -1.4656
 7230SOL    HW233153   3.041   2.732  13.831  0.9762 -0.7295  0.3420
 7231SOL     OW33154   3.179   2.373   9.403 -0.4843 -0.0878 -0.2589
 7231SOL    HW133155   3.144   2.406   9.486  0.0536  4.3563 -1.7971
 7231SOL    HW233156   3.200   2.455   9.358 -2.2016 -1.1371 -2.9878
 7232SOL     OW33157   2.243   3.395   6.900  1.0282 -0.7801  0.0157
 7232SOL    HW133158   2.197   3.479   6.903  0.5103 -1.0281 -1.1176
 7232SOL    HW233159   2.189   3.344   6.841  1.0367 -0.2556 -0.4430
 7233SOL     OW33160   1.937   2.856   7.774  0.4097 -0.2983 -0.5672
 7233SOL    HW133161   1.960   2.864   7.866  0.3949 -0.9631 -0.5114
 7233SOL    HW233162   1.911   2.946   7.751 -0.6083  0.1599  2.4020
 7234SOL     OW33163   4.340   3.389  15.608 -0.1405  0.3518  0.0580
 7234SOL    HW133164   4.376   3.303  15.633  0.2963  0.7270  0.7177
 7234SOL    HW233165   4.414   3.428  15.562 -1.0309  1.6681 -0.2480
 7235SOL     OW33166   1.120   3.564   5.441  0.0394 -0.4466 -0.1672
 7235SOL    HW133167   1.140   3.655   5.418 -1.2418 -0.2320 -0.4273
 7235SOL    HW233168   1.032   3.564   5.403  0.2333  0.7473 -0.6179
 7236SOL     OW33169   1.931   0.125   5.293 -0.8157 -0.2835  0.2709
 7236SOL    HW133170   1.993   0.059   5.323  0.5869  0.2277 -1.4981
 7236SOL    HW233171   1.980   0.141   5.212  1.4159 -1.1265  1.4581
 7237SOL     OW33172   1.468   2.983   8.729  0.1584  0.1874  0.4546
 7237SOL    HW133173   1.463   3.070   8.690 -2.3609  0.7024  1.9031
 7237SOL    HW233174   1.486   2.925   8.655 -0.5589  0.2182  0.2630
 7238SOL     OW33175   3.799   2.453  11.670  0.1273  0.1133 -0.0744
 7238SOL    HW133176   3.833   2.364  11.666  0.2325  0.0430  2.5421
 7238SOL    HW233177   3.705   2.442  11.683  0.5422 -2.8384  0.3415
 7239SOL     OW33178   1.497   0.947   4.839 -0.3259 -0.0300 -0.1797
 7239SOL    HW133179   1.530   0.990   4.761  1.1940 -0.1343  0.3982
 7239SOL    HW233180   1.569   0.900   4.882 -0.6886 -0.5526 -0.1366
 7240SOL     OW33181   2.577   4.133  15.946  0.2707 -0.3281  0.0944
 7240SOL    HW133182   2.493   4.172  15.921  0.1541 -1.4957 -1.3486
 7240SOL    HW233183   2.579   4.062  15.881  0.9233  1.8578 -2.2500
 7241SOL     OW33184   4.279   2.257   2.818 -0.7491  0.6077  0.6510
 7241SOL    HW133185   4.245   2.307   2.743  0.2451  0.2474 -0.0389
 7241SOL    HW233186   4.367   2.287   2.842 -1.5219  3.4432 -0.1172
 7242SOL     OW33187   2.940   3.231   4.688  0.6249 -0.7620 -0.7837
 7242SOL    HW133188   2.924   3.317   4.649 -0.3317 -0.1555  0.9235
 7242SOL    HW233189   2.897   3.173   4.626 -2.6648 -0.9655  1.6857
 7243SOL     OW33190   0.752   0.623   9.553 -0.7738  0.4663  0.1846
 7243SOL    HW133191   0.767   0.679   9.630 -0.6535  0.1918  0.3613
 7243SOL    HW233192   0.793   0.542   9.581  0.0365  1.0473  0.6708
 7244SOL     OW33193   1.839   2.114   6.445  0.4135 -0.3400  0.1483
 7244SOL    HW133194   1.765   2.140   6.389  1.0123 -0.0115 -0.5046
 7244SOL    HW233195   1.908   2.178   6.426  0.4000 -0.4543 -0.2874
 7245SOL     OW33196   1.057   1.876  13.442 -0.3545 -0.0858  0.2169
 7245SOL    HW133197   1.048   1.827  13.523 -0.7034 -2.0766 -1.0439
 7245SOL    HW233198   1.093   1.959  13.475 -0.4992 -0.7781  2.0816
 7246SOL     OW33199   1.346   3.915  14.773  1.5296 -0.0304  0.3003
 7246SOL    HW133200   1.350   3.854  14.700 -0.6592  0.8679 -0.5677
 7246SOL    HW233201   1.434   3.913  14.809  2.1666 -0.4293 -1.2661
 7247SOL     OW33202   4.063   3.961   2.358 -0.3740 -0.8800 -0.2000
 7247SOL    HW133203   4.135   3.911   2.319  0.7777  0.4226  0.2759
 7247SOL    HW233204   4.073   4.049   2.323 -0.8834 -0.4057  0.8616
 7248SOL     OW33205   2.284   0.634   7.917  0.1111 -0.4639  0.7520
 7248SOL    HW133206   2.331   0.708   7.879  1.0418 -1.2755  0.3366
 7248SOL    HW233207   2.346   0.603   7.984  0.3953 -0.0836  0.6608
 7249SOL     OW33208   4.507   3.949  15.513  0.1894 -0.0217 -0.0973
 7249SOL    HW133209   4.559   3.939  15.593  1.9141  0.1131 -1.1785
 7249SOL    HW233210   4.519   4.044  15.502 -2.0180  0.3592  0.8350
 7250SOL     OW33211   0.718   2.935   7.558 -0.2006  0.8598 -0.2725
 7250SOL    HW133212   0.726   2.929   7.463  0.6585 -0.6404 -0.1021
 7250SOL    HW233213   0.623   2.942   7.570 -0.4930 -3.1341 -0.1143
 7251SOL     OW33214   3.992   2.525  17.380  0.3071 -0.1077 -0.0654
 7251SOL    HW133215   3.944   2.514  17.298 -0.6453 -0.4330  0.5418
 7251SOL    HW233216   4.044   2.599  17.349 -0.2145  0.9620  1.6378
 7252SOL     OW33217   4.384   1.462   7.518 -0.1810 -0.7789 -0.0455
 7252SOL    HW133218   4.451   1.460   7.586  0.1830  0.3475 -0.3802
 7252SOL    HW233219   4.379   1.557   7.512 -0.2166 -0.8877 -1.7562
 7253SOL     OW33220   3.408   4.027   6.118  0.4892  0.2236 -0.1323
 7253SOL    HW133221   3.433   3.957   6.057 -1.9213  1.4719 -2.5949
 7253SOL    HW233222   3.375   3.969   6.187  2.1200 -3.3893 -2.3623
 7254SOL     OW33223   0.830   1.760  17.061  0.1451 -0.0159  0.1337
 7254SOL    HW133224   0.839   1.806  16.978  0.7269  0.6390  0.5639
 7254SOL    HW233225   0.875   1.677  17.047  2.2267  0.6556  2.9507
 7255SOL     OW33226   0.220   0.928   2.806  0.3789 -0.0244  0.1154
 7255SOL    HW133227   0.158   0.929   2.878 -0.4698  3.0080 -0.6850
 7255SOL    HW233228   0.270   1.007   2.822  0.1199  0.3150 -0.7271
 7256SOL     OW33229   3.907   2.692  11.182  0.7791 -0.4795  0.3344
 7256SOL    HW133230   3.977   2.705  11.119 -2.3488  0.1442 -3.0542
 7256SOL    HW233231   3.860   2.776  11.183  0.6835 -0.4995 -1.5663
 7257SOL     OW33232   4.599   2.142   3.057 -0.4050  0.1386  0.2628
 7257SOL    HW133233   4.573   2.225   3.018  1.2250  1.0611  1.1268
 7257SOL    HW233234   4.693   2.142   3.041  0.0724 -0.2313  3.0023
 7258SOL     OW33235   0.942   4.054   2.383  0.0471  0.1926 -0.3061
 7258SOL    HW133236   1.023   4.106   2.376  0.1161 -0.0987 -1.8000
 7258SOL    HW233237   0.982   3.968   2.375  0.6083  0.1629  2.7379
 7259SOL     OW33238   1.354   0.161   9.301 -0.6788 -0.0626 -0.5615
 7259SOL    HW133239   1.448   0.166   9.284 -0.5435 -1.8147 -0.4033
 7259SOL    HW233240   1.321   0.240   9.259  0.3358 -0.7499 -2.6766
 7260SOL     OW33241   4.666   3.786   2.267  1.0059 -0.7342 -0.5573
 7260SOL    HW133242   4.592   3.759   2.213  0.1002  1.9876 -0.6475
 7260SOL    HW233243   0.001   3.715   2.241  0.4053 -0.9220 -1.4239
 7261SOL     OW33244   2.862   1.030   4.532  0.1058  0.0414 -0.1387
 7261SOL    HW133245   2.939   0.975   4.540  1.4443  1.9435  0.0474
 7261SOL    HW233246   2.801   0.973   4.485  1.7951 -0.4136 -1.7673
 7262SOL     OW33247   1.719   3.138   4.973  0.0324 -0.5070  0.2588
 7262SOL    HW133248   1.694   3.114   5.062  1.3775  0.3137  0.8583
 7262SOL    HW233249   1.634   3.152   4.931  0.1000 -1.8546 -0.3414
 7263SOL     OW33250   2.924   2.892   3.106 -0.2962 -0.4145 -0.1340
 7263SOL    HW133251   2.924   2.985   3.084 -1.8611 -0.1785  0.9078
 7263SOL    HW233252   2.830   2.884   3.090 -0.2564 -1.1222 -0.0318
 7264SOL     OW33253   4.347   0.284   5.483  0.5628  0.0668  0.7210
 7264SOL    HW133254   4.427   0.262   5.531  1.8786 -3.8130 -3.3564
 7264SOL    HW233255   4.300   0.215   5.530  0.8944 -0.0288  0.9151
 7265SOL     OW33256   0.173   0.145  14.414 -0.4401  0.2200 -0.3066
 7265SOL    HW133257   0.168   0.050  14.408  0.1867  0.1223  0.8015
 7265SOL    HW233258   0.268   0.147  14.413 -0.5244  5.1857 -1.3319
 7266SOL     OW33259   3.196   0.836   4.148  0.4212  0.3692  0.3361
 7266SOL    HW133260   3.114   0.884   4.138  0.6917  1.0597  1.5080
 7266SOL    HW233261   3.230   0.883   4.224  1.0306 -0.3650  0.5233
 7267SOL     OW33262   2.940   0.255   8.154  0.1696 -0.1791 -0.1234
 7267SOL    HW133263   2.941   0.208   8.071 -0.5706 -0.6488  0.1332
 7267SOL    HW233264   2.968   0.187   8.215  0.0216  0.8949  1.1215
 7268SOL     OW33265   3.250   3.112   4.686  0.5356 -0.0640 -0.1893
 7268SOL    HW133266   3.212   3.025   4.680  1.8074 -0.4648 -2.5582
 7268SOL    HW233267   3.293   3.111   4.600  1.3800 -1.5406  0.2604
 7269SOL     OW33268   3.092   2.211   9.045 -0.2139  0.4586 -0.2343
 7269SOL    HW133269   3.083   2.151   8.971  1.8326  0.1945 -0.2598
 7269SOL    HW233270   3.140   2.281   9.001 -0.3747  0.9914  0.4183
 7270SOL     OW33271   0.214   2.559   8.601 -0.0525  0.2407 -0.2194
 7270SOL    HW133272   0.149   2.583   8.668 -0.1893  1.0353 -0.6360
 7270SOL    HW233273   0.205   2.465   8.587  0.9386 -0.2837  2.6268
 7271SOL     OW33274   3.145   0.546  13.927  0.2132 -0.1316  0.2750
 7271SOL    HW133275   3.129   0.620  13.868  0.6982 -1.6589 -1.7775
 7271SOL    HW233276   3.063   0.545  13.976  0.3970 -0.0241  0.5880
 7272SOL     OW33277   2.905   3.948   4.053  0.2133 -0.3820  0.0877
 7272SOL    HW133278   2.930   3.856   4.061  0.6639 -0.0595  2.2528
 7272SOL    HW233279   2.887   3.960   3.960  2.2937 -0.4104 -0.3160
 7273SOL     OW33280   0.573   2.364   8.999 -0.1232 -0.2837 -0.1226
 7273SOL    HW133281   0.516   2.423   8.951  0.6183  0.1104 -0.5192
 7273SOL    HW233282   0.637   2.353   8.929  1.7600 -0.8556  1.6910
 7274SOL     OW33283   2.775   1.778  10.879 -0.0772  0.2783 -0.3349
 7274SOL    HW133284   2.766   1.792  10.785 -0.3177 -0.7121 -0.4508
 7274SOL    HW233285   2.684   1.791  10.904  0.1361  2.4710 -0.6976
 7275SOL     OW33286   2.715   2.161   8.838 -0.6401  0.2337 -0.2285
 7275SOL    HW133287   2.766   2.243   8.835 -0.7146  0.2523 -0.9834
 7275SOL    HW233288   2.625   2.193   8.828 -0.5440  0.5975  0.0412
 7276SOL     OW33289   3.467   2.664   7.996  0.1633 -0.0941 -0.1417
 7276SOL    HW133290   3.403   2.611   7.949  0.8405 -3.3511  2.6218
 7276SOL    HW233291   3.503   2.605   8.062 -1.9596 -1.4506 -0.2220
 7277SOL     OW33292   4.420   2.058  16.556 -0.4657 -0.0767 -0.2184
 7277SOL    HW133293   4.492   2.120  16.557  0.1716 -0.8171 -0.7869
 7277SOL    HW233294   4.442   1.998  16.627  0.1379  0.5860  0.1591
 7278SOL     OW33295   1.072   1.736   0.895 -0.1023  0.5241 -0.0042
 7278SOL    HW133296   1.029   1.659   0.858 -1.1974  1.4759 -0.7343
 7278SOL    HW233297   1.033   1.810   0.849  0.8227  1.4716  0.7244
 7279SOL     OW33298   3.631   2.434   7.781  0.5503 -0.3027 -0.2239
 7279SOL    HW133299   3.642   2.430   7.876 -0.3808 -1.1023 -0.1479
 7279SOL    HW233300   3.564   2.368   7.763 -0.1167  0.9993 -2.4833
 7280SOL     OW33301   4.416   2.888   1.668  0.2889  0.2033  0.2510
 7280SOL    HW133302   4.377   2.876   1.755  2.3843  0.7884  1.2886
 7280SOL    HW233303   4.405   2.982   1.656  1.4486  0.4141  0.7644
 7281SOL     OW33304   4.099   0.655   8.431 -0.2655  0.0502  0.8504
 7281SOL    HW133305   4.171   0.592   8.435 -2.6241 -2.8825 -3.4024
 7281SOL    HW233306   4.028   0.596   8.404 -0.0026  0.1748 -0.0920
 7282SOL     OW33307   3.644   0.843   3.319  0.0309 -0.2373  0.5114
 7282SOL    HW133308   3.583   0.833   3.246 -0.6721  2.0467  0.7661
 7282SOL    HW233309   3.597   0.788   3.382 -0.7929 -0.8431 -0.6441
 7283SOL     OW33310   4.376   2.121  11.593 -0.1724  0.6394  0.3129
 7283SOL    HW133311   4.292   2.157  11.565  0.8431  0.9804 -2.2950
 7283SOL    HW233312   4.397   2.186  11.660  1.8197  0.4633 -0.1153
 7284SOL     OW33313   0.052   0.777   0.393 -0.3536  0.2718 -0.0605
 7284SOL    HW133314   4.704   0.837   0.373 -2.1034 -1.9408 -0.4419
 7284SOL    HW233315   0.111   0.809   0.325  0.9512  0.9309  1.3883
 7285SOL     OW33316   3.002   4.121   4.244  0.0144  0.0429  0.3475
 7285SOL    HW133317   2.974   4.056   4.180 -2.6734  0.9363  0.5890
 7285SOL    HW233318   3.085   4.154   4.211 -0.3773 -0.4906 -1.1450
 7286SOL     OW33319   2.460   4.142   0.197 -0.3371  0.3557  0.1460
 7286SOL    HW133320   2.546   4.142   0.155  0.0442 -0.2610  0.9464
 7286SOL    HW233321   2.411   4.086   0.136 -2.2736 -0.1648  2.1841
 7287SOL     OW33322   0.376   0.634   8.297 -0.4510 -0.0883  0.1368
 7287SOL    HW133323   0.470   0.625   8.311 -0.5404 -1.0970  0.0728
 7287SOL    HW233324   0.350   0.600   8.211  0.6302  0.8055 -0.5502
 7288SOL     OW33325   1.424   2.824   9.049  0.6985 -0.2316  0.5654
 7288SOL    HW133326   1.421   2.762   9.122  2.9545 -0.1171  0.7623
 7288SOL    HW233327   1.494   2.787   8.996 -2.0671  0.5297 -3.6455
 7289SOL     OW33328   0.283   2.476   3.263  0.1846 -0.2946  0.4776
 7289SOL    HW133329   0.291   2.397   3.316  0.6839 -0.2594  0.4562
 7289SOL    HW233330   0.192   2.504   3.272 -0.1924 -1.8496  1.5976
 7290SOL     OW33331   4.676   2.098  16.870 -0.2323 -0.2858 -0.0591
 7290SOL    HW133332   4.650   2.139  16.787 -0.1938  0.8477  0.5058
 7290SOL    HW233333   0.041   2.129  16.880  0.4881 -2.3578 -0.0767
 7291SOL     OW33334   2.267   3.735   9.754  0.2843  0.0193  0.1870
 7291SOL    HW133335   2.283   3.826   9.779 -0.4016  1.0304 -3.1174
 7291SOL    HW233336   2.324   3.730   9.677  1.6256 -0.8686  1.2290
 7292SOL     OW33337   1.712   2.151   6.963  0.7791 -0.6330  0.3697
 7292SOL    HW133338   1.693   2.242   6.940 -0.4779 -0.7027  1.1449
 7292SOL    HW233339   1.807   2.149   6.968  0.8394 -0.4571 -0.6186
 7293SOL     OW33340   1.310   3.729   9.523 -0.4934 -0.4890 -0.3283
 7293SOL    HW133341   1.235   3.675   9.498 -1.4842  0.8092 -0.1701
 7293SOL    HW233342   1.377   3.661   9.511 -0.4003 -0.1668 -1.6735
 7294SOL     OW33343   4.697   4.107  11.339 -0.2154  0.0364 -0.5696
 7294SOL    HW133344   0.008   4.045  11.274 -0.4563 -1.9398  1.1781
 7294SOL    HW233345   0.010   4.190  11.310  1.7874  0.0861  2.1828
 7295SOL     OW33346   1.616   0.837  11.423  0.1655  0.3885  0.4547
 7295SOL    HW133347   1.593   0.928  11.446 -0.6612  0.0699  0.8845
 7295SOL    HW233348   1.695   0.858  11.374  0.6210  1.9102  1.8156
 7296SOL     OW33349   2.948   3.278   5.329  0.0720 -0.3419  0.3959
 7296SOL    HW133350   3.009   3.257   5.259 -1.8326 -0.9518 -1.0688
 7296SOL    HW233351   3.014   3.291   5.398  0.0934 -0.6222  0.4262
 7297SOL     OW33352   4.707   0.675  11.784  0.7508  0.1328 -0.0052
 7297SOL    HW133353   4.713   0.589  11.744 -0.9943  0.8503 -1.8494
 7297SOL    HW233354   4.699   0.645  11.874 -0.6335  0.2615 -0.0801
 7298SOL     OW33355   3.384   2.177   2.235 -0.1291 -0.3661 -0.3489
 7298SOL    HW133356   3.458   2.236   2.247  1.5051 -2.5480  0.3418
 7298SOL    HW233357   3.359   2.159   2.326  1.6743  0.9508  0.3977
 7299SOL     OW33358   3.289   4.128   2.541 -0.4180  0.3218  1.5057
 7299SOL    HW133359   3.376   4.087   2.539  1.1045  3.6779 -0.6664
 7299SOL    HW233360   3.304   4.198   2.605 -0.6491  0.0382  1.8740
 7300SOL     OW33361   3.181   0.770  15.108  0.1918 -0.1118 -0.1221
 7300SOL    HW133362   3.132   0.700  15.065 -0.2808 -0.0579  0.3223
 7300SOL    HW233363   3.273   0.750  15.091  0.6011  0.2875  1.5937
 7301SOL     OW33364   0.945   3.363   3.385  0.3774 -0.0044 -0.3217
 7301SOL    HW133365   1.022   3.364   3.328 -0.2446 -1.9699 -1.1906
 7301SOL    HW233366   0.896   3.289   3.350 -0.1168  0.7382 -1.2010
 7302SOL     OW33367   0.258   1.161   2.396  0.1890  0.3010  0.1303
 7302SOL    HW133368   0.326   1.214   2.353 -0.0268 -1.2587 -2.1552
 7302SOL    HW233369   0.189   1.226   2.382 -0.5683 -0.5524 -0.0728
 7303SOL     OW33370   2.315   0.843   8.458 -0.3625  0.0396  0.5050
 7303SOL    HW133371   2.311   0.936   8.481  0.5137  0.2018  0.0105
 7303SOL    HW233372   2.409   0.827   8.450 -0.3320 -0.4878  1.8602
 7304SOL     OW33373   1.396   3.147   9.537  0.7843 -0.5662 -0.8065
 7304SOL    HW133374   1.478   3.135   9.585  0.9357 -0.6048 -1.0757
 7304SOL    HW233375   1.362   3.058   9.527  1.2687 -1.0722  2.0114
 7305SOL     OW33376   0.208   2.453   2.529  0.2755  0.2039 -0.2828
 7305SOL    HW133377   0.264   2.492   2.462  0.8171 -1.9772 -1.0814
 7305SOL    HW233378   0.144   2.519   2.558  0.0944 -0.6347  1.2072
 7306SOL     OW33379   4.391   0.132   0.343  0.2780  0.7861 -0.2270
 7306SOL    HW133380   4.336   0.210   0.327 -1.8453 -0.4205  1.1104
 7306SOL    HW233381   4.468   0.163   0.296  1.2514  2.2107  2.2803
 7307SOL     OW33382   2.816   4.209   9.497  0.1667 -0.5782  0.2078
 7307SOL    HW133383   2.831   4.177   9.408  2.0886 -0.5352  0.5093
 7307SOL    HW233384   2.900   4.249   9.519 -0.1626 -1.1473  2.4809
 7308SOL     OW33385   2.589   1.157   2.986  0.2545  0.1867  0.0968
 7308SOL    HW133386   2.618   1.090   3.048  0.8771  0.6217  0.2745
 7308SOL    HW233387   2.494   1.149   2.984  0.3139  0.0156 -1.7752
 7309SOL     OW33388   0.688   0.880   8.108  0.5958 -0.2167  0.1797
 7309SOL    HW133389   0.740   0.934   8.049 -1.6258 -0.8353 -2.3579
 7309SOL    HW233390   0.605   0.927   8.109  0.3066 -0.7128 -1.5569
 7310SOL     OW33391   0.472   0.756   4.163  0.4443  0.6743 -0.3790
 7310SOL    HW133392   0.512   0.803   4.236 -1.2603  2.7433 -0.7779
 7310SOL    HW233393   0.378   0.772   4.172  0.1721 -0.6153 -0.9195
 7311SOL     OW33394   2.316   2.895   3.413  0.3313  0.1885  0.2157
 7311SOL    HW133395   2.292   2.933   3.498  0.1425  1.5453 -0.4314
 7311SOL    HW233396   2.238   2.925   3.366  1.9167  1.0051 -1.8935
 7312SOL     OW33397   3.628   4.330  16.632 -0.0732  0.1891  0.0169
 7312SOL    HW133398   3.650   4.270  16.561  1.0016  1.3352 -0.6154
 7312SOL    HW233399   3.535   4.307  16.632 -1.0816  4.5432  3.8798
 7313SOL     OW33400   2.706   2.988  13.919  0.0430 -0.2831  0.7224
 7313SOL    HW133401   2.725   2.926  13.848 -0.7595 -2.5779  2.5330
 7313SOL    HW233402   2.622   3.028  13.897  1.7216  2.2404 -1.1616
 7314SOL     OW33403   2.274   2.826   4.881 -0.8623  0.0882 -0.2849
 7314SOL    HW133404   2.293   2.916   4.909 -2.4969 -0.0221  1.1427
 7314SOL    HW233405   2.204   2.838   4.816  0.1062 -0.8404 -1.4976
 7315SOL     OW33406   2.478   1.329   1.276 -0.0058 -0.4184  0.8867
 7315SOL    HW133407   2.442   1.375   1.352  0.7151 -1.0868  1.6391
 7315SOL    HW233408   2.545   1.285   1.328  0.1093  0.1929  1.2564
 7316SOL     OW33409   3.256   3.148   7.448  0.8419 -0.5459 -0.0540
 7316SOL    HW133410   3.216   3.100   7.376  0.5332  2.3188 -1.8218
 7316SOL    HW233411   3.295   3.077   7.498  0.7374 -0.3020  0.3684
 7317SOL     OW33412   1.530   1.795   6.599  0.3473  0.3382  0.3397
 7317SOL    HW133413   1.543   1.747   6.680 -0.4322 -0.5301 -0.0564
 7317SOL    HW233414   1.603   1.855   6.614  0.8937  0.4163 -2.5414
 7318SOL     OW33415   1.987   2.972   2.029  0.1998  0.7377 -0.1424
 7318SOL    HW133416   1.942   2.987   2.112  0.9894  1.2974  0.1957
 7318SOL    HW233417   2.040   3.052   2.019 -0.1368  1.1896  1.7524
 7319SOL     OW33418   2.057   1.822   8.031 -0.4372 -0.2930 -0.1651
 7319SOL    HW133419   2.004   1.876   8.090 -0.2004  0.2160 -0.4178
 7319SOL    HW233420   2.104   1.772   8.097 -1.0123  1.7771  1.8313
 7320SOL     OW33421   4.575   3.429  13.969  0.4528 -0.6195 -0.2850
 7320SOL    HW133422   4.482   3.416  13.989  0.8009  0.5126  2.0236
 7320SOL    HW233423   4.612   3.375  14.039 -0.4644  1.6058  1.9123
 7321SOL     OW33424   4.020   1.080   9.846  0.0841  0.0578  0.6480
 7321SOL    HW133425   4.020   1.168   9.885 -1.3604  0.1939  0.3282
 7321SOL    HW233426   3.948   1.099   9.786 -0.2301 -1.3413  0.5914
 7322SOL     OW33427   0.826   1.475   1.829  0.3330  0.4021 -0.4834
 7322SOL    HW133428   0.873   1.428   1.761  2.1959  0.9357  0.4517
 7322SOL    HW233429   0.737   1.455   1.801  0.0996  1.2883 -0.3840
 7323SOL     OW33430   4.003   0.824  15.339  0.3977  0.3000 -0.2049
 7323SOL    HW133431   4.001   0.823  15.435 -1.5778 -0.5573 -0.2622
 7323SOL    HW233432   4.001   0.730  15.323  2.5103  0.2621 -0.2447
 7324SOL     OW33433   2.750   2.998   8.479  0.3536 -0.1463  0.0038
 7324SOL    HW133434   2.678   2.950   8.440  0.0803 -1.0907  1.7113
 7324SOL    HW233435   2.709   3.064   8.534  2.5844 -0.0464  1.5549
 7325SOL     OW33436   4.521   1.420   7.761 -0.0240  0.1197  0.1631
 7325SOL    HW133437   4.609   1.431   7.727  0.1332  0.1312  0.5690
 7325SOL    HW233438   4.512   1.327   7.778 -0.3568 -0.1169 -1.3029
 7326SOL     OW33439   2.425   1.774   2.807  0.2338  0.1439 -0.1563
 7326SOL    HW133440   2.379   1.764   2.724 -1.2072  0.9478  0.5340
 7326SOL    HW233441   2.505   1.724   2.792 -0.3177 -0.1350 -2.0663
 7327SOL     OW33442   3.207   3.154   4.086  0.7393 -0.5721 -0.2959
 7327SOL    HW133443   3.272   3.204   4.037 -0.6525 -0.2553 -1.8549
 7327SOL    HW233444   3.144   3.144   4.014 -0.0013  1.9422 -0.0101
 7328SOL     OW33445   4.184   1.189   2.783 -0.4096  0.1055 -0.2794
 7328SOL    HW133446   4.192   1.284   2.791  1.7023 -0.2165  1.4651
 7328SOL    HW233447   4.249   1.176   2.714  1.2105 -1.3591  1.5499
 7329SOL     OW33448   0.892   0.578   6.794  0.4687  0.6972 -0.5575
 7329SOL    HW133449   0.815   0.633   6.780 -0.7981  0.2013  4.3182
 7329SOL    HW233450   0.957   0.625   6.742  0.1951  0.5302 -1.0563
 7330SOL     OW33451   1.312   3.377   4.265  0.9246 -0.1321  0.2005
 7330SOL    HW133452   1.222   3.408   4.251 -0.3052 -2.8353  2.0295
 7330SOL    HW233453   1.305   3.391   4.360  0.6700 -0.8214  0.2815
 7331SOL     OW33454   0.707   0.680   3.993 -0.1517 -0.3467 -0.7981
 7331SOL    HW133455   0.714   0.585   3.996 -1.5177 -0.4942 -2.0358
 7331SOL    HW233456   0.625   0.706   4.036  0.3926 -1.4497  0.8962
 7332SOL     OW33457   0.280   4.051   6.707  0.0323 -0.1292  0.0896
 7332SOL    HW133458   0.240   3.967   6.730 -0.2205 -0.0756 -0.1637
 7332SOL    HW233459   0.245   4.071   6.620 -1.4026 -2.9066  0.0127
 7333SOL     OW33460   1.822   0.889   3.185  0.1278  0.2274 -0.1495
 7333SOL    HW133461   1.870   0.921   3.108 -0.0888 -0.0107 -0.3800
 7333SOL    HW233462   1.893   0.888   3.249  0.2716 -0.3009 -0.3130
 7334SOL     OW33463   3.317   2.248  14.327  0.4293  0.9040  0.5415
 7334SOL    HW133464   3.378   2.285  14.263 -0.3443  1.4601  0.1234
 7334SOL    HW233465   3.237   2.254  14.274 -1.2301 -1.0944  2.8610
 7335SOL     OW33466   0.717   3.047  13.451  0.4214 -0.5797  0.5469
 7335SOL    HW133467   0.778   3.098  13.398 -1.6974  0.5721 -0.7796
 7335SOL    HW233468   0.763   3.038  13.535  0.2006  1.3955  0.8718
 7336SOL     OW33469   4.270   2.919  10.796  0.2138 -0.0039  0.1814
 7336SOL    HW133470   4.228   2.943  10.713  0.1491 -1.9182 -0.3303
 7336SOL    HW233471   4.192   2.875  10.831  1.0759 -0.2205  1.7891
 7337SOL     OW33472   4.073   4.540   9.532  0.1699  0.3433 -0.9655
 7337SOL    HW133473   4.123   4.460   9.521 -0.8624 -0.3976 -0.2345
 7337SOL    HW233474   4.040   4.538   9.621  1.0310 -0.4983 -0.6791
 7338SOL     OW33475   4.343   4.335   9.874 -0.5702 -0.1626  0.1947
 7338SOL    HW133476   4.412   4.293   9.823 -0.1725  1.5102 -0.6715
 7338SOL    HW233477   4.335   4.423   9.837  1.5452  0.3294  0.8971
 7339SOL     OW33478   1.915   0.492   3.914  0.6027  0.4288  0.2346
 7339SOL    HW133479   1.958   0.577   3.921 -1.8235  1.7274 -0.7144
 7339SOL    HW233480   1.919   0.472   3.821  2.0059  1.3429  0.0945
 7340SOL     OW33481   0.008   3.634   3.138 -0.3380  0.7240 -0.1973
 7340SOL    HW133482   0.000   3.606   3.047 -1.0932  0.6723 -0.1215
 7340SOL    HW233483   4.700   3.722   3.117  0.3152  0.2013 -3.2780
 7341SOL     OW33484   1.891   2.079   8.657  0.0279  0.5764 -0.0265
 7341SOL    HW133485   1.881   2.141   8.585  0.4869  0.9308  0.2119
 7341SOL    HW233486   1.811   2.100   8.706  0.2286 -0.3322  0.7051
 7342SOL     OW33487   3.388   0.988   5.451  0.1562  0.8960 -0.0785
 7342SOL    HW133488   3.324   1.028   5.391  1.0259  1.7772 -0.4316
 7342SOL    HW233489   3.335   0.920   5.491  1.6544  0.3128  0.9124
 7343SOL     OW33490   3.147   3.373   6.787  0.0992  0.3142  0.7810
 7343SOL    HW133491   3.180   3.456   6.820 -0.8839  0.2618  1.8861
 7343SOL    HW233492   3.205   3.377   6.712 -0.2963 -0.2420  0.4442
 7344SOL     OW33493   3.424   4.449   3.172 -0.1618  0.1253 -0.4095
 7344SOL    HW133494   3.441   4.459   3.266 -1.4632  1.3424 -0.3180
 7344SOL    HW233495   3.508   4.482   3.139  0.9183 -2.1310  0.0229
 7345SOL     OW33496   2.904   0.530  10.505  0.1976  0.2990 -0.3564
 7345SOL    HW133497   2.910   0.564  10.415 -0.5032  0.2837 -0.4083
 7345SOL    HW233498   2.982   0.574  10.539 -0.1606 -0.7179  1.7629
 7346SOL     OW33499   3.389   2.171   4.180  0.3986 -0.4829  0.6548
 7346SOL    HW133500   3.336   2.106   4.134  0.6968  0.2272 -0.7025
 7346SOL    HW233501   3.467   2.171   4.124  0.3748 -1.3195  0.6213
 7347SOL     OW33502   1.638   3.182   1.144  0.0412 -0.3640  0.3825
 7347SOL    HW133503   1.629   3.111   1.080 -0.9282  1.5063 -1.5655
 7347SOL    HW233504   1.564   3.236   1.115  2.5816  2.5303 -0.7340
 7348SOL     OW33505   4.552   2.070   6.622 -0.0764  0.2793  0.0138
 7348SOL    HW133506   4.600   2.141   6.580 -0.3625 -0.2762 -1.2337
 7348SOL    HW233507   4.527   2.006   6.556 -0.8437 -2.4989  2.9899
 7349SOL     OW33508   4.080   4.028   3.442  0.1459  0.0707 -0.5112
 7349SOL    HW133509   3.999   4.037   3.492 -0.1365  1.1098 -1.1586
 7349SOL    HW233510   4.156   4.053   3.495 -1.7053  0.6482  1.8421
 7350SOL     OW33511   1.620   2.977   0.952 -0.1340 -0.3610  0.1456
 7350SOL    HW133512   1.689   3.004   0.892  1.5441 -0.9012  1.8362
 7350SOL    HW233513   1.597   2.894   0.910  0.3629  0.4622 -1.7340
 7351SOL     OW33514   2.287   2.328   3.265 -0.0298  0.3390  0.1074
 7351SOL    HW133515   2.277   2.414   3.225  1.8706  0.7971  0.6502
 7351SOL    HW233516   2.214   2.285   3.220  0.8419 -1.0415 -0.0024
 7352SOL     OW33517   2.724   0.646  13.081 -0.0733 -0.1661 -0.0515
 7352SOL    HW133518   2.671   0.578  13.041 -1.1613 -1.1017  2.9539
 7352SOL    HW233519   2.790   0.600  13.133 -1.4098 -2.8656 -0.8072
 7353SOL     OW33520   4.261   1.977   5.678 -0.0170 -0.2509  0.5511
 7353SOL    HW133521   4.175   2.012   5.702 -0.6632  0.2828 -2.4700
 7353SOL    HW233522   4.267   2.008   5.587 -0.6177 -0.4784  0.4273
 7354SOL     OW33523   1.091   2.138   3.912 -0.9340 -0.5263  0.3869
 7354SOL    HW133524   1.087   2.142   4.007  1.0343 -2.8374  0.5709
 7354SOL    HW233525   1.036   2.210   3.882  0.1371  0.8558  1.7399
 7355SOL     OW33526   3.385   3.949   2.003  0.1567  0.0756 -0.6169
 7355SOL    HW133527   3.435   3.932   1.923 -1.2718 -2.1276 -1.0515
 7355SOL    HW233528   3.394   4.044   2.002  1.9680 -0.0758  0.3368
 7356SOL     OW33529   3.497   3.387   9.932  0.6433 -0.3361 -0.0100
 7356SOL    HW133530   3.571   3.377   9.991  0.3889  1.6322  0.6154
 7356SOL    HW233531   3.438   3.435   9.989  0.7970  0.0937 -0.2101
 7357SOL     OW33532   3.634   0.417  17.622 -0.4423 -0.2739 -0.1489
 7357SOL    HW133533   3.696   0.344  17.621  0.9519  0.9445 -0.8035
 7357SOL    HW233534   3.656   0.451   0.010  1.5689 -2.0792  0.0478
 7358SOL     OW33535   4.616   2.936   7.839 -0.3243 -0.2055  0.2051
 7358SOL    HW133536   4.621   2.922   7.745 -0.6981 -1.3012  0.3415
 7358SOL    HW233537   4.568   2.861   7.875 -2.3572  0.5884 -0.8787
 7359SOL     OW33538   2.955   1.396   4.826 -0.3258  0.2167  0.3510
 7359SOL    HW133539   2.970   1.303   4.845 -1.5802  0.2091  1.2418
 7359SOL    HW233540   3.039   1.423   4.788 -0.5448  1.0806  0.4878
 7360SOL     OW33541   2.934   2.884  10.670  0.0120 -0.3354  0.5886
 7360SOL    HW133542   2.848   2.845  10.685  0.2961 -0.8595  0.8861
 7360SOL    HW233543   2.960   2.841  10.588 -0.2919  0.8464 -0.1310
 7361SOL     OW33544   0.380   2.716   7.612 -0.5193  0.3599 -0.1687
 7361SOL    HW133545   0.331   2.637   7.589 -0.1672  0.1344 -0.1368
 7361SOL    HW233546   0.467   2.684   7.637 -0.2176  2.2538  1.1668
 7362SOL     OW33547   2.673   2.074   0.825 -0.1806  0.3853  0.0257
 7362SOL    HW133548   2.766   2.083   0.846  0.1187  0.8844 -1.4969
 7362SOL    HW233549   2.685   1.989   0.781  1.9857  0.9192 -0.3908
 7363SOL     OW33550   3.857   3.716   9.561 -0.1200  0.0580  0.3752
 7363SOL    HW133551   3.941   3.747   9.595  0.8318  0.5396 -2.4681
 7363SOL    HW233552   3.809   3.794   9.591  0.4126  0.5473 -0.0387
 7364SOL     OW33553   0.920   3.096   8.299 -0.2720  0.5265  0.1147
 7364SOL    HW133554   0.853   3.031   8.277  1.1630  0.2635 -3.5116
 7364SOL    HW233555   0.969   3.107   8.217 -4.4246  1.2522 -2.2646
 7365SOL     OW33556   2.308   4.396   2.867 -0.5471  0.0463 -0.0507
 7365SOL    HW133557   2.241   4.392   2.935  2.0806  0.8003  2.5915
 7365SOL    HW233558   2.329   4.304   2.853 -0.8826  0.3909 -2.8091
 7366SOL     OW33559   4.285   0.886   1.242  0.3968  0.1461 -0.0518
 7366SOL    HW133560   4.341   0.939   1.298  0.8920 -2.1222  1.5686
 7366SOL    HW233561   4.327   0.801   1.230  2.1996  0.9218  0.7992
 7367SOL     OW33562   3.069   2.215  13.442  0.1050 -0.1644 -0.1051
 7367SOL    HW133563   3.115   2.252  13.367  0.7346 -0.8074 -0.0311
 7367SOL    HW233564   3.039   2.132  13.403  0.4520  0.2994 -1.3344
 7368SOL     OW33565   3.216   4.687  11.706 -0.4700 -0.7368  0.5236
 7368SOL    HW133566   3.221   4.658  11.798 -1.1649  1.0850  1.1346
 7368SOL    HW233567   3.175   0.050  11.711 -2.6136 -1.6405 -1.3432
 7369SOL     OW33568   4.327   1.527   0.073  0.0116 -0.2131  0.1073
 7369SOL    HW133569   4.264   1.456   0.091 -0.3616 -0.1878 -1.1188
 7369SOL    HW233570   4.276   1.602   0.103  0.2277  0.6183 -1.6648
 7370SOL     OW33571   0.100   0.073   5.931 -0.3565  0.4567 -0.0608
 7370SOL    HW133572   0.125   0.002   5.990 -1.5369 -0.5459 -0.7631
 7370SOL    HW233573   0.180   0.126   5.936 -0.6341  0.6273  2.4723
 7371SOL     OW33574   3.532   3.698   4.829  0.8561  0.3518 -0.7597
 7371SOL    HW133575   3.602   3.763   4.838  2.0376 -1.1836  1.2077
 7371SOL    HW233576   3.531   3.658   4.916  3.3154  0.3290 -0.7273
 7372SOL     OW33577   3.119   1.532  14.695 -0.3821 -0.3059  0.2085
 7372SOL    HW133578   3.044   1.475  14.680 -2.4558  2.6320 -0.4700
 7372SOL    HW233579   3.166   1.491  14.768  2.8259  0.4319 -1.4077
 7373SOL     OW33580   3.552   2.743   3.229  0.1348 -0.0095  0.0497
 7373SOL    HW133581   3.524   2.824   3.272 -0.2214 -1.0633  1.7901
 7373SOL    HW233582   3.624   2.733   3.291 -1.1531 -0.7712  1.4125
 7374SOL     OW33583   2.218   4.541   7.354 -0.3016  0.4289  0.2270
 7374SOL    HW133584   2.183   4.457   7.382  1.2037 -0.0211  0.7710
 7374SOL    HW233585   2.312   4.530   7.369 -0.4697 -2.2584 -0.7303
 7375SOL     OW33586   2.327   0.624  11.323 -0.6822  0.4213  0.7346
 7375SOL    HW133587   2.385   0.667  11.260 -0.8578  2.5999  2.0646
 7375SOL    HW233588   2.369   0.651  11.404  1.1555 -0.0754 -0.0514
 7376SOL     OW33589   4.630   2.965  16.654  0.0264  0.1426 -0.1231
 7376SOL    HW133590   4.622   3.046  16.705  2.0343 -0.1558  0.6611
 7376SOL    HW233591   4.712   2.986  16.609  0.0304  1.1752  0.3517
 7377SOL     OW33592   3.899   0.241   8.256 -0.0868 -0.2293  0.3280
 7377SOL    HW133593   3.927   0.248   8.165 -0.8657 -0.5716  0.0617
 7377SOL    HW233594   3.894   0.333   8.284 -0.3927 -0.8232  2.2564
 7378SOL     OW33595   3.851   2.014  16.877 -0.1850 -0.8295 -1.1905
 7378SOL    HW133596   3.938   1.975  16.885  0.3506  0.5049 -0.3381
 7378SOL    HW233597   3.795   1.940  16.854  1.9590 -2.3310 -1.5905
 7379SOL     OW33598   0.912   3.261   9.154 -0.6071 -0.4619 -0.5332
 7379SOL    HW133599   0.979   3.236   9.217 -0.0702 -0.0770 -0.9619
 7379SOL    HW233600   0.838   3.215   9.195 -1.2984  0.5784 -0.6060
 7380SOL     OW33601   3.447   4.033   1.482 -0.0889 -0.5674  0.1476
 7380SOL    HW133602   3.358   4.007   1.460  0.1778 -1.3272 -0.0363
 7380SOL    HW233603   3.495   3.951   1.473  3.1517  1.6164 -2.2659
 7381SOL     OW33604   2.196   0.690   8.644  0.2276 -0.0561 -0.2598
 7381SOL    HW133605   2.228   0.733   8.565  1.2865 -0.9878 -0.3279
 7381SOL    HW233606   2.275   0.683   8.697  0.0128  0.6774  0.1703
 7382SOL     OW33607   0.906   2.891   6.810  0.0378 -0.2329  0.0349
 7382SOL    HW133608   0.990   2.931   6.834  0.0304 -0.9481  1.2555
 7382SOL    HW233609   0.939   2.825   6.748 -3.2276 -2.1602  0.3697
 7383SOL     OW33610   4.715   1.245   5.163 -0.3980 -0.4482 -0.0794
 7383SOL    HW133611   0.008   1.187   5.238  2.5316 -0.7327 -0.9953
 7383SOL    HW233612   0.007   1.191   5.087  0.3235 -0.7827  0.3161
 7384SOL     OW33613   3.050   1.387  15.461  0.1410  0.3732  0.0792
 7384SOL    HW133614   3.062   1.295  15.439  1.5637  0.6504 -0.2932
 7384SOL    HW233615   3.097   1.388  15.545 -0.8374 -2.8481  0.6800
 7385SOL     OW33616   1.136   3.575   1.840  0.4448 -0.6288 -0.0212
 7385SOL    HW133617   1.135   3.634   1.915  0.2323 -0.8432  0.1435
 7385SOL    HW233618   1.231   3.582   1.832  0.3555 -0.9821 -1.3400
 7386SOL     OW33619   2.661   1.792   6.071 -0.1014 -0.0949  0.4329
 7386SOL    HW133620   2.581   1.741   6.058  0.1323 -1.0070  2.5781
 7386SOL    HW233621   2.700   1.751   6.148  0.7832 -2.3422 -1.2003
 7387SOL     OW33622   4.386   0.698  11.773 -0.4022  0.2499 -0.6623
 7387SOL    HW133623   4.334   0.702  11.693 -1.9118  1.5439  0.3922
 7387SOL    HW233624   4.333   0.755  11.829  0.9398  1.0960 -0.2451
 7388SOL     OW33625   2.361   0.588  10.776 -1.2450  0.0009  0.4161
 7388SOL    HW133626   2.372   0.671  10.729 -1.6924 -2.5969 -4.2447
 7388SOL    HW233627   2.369   0.623  10.865  1.8097  1.8534 -0.6134
 7389SOL     OW33628   1.768   2.966  12.314  0.9989 -0.2947  0.1100
 7389SOL    HW133629   1.711   2.928  12.381 -1.2412  0.0866 -1.5423
 7389SOL    HW233630   1.708   2.992  12.243  0.9723  0.0631  0.2621
 7390SOL     OW33631   1.648   0.175   3.626 -0.9059 -0.5060  0.2903
 7390SOL    HW133632   1.686   0.235   3.690 -0.2728 -0.9615  0.3458
 7390SOL    HW233633   1.662   0.212   3.538  1.8943  0.2783  1.0560
 7391SOL     OW33634   2.420   0.893   4.449  0.3613 -0.2498  0.2878
 7391SOL    HW133635   2.350   0.828   4.455  0.8445 -0.8358 -0.4560
 7391SOL    HW233636   2.450   0.892   4.539  0.8816  0.4660  0.1210
 7392SOL     OW33637   3.857   2.627   5.617 -0.0458  0.1550 -0.3294
 7392SOL    HW133638   3.829   2.542   5.582  0.2342  0.2530 -0.8002
 7392SOL    HW233639   3.823   2.683   5.547 -0.8867 -1.8329 -1.5101
 7393SOL     OW33640   1.006   3.453   8.233  0.5713  0.5661 -0.4490
 7393SOL    HW133641   1.063   3.378   8.216  2.0238  2.0440 -2.1944
 7393SOL    HW233642   1.030   3.473   8.324  3.0340 -0.2030 -0.9279
 7394SOL     OW33643   0.054   3.048   0.061 -0.3768  0.1937 -0.5964
 7394SOL    HW133644   0.052   2.976   0.124  1.1980 -0.5351 -1.3835
 7394SOL    HW233645   4.695   3.069   0.020 -1.0494 -1.3627 -0.0325
 7395SOL     OW33646   4.036   2.793  17.283  0.3492 -0.2651 -0.0616
 7395SOL    HW133647   3.979   2.851  17.233 -0.5241 -0.3594  0.8267
 7395SOL    HW233648   3.989   2.786  17.366 -0.1906  1.0978 -0.2546
 7396SOL     OW33649   1.092   0.649   2.087 -0.2524 -0.3501 -0.2979
 7396SOL    HW133650   1.113   0.684   2.173  0.5015 -0.5566 -0.3983
 7396SOL    HW233651   1.160   0.583   2.072 -2.0154 -2.2703  0.2064
 7397SOL     OW33652   0.075   1.873   7.754  0.2826  0.6544 -0.1444
 7397SOL    HW133653   0.100   1.781   7.759 -0.3371  0.6998  3.6076
 7397SOL    HW233654   0.005   1.875   7.819 -2.4059 -1.0934 -3.0021
 7398SOL     OW33655   2.979   2.206   3.786  0.0120  0.5400 -0.3084
 7398SOL    HW133656   2.945   2.117   3.796  0.7221  0.2581 -0.4184
 7398SOL    HW233657   3.056   2.181   3.736  0.2707 -0.2812  0.5080
 7399SOL     OW33658   3.655   4.430   8.047  0.5250 -0.7902 -0.1266
 7399SOL    HW133659   3.725   4.445   8.111  2.3288  2.0061 -2.7367
 7399SOL    HW233660   3.707   4.429   7.966 -0.7072 -0.6255 -0.9099
 7400SOL     OW33661   0.560   3.590   7.392 -0.1115 -0.1297 -0.4262
 7400SOL    HW133662   0.604   3.508   7.416  1.4597  1.2643  1.4775
 7400SOL    HW233663   0.471   3.586   7.425 -0.5085 -2.3807 -1.7668
 7401SOL     OW33664   2.750   4.378   5.573  0.0734 -0.8906 -0.0792
 7401SOL    HW133665   2.686   4.335   5.631  2.0980 -2.9833  0.6217
 7401SOL    HW233666   2.744   4.321   5.497 -0.3497  1.2162 -1.6111
 7402SOL     OW33667   1.090   2.347  11.208 -0.7339 -0.1537  0.0411
 7402SOL    HW133668   1.010   2.295  11.217  0.5275 -1.9716  0.6415
 7402SOL    HW233669   1.055   2.431  11.239  0.0354 -0.4619  1.7379
 7403SOL     OW33670   3.832   2.294   3.316  0.2698 -0.2728  0.0855
 7403SOL    HW133671   3.847   2.202   3.336 -0.7837 -0.1612  1.3640
 7403SOL    HW233672   3.755   2.297   3.259 -1.3699 -4.0858  2.1094
 7404SOL     OW33673   4.042   4.049  14.247 -0.6157 -0.4037  0.4337
 7404SOL    HW133674   3.970   4.082  14.301 -1.0320  1.5675 -1.2986
 7404SOL    HW233675   4.029   4.091  14.161  1.8478  0.8548  0.6788
 7405SOL     OW33676   2.591   4.244   7.167  0.3758 -0.3220  0.7028
 7405SOL    HW133677   2.570   4.244   7.260 -1.0449 -0.2294  0.3782
 7405SOL    HW233678   2.642   4.325   7.156 -2.1935  1.3008  0.7152
 7406SOL     OW33679   4.682   3.603   7.021  0.2835 -0.3652  0.1093
 7406SOL    HW133680   4.604   3.625   6.971  0.5834  0.8494  0.1675
 7406SOL    HW233681   4.661   3.510   7.033  1.7468 -0.5905  0.9290
 7407SOL     OW33682   4.048   4.707   1.841 -0.0763 -0.0594 -0.0442
 7407SOL    HW133683   4.132   4.671   1.871 -0.6575  0.4344  2.1596
 7407SOL    HW233684   4.040   4.658   1.759  1.3883 -0.4676  0.0399
 7408SOL     OW33685   4.604   4.539  12.189 -0.1373  0.2940 -0.5696
 7408SOL    HW133686   4.636   4.594  12.118  3.9994 -1.0249  0.2487
 7408SOL    HW233687   4.510   4.554  12.175 -0.6063 -1.1300  1.0722
 7409SOL     OW33688   4.546   2.044   1.554  0.1070  0.1432 -0.3425
 7409SOL    HW133689   4.507   2.087   1.478  0.7378  0.5928 -0.4128
 7409SOL    HW233690   4.637   2.035   1.524  0.4166  2.9998 -0.2925
 7410SOL     OW33691   1.438   1.019   5.252  0.3207 -0.0044  0.2503
 7410SOL    HW133692   1.422   0.931   5.286 -0.0977 -0.1935 -0.4348
 7410SOL    HW233693   1.523   1.003   5.213  0.4592  0.1813  0.4782
 7411SOL     OW33694   4.334   0.685   5.363 -0.3470 -0.5500  0.0432
 7411SOL    HW133695   4.244   0.685   5.394 -0.5520 -0.8435 -0.5615
 7411SOL    HW233696   4.352   0.603   5.318 -3.3186 -1.5912  0.7995
 7412SOL     OW33697   0.101   0.720   5.666 -0.4670 -0.1196 -0.0668
 7412SOL    HW133698   0.077   0.671   5.587  0.8690  0.6114 -0.9277
 7412SOL    HW233699   0.136   0.797   5.621  0.0712  0.2736  1.0237
 7413SOL     OW33700   2.362   3.278   4.229  0.2061  0.2415 -0.5774
 7413SOL    HW133701   2.289   3.325   4.189  0.2861  0.2711 -0.6885
 7413SOL    HW233702   2.341   3.286   4.322  2.4009 -0.4811 -0.0138
 7414SOL     OW33703   1.139   3.906  14.503  0.1288 -0.2530  0.1834
 7414SOL    HW133704   1.172   3.979  14.450 -0.2028  0.4681  0.9681
 7414SOL    HW233705   1.211   3.844  14.508 -1.4828 -2.2517 -1.3086
 7415SOL     OW33706   1.280   2.209  11.056  0.7208  0.1153  0.0100
 7415SOL    HW133707   1.212   2.257  11.104  1.4138  2.7328 -1.5873
 7415SOL    HW233708   1.307   2.150  11.126 -0.4619  0.4092  0.7263
 7416SOL     OW33709   3.987   3.779  16.725 -0.4722  0.4722 -0.6453
 7416SOL    HW133710   3.926   3.826  16.781  1.1139  0.4708  1.1119
 7416SOL    HW233711   4.064   3.808  16.775  0.6608  1.0291 -2.7114
 7417SOL     OW33712   2.622   4.444   6.650  0.3659  0.5115  0.1849
 7417SOL    HW133713   2.623   4.512   6.584 -1.7997 -1.9857 -2.4228
 7417SOL    HW233714   2.590   4.372   6.596 -0.0420 -0.8257  2.1780
 7418SOL     OW33715   4.436   1.258  15.595  0.4464 -0.5055 -0.1315
 7418SOL    HW133716   4.525   1.292  15.595 -0.5685  2.1954 -1.2578
 7418SOL    HW233717   4.432   1.196  15.522  0.9626 -0.2210 -0.4011
 7419SOL     OW33718   4.647   2.632   7.443 -0.1606 -0.2254  0.3393
 7419SOL    HW133719   4.711   2.687   7.488  1.6681 -1.5589 -0.6014
 7419SOL    HW233720   4.689   2.546   7.434  1.2788  0.3881  1.1627
 7420SOL     OW33721   1.118   4.118   8.588 -0.0263  0.0617 -0.6047
 7420SOL    HW133722   1.164   4.192   8.627  0.2124  0.1488 -1.0467
 7420SOL    HW233723   1.168   4.043   8.620 -0.6678 -1.4720 -3.2214
 7421SOL     OW33724   1.161   1.249   8.832  0.3773 -0.1456  0.5524
 7421SOL    HW133725   1.189   1.177   8.889  1.3406 -0.9314 -0.9087
 7421SOL    HW233726   1.219   1.321   8.857 -1.4657  2.0754 -1.5747
 7422SOL     OW33727   4.183   1.549   2.841  0.0147 -0.3140  0.0637
 7422SOL    HW133728   4.125   1.585   2.774  0.0255 -0.0579  0.1883
 7422SOL    HW233729   4.119   1.538   2.911  1.7890  2.6643  2.2060
 7423SOL     OW33730   2.374   1.461   2.804  0.0540  0.1886 -0.0246
 7423SOL    HW133731   2.397   1.405   2.730  0.6914 -1.1178  1.1574
 7423SOL    HW233732   2.444   1.439   2.865  0.1503 -0.5080 -0.3906
 7424SOL     OW33733   3.985   4.086   5.633 -0.5660  0.2478 -0.5107
 7424SOL    HW133734   3.960   4.094   5.541  0.7514  2.1977 -0.7165
 7424SOL    HW233735   3.962   3.997   5.657  0.3459 -0.1576 -1.1262
 7425SOL     OW33736   4.039   0.176   2.024 -0.3028 -0.2984 -0.4016
 7425SOL    HW133737   4.027   0.114   1.952  2.8672 -0.8550 -0.4637
 7425SOL    HW233738   4.062   0.252   1.971 -0.2865  0.1238  0.2090
 7426SOL     OW33739   2.321   0.185  13.243 -0.4536  0.8748  0.2456
 7426SOL    HW133740   2.390   0.180  13.309  0.9415  0.3621 -1.2687
 7426SOL    HW233741   2.243   0.146  13.284 -2.2377  2.9467 -1.1703
 7427SOL     OW33742   3.033   2.869   3.781 -0.2917  0.3201 -0.2545
 7427SOL    HW133743   3.094   2.849   3.852 -2.2000 -1.8918  0.7462
 7427SOL    HW233744   3.040   2.963   3.768 -1.4905  0.4862  0.3069
 7428SOL     OW33745   1.306   3.950   8.718  0.7199 -0.4206  0.1610
 7428SOL    HW133746   1.377   3.980   8.775  1.1165  0.7508 -0.9738
 7428SOL    HW233747   1.251   3.900   8.779  1.8808 -0.1546  1.4473
 7429SOL     OW33748   3.993   0.403   8.559 -0.0048 -0.1139 -0.6538
 7429SOL    HW133749   4.015   0.464   8.629  0.1829 -0.4588 -0.4149
 7429SOL    HW233750   4.042   0.329   8.595  2.1593  1.0306 -1.2245
 7430SOL     OW33751   4.666   2.140   4.170 -0.2181 -0.3475 -0.7391
 7430SOL    HW133752   4.721   2.073   4.211  0.6781  0.5096 -0.5349
 7430SOL    HW233753   4.582   2.098   4.152 -0.7160 -0.1103  1.0020
 7431SOL     OW33754   1.720   2.502  10.879  0.6556  0.1270  0.2161
 7431SOL    HW133755   1.644   2.457  10.916  0.6141  0.6411  0.7430
 7431SOL    HW233756   1.785   2.452  10.930 -0.8668 -1.1121  0.9539
 7432SOL     OW33757   4.633   1.717   6.960 -0.3192 -0.0131  0.9990
 7432SOL    HW133758   4.667   1.800   6.928 -0.6862 -1.1587 -2.3929
 7432SOL    HW233759   4.541   1.743   6.951  0.2584  1.7121  0.0530
 7433SOL     OW33760   0.413   2.094   2.726  0.0622  0.0003  0.1386
 7433SOL    HW133761   0.328   2.123   2.694 -0.5549  0.4891  2.1930
 7433SOL    HW233762   0.452   2.136   2.650 -0.6170  0.1012 -0.1527
 7434SOL     OW33763   2.371   3.673   5.204 -0.1143  0.0657 -0.1513
 7434SOL    HW133764   2.346   3.748   5.151  0.2449  0.6508  0.5017
 7434SOL    HW233765   2.447   3.648   5.152  1.0063  0.8155  1.1165
 7435SOL     OW33766   4.416   2.029  13.470 -0.0539 -0.5935  0.4237
 7435SOL    HW133767   4.463   2.083  13.534  0.0050 -0.5797  0.3678
 7435SOL    HW233768   4.452   2.067  13.390 -0.9199  0.9300  0.7357
 7436SOL     OW33769   3.424   0.379   8.520  0.0827  0.4590 -0.3631
 7436SOL    HW133770   3.450   0.290   8.499  0.4622  0.0702  1.6837
 7436SOL    HW233771   3.512   0.415   8.532  1.3926 -2.4047 -1.6850
 7437SOL     OW33772   3.601   2.656   7.606  0.5877 -0.0879 -0.8045
 7437SOL    HW133773   3.621   2.590   7.673 -1.7011 -0.1895 -0.2193
 7437SOL    HW233774   3.631   2.600   7.535  1.3957 -0.5738 -0.0734
 7438SOL     OW33775   2.659   2.458   3.913 -0.6531 -0.4755 -0.2153
 7438SOL    HW133776   2.656   2.399   3.837  0.6236 -1.6348  0.6375
 7438SOL    HW233777   2.645   2.548   3.883 -1.1591 -0.1562  0.9861
 7439SOL     OW33778   1.776   4.101   5.497 -0.2045 -0.6105  0.2148
 7439SOL    HW133779   1.781   4.024   5.441  1.1386 -0.8513  0.6585
 7439SOL    HW233780   1.727   4.162   5.443 -1.5392 -0.5634  1.4798
 7440SOL     OW33781   2.150   1.381   7.283 -0.0768  0.5869 -0.3114
 7440SOL    HW133782   2.081   1.336   7.332  0.3741 -2.4715 -2.5040
 7440SOL    HW233783   2.117   1.471   7.293 -2.5578 -0.2284 -1.4695
 7441SOL     OW33784   0.109   2.272  13.616  0.7169  0.4293 -0.3051
 7441SOL    HW133785   0.201   2.246  13.618  0.6619  0.3994  1.7237
 7441SOL    HW233786   0.103   2.337  13.546 -0.9574  2.4320  1.7065
 7442SOL     OW33787   3.932   4.222  12.514 -0.4956 -0.0854 -0.0433
 7442SOL    HW133788   3.903   4.190  12.428 -0.3747  0.1507 -0.1723
 7442SOL    HW233789   3.853   4.248  12.561  0.5683  0.5267  1.4095
 7443SOL     OW33790   3.377   2.973   8.713 -0.6005  0.0404  0.1472
 7443SOL    HW133791   3.410   3.055   8.675  0.3436 -0.6150 -0.4474
 7443SOL    HW233792   3.333   2.999   8.793  0.3179 -0.6452  0.8697
 7444SOL     OW33793   2.417   2.036   0.496  0.4906 -0.4205  0.5275
 7444SOL    HW133794   2.331   2.062   0.528 -0.8683 -1.6609 -2.1173
 7444SOL    HW233795   2.476   2.105   0.526  0.6758 -1.5641  2.7836
 7445SOL     OW33796   0.282   2.053   9.222 -0.4404 -0.0204 -0.5002
 7445SOL    HW133797   0.207   2.068   9.280 -1.3319  0.5669 -1.7892
 7445SOL    HW233798   0.301   2.141   9.190  0.4349 -0.7190 -1.8957
 7446SOL     OW33799   0.414   2.572   5.580 -0.0118  0.1019 -0.6009
 7446SOL    HW133800   0.431   2.508   5.511  1.8135 -0.0878  0.0335
 7446SOL    HW233801   0.426   2.655   5.533  1.6087  0.2551  0.0761
 7447SOL     OW33802   2.878   0.849  13.046  0.3694  0.1344  0.0333
 7447SOL    HW133803   2.822   0.774  13.066 -2.1036  2.2124  0.8845
 7447SOL    HW233804   2.889   0.825  12.954  1.0171  1.3917 -0.2122
 7448SOL     OW33805   2.574   0.215   2.223 -0.0023  0.1366 -0.3303
 7448SOL    HW133806   2.505   0.272   2.188 -0.0771  0.9151  1.0931
 7448SOL    HW233807   2.657   0.228   2.176 -0.5777  1.9497 -0.8430
 7449SOL     OW33808   4.414   4.572  10.401 -0.6268 -0.1492  0.1483
 7449SOL    HW133809   4.459   4.646  10.360 -1.9071  0.6746  0.2600
 7449SOL    HW233810   4.341   4.619  10.440 -0.8420  0.7162 -1.3004
 7450SOL     OW33811   2.937   0.872   9.032 -0.4472  0.3027  0.3208
 7450SOL    HW133812   2.932   0.868   9.128  1.1881  1.2072  0.4407
 7450SOL    HW233813   3.015   0.820   9.015  0.2846  1.4683  0.1244
 7451SOL     OW33814   1.866   3.097   8.321 -0.3659  0.1690 -0.1456
 7451SOL    HW133815   1.954   3.113   8.287  0.1552 -0.4523  0.9285
 7451SOL    HW233816   1.808   3.143   8.260  0.8460  0.8391 -0.7903
 7452SOL     OW33817   0.929   3.096   7.166  0.1311  0.1874 -0.5802
 7452SOL    HW133818   0.932   3.028   7.233  1.6875 -0.5861 -1.4486
 7452SOL    HW233819   0.999   3.060   7.112  1.3496  0.2920  0.9617
 7453SOL     OW33820   0.986   3.405  13.451 -0.4825 -0.0758  0.0489
 7453SOL    HW133821   0.955   3.385  13.540  0.5482  0.6575  0.5764
 7453SOL    HW233822   0.962   3.324  13.407 -0.0859  1.2387 -2.5685
 7454SOL     OW33823   2.645   3.651   3.930 -0.2043 -0.2824 -0.5059
 7454SOL    HW133824   2.552   3.673   3.935  0.0223  0.6518 -0.4167
 7454SOL    HW233825   2.672   3.717   3.866  1.3547 -0.3277  0.1019
 7455SOL     OW33826   1.992   2.343  16.006 -0.6876 -0.5625  0.2471
 7455SOL    HW133827   1.928   2.320  16.074 -2.3168  0.1189 -1.0531
 7455SOL    HW233828   1.958   2.411  15.948  0.9311  1.0369  1.1818
 7456SOL     OW33829   2.530   1.693  10.401 -0.0756  0.3661 -0.5125
 7456SOL    HW133830   2.590   1.713  10.472  1.6544  0.2584 -1.9477
 7456SOL    HW233831   2.477   1.625  10.443  0.5598  0.5298  0.5406
 7457SOL     OW33832   4.660   1.654   7.445  0.4688 -0.3936  0.1549
 7457SOL    HW133833   4.625   1.726   7.393 -0.1505 -0.5205  0.3912
 7457SOL    HW233834   0.009   1.699   7.487  0.4541 -1.3188  1.1787
 7458SOL     OW33835   0.609   3.259   7.751 -0.4067  0.1073 -0.4909
 7458SOL    HW133836   0.573   3.192   7.809 -0.4352 -0.2744 -0.9505
 7458SOL    HW233837   0.538   3.322   7.747 -0.3988  0.1774  0.5066
 7459SOL     OW33838   0.915   0.173   2.755 -0.2491  0.0950 -0.1168
 7459SOL    HW133839   0.979   0.151   2.822 -2.3868 -0.7284  1.6398
 7459SOL    HW233840   0.966   0.218   2.687 -2.1731 -1.3570 -2.5100
 7460SOL     OW33841   4.154   4.590   7.165 -0.0687  0.1870  0.3448
 7460SOL    HW133842   4.106   4.635   7.235 -0.7703 -2.1242  1.3532
 7460SOL    HW233843   4.224   4.542   7.209  1.1710  3.2161  1.7128
 7461SOL     OW33844   3.262   3.226  13.314  0.0249  0.5370 -0.3531
 7461SOL    HW133845   3.342   3.233  13.365  1.3076  0.9675 -2.4141
 7461SOL    HW233846   3.286   3.143  13.272 -0.6302  0.7781 -1.2277
 7462SOL     OW33847   2.814   3.942   1.831  0.4547 -0.2744 -0.0455
 7462SOL    HW133848   2.870   3.874   1.869 -1.6066 -0.7976  2.0158
 7462SOL    HW233849   2.800   3.921   1.739 -0.9983  1.3607 -0.1918
 7463SOL     OW33850   1.610   2.106   2.872  0.0243 -0.3883  0.0567
 7463SOL    HW133851   1.551   2.112   2.797  0.8609  0.3819 -0.5356
 7463SOL    HW233852   1.643   2.196   2.875  1.2589 -0.8029 -0.7847
 7464SOL     OW33853   4.400   3.224   7.125  0.0201  0.3672  0.4004
 7464SOL    HW133854   4.355   3.303   7.095  1.9095  1.3092 -0.0285
 7464SOL    HW233855   4.383   3.219   7.219  0.9672 -1.4762  0.4694
 7465SOL     OW33856   4.328   3.570  12.468 -0.0312  0.4400 -0.2997
 7465SOL    HW133857   4.423   3.570  12.474 -0.0723  0.4739  0.2919
 7465SOL    HW233858   4.330   3.594  12.375  2.3988  0.4457 -0.2374
 7466SOL     OW33859   0.299   0.014  11.545  0.1160  0.2529  0.6090
 7466SOL    HW133860   0.312   0.106  11.521  0.8250  0.7695  3.0149
 7466SOL    HW233861   0.388   4.703  11.547  0.2357  0.4996 -0.3373
 7467SOL     OW33862   1.620   3.626  16.922 -0.1835 -0.2221  0.3417
 7467SOL    HW133863   1.542   3.679  16.937  0.3156  0.4562  0.5342
 7467SOL    HW233864   1.673   3.659  16.994  3.0077  0.6860 -2.3906
 7468SOL     OW33865   3.224   1.204   2.921 -0.4058  0.1819 -0.0760
 7468SOL    HW133866   3.310   1.172   2.946 -1.3918 -1.7929  0.8243
 7468SOL    HW233867   3.248   1.233   2.833 -1.2152  1.0897  0.0029
 7469SOL     OW33868   1.579   2.299   3.293  0.3438  0.1199  0.6053
 7469SOL    HW133869   1.486   2.316   3.304  0.2018 -0.2823  0.0299
 7469SOL    HW233870   1.584   2.288   3.198 -2.0430  2.6928  0.1943
 7470SOL     OW33871   0.842   0.891  12.741 -0.8984  0.4714  0.0723
 7470SOL    HW133872   0.781   0.938  12.685 -0.3710  0.1783 -0.7513
 7470SOL    HW233873   0.908   0.956  12.764 -0.9169  0.4756  0.1135
 7471SOL     OW33874   3.720   1.751   5.632  0.0467 -0.0655  0.0775
 7471SOL    HW133875   3.770   1.779   5.556 -0.6270  0.6972 -0.0913
 7471SOL    HW233876   3.762   1.670   5.660 -1.2181 -1.0621 -0.8914
 7472SOL     OW33877   2.423   1.776   5.824 -0.1339 -0.0274 -0.0241
 7472SOL    HW133878   2.440   1.713   5.894 -0.9189 -0.1648  0.0512
 7472SOL    HW233879   2.479   1.746   5.753  0.5198 -0.0058  0.4880
 7473SOL     OW33880   1.948   3.070  10.108 -0.0756  0.5017  0.1569
 7473SOL    HW133881   1.904   3.128  10.046  0.7949  2.9422  1.8133
 7473SOL    HW233882   1.882   3.004  10.130  1.8421 -0.5574  2.8068
 7474SOL     OW33883   3.241   1.619  14.448  0.9733 -0.0005  0.1363
 7474SOL    HW133884   3.227   1.614  14.543 -1.9680 -1.0877 -0.3676
 7474SOL    HW233885   3.213   1.709  14.428  0.0795 -0.9814 -2.9655
 7475SOL     OW33886   0.185   3.473   6.252  0.8227 -0.2517  0.5189
 7475SOL    HW133887   0.252   3.448   6.315  1.8678  2.3706  0.4511
 7475SOL    HW233888   0.139   3.531   6.312  1.0707 -1.0659  1.4860
 7476SOL     OW33889   2.521   3.063   3.683 -0.2626  0.3910  0.2686
 7476SOL    HW133890   2.514   3.157   3.701 -1.7658  0.1961  0.6648
 7476SOL    HW233891   2.583   3.044   3.754  1.0565  1.6032 -0.5553
 7477SOL     OW33892   3.351   1.019   3.488 -0.3860 -0.7466 -0.4013
 7477SOL    HW133893   3.385   0.953   3.549 -2.2625 -2.1128 -0.8285
 7477SOL    HW233894   3.407   1.091   3.516 -2.2722  0.2596  0.7759
 7478SOL     OW33895   4.296   4.146   0.589  0.0719 -0.0254 -0.3823
 7478SOL    HW133896   4.273   4.115   0.502 -2.0164 -0.4033  0.3221
 7478SOL    HW233897   4.245   4.226   0.602  1.9176  1.1277 -0.1910
 7479SOL     OW33898   1.905   2.171   1.947  0.4416  0.4251  0.2088
 7479SOL    HW133899   1.886   2.107   1.877 -0.6923 -0.6933  1.5343
 7479SOL    HW233900   1.888   2.253   1.900 -0.2984 -1.0316 -2.1042
 7480SOL     OW33901   3.334   1.379   3.149 -0.1962  0.4332  0.0202
 7480SOL    HW133902   3.283   1.435   3.207 -0.5491  0.6075 -0.4529
 7480SOL    HW233903   3.307   1.292   3.179 -3.2354  0.6507 -2.1365
 7481SOL     OW33904   0.695   2.968   8.095  0.4612 -0.1787 -0.2772
 7481SOL    HW133905   0.626   2.908   8.126 -1.0047  1.2767 -0.7293
 7481SOL    HW233906   0.638   3.043   8.079  0.4580 -0.3915 -1.2558
 7482SOL     OW33907   2.594   4.335   6.327  0.0772  0.4243 -0.1736
 7482SOL    HW133908   2.518   4.370   6.374  0.7304 -0.0701  1.2529
 7482SOL    HW233909   2.667   4.372   6.376 -2.7141  4.1086  1.1940
 7483SOL     OW33910   1.669   4.450   1.710  0.3729  0.5346 -0.5790
 7483SOL    HW133911   1.610   4.525   1.710  0.6318  0.7428 -2.2189
 7483SOL    HW233912   1.621   4.397   1.646  0.3305 -0.4050  0.2292
 7484SOL     OW33913   3.181   0.132   9.481  0.0186 -0.1423  0.3466
 7484SOL    HW133914   3.205   0.222   9.502  1.0833 -0.9273  2.4603
 7484SOL    HW233915   3.258   0.086   9.514  1.1776  0.4310 -1.5682
 7485SOL     OW33916   3.745   3.102   5.560 -0.6468  0.1822  0.4539
 7485SOL    HW133917   3.766   3.085   5.469  1.2563 -1.8041  1.2554
 7485SOL    HW233918   3.650   3.088   5.555 -0.5201 -1.0607  1.5329
 7486SOL     OW33919   1.950   2.510   8.520 -0.0279 -0.0201 -0.0993
 7486SOL    HW133920   1.982   2.503   8.430  1.4380  1.6181  0.2945
 7486SOL    HW233921   1.854   2.510   8.515 -0.0446 -2.0879 -0.0685
 7487SOL     OW33922   0.538   4.239   8.054 -0.2049 -0.6968 -0.0920
 7487SOL    HW133923   0.620   4.280   8.026 -0.9705  0.2214 -0.9922
 7487SOL    HW233924   0.479   4.279   7.990  2.0849  0.6395 -1.3991
 7488SOL     OW33925   2.911   4.313  16.219 -0.6149 -0.1991  0.2815
 7488SOL    HW133926   2.905   4.311  16.315  1.1064 -2.1701  0.3236
 7488SOL    HW233927   2.912   4.220  16.196  2.3869 -0.4237  1.4054
 7489SOL     OW33928   2.856   4.701   7.459  0.7115  0.4958 -0.5393
 7489SOL    HW133929   2.841   4.607   7.451  0.8076  0.2823  1.5846
 7489SOL    HW233930   2.928   4.705   7.522 -0.3506 -1.3806  0.8276
 7490SOL     OW33931   1.802   3.776   8.173 -0.0979 -0.2761 -0.1244
 7490SOL    HW133932   1.730   3.795   8.233  1.1064  1.2213  0.8520
 7490SOL    HW233933   1.823   3.856   8.125  0.1515 -0.0796  0.3097
 7491SOL     OW33934   4.245   3.868   2.597  0.3043  0.2185 -0.3393
 7491SOL    HW133935   4.260   3.785   2.553  0.6592  0.2373 -0.2567
 7491SOL    HW233936   4.191   3.916   2.534 -0.7569  0.1727  0.5247
 7492SOL     OW33937   1.231   4.096   4.224 -0.1762 -0.0563 -0.0577
 7492SOL    HW133938   1.188   4.011   4.235  2.7340 -1.3011  1.4847
 7492SOL    HW233939   1.309   4.086   4.277 -0.8829  0.8038  1.1501
 7493SOL     OW33940   3.534   3.175   3.400 -0.5405 -0.0500  0.3524
 7493SOL    HW133941   3.564   3.159   3.311 -1.1602  0.0766  0.1226
 7493SOL    HW233942   3.476   3.250   3.391 -0.6128 -0.2802 -1.0489
 7494SOL     OW33943   0.581   0.438   4.754 -0.3689  0.1441 -0.1961
 7494SOL    HW133944   0.649   0.504   4.769  1.1439 -0.8551 -2.6968
 7494SOL    HW233945   0.567   0.450   4.660 -0.7984  0.4328 -0.0899
 7495SOL     OW33946   1.557   2.317   9.828  0.5978  0.2954  0.1488
 7495SOL    HW133947   1.489   2.279   9.884  1.8563 -1.6659  0.3353
 7495SOL    HW233948   1.567   2.253   9.757  1.9989 -1.0612  1.5650
 7496SOL     OW33949   2.022   3.548   6.665 -0.3761 -0.1137 -0.2553
 7496SOL    HW133950   2.006   3.510   6.752  2.2740 -0.8916 -0.0989
 7496SOL    HW233951   2.001   3.470   6.613 -0.0843 -0.9506  0.8648
 7497SOL     OW33952   0.817   2.930   3.184  0.6731  0.4763  0.2791
 7497SOL    HW133953   0.887   2.865   3.185  0.2568  0.0594  2.3960
 7497SOL    HW233954   0.775   2.917   3.099 -0.5772 -2.5351  1.3606
 7498SOL     OW33955   0.852   1.988   7.467 -0.0668 -0.0152  0.4497
 7498SOL    HW133956   0.942   1.989   7.500 -1.2312  1.3948  3.6126
 7498SOL    HW233957   0.872   1.979   7.374  1.2053 -1.6561  0.8731
 7499SOL     OW33958   3.497   2.698  10.913  0.2452 -0.4582 -0.2007
 7499SOL    HW133959   3.592   2.695  10.902  0.2644  1.7869 -0.6948
 7499SOL    HW233960   3.498   2.636  10.986 -0.4655 -0.5306 -0.2587
 7500SOL     OW33961   4.625   3.214   1.902  0.2465  0.7463  0.0128
 7500SOL    HW133962   4.606   3.232   1.810  0.7483  0.5834 -0.1236
 7500SOL    HW233963   4.667   3.129   1.889 -1.2194 -0.4816  3.4650
 7501SOL     OW33964   2.815   1.231  11.480 -0.2551 -0.3108 -0.1561
 7501SOL    HW133965   2.721   1.217  11.496 -0.0612 -0.5306  0.7847
 7501SOL    HW233966   2.834   1.139  11.466  1.3518 -0.0426  0.3585
 7502SOL     OW33967   2.200   0.783   0.815  0.2517  0.2596 -0.2766
 7502SOL    HW133968   2.242   0.806   0.732 -0.3355 -0.8237 -0.8825
 7502SOL    HW233969   2.236   0.849   0.875 -1.6048  1.0318  0.0072
 7503SOL     OW33970   0.156   2.922   7.953 -0.4909  0.5464 -0.0124
 7503SOL    HW133971   0.156   2.946   7.860 -2.2707 -1.3770 -0.5035
 7503SOL    HW233972   0.062   2.931   7.966 -0.6176 -2.3806  1.0979
 7504SOL     OW33973   3.446   2.527   6.040 -0.0526  0.2181 -0.3015
 7504SOL    HW133974   3.530   2.562   6.071 -0.4385 -0.3030  1.3011
 7504SOL    HW233975   3.403   2.612   6.031 -1.2292 -0.1600  1.8368
 7505SOL     OW33976   3.343   0.668   2.508 -0.3760  0.1276  0.3911
 7505SOL    HW133977   3.428   0.644   2.471 -0.0818  0.2329  1.0037
 7505SOL    HW233978   3.368   0.709   2.591  1.5002  0.2351 -0.2083
 7506SOL     OW33979   2.787   3.792   8.143  0.0179 -0.2826  0.0468
 7506SOL    HW133980   2.758   3.710   8.182  1.2268 -1.2021 -1.0144
 7506SOL    HW233981   2.850   3.822   8.209 -0.2295 -0.5398  0.3958
 7507SOL     OW33982   1.331   2.319   4.953 -0.3475 -0.7010  0.5004
 7507SOL    HW133983   1.247   2.273   4.953 -0.1516 -1.0484 -0.8125
 7507SOL    HW233984   1.295   2.408   4.953 -0.7131 -0.8515 -0.1609
 7508SOL     OW33985   2.390   0.981  12.366  0.0671  0.3226 -0.4348
 7508SOL    HW133986   2.395   1.038  12.443  0.9314  1.4675 -1.3428
 7508SOL    HW233987   2.388   0.898  12.414  0.5361  1.4904  1.6009
 7509SOL     OW33988   4.426   3.581   8.350  0.2870  0.1513 -0.1673
 7509SOL    HW133989   4.478   3.652   8.388  1.8129 -1.1543  0.1899
 7509SOL    HW233990   4.473   3.562   8.268  1.8111  1.1285  0.4716
 7510SOL     OW33991   3.170   1.470   5.734  0.1755 -0.3075  0.3260
 7510SOL    HW133992   3.159   1.564   5.724  0.6124 -0.6079 -3.1794
 7510SOL    HW233993   3.162   1.448   5.641 -0.6087  0.2449  0.2600
 7511SOL     OW33994   0.420   1.813  13.403  0.2574  0.4150  0.3561
 7511SOL    HW133995   0.331   1.778  13.396 -0.0920  1.6676 -1.5823
 7511SOL    HW233996   0.409   1.844  13.492  0.8433  2.6824 -0.3642
 7512SOL     OW33997   3.908   0.519   8.223  0.7361 -0.6015 -0.1776
 7512SOL    HW133998   3.902   0.595   8.165 -0.0353  0.0115  0.7162
 7512SOL    HW233999   3.813   0.507   8.228  0.4677  1.1420 -0.8074
 7513SOL     OW34000   3.442   1.606  12.029 -0.0296 -0.2944  0.2458
 7513SOL    HW134001   3.389   1.527  12.022 -0.2289 -0.0218 -1.3612
 7513SOL    HW234002   3.491   1.583  12.108  1.2192 -1.6192 -0.9126
 7514SOL     OW34003   4.229   3.591   7.552  0.4285  0.6601 -0.0123
 7514SOL    HW134004   4.149   3.572   7.601  0.5680  0.4559  0.1374
 7514SOL    HW234005   4.292   3.589   7.623  0.8395  1.6750 -0.3535
 7515SOL     OW34006   3.308   1.521  13.259  0.4820  0.3963  0.2783
 7515SOL    HW134007   3.292   1.468  13.181 -1.0544 -0.1284  0.9425
 7515SOL    HW234008   3.219   1.556  13.263 -0.6960 -2.2616 -1.9533
 7516SOL     OW34009   0.095   4.646   2.977  0.5583  0.4530 -0.4447
 7516SOL    HW134010   0.109   4.700   2.899 -0.4087 -1.1929 -1.7500
 7516SOL    HW234011   0.040   4.708   3.023 -0.8337 -0.4002 -0.9566
 7517SOL     OW34012   0.488   2.830   3.208 -0.0334 -0.0408  0.0077
 7517SOL    HW134013   0.425   2.770   3.247  0.2641 -0.6500 -0.4376
 7517SOL    HW234014   0.427   2.902   3.193 -0.9483 -1.1088 -1.5698
 7518SOL     OW34015   1.369   3.721   2.849  0.7283  0.3210  0.0281
 7518SOL    HW134016   1.372   3.806   2.892  1.2056 -0.2899  1.2265
 7518SOL    HW234017   1.278   3.698   2.831  0.9750 -0.4770 -0.2181
 7519SOL     OW34018   0.560   4.482  10.448  0.0725  0.2268  0.0659
 7519SOL    HW134019   0.649   4.510  10.467  0.1125  1.7568 -2.4775
 7519SOL    HW234020   0.507   4.525  10.515 -0.8504 -0.8343  0.0198
 7520SOL     OW34021   1.253   3.028   5.018 -0.4852  0.4712  0.3627
 7520SOL    HW134022   1.337   3.073   5.018 -0.1698 -0.1223 -1.2478
 7520SOL    HW234023   1.213   3.062   4.939 -0.8199  3.0685  1.6682
 7521SOL     OW34024   3.522   3.994  12.920  0.2258 -0.7993 -0.3455
 7521SOL    HW134025   3.487   4.066  12.972 -1.2504  0.4075 -3.0263
 7521SOL    HW234026   3.469   3.980  12.841  1.8450  3.0422 -2.1299
 7522SOL     OW34027   1.095   0.410   4.928  0.0468 -0.2083 -0.2097
 7522SOL    HW134028   1.123   0.319   4.923  0.7148  0.0191 -0.5408
 7522SOL    HW234029   1.004   0.398   4.955  0.4443 -0.3601  1.0672
 7523SOL     OW34030   1.570   0.804   7.559  0.2038 -0.0126 -0.3778
 7523SOL    HW134031   1.514   0.823   7.634  0.0959 -1.8368  0.0001
 7523SOL    HW234032   1.517   0.742   7.508  0.0966  0.3244 -0.6726
 7524SOL     OW34033   0.687   1.760   3.489 -0.5939  0.3156 -0.1970
 7524SOL    HW134034   0.706   1.735   3.399 -1.5647  0.2908 -0.3958
 7524SOL    HW234035   0.767   1.803   3.519 -2.2533  1.8493  2.0506
 7525SOL     OW34036   3.136   1.247   1.702 -0.2578 -0.9101 -0.2175
 7525SOL    HW134037   3.151   1.253   1.608  0.3031 -1.0869 -0.1363
 7525SOL    HW234038   3.041   1.256   1.708 -0.0456  0.4148  1.3014
 7526SOL     OW34039   0.397   4.651   3.492  0.2239  0.1360 -0.0083
 7526SOL    HW134040   0.316   4.604   3.470  0.2133 -0.5437  1.5215
 7526SOL    HW234041   0.393   4.654   3.588  1.2659 -2.0773  0.1004
 7527SOL     OW34042   0.701   1.628   5.914 -0.0532 -0.2827  0.1611
 7527SOL    HW134043   0.646   1.550   5.918 -2.7192  1.7951  3.4506
 7527SOL    HW234044   0.734   1.611   5.825  0.0183  1.1277 -0.0834
 7528SOL     OW34045   2.012   2.188  13.459  0.1597  0.4651 -0.1699
 7528SOL    HW134046   1.923   2.196  13.425 -0.1974 -0.9213  0.4280
 7528SOL    HW234047   2.044   2.129  13.390 -2.0929 -0.8530 -0.1179
 7529SOL     OW34048   1.033   4.712  10.527  0.2379 -0.2176 -0.3126
 7529SOL    HW134049   1.028   0.013  10.435 -0.3593 -1.6477 -0.6720
 7529SOL    HW234050   1.028   0.076  10.564 -0.3188 -0.4913  0.2665
 7530SOL     OW34051   1.188   0.519   4.320  0.0092 -0.2450 -0.1547
 7530SOL    HW134052   1.138   0.441   4.297 -0.7091 -0.3771  1.8418
 7530SOL    HW234053   1.115   0.581   4.310  0.9058  0.5983 -1.3906
 7531SOL     OW34054   2.327   0.289   9.083 -0.3451 -0.3296  0.1749
 7531SOL    HW134055   2.368   0.208   9.055 -1.7640 -1.3613  1.0712
 7531SOL    HW234056   2.327   0.271   9.177  0.5229  1.9649  0.6209
 7532SOL     OW34057   0.253   4.244  16.152  0.0578  0.4743 -0.3995
 7532SOL    HW134058   0.339   4.255  16.192 -0.4359  0.2254  0.7467
 7532SOL    HW234059   0.193   4.248  16.227 -1.3011 -2.3528 -1.3169
 7533SOL     OW34060   0.531   4.426   6.568 -0.0352  0.1908  0.1839
 7533SOL    HW134061   0.466   4.401   6.634 -0.4921 -1.8285 -1.0458
 7533SOL    HW234062   0.511   4.364   6.498 -1.7058  1.4626 -0.4665
 7534SOL     OW34063   0.422   1.089   6.771  0.2006 -0.1843  0.4769
 7534SOL    HW134064   0.330   1.080   6.796  0.1377 -2.1830 -0.4413
 7534SOL    HW234065   0.422   1.155   6.703 -0.4699  0.0642  0.7230
 7535SOL     OW34066   1.636   1.046   0.524  0.5912 -0.0113 -0.0331
 7535SOL    HW134067   1.693   0.996   0.465  0.3530 -1.8213  1.2757
 7535SOL    HW234068   1.702   1.097   0.571  1.8956 -0.6120 -1.2251
 7536SOL     OW34069   0.930   3.904   1.857 -0.3641  0.1107 -0.0562
 7536SOL    HW134070   0.925   3.993   1.821 -1.8550  0.3430  0.7281
 7536SOL    HW234071   0.855   3.889   1.914 -0.0628 -0.3923  0.2105
 7537SOL     OW34072   2.361   3.759   8.023 -0.1188 -0.5629 -0.6909
 7537SOL    HW134073   2.374   3.689   7.959  2.5353  0.5425 -1.3473
 7537SOL    HW234074   2.290   3.809   7.982 -1.4180 -0.5927  1.5613
 7538SOL     OW34075   2.283   0.330   8.673  0.0613  0.7728  0.0587
 7538SOL    HW134076   2.232   0.291   8.602 -3.5942  2.3569  1.7900
 7538SOL    HW234077   2.221   0.308   8.743  1.7282  0.7088  1.5323
 7539SOL     OW34078   2.301   1.266   7.989 -0.1985 -0.2548 -0.8189
 7539SOL    HW134079   2.249   1.293   8.064  0.8755 -1.1716  0.2438
 7539SOL    HW234080   2.349   1.193   8.028 -0.1674  0.5784  0.7056
 7540SOL     OW34081   0.024   1.494   4.947  0.6806 -0.5746 -0.6378
 7540SOL    HW134082   0.110   1.453   4.949 -0.1036 -2.2333 -1.6771
 7540SOL    HW234083   4.702   1.442   5.012 -3.0782  0.8746 -2.1186
 7541SOL     OW34084   3.982   3.525   2.563  0.1911  0.2546  0.1929
 7541SOL    HW134085   3.940   3.593   2.510 -0.3558  0.2979  0.6826
 7541SOL    HW234086   3.917   3.458   2.542  2.3661 -2.1251  1.0388
 7542SOL     OW34087   2.110   0.765  10.859  0.1359 -0.1462  0.1114
 7542SOL    HW134088   2.095   0.696  10.924 -4.6756  1.0080  0.2828
 7542SOL    HW234089   2.084   0.841  10.912  2.1193  1.2275 -0.9052
 7543SOL     OW34090   1.288   4.059   2.820 -0.2102 -0.4905  0.4153
 7543SOL    HW134091   1.216   4.038   2.760  0.3624  0.0632 -0.4744
 7543SOL    HW234092   1.245   4.037   2.902 -1.8420  1.1154  0.0018
 7544SOL     OW34093   1.895   0.613   6.542 -0.4909  0.1766 -0.0521
 7544SOL    HW134094   1.931   0.529   6.569  0.3048 -0.1240 -2.0343
 7544SOL    HW234095   1.829   0.626   6.609  1.7952  2.1650  1.8030
 7545SOL     OW34096   2.142   2.199   3.043  0.1090 -0.0984  0.4570
 7545SOL    HW134097   2.213   2.148   3.004  0.7527 -0.3584  1.9624
 7545SOL    HW234098   2.087   2.128   3.078 -0.0245 -0.2498 -0.0655
 7546SOL     OW34099   4.092   0.108   1.574 -0.3243 -0.1051 -0.3361
 7546SOL    HW134100   4.050   0.167   1.512 -1.7195 -0.7009  0.0477
 7546SOL    HW234101   4.078   0.159   1.654 -1.5196 -1.6181  0.4267
 7547SOL     OW34102   0.766   3.157   5.185 -0.0319 -0.4327  0.0472
 7547SOL    HW134103   0.838   3.166   5.123  0.4747  0.2317  0.7300
 7547SOL    HW234104   0.815   3.162   5.267 -1.5043 -0.5483  0.9275
 7548SOL     OW34105   1.511   2.620   8.888 -0.4823 -0.2547 -0.2882
 7548SOL    HW134106   1.470   2.541   8.923  1.2416 -1.3749 -0.7856
 7548SOL    HW234107   1.493   2.627   8.794  0.5922 -1.9978 -0.6321
 7549SOL     OW34108   3.418   4.514   2.044 -0.1405 -0.8409 -0.1593
 7549SOL    HW134109   3.341   4.555   2.005 -0.0320 -3.1943 -2.8809
 7549SOL    HW234110   3.479   4.550   1.979  0.4857  1.6910  1.8388
 7550SOL     OW34111   0.933   0.229  14.217  0.2546 -0.1534 -0.0103
 7550SOL    HW134112   1.001   0.286  14.182  0.0389 -0.1344 -0.3966
 7550SOL    HW234113   0.879   0.223  14.138  0.4646  1.0327 -0.2362
 7551SOL     OW34114   1.293   2.348   3.335  0.0774  0.2349  0.0093
 7551SOL    HW134115   1.250   2.311   3.258  1.7860 -0.8375 -0.4435
 7551SOL    HW234116   1.225   2.402   3.374 -0.3157  0.1037 -0.4979
 7552SOL     OW34117   2.026   0.698   8.875 -0.0078  0.2421 -0.3304
 7552SOL    HW134118   2.014   0.608   8.842 -0.5908  0.2202 -0.0599
 7552SOL    HW234119   2.062   0.751   8.804  0.4470 -0.1613 -0.3978
 7553SOL     OW34120   1.317   0.675   5.488 -0.2530  0.5425  0.0398
 7553SOL    HW134121   1.344   0.742   5.551 -1.1574  1.3561 -0.4379
 7553SOL    HW234122   1.403   0.635   5.473  0.0899  0.2599  2.7471
 7554SOL     OW34123   3.958   4.434   3.943  0.0493  0.5386  0.1411
 7554SOL    HW134124   3.895   4.490   3.897  0.9295 -0.1530 -1.9395
 7554SOL    HW234125   3.902   4.379   3.997  1.1623  0.3688  1.1395
 7555SOL     OW34126   2.626   2.127  10.381  0.0842 -0.2129  0.2671
 7555SOL    HW134127   2.561   2.066  10.348 -0.6486  1.1060 -0.7006
 7555SOL    HW234128   2.628   2.107  10.475 -0.5781  2.2721  0.8133
 7556SOL     OW34129   2.484   3.053  15.592  0.2401  0.3167 -0.3896
 7556SOL    HW134130   2.412   3.107  15.624 -1.3970 -2.4886  0.6055
 7556SOL    HW234131   2.440   3.006  15.521 -0.4938  1.0567 -0.4249
 7557SOL     OW34132   3.364   3.207   9.752  0.3910  0.5247 -0.3343
 7557SOL    HW134133   3.358   3.121   9.793  1.8881  0.5258 -0.1119
 7557SOL    HW234134   3.427   3.254   9.807 -1.0556 -0.0716  1.8247
 7558SOL     OW34135   3.031   4.494   0.695  0.0435 -0.6225 -0.2654
 7558SOL    HW134136   3.072   4.531   0.616  0.9555  1.0487  0.9995
 7558SOL    HW234137   3.098   4.430   0.721 -0.0204 -1.5755 -2.3715
 7559SOL     OW34138   4.523   1.257   4.582 -0.1699 -0.3063  0.3676
 7559SOL    HW134139   4.500   1.213   4.664  0.5776 -0.0656  0.7017
 7559SOL    HW234140   4.550   1.344   4.612 -1.0740  0.0640  0.1269
 7560SOL     OW34141   0.507   2.031   3.698  0.5198 -0.2698 -0.1142
 7560SOL    HW134142   0.416   2.060   3.702  0.0437 -1.8481  0.2877
 7560SOL    HW234143   0.503   1.967   3.626  1.8318 -0.5994  0.1067
 7561SOL     OW34144   4.401   2.912  14.773 -0.5796 -0.9185 -0.0971
 7561SOL    HW134145   4.419   2.834  14.826 -2.2540 -1.4449 -0.2918
 7561SOL    HW234146   4.478   2.907  14.716 -0.8457 -2.4572 -0.3326
 7562SOL     OW34147   1.586   4.709  13.529 -0.2393 -0.2111  0.4415
 7562SOL    HW134148   1.506   0.026  13.496 -0.1969 -1.4193 -1.1370
 7562SOL    HW234149   1.635   4.704  13.448 -1.3456 -0.1744 -0.2316
 7563SOL     OW34150   0.060   2.458  13.126 -0.5433 -0.0024 -0.1457
 7563SOL    HW134151   0.091   2.546  13.147  1.3483 -0.8830  0.7957
 7563SOL    HW234152   0.045   2.423  13.213 -1.4874 -3.5051 -1.7006
 7564SOL     OW34153   2.291   0.410   4.440 -0.3507  0.6825  0.0593
 7564SOL    HW134154   2.239   0.337   4.407  0.4604  0.5658 -0.9877
 7564SOL    HW234155   2.276   0.478   4.374  1.8521  3.0781  2.0339
 7565SOL     OW34156   4.430   1.391   2.552  0.5915  0.0343 -0.5579
 7565SOL    HW134157   4.402   1.464   2.607  2.3763  0.6905 -0.5355
 7565SOL    HW234158   4.368   1.391   2.478  0.2656  0.5404 -0.2801
 7566SOL     OW34159   4.583   4.170   3.542 -0.2300  0.4647  0.4408
 7566SOL    HW134160   4.553   4.206   3.458  0.4325  0.6282  0.2737
 7566SOL    HW234161   4.501   4.137   3.579  0.6224 -1.6209  0.4576
 7567SOL     OW34162   2.688   2.951   1.703 -0.2838 -0.2468 -0.3079
 7567SOL    HW134163   2.730   2.939   1.788 -0.2201 -0.0249 -0.3080
 7567SOL    HW234164   2.758   2.955   1.639  1.2147 -1.2584  1.2791
 7568SOL     OW34165   1.380   1.066   3.890 -0.1641  0.1383 -0.3429
 7568SOL    HW134166   1.451   1.064   3.826 -0.1841  0.4965 -0.3732
 7568SOL    HW234167   1.347   0.976   3.898 -1.6706  0.7421  0.3659
 7569SOL     OW34168   0.800   1.484   6.147  0.2626 -0.1164  0.3479
 7569SOL    HW134169   0.795   1.531   6.065 -1.9650  1.5668  1.4621
 7569SOL    HW234170   0.783   1.550   6.214 -0.7775 -0.5122  0.4855
 7570SOL     OW34171   4.654   1.045  10.685  0.3234 -0.4771 -0.1434
 7570SOL    HW134172   4.561   1.038  10.666 -0.0094  1.1006  0.9662
 7570SOL    HW234173   4.652   0.964  10.736  0.8383  0.0933  0.7664
 7571SOL     OW34174   0.333   2.410   0.256  0.1853  0.3178 -0.0642
 7571SOL    HW134175   0.250   2.386   0.297  0.5924  1.5345  1.5036
 7571SOL    HW234176   0.398   2.352   0.296  0.3345 -1.7147 -3.3231
 7572SOL     OW34177   0.324   0.284  12.774 -0.4809  0.2040  0.0677
 7572SOL    HW134178   0.348   0.198  12.808  0.6522  0.3911 -0.2603
 7572SOL    HW234179   0.371   0.280  12.691 -1.2214 -1.4248 -0.2572
 7573SOL     OW34180   3.502   2.161   6.839 -0.6745  0.3000  0.1399
 7573SOL    HW134181   3.430   2.187   6.782  0.3767  2.3842 -0.2431
 7573SOL    HW234182   3.471   2.196   6.923  2.9312 -0.7472  1.8950
 7574SOL     OW34183   1.473   2.018  11.588  0.5364 -0.4371  0.1772
 7574SOL    HW134184   1.439   1.932  11.562 -0.2035 -0.7852  2.2810
 7574SOL    HW234185   1.410   2.044  11.655 -1.1086  0.1899 -1.5962
 7575SOL     OW34186   2.098   0.378  15.067 -0.2027  0.4153 -0.4773
 7575SOL    HW134187   2.072   0.290  15.096 -0.7408  0.5419 -0.5792
 7575SOL    HW234188   2.013   0.407  15.033  0.1573  1.9611 -0.0635
 7576SOL     OW34189   2.396   4.492   6.457 -0.8271 -0.4022  0.1740
 7576SOL    HW134190   2.446   4.572   6.469  1.1017 -1.7377  1.0362
 7576SOL    HW234191   2.330   4.500   6.526 -0.8521  2.4579 -0.1756
 7577SOL     OW34192   2.271   3.554   2.178 -0.3186 -0.0749  0.1491
 7577SOL    HW134193   2.194   3.577   2.231 -0.0692 -2.4231  1.5354
 7577SOL    HW234194   2.228   3.531   2.096 -1.0231  1.1758  0.1642
 7578SOL     OW34195   3.792   0.801   3.975  0.2090  0.1398  0.1219
 7578SOL    HW134196   3.849   0.769   3.905  1.2046  0.3262  0.8326
 7578SOL    HW234197   3.771   0.892   3.956  0.3721  0.0464 -0.5051
 7579SOL     OW34198   3.010   1.233   8.737  0.8715  0.0128 -0.2708
 7579SOL    HW134199   2.952   1.197   8.804  0.2584 -0.0077 -0.8194
 7579SOL    HW234200   2.978   1.201   8.653 -1.9023  1.1345  0.3616
 7580SOL     OW34201   1.664   4.669   5.193 -0.4024 -0.0003 -0.1730
 7580SOL    HW134202   1.659   0.026   5.142  0.7035 -0.2090 -0.6013
 7580SOL    HW234203   1.727   4.679   5.264  0.1909 -1.4480 -0.4891
 7581SOL     OW34204   3.213   4.070  16.014 -0.4499 -0.4385 -0.4373
 7581SOL    HW134205   3.207   3.989  16.064 -2.3786  0.0647  0.1665
 7581SOL    HW234206   3.127   4.108  16.032  0.0684  1.4697 -1.9080
 7582SOL     OW34207   2.819   2.185   2.676  0.0625  0.3121 -0.3050
 7582SOL    HW134208   2.736   2.195   2.630 -0.0878 -0.3733 -0.1795
 7582SOL    HW234209   2.879   2.153   2.609 -0.9134  2.0498 -2.0026
 7583SOL     OW34210   0.601   0.041   8.552 -0.6445  0.1156 -0.5032
 7583SOL    HW134211   0.630   0.015   8.639  1.5133 -0.9415 -1.5275
 7583SOL    HW234212   0.655   4.706   8.499 -1.0559 -2.4580  2.0011
 7584SOL     OW34213   2.521   0.733   5.087 -0.5222 -0.3649 -0.4450
 7584SOL    HW134214   2.488   0.812   5.046 -1.0037 -1.2872 -1.8583
 7584SOL    HW234215   2.515   0.669   5.016 -0.8461 -0.2094 -0.5552
 7585SOL     OW34216   2.216   0.169  12.233 -0.1140 -0.6503  0.2774
 7585SOL    HW134217   2.153   0.097  12.234  0.3562 -1.0810 -0.3339
 7585SOL    HW234218   2.169   0.233  12.180  0.4425  1.0969  1.9082
 7586SOL     OW34219   1.310   3.818   7.657 -0.3432 -0.2402  0.2803
 7586SOL    HW134220   1.364   3.887   7.618  1.3037 -0.2926  2.4583
 7586SOL    HW234221   1.344   3.729   7.643 -3.7070 -1.6767  1.4673
 7587SOL     OW34222   3.145   1.064   6.101  0.2583 -0.3550 -0.4429
 7587SOL    HW134223   3.186   0.998   6.157  0.4234  1.0674  1.1031
 7587SOL    HW234224   3.222   1.080   6.046 -0.7863  1.0551 -1.5237
 7588SOL     OW34225   1.870   0.447   5.407 -0.7291 -0.4321 -0.3244
 7588SOL    HW134226   1.851   0.421   5.497  2.3019 -0.8166  0.2161
 7588SOL    HW234227   1.960   0.417   5.393 -0.4812 -0.7883  2.1442
 7589SOL     OW34228   0.874   3.196   2.859 -0.3122  0.0488 -0.1928
 7589SOL    HW134229   0.871   3.100   2.857 -0.8497  0.0868 -1.1790
 7589SOL    HW234230   0.958   3.216   2.819  0.6366 -0.8585  1.3817
 7590SOL     OW34231   1.519   4.624   3.111 -0.5591 -0.1376 -0.6067
 7590SOL    HW134232   1.572   4.700   3.088  0.2773 -0.1520  1.2675
 7590SOL    HW234233   1.434   4.667   3.110  1.0690  3.0493 -0.0823
 7591SOL     OW34234   3.095   1.699   1.472 -0.6689 -0.1997  0.1196
 7591SOL    HW134235   3.016   1.646   1.459 -0.6877 -0.2733  0.5254
 7591SOL    HW234236   3.127   1.696   1.382  1.7894  0.3798  0.9832
 7592SOL     OW34237   2.616   3.750   2.226  0.5606 -0.2309  0.0708
 7592SOL    HW134238   2.703   3.790   2.221  1.0528 -0.8844  3.3051
 7592SOL    HW234239   2.625   3.669   2.176  0.1567  1.2928 -2.4945
 7593SOL     OW34240   1.755   0.113   3.342 -0.2058 -0.0421 -0.0832
 7593SOL    HW134241   1.684   0.051   3.329 -0.1380 -0.1721  0.1670
 7593SOL    HW234242   1.771   0.151   3.255 -0.8500 -3.8798 -1.8660
 7594SOL     OW34243   4.101   0.732   5.477  0.0888  0.3101  0.4397
 7594SOL    HW134244   4.136   0.675   5.546 -2.6202 -1.9598 -0.0687
 7594SOL    HW234245   4.105   0.820   5.514 -2.4967  0.3937  0.5548
 7595SOL     OW34246   0.233   0.514   6.954  0.1985 -0.0023 -0.5625
 7595SOL    HW134247   0.273   0.471   6.878 -0.5024 -0.7888 -0.4926
 7595SOL    HW234248   0.277   0.599   6.963  1.0763 -0.7286  2.2724
 7596SOL     OW34249   2.098   2.832   8.329  0.0307 -0.1095  0.5017
 7596SOL    HW134250   2.005   2.847   8.342  0.3314  0.1441  2.3534
 7596SOL    HW234251   2.132   2.852   8.417 -0.9676 -1.5390  1.2017
 7597SOL     OW34252   0.268   1.870   8.603  0.3705  1.0423  0.1508
 7597SOL    HW134253   0.351   1.852   8.648  1.0876 -1.0282 -1.9857
 7597SOL    HW234254   0.201   1.825   8.655  0.3950  0.2802 -0.4789
 7598SOL     OW34255   3.549   0.077   7.575  0.2649 -0.2062 -0.6875
 7598SOL    HW134256   3.581   0.160   7.610 -4.3866  0.3396  2.2442
 7598SOL    HW234257   3.542   0.015   7.648 -0.2068  0.7664  0.0892
 7599SOL     OW34258   1.931   0.944   6.161 -0.3490  0.5534 -0.9043
 7599SOL    HW134259   1.860   0.881   6.149  1.4283 -1.1874 -2.3792
 7599SOL    HW234260   1.961   0.919   6.248 -1.6806 -1.1752 -0.9432
 7600SOL     OW34261   2.913   3.004  11.824 -0.2724 -0.3935 -0.1591
 7600SOL    HW134262   2.931   3.098  11.835 -1.3393  0.0283 -1.9126
 7600SOL    HW234263   2.856   2.985  11.899 -0.5023  1.2047  0.0725
 7601SOL     OW34264   2.531   0.182   2.487  0.1354  0.2240  0.1874
 7601SOL    HW134265   2.474   0.105   2.478  2.0067 -1.2342  0.8735
 7601SOL    HW234266   2.561   0.181   2.396 -0.5028  2.5662 -0.0506
 7602SOL     OW34267   0.414   2.530   6.160 -0.1290  0.1457  0.4004
 7602SOL    HW134268   0.485   2.576   6.116 -0.0814 -0.6658 -0.3701
 7602SOL    HW234269   0.331   2.553   6.118 -0.7900 -0.3458  1.4263
 7603SOL     OW34270   4.674   2.321   8.857 -0.0081  0.5241  0.3939
 7603SOL    HW134271   4.615   2.247   8.842 -1.8090  2.0363  0.0192
 7603SOL    HW234272   4.689   2.327   8.951  0.4003  0.1571  0.3555
 7604SOL     OW34273   3.269   3.943   8.065 -0.6726  0.5676  0.5265
 7604SOL    HW134274   3.338   3.878   8.078 -1.6305 -0.2645  1.5013
 7604SOL    HW234275   3.197   3.889   8.032 -1.4313  0.4424  2.4004
 7605SOL     OW34276   2.746   1.970   3.199  0.2425 -0.1363 -0.6441
 7605SOL    HW134277   2.744   1.892   3.255  1.9287  0.7091  0.6109
 7605SOL    HW234278   2.654   1.994   3.200  0.1011 -0.6988  1.5501
 7606SOL     OW34279   2.406   2.803  12.678  0.8099 -0.0514 -0.4850
 7606SOL    HW134280   2.335   2.740  12.689  0.9888 -0.3055 -0.8015
 7606SOL    HW234281   2.483   2.749  12.694  0.4114 -0.6435 -0.5595
 7607SOL     OW34282   2.947   0.072  10.627 -0.1529  0.2344  0.1109
 7607SOL    HW134283   3.016   0.010  10.602 -0.7993  0.2462 -1.6731
 7607SOL    HW234284   2.876   0.008  10.626  0.0509 -0.0224  2.8577
 7608SOL     OW34285   0.818   4.513  15.641 -0.2515  0.0891 -0.1313
 7608SOL    HW134286   0.810   4.508  15.546 -4.0158 -0.8142  0.2455
 7608SOL    HW234287   0.788   4.427  15.668  0.5500 -0.1973 -0.1555
 7609SOL     OW34288   2.428   2.270   5.356  0.4702 -0.5010 -0.2902
 7609SOL    HW134289   2.523   2.277   5.360  0.4072  1.4624 -1.8733
 7609SOL    HW234290   2.396   2.360   5.362  1.9758 -0.1044  1.8427
 7610SOL     OW34291   0.707   4.709  11.239 -0.6397 -0.3965 -0.0995
 7610SOL    HW134292   0.803   4.716  11.240 -0.7952  1.4763  1.1509
 7610SOL    HW234293   0.693   4.615  11.236  0.0272 -0.5588  2.4623
 7611SOL     OW34294   0.982   2.684   8.620 -0.2200  0.1505  0.4021
 7611SOL    HW134295   1.003   2.776   8.602  3.5823 -1.6836 -4.4542
 7611SOL    HW234296   0.899   2.670   8.575  0.0150  2.3460 -0.7407
 7612SOL     OW34297   0.851   0.064   3.267 -0.2429  0.2224  0.1203
 7612SOL    HW134298   0.825   0.155   3.278  3.1107  1.2801 -0.5096
 7612SOL    HW234299   0.838   0.037   3.358  1.9371  0.1504  0.4108
 7613SOL     OW34300   4.234   1.308   5.179  0.0992  0.2675 -0.6307
 7613SOL    HW134301   4.238   1.212   5.176 -1.5225  0.2269 -1.8816
 7613SOL    HW234302   4.320   1.335   5.147  0.7592  0.8889  1.7203
 7614SOL     OW34303   3.539   4.036  15.931  0.2080  0.4530  0.1175
 7614SOL    HW134304   3.481   4.078  15.994 -0.7701 -0.7297  0.0072
 7614SOL    HW234305   3.481   3.962  15.911  0.7748 -0.6388  2.4682
 7615SOL     OW34306   1.788   0.030   0.130  0.0227  0.3699 -0.0762
 7615SOL    HW134307   1.725   0.090   0.090  0.5542  1.4580  0.7268
 7615SOL    HW234308   1.847   0.086   0.181  0.3666 -1.5147  1.5586
 7616SOL     OW34309   0.102   2.151   7.618 -0.2881  0.5864  0.8112
 7616SOL    HW134310   0.147   2.080   7.663  1.9820 -0.0200 -2.4346
 7616SOL    HW234311   0.172   2.214   7.600  1.9913 -1.8748  1.1044
 7617SOL     OW34312   4.361   1.094   7.103  0.0679 -0.4944  0.0738
 7617SOL    HW134313   4.365   1.115   7.196  0.7772 -0.9363  0.1384
 7617SOL    HW234314   4.420   1.159   7.066  0.3735  0.3560  2.0735
 7618SOL     OW34315   1.612   2.870  11.255 -0.0550  0.5816  0.2704
 7618SOL    HW134316   1.579   2.883  11.167  0.6643  0.6725  0.0170
 7618SOL    HW234317   1.630   2.776  11.254  0.8629  0.7569 -0.1411
 7619SOL     OW34318   4.133   1.959   3.984 -0.0580  0.8907  0.0489
 7619SOL    HW134319   4.104   2.051   3.986  2.4775  1.7233 -2.1190
 7619SOL    HW234320   4.199   1.969   3.915  0.2286  0.1877  0.2234
 7620SOL     OW34321   2.436   0.434   2.115 -0.9297  0.3472 -0.4439
 7620SOL    HW134322   2.366   0.404   2.057 -2.8147  1.2920  1.3139
 7620SOL    HW234323   2.382   0.481   2.179 -0.4138  1.3940 -0.7904
 7621SOL     OW34324   1.299   2.280  13.665 -0.3829 -0.2865  0.0243
 7621SOL    HW134325   1.394   2.280  13.673 -0.2583 -3.1113 -1.6806
 7621SOL    HW234326   1.279   2.197  13.709 -0.4306  0.2966  1.1047
 7622SOL     OW34327   2.965   3.375   7.397 -0.5877  0.3408 -0.2778
 7622SOL    HW134328   2.948   3.290   7.437 -0.2760 -0.1286 -1.1502
 7622SOL    HW234329   2.962   3.354   7.304 -0.3582  0.9069 -0.4141
 7623SOL     OW34330   2.357   4.389   0.172  0.0279 -0.3244 -0.5737
 7623SOL    HW134331   2.356   4.344   0.087  1.3240  1.3130 -1.4576
 7623SOL    HW234332   2.419   4.332   0.217  1.4659  0.2534 -1.7941
 7624SOL     OW34333   4.476   3.863   6.017  0.3426 -0.7679  0.6036
 7624SOL    HW134334   4.468   3.899   5.929 -0.3452  0.4643  1.1649
 7624SOL    HW234335   4.412   3.920   6.059 -0.5171 -1.7083  0.5801
 7625SOL     OW34336   2.707   3.731   3.229 -0.1169 -0.6313 -0.3296
 7625SOL    HW134337   2.668   3.669   3.168  0.9845 -1.3821 -0.2559
 7625SOL    HW234338   2.652   3.808   3.214 -0.3247 -0.5149  0.9797
 7626SOL     OW34339   4.159   3.625   6.921 -0.0707 -0.0246  0.5104
 7626SOL    HW134340   4.170   3.541   6.875 -0.3319  0.3558 -0.2462
 7626SOL    HW234341   4.119   3.679   6.853 -0.7150  1.3147  1.9687
 7627SOL     OW34342   1.572   4.439   8.867 -0.2507 -0.3425 -0.1092
 7627SOL    HW134343   1.500   4.381   8.892 -1.2504  0.2054 -1.6997
 7627SOL    HW234344   1.527   4.523   8.873  0.4496 -0.0203  0.5369
 7628SOL     OW34345   3.597   2.222   4.005 -0.1198 -0.0017 -0.4763
 7628SOL    HW134346   3.679   2.172   3.998 -0.8004 -1.4171  1.5952
 7628SOL    HW234347   3.582   2.230   3.911 -1.1502  3.4229 -0.0244
 7629SOL     OW34348   0.707   3.182   0.526 -0.3283  0.1674  0.5761
 7629SOL    HW134349   0.715   3.267   0.569 -0.0371 -0.0469  0.9393
 7629SOL    HW234350   0.643   3.211   0.461  2.0306  0.7520 -1.4881
 7630SOL     OW34351   1.485   0.249   5.996 -0.4889 -0.1806  0.3432
 7630SOL    HW134352   1.440   0.313   5.941  0.9309 -1.3082 -2.1054
 7630SOL    HW234353   1.543   0.217   5.927 -1.5202 -0.1411 -0.5249
 7631SOL     OW34354   0.228   4.425   8.650  0.0542 -0.3465  0.1265
 7631SOL    HW134355   0.313   4.383   8.645  1.0851  1.8849 -1.1130
 7631SOL    HW234356   0.249   4.516   8.629 -1.4055  0.0489  0.3478
 7632SOL     OW34357   3.431   0.395  13.850  0.2197  0.8947  0.4734
 7632SOL    HW134358   3.370   0.433  13.787 -1.3343 -1.5414  0.4904
 7632SOL    HW234359   3.505   0.367  13.796  1.0155  0.2810  1.8900
 7633SOL     OW34360   4.366   3.842   3.226  0.1263  0.2615  0.5264
 7633SOL    HW134361   4.383   3.931   3.193  0.6017 -0.0793 -0.1467
 7633SOL    HW234362   4.453   3.802   3.225  0.3706  0.8184 -1.5335
 7634SOL     OW34363   1.586   3.278  14.111 -0.8216 -0.0847 -0.2503
 7634SOL    HW134364   1.571   3.372  14.118 -3.4348 -0.5506  0.2907
 7634SOL    HW234365   1.664   3.277  14.166  0.5728  1.0965 -2.1794
 7635SOL     OW34366   0.191   1.515   1.900  0.1421  0.2643  0.7456
 7635SOL    HW134367   0.137   1.586   1.933 -1.0253 -0.5492  0.5972
 7635SOL    HW234368   0.121   1.450   1.892  0.6847 -0.1360 -0.8130
 7636SOL     OW34369   3.328   3.518   5.311  0.7846  0.9190  0.4935
 7636SOL    HW134370   3.272   3.583   5.268  0.6503  1.5851  1.6646
 7636SOL    HW234371   3.277   3.507   5.391 -1.8994 -0.7196 -1.4356
 7637SOL     OW34372   4.241   2.504   4.932  0.6379  0.2693 -0.3089
 7637SOL    HW134373   4.185   2.471   4.861  0.6966 -1.7453  0.5722
 7637SOL    HW234374   4.234   2.436   4.999  0.6578  2.2621  1.7067
 7638SOL     OW34375   0.375   0.208   3.639 -0.5153  0.5731 -0.2492
 7638SOL    HW134376   0.296   0.252   3.669 -0.1790  1.6251 -0.9171
 7638SOL    HW234377   0.388   0.132   3.696 -1.1548  1.6331  1.3114
 7639SOL     OW34378   4.413   4.588   9.370  0.2842  0.1054  0.2980
 7639SOL    HW134379   4.405   4.568   9.464 -2.6233  0.4767  0.1243
 7639SOL    HW234380   4.500   4.549   9.356 -0.4311 -1.9080  1.3989
 7640SOL     OW34381   0.664   2.392  15.426  0.6520  0.4391  0.7800
 7640SOL    HW134382   0.644   2.382  15.333 -1.1102  1.3994  1.0538
 7640SOL    HW234383   0.757   2.403  15.409 -0.0226  1.0936 -2.5035
 7641SOL     OW34384   0.731   0.257   5.475  0.0215  0.5205 -0.6057
 7641SOL    HW134385   0.754   0.345   5.505 -0.2083  1.3494 -2.9219
 7641SOL    HW234386   0.641   0.241   5.502 -0.1710  1.9357 -0.4128
 7642SOL     OW34387   4.464   1.369   8.171  0.2646  0.3370 -0.1281
 7642SOL    HW134388   4.523   1.293   8.173 -1.2076 -0.8094 -0.6007
 7642SOL    HW234389   4.478   1.402   8.260  0.7572  0.2252 -0.1599
 7643SOL     OW34390   1.894   3.257   1.165 -0.1040 -0.2411 -0.0935
 7643SOL    HW134391   1.800   3.247   1.182 -0.2248  0.2148 -0.4574
 7643SOL    HW234392   1.917   3.164   1.162 -1.4878 -0.6848  3.5485
 7644SOL     OW34393   0.863   1.222   5.951 -0.2128  0.1109 -0.3606
 7644SOL    HW134394   0.886   1.315   5.959  1.5348 -0.5376  2.1970
 7644SOL    HW234395   0.831   1.213   5.861 -3.2220  2.2461  0.4621
 7645SOL     OW34396   4.287   0.671  12.419  0.4692  0.4730 -0.0996
 7645SOL    HW134397   4.252   0.629  12.340  0.4101 -0.3778  0.3861
 7645SOL    HW234398   4.205   0.659  12.467  0.2258 -0.9489 -0.8762
 7646SOL     OW34399   2.520   3.059   4.313  0.0830  0.4490  0.0195
 7646SOL    HW134400   2.537   3.092   4.401 -0.0587  0.0993  0.1763
 7646SOL    HW234401   2.425   3.054   4.315  0.2264 -1.4292  1.2254
 7647SOL     OW34402   1.241   1.530   5.877 -0.2281 -0.0903  0.1691
 7647SOL    HW134403   1.259   1.575   5.960  2.6308  0.2161 -0.6498
 7647SOL    HW234404   1.148   1.548   5.864 -0.0683 -0.3840 -1.3958
 7648SOL     OW34405   0.055   2.747   2.193  0.1209 -0.1844 -0.5773
 7648SOL    HW134406   4.699   2.767   2.144 -1.8400 -2.6080  1.6508
 7648SOL    HW234407   0.125   2.780   2.137  2.2070 -0.5374  1.8031
 7649SOL     OW34408   2.178   3.920   7.922  0.6969  0.2250 -0.2776
 7649SOL    HW134409   2.152   4.001   7.965 -0.9736 -0.6099  0.3193
 7649SOL    HW234410   2.121   3.904   7.846  3.0293 -0.2932 -1.9355
 7650SOL     OW34411   0.583   2.548   2.551  0.1738 -0.3213 -0.1883
 7650SOL    HW134412   0.594   2.454   2.563 -1.2846 -0.3733  0.7697
 7650SOL    HW234413   0.525   2.544   2.475  2.6185 -2.3128 -1.9299
 7651SOL     OW34414   2.275   2.419   3.812 -0.1055  0.8891 -0.2966
 7651SOL    HW134415   2.193   2.421   3.763 -0.2014  0.2440 -0.1652
 7651SOL    HW234416   2.307   2.332   3.789  1.0980  2.1204 -3.2324
 7652SOL     OW34417   0.262   3.707   5.061 -0.4042 -0.1990  0.3108
 7652SOL    HW134418   0.237   3.620   5.031  1.2911 -1.4670  2.4859
 7652SOL    HW234419   0.257   3.758   4.980  1.3221 -2.5832 -1.2814
 7653SOL     OW34420   3.674   4.642  16.023 -0.0736  0.5746 -0.5573
 7653SOL    HW134421   3.739   4.710  16.005 -1.0355  1.1563 -1.7861
 7653SOL    HW234422   3.651   4.601  15.940  3.1212 -2.1365 -0.0786
 7654SOL     OW34423   3.693   0.015   9.247  0.4828 -0.0354 -0.4185
 7654SOL    HW134424   3.777   0.043   9.211 -0.8463 -0.4424 -3.8388
 7654SOL    HW234425   3.699   0.001   9.342  2.0750 -1.4898 -0.7340
 7655SOL     OW34426   3.890   0.600   4.899 -0.1335  0.2142  0.0313
 7655SOL    HW134427   3.950   0.617   4.826 -2.2169  0.7798 -1.5622
 7655SOL    HW234428   3.954   0.577   4.966  0.3267 -1.2720 -0.9226
 7656SOL     OW34429   2.406   0.293   4.173 -0.6646  0.0585 -0.4319
 7656SOL    HW134430   2.443   0.252   4.094  1.9987  0.5062  0.6038
 7656SOL    HW234431   2.334   0.238   4.205 -1.4632  0.9909 -0.6533
 7657SOL     OW34432   0.980   2.486   6.484  0.3349  0.5848 -0.1341
 7657SOL    HW134433   0.917   2.479   6.413  2.4161 -0.8331 -1.8503
 7657SOL    HW234434   1.062   2.484   6.433 -0.0610 -2.1396 -0.6311
 7658SOL     OW34435   1.805   1.224   3.774  0.2913 -0.5688  0.4889
 7658SOL    HW134436   1.736   1.217   3.708  0.0131  0.5847  0.6629
 7658SOL    HW234437   1.835   1.313   3.754  0.7342 -1.4458 -2.7572
 7659SOL     OW34438   1.896   4.045   0.824  0.3905 -0.1321 -0.2521
 7659SOL    HW134439   1.927   4.134   0.812  0.3316  0.2302  2.2936
 7659SOL    HW234440   1.824   4.066   0.884  0.4422  0.9715 -0.5814
 7660SOL     OW34441   0.044   0.759   0.782 -0.2600  0.4158 -0.4305
 7660SOL    HW134442   0.082   0.722   0.862 -0.0164 -0.1758 -0.8244
 7660SOL    HW234443   0.078   0.709   0.708  1.1493  0.4288  0.2163
 7661SOL     OW34444   3.783   0.971   8.855  0.3635 -0.7016  0.2585
 7661SOL    HW134445   3.818   1.048   8.899 -1.1405  1.0369 -1.5557
 7661SOL    HW234446   3.692   1.001   8.852  1.0342  1.0898 -1.3760
 7662SOL     OW34447   0.162   2.292   8.648 -0.0804  0.2035 -0.2601
 7662SOL    HW134448   0.112   2.295   8.729  0.1948  1.4392 -0.1394
 7662SOL    HW234449   0.093   2.268   8.585 -0.2369  0.7322 -0.2893
 7663SOL     OW34450   1.989   0.736   8.019 -0.2932  0.6245  0.2090
 7663SOL    HW134451   2.029   0.650   8.030  1.5276  1.0248 -3.3267
 7663SOL    HW234452   1.917   0.709   7.962 -0.6170 -0.3353  1.0761
 7664SOL     OW34453   0.720   0.113  10.479  0.0422 -0.0729  0.3088
 7664SOL    HW134454   0.778   0.038  10.474 -1.1130 -0.9480 -0.0487
 7664SOL    HW234455   0.752   0.173  10.546 -0.5590  2.0312 -1.2786
 7665SOL     OW34456   1.823   0.344   4.955  0.0875  0.4199 -0.1892
 7665SOL    HW134457   1.847   0.260   4.915 -0.0414 -0.2655  1.1989
 7665SOL    HW234458   1.799   0.324   5.045 -1.0153 -0.4794 -0.6909
 7666SOL     OW34459   2.005   3.532  10.285 -0.7164 -0.0039  0.5232
 7666SOL    HW134460   2.049   3.603  10.238 -1.3033  0.4133  0.6102
 7666SOL    HW234461   2.077   3.488  10.330  0.0707 -0.0587 -0.8079
 7667SOL     OW34462   3.591   0.342   5.301 -0.1450 -0.3442  0.5233
 7667SOL    HW134463   3.535   0.374   5.372 -1.4397 -0.1369 -0.5825
 7667SOL    HW234464   3.606   0.429   5.263 -0.1714 -0.3741  0.4452
 7668SOL     OW34465   4.188   3.718   8.296  0.1688 -0.1023 -0.2261
 7668SOL    HW134466   4.235   3.653   8.347  1.1795  0.1378 -0.8664
 7668SOL    HW234467   4.188   3.687   8.205  2.0873 -1.1054  0.1121
 7669SOL     OW34468   2.698   4.044   2.991  0.1591  0.1165 -0.0686
 7669SOL    HW134469   2.657   4.007   2.912  3.3128 -1.3748 -1.0072
 7669SOL    HW234470   2.788   4.019   2.970  0.4577  1.6470 -0.6442
 7670SOL     OW34471   4.149   2.717   5.559 -0.8842 -0.4816 -0.3008
 7670SOL    HW134472   4.065   2.673   5.573 -0.9553 -0.2245  0.0640
 7670SOL    HW234473   4.116   2.806   5.560 -0.9226 -0.4534 -2.7325
 7671SOL     OW34474   1.694   2.675   5.468 -0.0757  0.0751 -0.3106
 7671SOL    HW134475   1.720   2.712   5.552 -1.9177 -0.7015  0.6078
 7671SOL    HW234476   1.601   2.696   5.460 -0.1300  0.6970  1.8491
 7672SOL     OW34477   2.065   0.106  15.170  0.2643  0.1864 -0.5112
 7672SOL    HW134478   2.112   0.134  15.248 -3.2316  0.9196  1.3288
 7672SOL    HW234479   2.124   0.035  15.146 -0.9746 -0.7262 -0.8790
 7673SOL     OW34480   3.449   3.948   9.102  0.3991 -0.1409 -1.0429
 7673SOL    HW134481   3.491   3.865   9.127 -4.0005 -1.2947  2.5965
 7673SOL    HW234482   3.372   3.953   9.160  1.2211  0.5656  0.0011
 7674SOL     OW34483   2.730   0.849  12.575 -0.4011  0.3735 -0.3310
 7674SOL    HW134484   2.776   0.929  12.548  0.1657 -0.0396 -0.5835
 7674SOL    HW234485   2.737   0.864  12.669  1.0397  0.1679 -0.4097
 7675SOL     OW34486   2.958   4.546   6.048  0.6841  0.5735 -0.2862
 7675SOL    HW134487   2.879   4.513   6.005 -1.0660  1.5180  2.2445
 7675SOL    HW234488   3.009   4.555   5.967 -0.0706  0.9173 -0.7321
 7676SOL     OW34489   3.744   4.234   6.723 -0.4859  0.1931  0.4862
 7676SOL    HW134490   3.789   4.305   6.769  0.7844  1.5458 -2.8838
 7676SOL    HW234491   3.773   4.251   6.634 -1.9918 -0.1661 -0.0820
 7677SOL     OW34492   3.730   4.458   7.169  0.3384 -0.1997 -0.3555
 7677SOL    HW134493   3.785   4.534   7.149  0.4181 -0.5056 -1.2743
 7677SOL    HW234494   3.703   4.489   7.256 -0.0244 -0.3241 -0.4254
 7678SOL     OW34495   4.226   1.042   8.948 -0.1100  0.0208 -0.0664
 7678SOL    HW134496   4.253   0.950   8.942 -0.8409 -0.2664  0.9010
 7678SOL    HW234497   4.166   1.037   8.874 -0.5326 -3.2847  0.5007
 7679SOL     OW34498   2.645   0.845   1.952 -0.0344 -0.9307  0.5242
 7679SOL    HW134499   2.659   0.755   1.980  0.9974 -0.8833  0.1842
 7679SOL    HW234500   2.583   0.860   2.023 -0.4348  2.0068 -0.4360
 7680SOL     OW34501   0.906   3.346   1.294 -0.1930 -0.2487 -0.3769
 7680SOL    HW134502   0.947   3.325   1.377  0.9502  0.0108 -0.8764
 7680SOL    HW234503   0.822   3.382   1.323 -0.1257  0.7190 -1.3650
 7681SOL     OW34504   3.058   0.137   1.690 -0.1455 -0.3002  0.3057
 7681SOL    HW134505   3.070   0.112   1.599 -0.4135 -2.6139  0.9007
 7681SOL    HW234506   3.090   0.054   1.726 -1.3958 -1.0751 -0.3459
 7682SOL     OW34507   2.137   4.253  16.236 -0.0323  0.6312  0.3684
 7682SOL    HW134508   2.140   4.219  16.147  1.7570  1.3592  0.1460
 7682SOL    HW234509   2.099   4.340  16.225 -1.5399  0.1035  1.4151
 7683SOL     OW34510   3.813   2.046  13.697 -0.0045 -0.3721  0.3689
 7683SOL    HW134511   3.893   1.995  13.715  0.4570 -0.0538 -0.7472
 7683SOL    HW234512   3.828   2.133  13.734  2.0179 -0.0338 -1.2178
 7684SOL     OW34513   4.485   1.179   8.995  0.1556 -0.4417 -0.6306
 7684SOL    HW134514   4.535   1.112   9.041  0.1171 -0.4633 -0.6206
 7684SOL    HW234515   4.420   1.128   8.947 -0.1719  1.3543 -2.1102
 7685SOL     OW34516   0.231   0.489   7.557  0.5440 -0.0952 -0.0141
 7685SOL    HW134517   0.237   0.394   7.548  0.7070 -0.0774 -0.0933
 7685SOL    HW234518   0.318   0.512   7.587  0.8592 -0.7340 -0.4379
 7686SOL     OW34519   2.436   0.671  12.872 -0.3791  0.2607  0.1750
 7686SOL    HW134520   2.476   0.591  12.838  0.4817 -0.7945  3.6505
 7686SOL    HW234521   2.417   0.650  12.963 -0.0682 -0.7129  0.0246
 7687SOL     OW34522   3.721   0.366   7.283  0.7835 -0.4761  0.1544
 7687SOL    HW134523   3.730   0.404   7.370  1.0292  0.2462 -0.1860
 7687SOL    HW234524   3.655   0.424   7.245  0.1090 -0.5157  1.2674
 7688SOL     OW34525   4.422   1.579  17.528  0.2936  0.7051 -0.8986
 7688SOL    HW134526   4.402   1.563  17.620 -0.8767  1.1950 -1.0573
 7688SOL    HW234527   4.508   1.618  17.538 -0.1977  2.4443 -3.2774
 7689SOL     OW34528   2.285   1.937   5.599 -0.4487 -0.5296 -0.1658
 7689SOL    HW134529   2.337   1.866   5.563 -1.5156 -1.7859  0.7601
 7689SOL    HW234530   2.338   1.975   5.668  1.5537 -2.4284 -0.6724
 7690SOL     OW34531   3.051   1.138   6.677  0.3862 -0.0596 -0.0986
 7690SOL    HW134532   2.975   1.122   6.621 -1.2262  0.3328  2.0281
 7690SOL    HW234533   3.004   1.174   6.751  1.9933 -2.6745  2.1850
 7691SOL     OW34534   3.827   3.090   4.517 -0.1011  0.3481 -0.0785
 7691SOL    HW134535   3.843   3.185   4.513  0.1278  0.2696 -1.2924
 7691SOL    HW234536   3.898   3.060   4.573 -1.0584 -2.3524 -0.3097
 7692SOL     OW34537   2.886   2.187  17.100  0.2383  0.5204 -0.4259
 7692SOL    HW134538   2.825   2.174  17.173  1.3740 -0.4799  0.3586
 7692SOL    HW234539   2.955   2.128  17.131 -0.3916 -0.2467 -0.4886
 7693SOL     OW34540   0.580   4.014   4.972  0.0869 -0.0927  0.5533
 7693SOL    HW134541   0.655   4.070   4.992 -0.0017  0.7553 -1.4499
 7693SOL    HW234542   0.526   4.067   4.914 -0.9859 -2.1366 -0.3372
 7694SOL     OW34543   4.149   0.371   3.465 -0.4841 -0.0595 -0.1080
 7694SOL    HW134544   4.093   0.408   3.533 -1.1610  0.5129 -0.9678
 7694SOL    HW234545   4.154   0.436   3.394 -1.6398 -0.8810 -0.9414
 7695SOL     OW34546   1.136   0.988   8.592  0.1171  0.2070  0.5367
 7695SOL    HW134547   1.083   0.927   8.540 -0.7023  0.4830  1.0553
 7695SOL    HW234548   1.173   0.934   8.662  1.6105  0.5387 -0.0039
 7696SOL     OW34549   1.271   0.025   3.078  0.1604  0.2231 -0.2059
 7696SOL    HW134550   1.299   0.116   3.065 -1.1095  0.7529  0.8630
 7696SOL    HW234551   1.186   0.037   3.120  1.6622  1.4348  2.4482
 7697SOL     OW34552   1.691   3.056  12.676  0.2074  0.1221 -0.0387
 7697SOL    HW134553   1.778   3.076  12.642 -1.1894  0.7979 -3.3028
 7697SOL    HW234554   1.704   3.062  12.770  1.8518  2.5470 -0.4092
 7698SOL     OW34555   3.786   1.781   3.477  1.0992 -0.1898  0.3592
 7698SOL    HW134556   3.811   1.704   3.425  0.2841 -0.8908  1.0015
 7698SOL    HW234557   3.871   1.818   3.504  1.4748 -0.2883 -0.7081
 7699SOL     OW34558   4.159   0.730   6.597 -0.2384 -0.6583  0.9086
 7699SOL    HW134559   4.099   0.793   6.636 -0.7375 -1.2476  1.0809
 7699SOL    HW234560   4.243   0.776   6.604 -0.1670 -1.0653  2.6935
 7700SOL     OW34561   3.594   4.218   4.666 -0.5767  0.6276 -0.2037
 7700SOL    HW134562   3.643   4.191   4.588  1.5147 -1.5241  1.8475
 7700SOL    HW234563   3.521   4.156   4.674  0.0157 -0.3043 -2.2210
 7701SOL     OW34564   0.923   0.832   4.076 -0.1306 -0.5877 -0.2280
 7701SOL    HW134565   0.849   0.784   4.038 -0.0320 -1.9925  1.3665
 7701SOL    HW234566   0.967   0.871   4.000 -0.4610  2.6992  1.2773
 7702SOL     OW34567   3.758   2.472  11.209 -0.1546  0.3450  0.7380
 7702SOL    HW134568   3.681   2.502  11.161 -0.7784  0.4694  1.8089
 7702SOL    HW234569   3.809   2.553  11.215  1.2919 -0.5957  0.8974
 7703SOL     OW34570   0.054   4.615   1.809 -0.4156  0.2494  0.6599
 7703SOL    HW134571   0.115   4.634   1.738  0.9869  2.1491  2.3697
 7703SOL    HW234572   4.722   4.692   1.802 -1.7793 -0.7423  0.6201
 7704SOL     OW34573   1.705   1.955   6.083 -0.3013 -0.1676  0.3971
 7704SOL    HW134574   1.685   1.869   6.121  1.4859 -0.7272  0.0751
 7704SOL    HW234575   1.646   1.949   6.009 -1.6494  1.5618  1.3359
 7705SOL     OW34576   0.177   3.753   7.073 -0.0972 -0.0129  0.7331
 7705SOL    HW134577   0.099   3.699   7.060 -0.0186 -0.1746  0.9378
 7705SOL    HW234578   0.245   3.687   7.062 -0.4653 -0.4121  0.8686
 7706SOL     OW34579   2.554   1.824   6.978 -0.0412 -0.3559 -0.1388
 7706SOL    HW134580   2.571   1.746   6.925 -0.1087  1.1171 -2.3672
 7706SOL    HW234581   2.640   1.866   6.987 -0.6895  1.1831 -0.9336
 7707SOL     OW34582   1.130   0.374  13.360 -0.3807 -0.1537  0.2599
 7707SOL    HW134583   1.183   0.355  13.438 -0.4900  1.5983  0.7634
 7707SOL    HW234584   1.176   0.446  13.316 -1.4665 -0.1117 -0.7867
 7708SOL     OW34585   3.628   3.055   9.044 -0.1326 -0.1109 -0.2515
 7708SOL    HW134586   3.563   3.010   9.098  0.4165  0.7727  1.1491
 7708SOL    HW234587   3.583   3.139   9.042  1.8122  1.0057  3.0425
 7709SOL     OW34588   1.093   3.788   2.307 -0.4680  0.0190 -0.4027
 7709SOL    HW134589   1.172   3.734   2.309 -0.5066  0.0205  0.9980
 7709SOL    HW234590   1.022   3.728   2.281  1.2851 -2.4204  0.4577
 7710SOL     OW34591   1.395   1.864  12.378  0.6460 -0.1083  0.0500
 7710SOL    HW134592   1.438   1.854  12.463  1.7049 -1.5590 -0.6615
 7710SOL    HW234593   1.473   1.860  12.324 -0.0388 -0.2647 -0.9317
 7711SOL     OW34594   1.258   4.385   6.256  0.1368 -0.0120  0.0959
 7711SOL    HW134595   1.307   4.454   6.212 -1.9950  0.7749 -1.0825
 7711SOL    HW234596   1.188   4.385   6.190 -0.6382  3.4168  0.9213
 7712SOL     OW34597   2.394   4.421  11.799 -0.0564  0.1902  0.0544
 7712SOL    HW134598   2.304   4.392  11.783  0.5575 -0.5148 -2.0298
 7712SOL    HW234599   2.389   4.439  11.893 -2.2962  2.6186 -0.4928
 7713SOL     OW34600   3.234   2.989  10.689 -0.6218 -0.0655  0.0411
 7713SOL    HW134601   3.324   2.972  10.717 -0.4556 -1.4749 -1.3419
 7713SOL    HW234602   3.200   2.900  10.699  2.5786 -1.2911  0.0480
 7714SOL     OW34603   2.639   1.684  15.229 -0.1654  0.3147  0.0484
 7714SOL    HW134604   2.725   1.725  15.218  0.4480 -1.4751 -1.9646
 7714SOL    HW234605   2.631   1.650  15.140 -1.2678  0.5610  0.0528
 7715SOL     OW34606   2.952   2.280  16.670 -0.0615  0.3703 -0.8942
 7715SOL    HW134607   3.044   2.286  16.642  0.2429 -0.3201 -0.0299
 7715SOL    HW234608   2.957   2.330  16.751  1.1697  0.2787 -0.9134
 7716SOL     OW34609   1.983   4.392   3.483  0.2510 -0.3034  0.3037
 7716SOL    HW134610   2.015   4.322   3.540 -0.7102 -0.3212  0.8173
 7716SOL    HW234611   2.051   4.457   3.496  0.1685 -0.5113  1.7661
 7717SOL     OW34612   1.787   0.121   7.541  0.2558 -0.0376 -0.2386
 7717SOL    HW134613   1.737   0.169   7.474  1.5268  0.9919 -0.4530
 7717SOL    HW234614   1.734   0.043   7.556  1.4913 -0.4475  1.9064
 7718SOL     OW34615   4.060   0.589   1.930  1.1311 -0.1242  0.6084
 7718SOL    HW134616   4.142   0.556   1.966  0.8787 -0.7032  0.6406
 7718SOL    HW234617   4.082   0.615   1.840  0.7413  0.1223  0.5859
 7719SOL     OW34618   4.183   4.430   8.863  0.0887 -0.4162  0.4738
 7719SOL    HW134619   4.176   4.442   8.768  0.3409  1.7229  0.7195
 7719SOL    HW234620   4.094   4.396   8.874  0.3096 -2.3630 -3.8125
 7720SOL     OW34621   1.957   4.242   9.467 -0.1201  0.1910 -0.3832
 7720SOL    HW134622   2.034   4.291   9.437 -0.2226  1.5335  1.5463
 7720SOL    HW234623   1.889   4.309   9.460 -2.7988 -2.5285 -0.3514
 7721SOL     OW34624   1.953   1.906   7.781 -0.4249  0.5757  0.1932
 7721SOL    HW134625   2.016   1.917   7.852 -1.1077 -1.4926  1.1028
 7721SOL    HW234626   1.959   1.811   7.772  1.0966  0.6237  0.6052
 7722SOL     OW34627   4.463   1.812   5.882 -0.2952 -0.0486 -0.3884
 7722SOL    HW134628   4.500   1.886   5.835 -1.3904  0.5050 -0.3844
 7722SOL    HW234629   4.402   1.852   5.944  0.3911 -1.4021  1.1396
 7723SOL     OW34630   3.715   0.512   0.171 -0.0557 -0.5242 -0.0907
 7723SOL    HW134631   3.744   0.600   0.146 -0.7004  0.3212  2.1408
 7723SOL    HW234632   3.770   0.506   0.249 -0.1718  2.9241  0.2846
 7724SOL     OW34633   2.015   1.377   6.683  0.3246 -0.4639  0.2463
 7724SOL    HW134634   2.048   1.344   6.599 -1.7310 -2.8157  0.3591
 7724SOL    HW234635   2.077   1.446   6.705 -0.7879  0.4403  0.5299
 7725SOL     OW34636   3.465   2.317   4.398  0.0837  0.0282 -0.3695
 7725SOL    HW134637   3.426   2.257   4.334  0.1135  0.0818 -0.4367
 7725SOL    HW234638   3.554   2.327   4.364 -0.1105  2.3456 -0.1424
 7726SOL     OW34639   4.503   2.546   5.204 -0.1959 -0.4574 -0.2791
 7726SOL    HW134640   4.490   2.569   5.112  1.1901  2.1203  0.1558
 7726SOL    HW234641   4.505   2.637   5.234 -1.7526 -0.9845  1.4766
 7727SOL     OW34642   1.031   0.712   8.188 -0.4684 -0.0201 -0.3239
 7727SOL    HW134643   0.938   0.687   8.184  0.0904 -2.2940  0.8684
 7727SOL    HW234644   1.012   0.805   8.197 -0.0084 -0.1370  1.8173
 7728SOL     OW34645   0.385   4.341   6.766 -0.1518 -0.2260  0.1080
 7728SOL    HW134646   0.298   4.365   6.735 -0.5590  0.3930  1.7396
 7728SOL    HW234647   0.366   4.252   6.795  0.0382 -0.0077  0.8919
 7729SOL     OW34648   0.970   2.509   8.044 -0.0803  0.1161  0.0612
 7729SOL    HW134649   0.905   2.571   8.075 -0.7169 -0.1720 -0.7083
 7729SOL    HW234650   1.014   2.557   7.973  2.5354  1.3379  2.4935
 7730SOL     OW34651   0.685   3.996   1.549 -0.0329 -0.5275 -0.5582
 7730SOL    HW134652   0.740   4.054   1.498  0.0328  1.5396  1.8987
 7730SOL    HW234653   0.755   3.937   1.577 -2.1765 -1.8792  1.9290
 7731SOL     OW34654   1.168   1.800   6.771  0.4363 -0.2476  0.3397
 7731SOL    HW134655   1.147   1.728   6.711  1.9872  1.0404 -1.7188
 7731SOL    HW234656   1.149   1.755   6.854  2.8179  2.5600  2.3788
 7732SOL     OW34657   1.563   4.355   4.340 -0.3051 -0.0435  0.3688
 7732SOL    HW134658   1.555   4.403   4.423 -0.1979  2.0642 -0.8442
 7732SOL    HW234659   1.543   4.263   4.359 -2.3052 -0.0958 -1.9829
 7733SOL     OW34660   2.652   2.369   5.223 -0.6188  0.8770  0.4243
 7733SOL    HW134661   2.735   2.415   5.236 -0.2939 -0.3593  2.7864
 7733SOL    HW234662   2.604   2.443   5.187 -1.3891 -0.0460 -0.4310
 7734SOL     OW34663   0.169   4.161   7.001  0.1955  0.0247 -0.1293
 7734SOL    HW134664   0.150   4.167   7.095 -0.2064  1.8445 -0.3330
 7734SOL    HW234665   0.162   4.253   6.978  0.3118  0.0117 -0.2145
 7735SOL     OW34666   1.540   1.359   2.395 -0.2337  0.7968 -0.3775
 7735SOL    HW134667   1.612   1.413   2.426 -0.0484 -0.1925  0.9232
 7735SOL    HW234668   1.589   1.284   2.361 -1.2033  0.7088 -1.5976
 7736SOL     OW34669   2.410   4.677  11.277 -0.2691  0.5300  0.0553
 7736SOL    HW134670   2.392   4.675  11.371  0.4420  1.6491  0.2173
 7736SOL    HW234671   2.505   4.661  11.279 -0.3162  0.6627  3.0212
 7737SOL     OW34672   0.629   2.143   6.152  0.4896  0.4864  0.1193
 7737SOL    HW134673   0.685   2.091   6.094 -2.3384 -0.8693 -1.3816
 7737SOL    HW234674   0.569   2.175   6.086 -1.2291 -0.0435  1.4224
 7738SOL     OW34675   3.020   2.090  15.912 -0.4893  0.5461  0.1624
 7738SOL    HW134676   2.989   2.142  15.986  0.3258  1.1520  0.0799
 7738SOL    HW234677   3.111   2.119  15.904 -0.1546 -0.3436  0.7887
 7739SOL     OW34678   2.424   1.615  14.199 -0.0763  0.6049 -0.3321
 7739SOL    HW134679   2.497   1.627  14.139  1.6023 -0.7115  1.4457
 7739SOL    HW234680   2.416   1.520  14.201  0.1210  0.5969  0.1194
 7740SOL     OW34681   3.811   4.625   4.738  0.1751  0.1086  0.3163
 7740SOL    HW134682   3.813   4.697   4.802  0.3347  0.9570 -0.6421
 7740SOL    HW234683   3.792   4.551   4.795 -0.9724  0.5685  0.5238
 7741SOL     OW34684   1.214   1.758   2.467  0.2990 -0.7843  0.4006
 7741SOL    HW134685   1.122   1.782   2.461  0.2357 -1.4480 -1.2123
 7741SOL    HW234686   1.252   1.789   2.385 -0.3118 -1.1329 -0.0061
 7742SOL     OW34687   3.777   1.006   0.299  0.0236  0.0058 -0.3244
 7742SOL    HW134688   3.683   1.026   0.297  0.3534  1.7057  1.5990
 7742SOL    HW234689   3.801   1.019   0.391  1.0387 -1.3045 -0.4085
 7743SOL     OW34690   0.336   1.330  17.285  0.3278 -0.4209  0.0703
 7743SOL    HW134691   0.291   1.413  17.302  1.9501 -0.0382  2.3821
 7743SOL    HW234692   0.327   1.315  17.191  0.1515  3.1438 -0.4888
 7744SOL     OW34693   0.682   0.537   2.523 -0.0485 -0.3826  0.0558
 7744SOL    HW134694   0.660   0.503   2.436  0.6833 -0.0283 -0.2674
 7744SOL    HW234695   0.597   0.552   2.564 -1.1047  0.1720 -2.3436
 7745SOL     OW34696   3.290   2.442   3.814 -0.0475 -0.6503  0.7209
 7745SOL    HW134697   3.246   2.490   3.744 -0.2004 -1.2732  0.3881
 7745SOL    HW234698   3.291   2.351   3.785 -2.3150 -0.8154  1.1244
 7746SOL     OW34699   2.638   1.565  13.961  0.1678  0.1977  0.2620
 7746SOL    HW134700   2.672   1.654  13.952 -1.2660  0.8417  1.2502
 7746SOL    HW234701   2.707   1.526  13.907 -1.2734 -0.0368 -1.3986
 7747SOL     OW34702   4.361   0.000  10.124 -0.0876  0.5700 -0.3360
 7747SOL    HW134703   4.435   0.054  10.154  1.0747  0.2064 -2.5119
 7747SOL    HW234704   4.301   0.005  10.198  1.0027  1.2514  0.5105
 7748SOL     OW34705   2.565   1.764   3.632 -0.6058 -0.5522 -0.2786
 7748SOL    HW134706   2.560   1.719   3.717 -0.5256 -1.7623 -0.9133
 7748SOL    HW234707   2.489   1.821   3.644 -0.0669  0.4256 -1.5166
 7749SOL     OW34708   2.673   0.972  13.801  0.0524  0.3133  0.3700
 7749SOL    HW134709   2.747   1.028  13.780 -1.3906  1.1781 -2.4307
 7749SOL    HW234710   2.642   1.015  13.881 -0.4050  1.3656 -0.3682
 7750SOL     OW34711   1.876   1.924  10.053  0.2314 -0.5769  0.4898
 7750SOL    HW134712   1.830   1.861   9.997  0.1561  2.2319 -2.6236
 7750SOL    HW234713   1.957   1.875  10.069  2.8576  2.6400 -3.0016
 7751SOL     OW34714   3.342   4.122   5.102  0.6092  0.1403  0.2016
 7751SOL    HW134715   3.356   4.063   5.028  1.2029  1.2048 -0.5436
 7751SOL    HW234716   3.248   4.120   5.121  0.5736 -3.6388 -0.4678
 7752SOL     OW34717   2.741   3.944  16.974 -0.3056  0.0458  0.3743
 7752SOL    HW134718   2.772   4.034  16.981 -0.1029  0.0956 -1.0453
 7752SOL    HW234719   2.683   3.952  16.898 -1.2882 -0.6659  1.0493
 7753SOL     OW34720   3.810   3.894  12.395  0.2842 -0.6174  0.2234
 7753SOL    HW134721   3.753   3.900  12.472 -0.9199  2.3533 -0.9107
 7753SOL    HW234722   3.869   3.824  12.421  0.0761 -1.6613 -2.1089
 7754SOL     OW34723   3.794   1.898   6.402  0.1375  0.6046 -0.1007
 7754SOL    HW134724   3.793   1.938   6.489 -2.3197 -0.7862  0.5082
 7754SOL    HW234725   3.753   1.975   6.363  2.7354  1.3635 -1.3132
 7755SOL     OW34726   1.049   4.158  14.695 -0.1824  0.2713 -0.2774
 7755SOL    HW134727   0.989   4.107  14.641  0.1924 -1.1137  0.6218
 7755SOL    HW234728   1.136   4.120  14.681 -1.1025 -2.0114  0.2857
 7756SOL     OW34729   1.415   0.634   3.538 -0.9074 -0.1176 -0.0599
 7756SOL    HW134730   1.409   0.729   3.526  0.2673  0.1391  1.4521
 7756SOL    HW234731   1.396   0.627   3.631  0.3650  0.2128  0.2133
 7757SOL     OW34732   1.065   0.304   8.306 -0.2241  0.3399  0.3331
 7757SOL    HW134733   1.000   0.325   8.239 -2.7126  0.9431  2.9089
 7757SOL    HW234734   1.084   0.390   8.344 -0.0891 -1.7147  4.9834
 7758SOL     OW34735   0.563   0.620   5.961 -0.3074  0.0608  0.9066
 7758SOL    HW134736   0.548   0.710   5.990  0.3813  0.0730  1.2206
 7758SOL    HW234737   0.547   0.585   6.049 -3.4926 -0.5175  0.0867
 7759SOL     OW34738   4.542   0.668   6.733 -0.1543  0.8185 -0.0538
 7759SOL    HW134739   4.454   0.679   6.770 -0.5029 -1.6781 -0.1347
 7759SOL    HW234740   4.529   0.590   6.680  2.1004  0.4997 -0.1306
 7760SOL     OW34741   3.808   4.320   5.904  0.0554  0.3004  0.1959
 7760SOL    HW134742   3.892   4.315   5.858  0.0881 -0.2136  0.3113
 7760SOL    HW234743   3.766   4.380   5.843  0.3495  0.5360  0.2233
 7761SOL     OW34744   3.249   0.937   4.974  0.1477  0.5247  0.3462
 7761SOL    HW134745   3.332   0.922   4.928 -0.9197  0.9994 -1.7715
 7761SOL    HW234746   3.236   0.850   5.011  1.4442 -0.5317 -1.7199
 7762SOL     OW34747   2.090   3.670   5.991  0.1198 -0.3787 -0.0646
 7762SOL    HW134748   2.026   3.734   6.020  2.6617  0.7946  2.8952
 7762SOL    HW234749   2.137   3.656   6.073 -0.7893 -0.0872  0.5036
 7763SOL     OW34750   4.396   1.692   5.600 -0.7030  0.2833 -0.2303
 7763SOL    HW134751   4.408   1.769   5.656 -1.1135 -0.5664  1.0413
 7763SOL    HW234752   4.471   1.703   5.541 -1.3986  1.1811 -0.9436
 7764SOL     OW34753   1.515   1.907   4.586 -0.1579  0.1264 -0.3001
 7764SOL    HW134754   1.493   1.828   4.634  1.3957 -0.2379 -0.2010
 7764SOL    HW234755   1.460   1.975   4.627 -1.8048 -0.6545 -1.2037
 7765SOL     OW34756   1.559   4.664   2.647 -1.0926 -0.2464 -0.4803
 7765SOL    HW134757   1.530   0.027   2.617 -2.7075 -0.4093  0.6113
 7765SOL    HW234758   1.491   4.645   2.712 -0.9682  1.4986  0.1544
 7766SOL     OW34759   0.951   1.178   3.889 -0.1343  0.2562 -0.0652
 7766SOL    HW134760   0.888   1.206   3.956  1.0575 -1.9481  1.9415
 7766SOL    HW234761   1.034   1.221   3.910 -1.5722  1.7347  2.6717
 7767SOL     OW34762   2.424   0.711  11.564 -0.1518 -0.4627 -0.1793
 7767SOL    HW134763   2.465   0.793  11.593 -1.3898  0.0222  0.2030
 7767SOL    HW234764   2.369   0.697  11.641  2.0545  1.9029  1.8609
 7768SOL     OW34765   4.067   4.067   5.933 -0.6057  0.0896 -0.2668
 7768SOL    HW134766   3.973   4.069   5.917 -0.8853  2.4513  1.7365
 7768SOL    HW234767   4.093   4.152   5.897  1.9709 -0.1631  0.9782
 7769SOL     OW34768   0.191   2.269  15.836  0.3952 -0.0674  0.2193
 7769SOL    HW134769   0.148   2.183  15.838 -1.8217  1.0064 -0.9289
 7769SOL    HW234770   0.284   2.247  15.839 -0.4213 -3.5745  0.2863
 7770SOL     OW34771   2.184   2.450   0.488  0.8277 -0.1398 -0.4226
 7770SOL    HW134772   2.123   2.382   0.516  0.1171  0.2777 -0.9399
 7770SOL    HW234773   2.229   2.458   0.572 -0.6015  0.9631  0.2383
 7771SOL     OW34774   2.161   1.425   9.436  0.2629  0.0714 -0.1989
 7771SOL    HW134775   2.145   1.513   9.471 -1.0279 -0.8196  1.4446
 7771SOL    HW234776   2.204   1.395   9.516  0.7911  2.4139  0.3956
 7772SOL     OW34777   3.564   2.426   9.139  0.7054  0.2162  0.1486
 7772SOL    HW134778   3.485   2.423   9.086 -0.4905 -0.9390  1.9977
 7772SOL    HW234779   3.595   2.516   9.129  1.5715  0.0329  1.1129
 7773SOL     OW34780   4.515   1.566   0.464 -0.4458  0.2722 -0.3779
 7773SOL    HW134781   4.449   1.634   0.474  0.3157  1.0974 -0.9636
 7773SOL    HW234782   4.521   1.529   0.552 -1.7638  2.5445  0.6773
 7774SOL     OW34783   2.129   2.323  16.266 -0.0379  0.5595  0.1613
 7774SOL    HW134784   2.050   2.271  16.276  0.2999 -0.1349 -0.7778
 7774SOL    HW234785   2.172   2.328  16.351  1.1258  0.0007 -0.3936
 7775SOL     OW34786   2.294   0.882   3.101 -0.4146  0.4063 -0.7715
 7775SOL    HW134787   2.211   0.843   3.074 -0.8542  1.9388 -1.6139
 7775SOL    HW234788   2.306   0.955   3.041  3.3401 -1.4083 -2.2176
 7776SOL     OW34789   2.087   4.487  11.822 -0.3799  0.3006  0.4456
 7776SOL    HW134790   2.008   4.535  11.847 -1.5027 -0.6487 -1.2262
 7776SOL    HW234791   2.127   4.558  11.772 -0.3591  0.9648  1.4217
 7777SOL     OW34792   0.179   3.187   1.400 -0.0382  0.5878 -0.0159
 7777SOL    HW134793   0.088   3.186   1.371 -0.3168  2.6992  0.7616
 7777SOL    HW234794   0.222   3.215   1.319  4.2220 -1.2925  1.5672
 7778SOL     OW34795   2.569   3.622   6.786 -0.3629  0.1091  0.1924
 7778SOL    HW134796   2.546   3.615   6.694  0.4146 -0.0521  0.0064
 7778SOL    HW234797   2.545   3.533   6.809  0.5073 -0.3844 -0.8253
 7779SOL     OW34798   2.656   2.463   4.602  0.1039 -0.4386 -0.2517
 7779SOL    HW134799   2.716   2.409   4.550  0.8468  0.8324 -0.7152
 7779SOL    HW234800   2.612   2.520   4.539  0.2135  1.2732  1.2285
 7780SOL     OW34801   0.859   1.909   4.953  0.5881  0.3085 -0.3110
 7780SOL    HW134802   0.797   1.879   4.887 -0.1916 -1.1728  1.0932
 7780SOL    HW234803   0.884   1.830   5.002  2.1597  0.2148 -1.2515
 7781SOL     OW34804   3.904   0.487   3.563  0.7507  0.1194 -0.0887
 7781SOL    HW134805   3.864   0.400   3.567  3.4613 -1.0757  1.1355
 7781SOL    HW234806   3.866   0.536   3.491  2.6376  0.3199 -0.9485
 7782SOL     OW34807   4.169   4.435  13.866 -0.1861  0.4628 -0.0119
 7782SOL    HW134808   4.088   4.468  13.903  0.1633  1.3465 -0.0427
 7782SOL    HW234809   4.221   4.429  13.946  1.6797  0.5537 -1.2067
 7783SOL     OW34810   4.080   1.288   1.998  0.1770  0.7506  0.2708
 7783SOL    HW134811   4.071   1.369   2.048 -2.7113  1.1944 -0.9895
 7783SOL    HW234812   4.095   1.233   2.075  3.9464 -1.5159 -2.0611
 7784SOL     OW34813   0.522   1.492   8.548 -0.4056 -0.5238  0.3610
 7784SOL    HW134814   0.463   1.440   8.494 -1.0121  2.2957 -1.6927
 7784SOL    HW234815   0.570   1.543   8.482  0.2792 -0.6655  0.7480
 7785SOL     OW34816   0.341   0.874   4.926  0.2654 -0.4937 -0.1533
 7785SOL    HW134817   0.291   0.810   4.875  1.3821 -0.3341 -1.4531
 7785SOL    HW234818   0.425   0.879   4.880  0.4076  0.5842  0.2319
 7786SOL     OW34819   1.679   3.207   4.143  0.5606 -0.1410 -0.0829
 7786SOL    HW134820   1.619   3.246   4.079  1.2752  0.3615 -0.4470
 7786SOL    HW234821   1.621   3.189   4.217 -0.2940  0.2150 -0.6603
 7787SOL     OW34822   1.928   2.219   3.605  0.0216 -0.4003  0.6099
 7787SOL    HW134823   1.840   2.232   3.569  0.9358 -3.0412 -2.5259
 7787SOL    HW234824   1.964   2.303   3.633  1.1288 -0.1646 -1.5301
 7788SOL     OW34825   1.283   3.044   7.104  0.2439  0.4273  0.1331
 7788SOL    HW134826   1.225   2.978   7.142  0.3824  0.2697  0.0671
 7788SOL    HW234827   1.363   3.010   7.145  2.7311  4.0148 -1.7551
 7789SOL     OW34828   2.431   2.057  17.314  0.2075  0.3430 -0.0204
 7789SOL    HW134829   2.422   2.106  17.396  0.0354  0.5591 -0.1675
 7789SOL    HW234830   2.344   2.049  17.276 -0.5167  1.9922  1.2745
 7790SOL     OW34831   2.932   2.874   9.315 -0.1748  0.1749  0.1129
 7790SOL    HW134832   2.925   2.778   9.308  1.3108 -0.0481  1.6455
 7790SOL    HW234833   3.011   2.879   9.369 -0.2360  2.5390 -0.0270
 7791SOL     OW34834   1.856   2.579   8.025  0.5918 -0.6371  0.4271
 7791SOL    HW134835   1.780   2.636   8.012  2.0481  1.7123  2.2054
 7791SOL    HW234836   1.887   2.600   8.113 -0.7158 -3.9853  1.6786
 7792SOL     OW34837   1.169   2.481   8.976  0.6385  0.2683 -0.0924
 7792SOL    HW134838   1.109   2.514   8.909  0.0655  0.5508  0.5557
 7792SOL    HW234839   1.113   2.437   9.039  1.9571 -0.8139  0.3265
 7793SOL     OW34840   3.934   2.057   7.185  0.0677  0.1980  0.5977
 7793SOL    HW134841   3.963   2.090   7.099 -0.9978 -1.3393 -0.3559
 7793SOL    HW234842   3.946   2.131   7.244  0.2108 -0.2505  1.1262
 7794SOL     OW34843   3.406   1.891  11.235  0.5411 -0.3179 -0.0174
 7794SOL    HW134844   3.438   1.909  11.324  0.3082 -1.3242  0.2704
 7794SOL    HW234845   3.483   1.842  11.208 -0.6436 -1.9868 -0.3347
 7795SOL     OW34846   3.594   1.899  11.463 -0.1536 -0.0680 -0.1698
 7795SOL    HW134847   3.554   1.955  11.529  0.8016  1.2105 -0.6628
 7795SOL    HW234848   3.686   1.924  11.475 -0.7495  0.9403  2.1394
 7796SOL     OW34849   0.666   0.063  12.000  0.4580 -0.1887  0.4011
 7796SOL    HW134850   0.670   0.139  12.059  1.0962  0.0925 -0.0095
 7796SOL    HW234851   0.661   4.714  12.061  1.1678  0.5900  1.3805
 7797SOL     OW34852   4.612   3.132  15.728  0.4098 -0.1389 -0.0716
 7797SOL    HW134853   4.684   3.117  15.790  1.6145  1.2220 -1.1054
 7797SOL    HW234854   4.601   3.226  15.743 -0.0036  0.0260 -1.3724
 7798SOL     OW34855   1.686   3.805   5.099  0.1615 -0.4837  0.5559
 7798SOL    HW134856   1.605   3.755   5.115 -0.9283  0.8152 -0.8816
 7798SOL    HW234857   1.748   3.733   5.084 -2.3445 -2.5749  0.1621
 7799SOL     OW34858   0.831   3.940  12.518  0.1639  0.2393 -0.0005
 7799SOL    HW134859   0.799   3.945  12.608  1.0360 -1.1469  0.3903
 7799SOL    HW234860   0.886   3.863  12.530 -1.0396 -0.1316  3.1657
 7800SOL     OW34861   4.144   2.024   2.457  0.1278 -0.0974  0.2799
 7800SOL    HW134862   4.209   1.960   2.484 -1.9988 -1.9244  1.1292
 7800SOL    HW234863   4.119   2.047   2.546  0.9129  0.9116  0.2364
 7801SOL     OW34864   0.853   1.786  16.567 -0.4692  0.2751  0.2251
 7801SOL    HW134865   0.905   1.836  16.504 -1.2353  0.1335 -0.5295
 7801SOL    HW234866   0.794   1.741  16.507 -1.2786  2.0597 -0.3330
 7802SOL     OW34867   2.748   4.507  16.123 -0.3589  0.6250 -0.4079
 7802SOL    HW134868   2.812   4.449  16.164 -4.5859 -3.9640 -0.3346
 7802SOL    HW234869   2.704   4.442  16.068  0.3924 -0.3793  0.1726
 7803SOL     OW34870   4.428   2.031   3.244  0.1715  0.3543 -0.5236
 7803SOL    HW134871   4.485   2.085   3.189  0.7635 -1.0944 -1.3427
 7803SOL    HW234872   4.370   1.998   3.176 -0.1380  0.0196 -0.0943
 7804SOL     OW34873   0.658   1.743   9.100  0.0743 -0.2845  0.4745
 7804SOL    HW134874   0.564   1.757   9.107  0.1038  0.4349 -0.5885
 7804SOL    HW234875   0.669   1.653   9.131 -0.2528 -0.3274  0.4582
 7805SOL     OW34876   2.078   2.230   4.248  1.0491  0.3903 -0.6736
 7805SOL    HW134877   2.170   2.256   4.257  0.7207  1.7538 -1.0926
 7805SOL    HW234878   2.058   2.263   4.160 -0.7338  0.0332 -0.3907
 7806SOL     OW34879   2.701   1.431   4.046 -0.2327 -0.6512  0.0710
 7806SOL    HW134880   2.719   1.484   4.124  1.2435 -0.1853 -0.5799
 7806SOL    HW234881   2.773   1.368   4.043 -0.5900 -1.0402 -0.4984
 7807SOL     OW34882   4.492   3.827  14.517 -0.2014 -0.4996 -0.8159
 7807SOL    HW134883   4.557   3.879  14.471 -0.8591  1.2827  0.2652
 7807SOL    HW234884   4.413   3.848  14.467  1.0887 -0.4238 -2.8095
 7808SOL     OW34885   0.388   1.094  15.637  0.5233 -0.8663  0.2310
 7808SOL    HW134886   0.307   1.047  15.617  1.8228 -3.2086  0.4953
 7808SOL    HW234887   0.395   1.154  15.563  0.2701 -1.0696  0.0440
 7809SOL     OW34888   3.462   4.389   5.022 -0.1942 -0.5592 -0.0426
 7809SOL    HW134889   3.394   4.332   5.057 -0.1428 -1.3444 -1.2072
 7809SOL    HW234890   3.542   4.336   5.031 -0.7144 -1.7696 -2.4996
 7810SOL     OW34891   0.482   4.563   8.921  0.3618  0.3135  0.1118
 7810SOL    HW134892   0.540   4.639   8.923  0.0295  0.6313 -2.1374
 7810SOL    HW234893   0.540   4.491   8.901 -1.7035 -1.6142  1.0363
 7811SOL     OW34894   0.929   3.635  10.458 -0.1664  0.2449 -0.2955
 7811SOL    HW134895   0.957   3.697  10.525  1.4463  0.6196 -1.3348
 7811SOL    HW234896   0.952   3.549  10.492 -0.2315  1.1347  2.0703
 7812SOL     OW34897   0.613   1.927  17.416 -0.3240  0.0350  0.0220
 7812SOL    HW134898   0.581   1.958  17.501 -0.1544 -0.9704  0.4490
 7812SOL    HW234899   0.572   1.993  17.360 -1.8835 -1.1670 -0.2634
 7813SOL     OW34900   2.650   1.595  14.945 -0.1965  0.0225  0.4646
 7813SOL    HW134901   2.712   1.607  14.872  0.2307  2.0945  1.1539
 7813SOL    HW234902   2.589   1.530  14.911  1.8952 -1.5764 -0.1967
 7814SOL     OW34903   2.023   1.968   6.328 -1.1143 -0.4206 -0.1618
 7814SOL    HW134904   1.961   1.999   6.393 -3.8687 -4.9692 -0.6121
 7814SOL    HW234905   2.033   1.881   6.366  2.2410 -0.3408 -0.8311
 7815SOL     OW34906   4.550   3.491  15.483  0.3167  0.2424 -0.3247
 7815SOL    HW134907   4.643   3.494  15.507 -0.1251  0.1291  1.3940
 7815SOL    HW234908   4.564   3.465  15.392  1.5797  1.2383 -0.4265
 7816SOL     OW34909   0.715   0.131  10.031  0.1069  0.3044 -0.0745
 7816SOL    HW134910   0.674   0.060  10.080  1.1746  1.2048  2.0852
 7816SOL    HW234911   0.673   0.201  10.081  1.3697  1.5718 -0.7925
 7817SOL     OW34912   0.903   1.024  11.689 -0.0954  0.4205  0.2965
 7817SOL    HW134913   0.886   1.067  11.773 -0.8001 -1.2823  1.0089
 7817SOL    HW234914   0.924   0.937  11.722  0.5640  0.4145 -0.1421
 7818SOL     OW34915   0.805   1.187   5.685  0.6257  0.3277  0.1950
 7818SOL    HW134916   0.723   1.159   5.645 -0.7905  2.1601  1.8749
 7818SOL    HW234917   0.867   1.191   5.611 -1.6152  0.3612 -1.6787
 7819SOL     OW34918   0.361   3.429   8.958  0.4860 -0.5110 -0.4344
 7819SOL    HW134919   0.310   3.427   9.039 -0.4694  1.2262 -0.9775
 7819SOL    HW234920   0.452   3.437   8.987  0.4473 -2.5373  0.2259
 7820SOL     OW34921   2.147   0.444   7.410  0.2174  0.4226  0.2361
 7820SOL    HW134922   2.196   0.367   7.382 -0.4945 -0.1597  0.5913
 7820SOL    HW234923   2.201   0.495   7.470 -2.2646 -0.1335  2.9623
 7821SOL     OW34924   1.457   3.291   6.858 -0.6122 -0.3912 -0.0135
 7821SOL    HW134925   1.476   3.273   6.950 -1.8525  0.0175  0.3208
 7821SOL    HW234926   1.537   3.335   6.831 -0.6474 -0.9604 -1.0753
 7822SOL     OW34927   3.992   3.918   9.347 -0.0803  0.8040  0.2482
 7822SOL    HW134928   4.020   3.844   9.293 -0.7945  0.1704  0.7568
 7822SOL    HW234929   4.026   3.888   9.431  1.9816  2.2392 -0.0608
 7823SOL     OW34930   4.115   3.659  15.281 -0.4837  0.2919 -0.3820
 7823SOL    HW134931   4.157   3.726  15.335 -0.9580  1.0116 -0.9046
 7823SOL    HW234932   4.077   3.592  15.338  3.1922 -0.9989  0.5076
 7824SOL     OW34933   4.196   4.242   5.700  0.8388  0.3277  0.0830
 7824SOL    HW134934   4.256   4.247   5.626  1.3845  4.0608  0.8129
 7824SOL    HW234935   4.120   4.195   5.665  0.5652  0.2179  0.8238
 7825SOL     OW34936   4.714   0.525  14.674  0.2932  0.1267  0.1875
 7825SOL    HW134937   0.009   0.462  14.744  0.4045  0.6472  0.6268
 7825SOL    HW234938   4.669   0.467  14.613 -1.0307  1.9884 -0.6245
 7826SOL     OW34939   4.199   4.615   3.421  0.1237 -0.6485 -0.1006
 7826SOL    HW134940   4.197   4.680   3.491  4.4843  0.7981 -1.3063
 7826SOL    HW234941   4.113   4.645   3.390 -0.2996 -0.2258  1.4677
 7827SOL     OW34942   1.875   0.111   4.847  0.2281 -0.5124 -0.2455
 7827SOL    HW134943   1.820   0.038   4.819 -1.2737  0.7225 -0.5223
 7827SOL    HW234944   1.958   0.065   4.859  0.0612 -0.5791  0.6093
 7828SOL     OW34945   0.127   2.153   5.128 -0.1872  0.5646  0.1040
 7828SOL    HW134946   0.093   2.240   5.152 -3.4005 -0.4931 -0.6120
 7828SOL    HW234947   0.068   2.127   5.058 -1.1275  0.3480  0.9717
 7829SOL     OW34948   2.796   2.137   4.940  0.1809 -0.6713 -0.0913
 7829SOL    HW134949   2.737   2.212   4.941 -0.1274 -0.9285  1.5069
 7829SOL    HW234950   2.745   2.084   5.001 -0.1495  0.6423  0.7722
 7830SOL     OW34951   2.493   2.358  10.796 -0.0292  0.2921  0.0560
 7830SOL    HW134952   2.557   2.429  10.795 -0.5794  0.7660 -1.9011
 7830SOL    HW234953   2.426   2.402  10.848 -1.2359  0.3564 -1.5421
 7831SOL     OW34954   2.581   0.507   7.557 -0.3133 -0.5165  0.5213
 7831SOL    HW134955   2.580   0.600   7.534 -1.6075 -0.9038 -0.9586
 7831SOL    HW234956   2.530   0.471   7.485 -1.4356 -0.8433  1.4779
 7832SOL     OW34957   3.927   0.060  10.001  0.6372 -0.3490  0.6313
 7832SOL    HW134958   3.857   0.093   9.945 -2.4546 -0.2548  4.5995
 7832SOL    HW234959   3.884   0.013  10.072  0.0881  0.3548  0.7564
 7833SOL     OW34960   2.802   0.432   6.630  0.0009 -0.3563  0.5074
 7833SOL    HW134961   2.719   0.456   6.672 -0.4629 -1.8028  0.4107
 7833SOL    HW234962   2.779   0.352   6.583  0.3096 -0.0476 -0.1574
 7834SOL     OW34963   3.019   0.193   7.312  0.8540 -0.4925  0.3567
 7834SOL    HW134964   3.068   0.250   7.372 -0.9134 -0.7736  2.0606
 7834SOL    HW234965   2.930   0.203   7.347  1.3337  1.4320  1.0620
 7835SOL     OW34966   2.480   3.980   0.479  0.1908  0.1372  0.7089
 7835SOL    HW134967   2.453   4.037   0.406 -0.6105  1.2713  1.9028
 7835SOL    HW234968   2.399   3.931   0.495 -0.0616 -0.1357 -1.3524
 7836SOL     OW34969   4.367   1.141   3.529 -0.3591  0.3957  0.1494
 7836SOL    HW134970   4.416   1.213   3.489 -2.3942  0.7422 -1.6874
 7836SOL    HW234971   4.295   1.189   3.571 -1.4634 -0.7756 -0.4219
 7837SOL     OW34972   3.363   0.172   2.690 -0.0878  0.1734  1.2602
 7837SOL    HW134973   3.385   0.239   2.626  1.0590 -0.7248  0.7135
 7837SOL    HW234974   3.398   0.090   2.653  0.5151  1.4163 -0.9450
 7838SOL     OW34975   4.456   1.995   0.400 -0.3729  0.4630 -0.1012
 7838SOL    HW134976   4.526   2.045   0.358  0.0561 -1.5901 -1.8348
 7838SOL    HW234977   4.381   2.053   0.390 -1.2695 -0.4018  1.5914
 7839SOL     OW34978   2.323   1.946   3.665 -0.1750 -0.0450  0.1673
 7839SOL    HW134979   2.278   2.000   3.599 -0.7171 -0.1325  0.4630
 7839SOL    HW234980   2.308   2.003   3.740 -2.5333 -0.6694  0.1930
 7840SOL     OW34981   2.082   2.987  14.960  0.5732 -0.3642  0.0505
 7840SOL    HW134982   2.004   3.029  14.995 -0.0016 -1.5368  0.1749
 7840SOL    HW234983   2.076   2.900  14.999 -0.2176 -0.2702  0.1247
 7841SOL     OW34984   3.354   4.097   4.793  0.2653 -0.8542 -0.7653
 7841SOL    HW134985   3.388   4.008   4.786 -0.2106 -0.9359 -2.0342
 7841SOL    HW234986   3.260   4.081   4.789 -0.2416  2.1540 -0.9270
 7842SOL     OW34987   0.463   0.201  12.552  0.4062  0.3003  0.4055
 7842SOL    HW134988   0.466   0.197  12.457  2.3952  2.0214  0.4008
 7842SOL    HW234989   0.555   0.218  12.572  0.7179 -2.9016  1.6714
 7843SOL     OW34990   3.772   0.528   2.749  0.1156  0.0212 -0.0289
 7843SOL    HW134991   3.829   0.460   2.784  0.1739  0.2305  0.2892
 7843SOL    HW234992   3.701   0.479   2.708 -1.1348  3.6471 -2.2236
 7844SOL     OW34993   2.260   3.453   5.887 -0.6989 -0.2009 -0.0176
 7844SOL    HW134994   2.199   3.526   5.875 -0.1867  0.1290 -0.6617
 7844SOL    HW234995   2.200   3.381   5.904 -1.1206  0.7739  2.5544
 7845SOL     OW34996   3.424   3.925   6.391  0.4860  0.5202 -0.1191
 7845SOL    HW134997   3.472   3.995   6.436  2.2972 -0.8207  0.0398
 7845SOL    HW234998   3.374   3.894   6.466  0.4590 -1.4703 -0.9744
 7846SOL     OW34999   0.050   0.001   7.873  0.2539  0.6323  0.0180
 7846SOL    HW135000   0.043   0.095   7.885  1.3198  0.9391 -1.6913
 7846SOL    HW235001   0.126   4.716   7.815  1.4379  0.7268  1.5514
 7847SOL     OW35002   2.549   3.803   6.392  0.5975  0.0032 -0.0713
 7847SOL    HW135003   2.554   3.765   6.305  1.4927  0.8417 -0.3855
 7847SOL    HW235004   2.545   3.731   6.454 -1.9565  0.4392  0.2613
 7848SOL     OW35005   0.642   1.482   3.593  0.1745  0.0060 -0.3342
 7848SOL    HW135006   0.725   1.463   3.549  1.1604  1.9731  0.7065
 7848SOL    HW235007   0.583   1.540   3.543  1.7809  0.9180 -1.1821
 7849SOL     OW35008   1.215   0.128  13.623 -0.2003 -0.5858 -0.8190
 7849SOL    HW135009   1.123   0.102  13.620 -0.4359  0.0686  1.0434
 7849SOL    HW235010   1.256   0.043  13.641  1.7849  1.2654  3.1837
 7850SOL     OW35011   1.902   2.676   3.751 -0.2201  0.4639 -0.2602
 7850SOL    HW135012   1.899   2.770   3.732 -0.2892  0.4829 -0.1536
 7850SOL    HW235013   1.808   2.662   3.767 -0.7845  2.2638 -1.9197
 7851SOL     OW35014   0.049   4.216   3.928 -0.0627 -0.4532  0.2251
 7851SOL    HW135015   0.063   4.147   3.864  0.5981 -0.6425  0.5780
 7851SOL    HW235016   0.130   4.227   3.978  1.3181 -0.5956 -2.0126
 7852SOL     OW35017   2.834   2.952   6.134 -0.3946 -0.4039 -0.1302
 7852SOL    HW135018   2.739   2.957   6.129 -0.4432  0.1116  1.2864
 7852SOL    HW235019   2.861   2.962   6.043 -0.9585 -1.2772 -0.3982
 7853SOL     OW35020   3.196   1.591  11.607 -0.4585  0.1715  0.1973
 7853SOL    HW135021   3.155   1.515  11.648  3.3470 -2.1432 -0.2607
 7853SOL    HW235022   3.152   1.602  11.523  0.9369  1.1277 -0.4197
 7854SOL     OW35023   0.248   0.198   6.875 -0.0246 -0.1260  0.6463
 7854SOL    HW135024   0.188   0.234   6.810 -0.4907 -1.5513  0.3004
 7854SOL    HW235025   0.329   0.242   6.848 -0.6566 -0.2899 -1.4723
 7855SOL     OW35026   1.468   0.441  15.440 -0.7139 -0.1604 -0.2495
 7855SOL    HW135027   1.465   0.348  15.464  1.7125  0.2659  1.7306
 7855SOL    HW235028   1.448   0.431  15.347  1.3309 -1.0389 -0.5867
 7856SOL     OW35029   4.499   1.849  12.634 -0.0050  0.1484  0.0842
 7856SOL    HW135030   4.474   1.760  12.610 -0.1745  0.1713  0.1753
 7856SOL    HW235031   4.414   1.877  12.667 -0.3147  0.0265 -0.6195
 7857SOL     OW35032   0.438   1.976   7.511 -0.0845 -0.0373 -0.3248
 7857SOL    HW135033   0.519   2.002   7.467 -0.1681  0.6496 -0.0742
 7857SOL    HW235034   0.378   1.993   7.438 -1.4499 -0.4524  0.7075
 7858SOL     OW35035   1.007   1.029   4.234 -0.0802  1.2173  0.3284
 7858SOL    HW135036   0.986   0.951   4.183 -0.0008  0.7381  1.0217
 7858SOL    HW235037   0.951   1.088   4.183 -1.2995 -1.9932 -2.0314
 7859SOL     OW35038   4.591   1.792   8.620 -0.4347 -0.1525 -0.3564
 7859SOL    HW135039   4.678   1.785   8.660 -0.6979  0.8060  0.3876
 7859SOL    HW235040   4.538   1.727   8.667 -0.3357  0.5812  0.7654
 7860SOL     OW35041   3.160   2.449   8.937 -0.0297  0.0676 -0.0837
 7860SOL    HW135042   3.067   2.468   8.942 -0.2633 -0.9536 -0.6323
 7860SOL    HW235043   3.195   2.500   8.863  1.2694 -0.8457 -0.1000
 7861SOL     OW35044   2.289   1.061   0.633  0.2063 -0.3400 -0.9138
 7861SOL    HW135045   2.288   0.968   0.610  0.7524 -0.3606 -0.8424
 7861SOL    HW235046   2.296   1.054   0.728  0.3135  0.2839 -0.8817
 7862SOL     OW35047   0.589   3.341  13.590  0.6004 -0.2037 -0.4092
 7862SOL    HW135048   0.618   3.410  13.531  1.9997  0.6677  1.2768
 7862SOL    HW235049   0.536   3.290  13.529 -1.3915  1.2219  0.1276
 7863SOL     OW35050   0.716   2.577   8.112 -0.3099 -0.0152 -0.5536
 7863SOL    HW135051   0.628   2.543   8.129 -1.0949  1.9157 -0.7794
 7863SOL    HW235052   0.698   2.661   8.154 -0.4132 -1.2674  1.9019
 7864SOL     OW35053   1.695   1.041   2.576  0.0945  0.1941  0.4841
 7864SOL    HW135054   1.713   1.058   2.483 -1.4240 -0.6429  0.0463
 7864SOL    HW235055   1.726   0.950   2.576 -2.6249 -0.7103  0.2159
 7865SOL     OW35056   2.035   4.613  17.168 -0.2658 -0.6797  0.2612
 7865SOL    HW135057   2.077   4.695  17.194 -0.0204 -0.6732 -0.1502
 7865SOL    HW235058   2.017   4.636  17.077 -0.6226  0.9322  0.7442
 7866SOL     OW35059   3.023   3.494  13.895  0.0712 -0.1657 -0.9641
 7866SOL    HW135060   3.035   3.534  13.808  1.8130 -3.9412 -2.4618
 7866SOL    HW235061   3.090   3.426  13.881 -1.4631 -1.8819  0.1558
 7867SOL     OW35062   2.453   0.490   8.090  0.2582  0.2612  0.5493
 7867SOL    HW135063   2.398   0.446   8.156  0.6267 -1.3648 -0.2377
 7867SOL    HW235064   2.531   0.435   8.083  0.9210  1.5402 -1.7217
 7868SOL     OW35065   4.186   3.711   7.302 -0.2273  0.1212 -0.5626
 7868SOL    HW135066   4.122   3.766   7.347 -0.0262 -0.0836 -0.0251
 7868SOL    HW235067   4.218   3.666   7.380  0.7616  1.2627 -0.3060
 7869SOL     OW35068   2.030   2.400  12.294 -0.1108  0.1513  0.9808
 7869SOL    HW135069   2.015   2.495  12.296  1.5005  0.4623 -0.9795
 7869SOL    HW235070   2.028   2.375  12.386 -0.9231  1.2105  1.2565
 7870SOL     OW35071   0.320   1.038   4.272 -0.1009 -0.0220  0.1994
 7870SOL    HW135072   0.293   0.953   4.306 -1.7426  1.1343  1.8555
 7870SOL    HW235073   0.248   1.094   4.303 -1.0786 -0.0677 -2.0368
 7871SOL     OW35074   4.176   2.269   5.082  0.2396  0.3457  0.2820
 7871SOL    HW135075   4.180   2.183   5.039 -2.7969  0.2818  0.0996
 7871SOL    HW235076   4.085   2.288   5.058 -0.5524 -1.9115  1.4280
 7872SOL     OW35077   3.768   0.372  12.034 -0.2074 -1.2129 -0.3732
 7872SOL    HW135078   3.734   0.437  12.096  0.3231 -1.0580 -0.2434
 7872SOL    HW235079   3.823   0.416  11.970 -0.4548 -0.9073 -0.3776
 7873SOL     OW35080   2.659   3.864   5.421 -0.5428  0.1279 -0.2801
 7873SOL    HW135081   2.621   3.811   5.491 -2.1793 -0.4386 -1.5751
 7873SOL    HW235082   2.672   3.940   5.478  0.6049  0.1583 -0.5916
 7874SOL     OW35083   4.617   3.525   8.880  0.0882  0.1293  0.5090
 7874SOL    HW135084   4.534   3.521   8.832  0.3702 -0.4717  0.0713
 7874SOL    HW235085   4.675   3.588   8.838  1.7130  0.2411  2.9444
 7875SOL     OW35086   3.847   3.552   5.718  0.0776  0.4236 -0.1555
 7875SOL    HW135087   3.874   3.460   5.728 -0.4289  0.3176  0.2107
 7875SOL    HW235088   3.886   3.602   5.789  0.9255 -2.6347  1.5187
 7876SOL     OW35089   1.949   4.162   9.717 -0.1753 -0.4593 -0.3609
 7876SOL    HW135090   1.977   4.254   9.713  0.6532 -0.6644  0.8261
 7876SOL    HW235091   1.942   4.158   9.622 -0.4435 -0.5583 -0.3343
 7877SOL     OW35092   1.668   2.361   1.474  0.1132  0.0852  0.0047
 7877SOL    HW135093   1.577   2.340   1.452  0.3959 -0.4947 -0.6095
 7877SOL    HW235094   1.699   2.273   1.497  1.2589  0.5288  0.1301
 7878SOL     OW35095   0.985   0.994   1.194 -0.1504 -0.7479  0.6462
 7878SOL    HW135096   1.005   1.021   1.104 -1.1199 -1.0681  0.3307
 7878SOL    HW235097   0.890   0.989   1.186 -0.0159 -2.0127 -0.1649
 7879SOL     OW35098   2.533   3.140   6.443 -0.6183 -0.3775  0.7012
 7879SOL    HW135099   2.609   3.198   6.436 -1.0320 -0.0204 -0.9303
 7879SOL    HW235100   2.556   3.087   6.519 -0.4296 -0.4028  0.6245
 7880SOL     OW35101   0.508   2.800   4.963  0.0063 -0.1789 -0.4496
 7880SOL    HW135102   0.504   2.856   4.886 -4.3089  0.3168  0.1647
 7880SOL    HW235103   0.502   2.862   5.036  0.8961 -1.7306  0.9427
 7881SOL     OW35104   0.602   1.849  16.695  0.4035 -0.3783  0.3084
 7881SOL    HW135105   0.574   1.769  16.741  0.4649  0.0795  1.1391
 7881SOL    HW235106   0.687   1.819  16.664 -0.1828 -1.0974 -0.6155
 7882SOL     OW35107   2.099   3.958  15.617  0.9353  0.5692  0.3625
 7882SOL    HW135108   2.107   3.891  15.548 -0.0791  0.1607  0.6523
 7882SOL    HW235109   2.059   3.896  15.679 -0.4620  0.7718 -0.3403
 7883SOL     OW35110   2.747   1.654  12.935 -0.3334  0.3936  0.0586
 7883SOL    HW135111   2.813   1.610  12.988 -0.6168  0.4290  0.4353
 7883SOL    HW235112   2.716   1.726  12.989  1.0708  0.6298  0.5360
 7884SOL     OW35113   3.834   2.340  16.596 -0.7928 -0.2156 -0.3225
 7884SOL    HW135114   3.800   2.272  16.655  0.6268  1.3040  2.2613
 7884SOL    HW235115   3.888   2.288  16.537 -1.3087 -1.0705 -0.0445
 7885SOL     OW35116   1.939   0.946   2.938 -0.2530 -0.1236 -0.3997
 7885SOL    HW135117   1.856   0.949   2.891  0.1672 -0.0707 -1.1492
 7885SOL    HW235118   1.994   0.991   2.874  0.3559  0.3629  0.4633
 7886SOL     OW35119   2.956   2.606   5.579 -0.4334 -0.1823 -0.2503
 7886SOL    HW135120   2.897   2.593   5.653  0.1235 -0.5241  0.1293
 7886SOL    HW235121   2.999   2.522   5.566 -1.9553 -0.9764 -0.1331
 7887SOL     OW35122   0.401   0.799  13.317 -0.1506 -0.0682  0.4886
 7887SOL    HW135123   0.444   0.736  13.259 -1.7424  0.8169 -1.6628
 7887SOL    HW235124   0.474   0.824  13.374  0.7969  2.7966 -1.9977
 7888SOL     OW35125   3.701   4.229   5.091  0.3905 -0.3241 -0.2519
 7888SOL    HW135126   3.770   4.169   5.116  0.1561  0.1484  1.5322
 7888SOL    HW235127   3.659   4.236   5.177 -1.7228 -3.2629 -1.0293
 7889SOL     OW35128   0.090   1.447   0.993 -0.0079  0.1650 -0.0703
 7889SOL    HW135129   0.097   1.359   0.957 -3.5457  0.2246 -0.9269
 7889SOL    HW235130   4.721   1.462   0.978 -0.0712  1.1249  1.2726
 7890SOL     OW35131   4.299   0.365   1.545  0.0015 -0.3567  0.6583
 7890SOL    HW135132   4.285   0.276   1.577  0.4913 -1.6383 -2.6556
 7890SOL    HW235133   4.234   0.370   1.475  1.7610 -0.0936 -0.9541
 7891SOL     OW35134   3.763   3.580   7.585 -0.0151 -0.4103 -0.4432
 7891SOL    HW135135   3.842   3.582   7.639  0.2837  2.2196 -0.9800
 7891SOL    HW235136   3.689   3.599   7.642 -0.8179  0.5762 -1.8168
 7892SOL     OW35137   2.340   2.289   4.240 -0.0081 -0.3586  0.6998
 7892SOL    HW135138   2.403   2.226   4.205 -0.4476 -1.0521  1.1504
 7892SOL    HW235139   2.350   2.336   4.157  0.0380 -1.4355  0.0932
 7893SOL     OW35140   0.272   0.538   1.902 -0.7607  0.1797 -0.4282
 7893SOL    HW135141   0.330   0.469   1.870 -0.8232 -0.2077  0.3018
 7893SOL    HW235142   0.279   0.523   1.996 -1.0032  0.1295 -0.4187
 7894SOL     OW35143   2.702   0.813   4.433 -0.6934 -0.6796 -0.0212
 7894SOL    HW135144   2.616   0.827   4.394  0.0642  1.1662 -1.0183
 7894SOL    HW235145   2.679   0.741   4.492 -1.1363  0.4453  1.1637
 7895SOL     OW35146   4.544   1.949   8.405 -0.0333  0.0369 -0.3140
 7895SOL    HW135147   4.572   1.905   8.486 -1.2641  1.1151  0.7077
 7895SOL    HW235148   4.452   1.924   8.395  0.5857 -2.8993  1.1540
 7896SOL     OW35149   2.845   1.373   9.798 -0.3175 -0.3386 -0.3833
 7896SOL    HW135150   2.810   1.414   9.877  0.3794  0.2361 -0.3805
 7896SOL    HW235151   2.759   1.368   9.756 -0.1410 -1.7032 -0.5850
 7897SOL     OW35152   3.939   4.317   9.929 -0.8384  0.3763  0.3432
 7897SOL    HW135153   3.976   4.290  10.013 -0.8089  0.7976  0.4623
 7897SOL    HW235154   3.847   4.291   9.934 -0.5445 -0.4451  1.4293
 7898SOL     OW35155   1.617   2.338   5.922  0.5188 -0.0967  0.5023
 7898SOL    HW135156   1.616   2.411   5.985 -3.2409 -0.5270  0.9331
 7898SOL    HW235157   1.708   2.339   5.894  0.5650  2.2454  0.6960
 7899SOL     OW35158   0.286   3.684   6.584 -0.4688 -0.1527 -0.1429
 7899SOL    HW135159   0.347   3.706   6.654  0.3978 -1.2258 -0.5576
 7899SOL    HW235160   0.213   3.736   6.616  2.1321  2.9437  0.7488
 7900SOL     OW35161   2.548   1.951  16.441  0.0675 -0.7721 -0.3417
 7900SOL    HW135162   2.619   2.004  16.475 -1.9523  2.4594 -1.1648
 7900SOL    HW235163   2.599   1.873  16.420  2.6994  0.7254  0.6198
 7901SOL     OW35164   0.759   4.723   0.189 -0.0387 -0.4362 -0.4190
 7901SOL    HW135165   0.730   0.046   0.267  0.7320 -1.3713  0.4348
 7901SOL    HW235166   0.831   0.049   0.151 -0.6946 -0.6476 -1.9453
 7902SOL     OW35167   2.284   4.006   8.291 -0.7327  0.1350  0.0996
 7902SOL    HW135168   2.355   4.057   8.253 -2.0898  3.1806  1.6572
 7902SOL    HW235169   2.312   3.915   8.281 -2.2773 -0.1498 -1.5949
 7903SOL     OW35170   1.632   3.113   9.679 -0.1938  0.1010 -0.4075
 7903SOL    HW135171   1.715   3.066   9.691 -0.8083 -0.8405  0.2094
 7903SOL    HW235172   1.668   3.201   9.668  0.2763  0.1773  1.7821
 7904SOL     OW35173   3.582   3.011   4.577 -0.1347  0.0909 -0.1963
 7904SOL    HW135174   3.666   3.057   4.570  0.5945 -1.2156  0.1535
 7904SOL    HW235175   3.520   3.074   4.540  0.1406 -0.1712 -1.1086
 7905SOL     OW35176   4.147   2.122   3.284 -0.0971 -0.5888 -0.3158
 7905SOL    HW135177   4.215   2.165   3.334 -1.2690 -0.1995  0.9383
 7905SOL    HW235178   4.144   2.172   3.202  1.6241 -0.9154 -0.5731
 7906SOL     OW35179   2.392   1.362   8.250  0.2406 -0.0724 -1.0748
 7906SOL    HW135180   2.392   1.381   8.344  1.1488 -0.8606 -0.9181
 7906SOL    HW235181   2.401   1.266   8.250  1.2405  0.0360 -1.8830
 7907SOL     OW35182   4.414   2.236   4.844 -0.0676  0.0976  0.1014
 7907SOL    HW135183   4.394   2.201   4.930  1.5202 -0.8799  0.0636
 7907SOL    HW235184   4.475   2.304   4.873 -0.2410  0.1346  0.3783
 7908SOL     OW35185   0.265   1.214   7.530 -0.0028  0.2402 -0.5629
 7908SOL    HW135186   0.270   1.279   7.460 -1.2417 -0.5634 -1.3924
 7908SOL    HW235187   0.311   1.136   7.498 -1.4087 -1.2210  0.9632
 7909SOL     OW35188   2.410   3.130   5.677  0.1452  0.7846  0.4099
 7909SOL    HW135189   2.418   3.037   5.656 -0.4722  0.8963 -0.3824
 7909SOL    HW235190   2.314   3.129   5.668  0.1650  1.0325  0.1367
 7910SOL     OW35191   0.221   0.378   6.659 -0.1034 -0.0377 -0.6239
 7910SOL    HW135192   0.156   0.441   6.690  0.2711  0.0745 -0.0672
 7910SOL    HW235193   0.187   0.333   6.582 -1.6739 -0.8669  0.5587
 7911SOL     OW35194   4.217   3.794   3.693  0.1057 -0.3794  0.6024
 7911SOL    HW135195   4.259   3.872   3.657 -1.0642  0.3952  0.9436
 7911SOL    HW235196   4.197   3.732   3.623  0.3618  0.6274 -0.3717
 7912SOL     OW35197   1.725   3.403   9.021  0.3037 -0.2719  0.6614
 7912SOL    HW135198   1.688   3.412   9.109  0.3978  1.0803  0.5511
 7912SOL    HW235199   1.770   3.321   9.043  2.6188  1.4645  2.3502
 7913SOL     OW35200   0.007   3.603   1.750  0.5022  0.4702  0.1963
 7913SOL    HW135201   0.026   3.543   1.822  2.1617 -2.3358 -2.5809
 7913SOL    HW235202   0.050   3.674   1.798 -0.0447  2.5454 -2.4086
 7914SOL     OW35203   1.821   1.979   2.508  0.1870 -0.4474 -0.4025
 7914SOL    HW135204   1.763   2.054   2.494 -0.4804 -1.1767 -1.5409
 7914SOL    HW235205   1.907   2.013   2.486 -1.6997  3.6988 -1.3778
 7915SOL     OW35206   0.683   4.468   2.953  0.3128  0.1231 -0.4244
 7915SOL    HW135207   0.604   4.513   2.921 -0.4696 -1.0102 -0.0935
 7915SOL    HW235208   0.682   4.478   3.048 -0.8251 -0.0845 -0.4074
 7916SOL     OW35209   1.037   3.842   9.560 -0.4115  0.0984 -0.2861
 7916SOL    HW135210   1.065   3.763   9.513 -0.3051  0.1740 -0.3480
 7916SOL    HW235211   1.024   3.903   9.488  2.2431 -0.3348 -1.1167
 7917SOL     OW35212   3.689   1.323  10.274 -0.4380  0.2089  0.3571
 7917SOL    HW135213   3.602   1.355  10.249 -0.5323 -1.5376 -1.5362
 7917SOL    HW235214   3.673   1.229  10.283  1.3899 -0.2872 -1.6097
 7918SOL     OW35215   1.013   2.300   6.015 -0.4876 -0.0886  0.0897
 7918SOL    HW135216   1.104   2.293   6.045 -0.4891  1.5522  0.4929
 7918SOL    HW235217   1.020   2.384   5.969  2.6094  0.4127  1.4419
 7919SOL     OW35218   1.211   3.207   2.342 -0.2844 -0.0910 -0.4439
 7919SOL    HW135219   1.135   3.155   2.369  0.0249 -0.5567 -0.4816
 7919SOL    HW235220   1.282   3.185   2.402  0.8142 -0.0091 -1.7101
 7920SOL     OW35221   1.005   3.527   3.969  0.2911  0.1540 -0.2203
 7920SOL    HW135222   0.934   3.517   3.906 -1.4369 -0.8169  1.9062
 7920SOL    HW235223   1.037   3.616   3.956 -0.1113  0.1016 -1.5261
 7921SOL     OW35224   1.456   3.642   5.195  0.4039  0.1841 -0.0744
 7921SOL    HW135225   1.439   3.632   5.289 -2.9059  1.0216 -0.5812
 7921SOL    HW235226   1.387   3.584   5.162  0.3333 -0.2028  0.7390
 7922SOL     OW35227   3.808   0.758  16.475 -0.1438 -0.7988  0.4453
 7922SOL    HW135228   3.833   0.820  16.407 -1.6499  0.4996  1.0698
 7922SOL    HW235229   3.747   0.804  16.533  2.3340  3.3449 -0.3076
 7923SOL     OW35230   3.249   4.549   7.715  0.3262 -0.6192  0.1057
 7923SOL    HW135231   3.199   4.491   7.772  0.0112 -0.5894 -0.1431
 7923SOL    HW235232   3.316   4.589   7.770 -2.5868  2.1023  1.7033
 7924SOL     OW35233   2.922   4.442   1.649  0.1791  0.4729  0.0432
 7924SOL    HW135234   3.005   4.396   1.638  0.8725  2.5440 -3.5589
 7924SOL    HW235235   2.878   4.394   1.718 -1.1132  1.1538 -0.2988
 7925SOL     OW35236   4.077   3.409  15.422 -0.2496 -0.0595  0.4963
 7925SOL    HW135237   4.115   3.368  15.499  1.3178 -0.6681 -0.5858
 7925SOL    HW235238   4.147   3.401  15.356 -0.2155 -2.0210  0.7882
 7926SOL     OW35239   2.072   3.824   9.242 -0.1268 -0.2472 -0.0543
 7926SOL    HW135240   1.992   3.872   9.266  0.0376  1.0122 -2.1339
 7926SOL    HW235241   2.043   3.737   9.272 -0.2705  0.3057  1.4353
 7927SOL     OW35242   2.431   3.883  16.543 -0.1657  0.2386  0.1319
 7927SOL    HW135243   2.347   3.873  16.587 -0.8886 -0.4382 -1.4245
 7927SOL    HW235244   2.399   3.863  16.456 -2.0456 -2.4179  1.4514
 7928SOL     OW35245   0.481   0.972   3.054  0.3260 -0.3034 -0.4091
 7928SOL    HW135246   0.479   0.913   2.978  0.0000  0.0950 -0.7099
 7928SOL    HW235247   0.489   0.910   3.126 -1.9156 -1.7746 -1.4006
 7929SOL     OW35248   3.925   3.546  16.614 -0.2712 -0.4276 -0.0684
 7929SOL    HW135249   3.936   3.630  16.658 -0.8199 -0.5331  0.2662
 7929SOL    HW235250   3.943   3.484  16.684 -1.2761  0.2965  0.8254
 7930SOL     OW35251   0.421   0.184   2.833  0.0274  0.4635  1.0553
 7930SOL    HW135252   0.445   0.153   2.745  0.1949 -0.9932  1.6136
 7930SOL    HW235253   0.343   0.238   2.821  0.0227  0.5645  1.5570
 7931SOL     OW35254   1.693   2.715  11.598 -0.0691  0.2581 -0.0708
 7931SOL    HW135255   1.667   2.675  11.682 -0.2270 -1.2350 -0.8370
 7931SOL    HW235256   1.614   2.696  11.547  1.5789 -2.5659 -1.5918
 7932SOL     OW35257   0.402   3.412   9.439 -0.3585 -0.3155 -0.3387
 7932SOL    HW135258   0.325   3.436   9.491  0.3577  0.1018  0.5307
 7932SOL    HW235259   0.471   3.443   9.497  1.7197 -2.6369 -1.5464
 7933SOL     OW35260   1.503   0.933  15.518 -0.6179 -0.0265 -0.5775
 7933SOL    HW135261   1.479   0.875  15.446 -1.0179  0.4959 -0.8634
 7933SOL    HW235262   1.587   0.973  15.494 -1.2850  1.0516 -1.1114
 7934SOL     OW35263   0.665   2.892   2.964  0.2164 -0.0605  0.4374
 7934SOL    HW135264   0.595   2.922   3.022 -1.0906 -1.4459 -0.4263
 7934SOL    HW235265   0.643   2.952   2.892 -1.2324 -0.5130  0.4923
 7935SOL     OW35266   0.188   2.241  16.602 -0.1423  0.1525 -0.1538
 7935SOL    HW135267   0.234   2.220  16.520 -0.4875  0.8913 -0.5394
 7935SOL    HW235268   0.235   2.324  16.617 -0.7937  0.7359 -1.2773
 7936SOL     OW35269   1.130   4.678  14.663  0.5350  0.1932 -0.3177
 7936SOL    HW135270   1.088   0.010  14.728 -1.6513 -3.0282  1.0809
 7936SOL    HW235271   1.083   4.698  14.582  0.1895 -1.1889 -0.4592
 7937SOL     OW35272   3.153   0.734   8.929 -0.4976 -0.4800 -0.1352
 7937SOL    HW135273   3.131   0.729   8.836 -2.2989 -1.5246  0.3352
 7937SOL    HW235274   3.106   0.653   8.947 -2.0661  0.3750 -0.3727
 7938SOL     OW35275   1.568   3.455  15.697 -0.0029  0.2415  0.4038
 7938SOL    HW135276   1.571   3.535  15.645  1.2248  0.3906  0.7057
 7938SOL    HW235277   1.599   3.392  15.632  0.0858  1.4360 -0.7176
 7939SOL     OW35278   2.766   3.157   2.276 -0.0348 -0.0266  0.6412
 7939SOL    HW135279   2.861   3.141   2.279  0.1610  1.0237 -0.0827
 7939SOL    HW235280   2.765   3.247   2.244  0.2142 -0.3529 -0.3062
 7940SOL     OW35281   1.580   4.041   7.091 -0.1833 -0.1242  0.1444
 7940SOL    HW135282   1.632   4.037   7.171 -0.5024 -1.1599  0.2905
 7940SOL    HW235283   1.543   4.130   7.095 -0.7660 -0.2645 -1.7514
 7941SOL     OW35284   0.708   0.024   8.800  0.6215 -0.3990  0.4387
 7941SOL    HW135285   0.754   0.107   8.814 -0.6660  0.2618  0.7453
 7941SOL    HW235286   0.788   4.700   8.779  2.0370  0.8365  2.9724
 7942SOL     OW35287   3.997   2.216  16.436 -0.1964  0.2474  0.1062
 7942SOL    HW135288   4.065   2.236  16.371 -1.8215  0.1214 -1.6220
 7942SOL    HW235289   4.038   2.136  16.469  1.1395  0.4224 -1.1328
 7943SOL     OW35290   0.001   3.336  13.771  0.4182  0.4730  0.2887
 7943SOL    HW135291   4.681   3.385  13.840  1.6901 -0.9384  2.0946
 7943SOL    HW235292   0.064   3.290  13.826  0.0068  0.0001  0.3599
 7944SOL     OW35293   1.931   3.818   4.184  0.2686  0.0101 -0.0253
 7944SOL    HW135294   1.920   3.909   4.213  1.2776 -0.0176  0.4288
 7944SOL    HW235295   1.963   3.779   4.265 -0.1292  1.8706  1.0231
 7945SOL     OW35296   2.560   0.860  15.001  0.1050  0.3676 -0.1819
 7945SOL    HW135297   2.476   0.847  15.045  1.1899 -1.4894  1.3195
 7945SOL    HW235298   2.531   0.860  14.909 -1.0856  1.6742  0.1963
 7946SOL     OW35299   2.798   1.881  16.990  0.1753 -0.5205 -0.1581
 7946SOL    HW135300   2.814   1.966  17.030 -1.8440 -0.1646 -0.1151
 7946SOL    HW235301   2.765   1.894  16.902  0.1284  0.3712 -0.0073
 7947SOL     OW35302   3.130   0.728  13.709  0.2563 -0.4592  0.0075
 7947SOL    HW135303   3.067   0.791  13.744  0.7483 -0.1901  0.4099
 7947SOL    HW235304   3.134   0.759  13.619  0.0248 -0.1214  0.1136
 7948SOL     OW35305   1.661   3.782   4.521  0.0279  0.3613  0.7176
 7948SOL    HW135306   1.620   3.727   4.454  0.5801 -0.3865  1.0011
 7948SOL    HW235307   1.735   3.738   4.561 -2.3872 -1.6556  2.9372
 7949SOL     OW35308   2.650   1.989   5.442 -0.2520 -0.4481  0.5683
 7949SOL    HW135309   2.571   1.938   5.464 -0.3161 -2.0878 -3.4482
 7949SOL    HW235310   2.677   2.024   5.527  1.6802 -1.7427  0.4710
 7950SOL     OW35311   4.395   3.262   3.850 -0.3237  0.2521 -0.1592
 7950SOL    HW135312   4.369   3.270   3.942 -1.6148  0.1870 -0.5259
 7950SOL    HW235313   4.315   3.287   3.804 -1.3433 -1.1804  0.8293
 7951SOL     OW35314   1.531   1.956   9.137 -0.5427  0.3235 -0.3358
 7951SOL    HW135315   1.566   1.907   9.211  1.2428  2.5905  0.2999
 7951SOL    HW235316   1.547   1.889   9.070 -1.4193 -1.1935  0.9757
 7952SOL     OW35317   2.056   3.901  12.620 -0.1996  0.6122  0.2431
 7952SOL    HW135318   2.018   3.981  12.584  0.6066  0.5029 -0.8437
 7952SOL    HW235319   1.983   3.865  12.672 -0.3898 -0.0495 -0.4817
 7953SOL     OW35320   3.049   4.609   5.109  0.0605 -0.1307 -0.3096
 7953SOL    HW135321   3.132   4.619   5.062 -2.0848 -0.3987 -4.1592
 7953SOL    HW235322   2.998   4.682   5.074 -0.1379  0.1127  0.4971
 7954SOL     OW35323   0.118   4.364   6.705 -0.3382  0.1025  0.4352
 7954SOL    HW135324   0.123   4.318   6.621  2.0953  1.8949 -0.3902
 7954SOL    HW235325   0.085   4.285   6.748 -0.1991 -0.2462 -0.0889
 7955SOL     OW35326   1.758   4.074   7.314 -0.4441  0.0398  0.0214
 7955SOL    HW135327   1.848   4.053   7.337 -1.6013 -1.3208  3.3448
 7955SOL    HW235328   1.764   4.165   7.285 -1.0364  0.1762  0.3207
 7956SOL     OW35329   2.066   2.448   7.937  0.2299  0.5241  0.3837
 7956SOL    HW135330   2.113   2.467   8.018  1.2365  1.9798 -0.5370
 7956SOL    HW235331   1.982   2.492   7.952  0.6708  1.8508 -0.9819
 7957SOL     OW35332   3.133   4.239   0.722  0.3199 -0.4976 -0.2761
 7957SOL    HW135333   3.070   4.168   0.710 -0.8761  0.6997 -1.1018
 7957SOL    HW235334   3.203   4.210   0.663  0.0285 -0.3963 -0.6700
 7958SOL     OW35335   1.918   1.663   7.173 -0.7217  0.3349 -0.0733
 7958SOL    HW135336   1.969   1.743   7.160  1.6084 -1.1899 -0.4068
 7958SOL    HW235337   1.871   1.695   7.249 -0.8178  1.7650 -0.7276
 7959SOL     OW35338   0.271   1.529  11.309 -0.4483  0.1278  0.4284
 7959SOL    HW135339   0.227   1.461  11.360  1.5158 -0.6030  1.1641
 7959SOL    HW235340   0.335   1.478  11.260  1.6190  1.4125  1.7586
 7960SOL     OW35341   1.539   1.256   6.792  0.4588  0.2444  0.0076
 7960SOL    HW135342   1.493   1.295   6.717  0.3772  1.6679  0.7830
 7960SOL    HW235343   1.576   1.173   6.762  0.7102  0.8083 -1.2470
 7961SOL     OW35344   2.057   0.465   7.986  0.2926  0.3584 -0.6269
 7961SOL    HW135345   2.072   0.380   7.944 -3.5021 -0.5853 -0.1053
 7961SOL    HW235346   2.134   0.511   7.953  0.4105 -0.6054 -1.7238
 7962SOL     OW35347   3.589   2.092   8.492 -0.2407  0.0823  0.0575
 7962SOL    HW135348   3.629   2.077   8.407 -2.1371 -0.8207 -0.6885
 7962SOL    HW235349   3.646   2.037   8.546 -1.2394 -2.0496 -1.0492
 7963SOL     OW35350   2.541   4.157   3.319 -0.1231 -0.3425 -0.2581
 7963SOL    HW135351   2.490   4.191   3.245  0.8456  0.7904 -0.4158
 7963SOL    HW235352   2.500   4.209   3.389 -0.6863  0.1912 -0.9708
 7964SOL     OW35353   0.089   0.482   2.582  0.4998  0.1335  0.2238
 7964SOL    HW135354   0.061   0.556   2.637  0.7698 -0.3838  1.0604
 7964SOL    HW235355   0.170   0.521   2.548  0.0589  0.9675  0.1236
 7965SOL     OW35356   3.661   4.654   3.128 -0.3654 -0.1408 -0.4004
 7965SOL    HW135357   3.708   4.580   3.089  1.8408  1.8206 -1.4453
 7965SOL    HW235358   3.639   4.719   3.062  0.3416 -0.5423 -1.0427
 7966SOL     OW35359   2.878   2.647   1.666 -0.1966  0.1051 -0.1246
 7966SOL    HW135360   2.966   2.610   1.675 -0.3369 -0.1865  0.0430
 7966SOL    HW235361   2.835   2.578   1.617  1.7785 -0.5410 -0.9675
 7967SOL     OW35362   0.061   1.921   7.197 -0.4994 -0.2029 -0.8763
 7967SOL    HW135363   0.115   1.847   7.226 -0.9687  0.0441  0.6404
 7967SOL    HW235364   0.129   1.958   7.141  0.8212  0.0938  0.9374
 7968SOL     OW35365   3.315   0.865   2.080  0.1190 -0.2847 -0.1064
 7968SOL    HW135366   3.251   0.868   2.151  0.0475 -0.6516 -0.1533
 7968SOL    HW235367   3.263   0.844   2.002 -0.7992 -0.8727  0.6654
 7969SOL     OW35368   3.586   3.446   4.711 -0.2049  0.2166 -0.2038
 7969SOL    HW135369   3.492   3.430   4.697 -0.0866 -2.3084  2.0124
 7969SOL    HW235370   3.575   3.532   4.752 -1.0887  0.0045  0.0181
 7970SOL     OW35371   3.030   0.555   1.677  0.0936 -0.0503  0.2800
 7970SOL    HW135372   2.967   0.483   1.670 -1.1018  0.7802  2.7737
 7970SOL    HW235373   3.096   0.539   1.609 -1.0599 -1.0484 -0.6229
 7971SOL     OW35374   3.385   4.473   7.124  0.4325  0.0121 -0.3910
 7971SOL    HW135375   3.304   4.489   7.076 -0.2262 -2.1008 -0.0081
 7971SOL    HW235376   3.419   4.562   7.128 -1.8845  0.9509 -1.9132
 7972SOL     OW35377   4.672   0.438   5.166 -0.3628 -0.7361  0.0286
 7972SOL    HW135378   4.660   0.533   5.160 -1.5717 -0.8070  1.2632
 7972SOL    HW235379   4.594   0.407   5.121 -0.1526 -1.7310  0.3515
 7973SOL     OW35380   2.916   0.464   7.342 -0.0126  0.3337 -0.2357
 7973SOL    HW135381   2.929   0.444   7.249 -0.9430  0.4784 -0.3968
 7973SOL    HW235382   2.828   0.436   7.367  0.6065 -1.3170  0.0610
 7974SOL     OW35383   3.912   2.758   5.224 -0.5686  0.3966 -0.7102
 7974SOL    HW135384   3.985   2.696   5.226 -0.4424  0.6357  3.0566
 7974SOL    HW235385   3.913   2.789   5.134 -0.5387  0.4249 -0.7002
 7975SOL     OW35386   1.978   0.149   8.194  0.0955 -0.4873  0.0900
 7975SOL    HW135387   1.946   0.236   8.169 -0.0290 -0.7091 -0.5018
 7975SOL    HW235388   1.931   0.135   8.276 -0.2686  0.9150  0.1281
 7976SOL     OW35389   0.843   1.995   7.891  0.3121  0.5132 -0.5136
 7976SOL    HW135390   0.896   2.031   7.962  2.1277 -1.9457 -0.6440
 7976SOL    HW235391   0.756   1.997   7.930  0.8145 -3.3030  0.7595
 7977SOL     OW35392   0.395   0.305   7.898 -0.1251  0.0659  0.2242
 7977SOL    HW135393   0.422   0.325   7.809 -1.4645 -0.9480 -0.4065
 7977SOL    HW235394   0.323   0.244   7.882  0.3763 -0.4080 -0.2180
 7978SOL     OW35395   0.892   1.107  10.196  0.5774  0.6457 -0.3428
 7978SOL    HW135396   0.927   1.080  10.281 -1.0541 -0.7775 -0.1272
 7978SOL    HW235397   0.806   1.141  10.222  0.8358  0.3464  0.8897
 7979SOL     OW35398   1.183   4.569   5.175  0.2829 -0.3115  0.3052
 7979SOL    HW135399   1.192   4.633   5.104 -0.3267 -1.0306 -0.4209
 7979SOL    HW235400   1.262   4.517   5.182  1.1264  1.0140  0.6945
 7980SOL     OW35401   4.558   1.458   0.895  0.5888  0.2132  0.7041
 7980SOL    HW135402   4.573   1.401   0.819  2.1260  1.6863 -0.0897
 7980SOL    HW235403   4.502   1.531   0.869  0.1366 -0.2369  0.4125
 7981SOL     OW35404   0.820   1.543   3.335  0.8433 -0.2656 -0.6183
 7981SOL    HW135405   0.829   1.466   3.279  1.3146 -1.5994  1.3023
 7981SOL    HW235406   0.908   1.579   3.340  2.2580 -4.0926  1.7119
 7982SOL     OW35407   2.463   0.641   7.165  0.0179 -0.8650 -0.2587
 7982SOL    HW135408   2.422   0.712   7.216  1.2064  2.7380 -4.2976
 7982SOL    HW235409   2.451   0.563   7.219 -1.8744  0.1059  0.7190
 7983SOL     OW35410   4.235   2.908  16.966 -0.2408 -0.1523  0.6791
 7983SOL    HW135411   4.235   2.814  16.986 -1.4606 -0.2493  0.2199
 7983SOL    HW235412   4.142   2.928  16.964 -0.5466 -1.4828  1.3947
 7984SOL     OW35413   4.392   2.944   7.129  0.0024  0.2719 -0.6504
 7984SOL    HW135414   4.439   3.028   7.123 -1.5437  1.1638 -0.3185
 7984SOL    HW235415   4.455   2.891   7.178  1.5288  1.6567 -1.1170
 7985SOL     OW35416   3.750   2.381   8.055  0.0680  0.0421 -0.0967
 7985SOL    HW135417   3.714   2.443   8.118 -1.9477 -0.1555 -1.0565
 7985SOL    HW235418   3.695   2.303   8.069  1.8125 -1.4392 -1.4737
 7986SOL     OW35419   3.932   4.248   5.400 -0.2796 -0.2134  0.2498
 7986SOL    HW135420   3.838   4.263   5.401 -0.0751  0.9844  1.3550
 7986SOL    HW235421   3.960   4.300   5.324 -0.6797  0.5933  0.6569
 7987SOL     OW35422   3.538   2.731   8.652  0.0157 -0.3970  0.2220
 7987SOL    HW135423   3.622   2.739   8.697 -0.4230  0.8849  0.8063
 7987SOL    HW235424   3.505   2.821   8.662 -1.0661 -0.8076  0.3109
 7988SOL     OW35425   3.375   4.717   1.540  0.1965  1.2492 -0.0246
 7988SOL    HW135426   3.454   4.666   1.554  2.5069  3.7019 -3.9824
 7988SOL    HW235427   3.329   4.696   1.621  2.8129  1.2035  1.4436
 7989SOL     OW35428   4.393   0.220   9.340  0.5964  0.4247  0.4452
 7989SOL    HW135429   4.386   0.232   9.435 -0.7383 -1.3514  0.5916
 7989SOL    HW235430   4.398   0.305   9.298  0.3177  0.8384  1.2471
 7990SOL     OW35431   3.060   2.029   7.835  0.7274  0.2645 -0.1367
 7990SOL    HW135432   3.016   2.000   7.914 -1.8164 -0.3464 -1.7591
 7990SOL    HW235433   2.989   2.070   7.786  0.1582 -1.9238 -1.1547
 7991SOL     OW35434   4.295   2.320  14.966  0.2774  0.2302 -0.1773
 7991SOL    HW135435   4.293   2.258  15.038 -1.5069  0.7312  0.2045
 7991SOL    HW235436   4.382   2.359  14.971 -0.0421  0.5969  2.4208
 7992SOL     OW35437   3.136   3.950   6.305  0.0189 -0.3340 -0.1180
 7992SOL    HW135438   3.202   3.993   6.358  0.4730 -2.4878  1.0804
 7992SOL    HW235439   3.106   3.892   6.376  0.9372 -0.3330  0.2713
 7993SOL     OW35440   3.090   2.354   3.985 -0.2565 -0.2190  0.2145
 7993SOL    HW135441   3.050   2.307   3.912 -1.8278  1.7023 -0.1732
 7993SOL    HW235442   3.158   2.404   3.940 -0.4630 -0.2850 -0.1687
 7994SOL     OW35443   0.568   2.461  11.244  0.0592  0.5919 -0.3060
 7994SOL    HW135444   0.649   2.463  11.192  0.7016  0.5798  0.7044
 7994SOL    HW235445   0.594   2.397  11.310  0.4919 -0.4897 -1.5009
 7995SOL     OW35446   3.166   3.320  12.211  1.2665 -0.6157  0.7237
 7995SOL    HW135447   3.118   3.320  12.293  0.4560  0.1677  0.2467
 7995SOL    HW235448   3.226   3.249  12.234  2.0519 -0.2316 -0.0929
 7996SOL     OW35449   4.219   1.147   5.946  0.2725 -0.1967  0.5738
 7996SOL    HW135450   4.126   1.159   5.924  0.6845  0.2557 -0.8358
 7996SOL    HW235451   4.235   1.061   5.908  3.6846  1.5518 -1.8613
 7997SOL     OW35452   4.414   2.268   7.837 -0.0500  0.5916  0.5043
 7997SOL    HW135453   4.415   2.226   7.751 -0.8803 -0.0090  0.7853
 7997SOL    HW235454   4.411   2.358   7.805 -0.8362 -0.1392 -1.4680
 7998SOL     OW35455   1.219   4.290   5.782  0.1368  0.6851 -0.8906
 7998SOL    HW135456   1.311   4.292   5.808 -0.2376 -2.2951  0.7143
 7998SOL    HW235457   1.227   4.335   5.698 -0.7248 -0.0721 -1.3774
 7999SOL     OW35458   4.467   1.549   8.666  0.3763  0.1973 -0.1605
 7999SOL    HW135459   4.517   1.498   8.730  0.4101 -0.2352 -0.5290
 7999SOL    HW235460   4.513   1.526   8.585 -1.5322  2.9021 -2.0274
 8000SOL     OW35461   3.806   4.107   6.964 -0.0253 -0.3929  0.4892
 8000SOL    HW135462   3.771   4.177   6.908 -0.1175 -0.5881  0.3026
 8000SOL    HW235463   3.731   4.091   7.021 -2.0805  0.2251 -2.0132
 8001SOL     OW35464   2.889   0.391   9.485  0.2215 -0.1961  0.8500
 8001SOL    HW135465   2.809   0.422   9.525 -0.9899 -1.1246 -0.8336
 8001SOL    HW235466   2.854   0.364   9.400  1.1607 -0.6808  0.6163
 8002SOL     OW35467   0.529   0.342   3.448 -0.0199  0.4772  0.6169
 8002SOL    HW135468   0.488   0.303   3.525  2.0105 -1.5941  0.6484
 8002SOL    HW235469   0.449   0.378   3.411 -1.2267 -1.3080  1.4926
 8003SOL     OW35470   1.944   2.704  10.879  0.3343 -0.2184 -0.2759
 8003SOL    HW135471   1.860   2.724  10.838 -0.3662 -3.0320 -0.2452
 8003SOL    HW235472   2.011   2.736  10.818  0.3614 -0.3515 -0.3178
 8004SOL     OW35473   2.825   0.531  15.874 -0.0448  0.3377  0.6505
 8004SOL    HW135474   2.734   0.525  15.845 -0.4269 -0.2543  1.9825
 8004SOL    HW235475   2.848   0.607  15.820  1.5978  0.7247  1.9068
 8005SOL     OW35476   1.021   1.256   7.202  0.0421  0.4447  0.0210
 8005SOL    HW135477   1.115   1.272   7.199 -0.2949  2.6185  0.8265
 8005SOL    HW235478   0.992   1.336   7.248  1.0430  1.3324 -0.9145
 8006SOL     OW35479   0.263   4.562  16.706 -0.3192  0.3372  0.0563
 8006SOL    HW135480   0.271   4.537  16.798 -0.0217 -1.0590 -0.3484
 8006SOL    HW235481   0.237   4.654  16.712 -0.6203  0.3902 -2.3331
 8007SOL     OW35482   2.371   2.803   2.149 -0.0402 -0.0333 -0.0453
 8007SOL    HW135483   2.315   2.799   2.073 -0.7010 -0.2641  0.4562
 8007SOL    HW235484   2.354   2.893   2.174  3.0378  0.4823  0.2688
 8008SOL     OW35485   1.570   3.055   0.568 -0.5419  0.0137  0.2286
 8008SOL    HW135486   1.623   2.975   0.573  1.1874  1.1450 -0.0889
 8008SOL    HW235487   1.629   3.113   0.616  0.8323 -0.2840 -1.1077
 8009SOL     OW35488   2.381   1.042  10.724 -0.3210 -0.3459  0.5103
 8009SOL    HW135489   2.301   1.016  10.677 -1.3293  0.3001  1.8673
 8009SOL    HW235490   2.447   0.989  10.679 -1.2896  0.2183 -1.5437
 8010SOL     OW35491   1.420   1.663   5.145 -0.0710  0.2112 -0.2856
 8010SOL    HW135492   1.479   1.590   5.123 -0.8074  0.2803 -2.4785
 8010SOL    HW235493   1.466   1.704   5.218  0.5317 -1.0460  0.0538
 8011SOL     OW35494   1.319   3.141   8.524 -0.3320 -0.0969 -0.5375
 8011SOL    HW135495   1.392   3.126   8.464 -0.2895  1.8042 -0.9429
 8011SOL    HW235496   1.262   3.067   8.503  0.5008 -0.5362 -1.2788
 8012SOL     OW35497   2.703   0.846  15.949 -0.3003 -0.0738 -1.2067
 8012SOL    HW135498   2.775   0.901  15.917  0.7713  0.0152  1.3609
 8012SOL    HW235499   2.643   0.851  15.875 -0.4152  0.8173 -1.0513
 8013SOL     OW35500   1.330   1.010   3.149 -0.6546  0.7072 -0.4970
 8013SOL    HW135501   1.273   1.047   3.081  0.5943  0.0093 -1.9172
 8013SOL    HW235502   1.303   1.061   3.226  0.2618  0.1709  0.1776
 8014SOL     OW35503   0.524   2.796   8.211 -0.1154 -0.2823 -0.2709
 8014SOL    HW135504   0.446   2.799   8.155 -0.2583  0.7592 -0.0072
 8014SOL    HW235505   0.477   2.780   8.293  0.7479  1.3149  0.5351
 8015SOL     OW35506   3.457   2.281  17.003  0.6092 -0.1894 -0.0686
 8015SOL    HW135507   3.429   2.249  17.089 -0.6388 -2.4113 -1.3182
 8015SOL    HW235508   3.517   2.355  17.018 -2.2282  2.0918  0.1584
 8016SOL     OW35509   3.424   0.413   5.974  0.2665  0.0140  0.5630
 8016SOL    HW135510   3.395   0.503   5.987  2.1168  0.8708 -1.3505
 8016SOL    HW235511   3.469   0.412   5.890 -1.7408  3.0697 -0.5313
 8017SOL     OW35512   0.954   4.714   8.240 -0.4209 -0.0999 -0.2211
 8017SOL    HW135513   0.998   0.015   8.321  0.6148 -1.5971 -0.3088
 8017SOL    HW235514   0.880   4.667   8.277  0.2770 -1.2194 -0.2513
 8018SOL     OW35515   4.206   1.700   3.178  0.3490 -0.0367  0.0670
 8018SOL    HW135516   4.148   1.654   3.238 -1.0525  1.4566 -0.1505
 8018SOL    HW235517   4.210   1.630   3.114  1.4511  1.3878 -1.4274
 8019SOL     OW35518   0.315   1.258  16.991  0.9037  0.8874  0.3686
 8019SOL    HW135519   0.397   1.295  16.957  0.4549  2.2358  0.7393
 8019SOL    HW235520   0.330   1.166  16.968 -3.4916  0.2508  0.1720
 8020SOL     OW35521   2.159   4.101   6.545  0.0468  0.8125  0.2640
 8020SOL    HW135522   2.095   4.055   6.601 -2.7821 -1.8463 -5.1467
 8020SOL    HW235523   2.222   4.121   6.614  1.5059  1.7910 -1.3812
 8021SOL     OW35524   2.319   3.329   2.359  0.6156  0.1178 -0.4535
 8021SOL    HW135525   2.315   3.386   2.283  2.2385  2.2450  1.0335
 8021SOL    HW235526   2.406   3.341   2.397 -0.1330  0.9919  0.9652
 8022SOL     OW35527   2.526   4.241   4.707  0.1477  0.0307 -0.3645
 8022SOL    HW135528   2.459   4.276   4.765  0.8514  0.4130  0.2046
 8022SOL    HW235529   2.485   4.284   4.632 -0.9044 -0.3390  0.0025
 8023SOL     OW35530   3.692   2.934  10.621 -0.6964 -0.6584  0.7494
 8023SOL    HW135531   3.781   2.930  10.656  0.1620  0.6198 -1.2711
 8023SOL    HW235532   3.685   3.028  10.606  1.4710 -0.7405 -0.7843
 8024SOL     OW35533   2.555   2.480   0.449 -0.1594  0.0159  0.3926
 8024SOL    HW135534   2.645   2.503   0.428 -1.2994  3.1925 -1.1443
 8024SOL    HW235535   2.542   2.542   0.521  1.0390 -1.2106  1.6662
 8025SOL     OW35536   0.792   0.126   5.240  0.2043 -0.2821 -0.0092
 8025SOL    HW135537   0.785   0.190   5.311  2.5517  0.5415 -0.5228
 8025SOL    HW235538   0.886   0.114   5.245  0.0481 -1.5166  0.1469
 8026SOL     OW35539   3.616   3.980   5.642 -0.0887 -0.3363  0.6388
 8026SOL    HW135540   3.556   3.908   5.662  0.4929 -1.0687 -0.2513
 8026SOL    HW235541   3.618   3.978   5.547  1.5993  2.6027  0.6069
 8027SOL     OW35542   2.178   3.935   5.808 -0.3490  0.2947  0.4530
 8027SOL    HW135543   2.141   3.968   5.890  0.1202 -0.4752  0.9630
 8027SOL    HW235544   2.113   3.870   5.782  1.2981 -0.4920 -1.6777
 8028SOL     OW35545   4.272   0.356  15.159  0.6878  0.1624 -0.4748
 8028SOL    HW135546   4.181   0.332  15.144  0.7701 -0.2568 -0.2957
 8028SOL    HW235547   4.252   0.446  15.184 -1.1901 -0.0145 -1.3886
 8029SOL     OW35548   2.867   1.972   8.332 -0.4627  0.4207 -0.0250
 8029SOL    HW135549   2.910   1.910   8.390  0.0777  1.5605  0.8037
 8029SOL    HW235550   2.828   2.027   8.400  3.0181  0.4135  1.9870
 8030SOL     OW35551   4.489   0.429   3.551 -0.3229 -0.9290  0.1561
 8030SOL    HW135552   4.403   0.452   3.587 -1.0002  0.2428 -2.1998
 8030SOL    HW235553   4.477   0.462   3.463 -2.4236 -1.4151  0.2681
 8031SOL     OW35554   0.645   0.523   5.716  0.0489  0.2136 -0.2603
 8031SOL    HW135555   0.707   0.582   5.673  2.5995 -1.2744  1.3512
 8031SOL    HW235556   0.620   0.574   5.793 -0.4332  1.1905 -1.0562
 8032SOL     OW35557   0.444   1.347   6.207 -0.0383 -0.0698 -0.2174
 8032SOL    HW135558   0.439   1.276   6.143  1.2425 -1.9193  1.7683
 8032SOL    HW235559   0.424   1.295   6.284  1.0514 -1.2527 -0.7295
 8033SOL     OW35560   1.353   0.172   2.501 -0.0775 -0.5138 -0.1215
 8033SOL    HW135561   1.358   0.092   2.448 -1.0574  0.0580 -1.0859
 8033SOL    HW235562   1.262   0.202   2.504  0.2209  0.3589  0.0876
 8034SOL     OW35563   3.061   4.688   2.255 -0.2132 -0.2559 -1.0686
 8034SOL    HW135564   3.048   4.604   2.299 -1.0995  0.0001 -0.8417
 8034SOL    HW235565   2.999   0.020   2.303 -0.5718 -2.1833  0.7094
 8035SOL     OW35566   0.095   4.197   7.589 -0.1612  0.7620  0.7221
 8035SOL    HW135567   0.134   4.280   7.615  0.7789  1.6467 -3.5486
 8035SOL    HW235568   0.170   4.149   7.555  0.1704  1.6550  0.2234
 8036SOL     OW35569   2.332   3.347   2.964  0.3136  0.2960  0.1183
 8036SOL    HW135570   2.253   3.359   2.910 -0.8478 -1.2521  1.4838
 8036SOL    HW235571   2.387   3.398   2.905  1.1051 -0.0923  0.5236
 8037SOL     OW35572   1.322   4.384  11.102  0.2594 -0.2166 -0.1512
 8037SOL    HW135573   1.384   4.395  11.030  0.2825 -0.0750 -0.1108
 8037SOL    HW235574   1.370   4.426  11.173 -0.4909 -0.3732  0.4541
 8038SOL     OW35575   1.725   1.924   5.226  0.5785 -0.3452  0.2102
 8038SOL    HW135576   1.793   1.859   5.247 -0.3927 -2.0719 -1.9915
 8038SOL    HW235577   1.761   2.012   5.234  0.0068  0.0882 -1.9589
 8039SOL     OW35578   4.471   0.977   1.996  0.5148  0.1190 -0.9909
 8039SOL    HW135579   4.460   0.882   1.995  1.3796 -0.0430  4.1129
 8039SOL    HW235580   4.556   0.976   2.040 -0.1460  1.1887  0.3156
 8040SOL     OW35581   2.869   1.468  12.375  0.3483 -0.3078 -0.6476
 8040SOL    HW135582   2.922   1.458  12.454 -1.5847  2.8282  1.0666
 8040SOL    HW235583   2.920   1.519  12.311  0.0151  1.5114  0.5187
 8041SOL     OW35584   4.327   2.668   6.625 -0.2561 -0.5708  0.2359
 8041SOL    HW135585   4.319   2.752   6.579 -2.9655 -1.2503 -0.5152
 8041SOL    HW235586   4.302   2.686   6.715 -2.7067 -1.8597 -0.1715
 8042SOL     OW35587   0.732   1.128  12.583 -0.0114 -0.1988  0.2882
 8042SOL    HW135588   0.799   1.191  12.557  0.6383 -0.6409  0.8695
 8042SOL    HW235589   0.731   1.079  12.501 -0.3218 -2.2604  1.5097
 8043SOL     OW35590   4.409   2.685   2.762 -0.1256 -0.3399  0.1065
 8043SOL    HW135591   4.413   2.771   2.719 -1.9742 -0.5182 -0.4277
 8043SOL    HW235592   4.500   2.657   2.758 -0.1266 -0.2924 -0.3036
 8044SOL     OW35593   1.025   1.437   3.662 -0.3233 -0.4244  0.2916
 8044SOL    HW135594   1.018   1.479   3.747 -0.0960  0.3267 -0.0595
 8044SOL    HW235595   1.120   1.437   3.651 -0.4331 -1.1043 -0.7302
 8045SOL     OW35596   4.200   3.066  10.998  0.2235 -0.1272 -0.2408
 8045SOL    HW135597   4.258   3.060  10.923 -0.2100  1.0510 -0.6673
 8045SOL    HW235598   4.240   3.007  11.063 -1.0072 -1.2494 -0.5274
 8046SOL     OW35599   0.442   1.498  13.525  0.0923 -0.1776  0.4204
 8046SOL    HW135600   0.353   1.534  13.528  1.1502  2.3709  0.6485
 8046SOL    HW235601   0.489   1.561  13.470  1.5906 -2.3052 -0.7525
 8047SOL     OW35602   4.485   2.387   1.377  0.2499 -0.0045 -0.5990
 8047SOL    HW135603   4.539   2.356   1.449 -0.1507  1.2892  0.2712
 8047SOL    HW235604   4.477   2.305   1.328  1.3328 -1.4899  1.7359
 8048SOL     OW35605   4.135   1.401   7.292 -0.0758  0.7209 -0.5984
 8048SOL    HW135606   4.191   1.477   7.309 -0.8815  1.0488  0.5513
 8048SOL    HW235607   4.072   1.429   7.226  0.1056  1.8284 -0.3061
 8049SOL     OW35608   0.778   0.455  15.032  0.2265  0.3096  1.2171
 8049SOL    HW135609   0.691   0.425  15.006  1.0197 -0.6512 -0.3183
 8049SOL    HW235610   0.831   0.397  14.977 -0.4036 -0.5399  1.5059
 8050SOL     OW35611   3.065   3.567  12.152 -0.2860 -0.6378 -0.9781
 8050SOL    HW135612   2.990   3.524  12.191  0.1648 -1.5141 -1.0813
 8050SOL    HW235613   3.140   3.508  12.162  0.2528 -0.0098 -1.2407
 8051SOL     OW35614   3.081   1.482   5.460 -0.5041  0.4769  0.1330
 8051SOL    HW135615   3.014   1.522   5.404 -0.1429 -1.6190 -1.7954
 8051SOL    HW235616   3.059   1.390   5.449 -2.1356  0.9949 -0.9633
 8052SOL     OW35617   2.999   1.847   2.961 -0.0074  0.5246  0.0438
 8052SOL    HW135618   3.094   1.850   2.949 -0.1994 -0.4777 -1.6890
 8052SOL    HW235619   2.964   1.763   2.932  1.9832 -0.1987 -0.2800
 8053SOL     OW35620   3.233   2.188   3.667 -0.4042  0.2030 -0.1350
 8053SOL    HW135621   3.203   2.114   3.614 -1.8196  0.4035  0.3841
 8053SOL    HW235622   3.327   2.170   3.672 -0.4723 -0.9219 -2.6204
 8054SOL     OW35623   1.160   0.488   7.183  0.6285  0.5682  0.0598
 8054SOL    HW135624   1.175   0.428   7.110  1.0540  1.3224 -0.4650
 8054SOL    HW235625   1.209   0.449   7.256  0.2480  1.5273  0.8219
 8055SOL     OW35626   3.255   1.977  14.075  0.2844  0.1513 -1.1610
 8055SOL    HW135627   3.212   2.058  14.046 -0.8656  0.0672  0.3447
 8055SOL    HW235628   3.259   1.930  13.992  1.3939  0.3644 -1.2193
 8056SOL     OW35629   4.163   4.076  12.953 -0.0072 -0.7594  0.0105
 8056SOL    HW135630   4.226   4.010  12.982 -0.6883 -1.7382 -0.7597
 8056SOL    HW235631   4.222   4.138  12.910 -0.9885 -0.2801 -0.6438
 8057SOL     OW35632   4.444   2.880   4.125 -0.3576 -0.0701 -0.3525
 8057SOL    HW135633   4.496   2.835   4.192 -1.3313 -1.2398 -0.3667
 8057SOL    HW235634   4.504   2.938   4.079  1.7385 -0.3087  2.1194
 8058SOL     OW35635   0.732   0.881   2.605 -0.4316 -0.0829  0.4942
 8058SOL    HW135636   0.729   0.967   2.562 -2.3327  0.3861  1.5906
 8058SOL    HW235637   0.665   0.831   2.560 -0.2557 -1.0260  1.2695
 8059SOL     OW35638   3.291   4.695   3.042 -0.4307 -0.0211 -0.0732
 8059SOL    HW135639   3.304   4.682   2.948 -1.3643  0.3599 -0.2526
 8059SOL    HW235640   3.350   4.631   3.084  0.9690  0.7686 -0.8440
 8060SOL     OW35641   2.039   3.299   2.903  0.6303  0.1154  0.1580
 8060SOL    HW135642   2.026   3.322   2.995 -0.5564  1.5718 -0.3776
 8060SOL    HW235643   2.082   3.213   2.906  1.4996  0.4226 -3.4637
 8061SOL     OW35644   4.655   3.048   5.241  0.0230 -0.0323  0.1161
 8061SOL    HW135645   4.660   3.144   5.247 -0.5983  0.1030 -1.6408
 8061SOL    HW235646   4.719   3.031   5.310  0.1763  2.2918  0.5745
 8062SOL     OW35647   0.296   2.540   7.425 -0.0796  0.1555 -0.0878
 8062SOL    HW135648   0.316   2.454   7.462  1.5963  0.7545  0.4058
 8062SOL    HW235649   0.378   2.585   7.404 -0.8404 -0.0596 -3.4756
 8063SOL     OW35650   2.972   1.716   6.553 -0.2381 -0.1093 -0.1299
 8063SOL    HW135651   2.882   1.747   6.544 -1.0239 -2.3104  0.0523
 8063SOL    HW235652   2.968   1.641   6.612 -0.1986  0.9816  1.2616
 8064SOL     OW35653   2.426   2.421  16.175 -0.3144  0.4777 -0.1005
 8064SOL    HW135654   2.443   2.408  16.268  0.2563 -0.8754 -0.3838
 8064SOL    HW235655   2.409   2.515  16.180  1.9608  0.8735  0.0734
 8065SOL     OW35656   0.421   2.094  15.739 -0.7503  0.2292 -0.0520
 8065SOL    HW135657   0.493   2.141  15.696  0.9345 -0.0253  2.4886
 8065SOL    HW235658   0.366   2.084  15.661  1.0510 -2.1216 -1.0339
 8066SOL     OW35659   0.640   0.476   2.265  0.0276 -0.2089 -0.1433
 8066SOL    HW135660   0.619   0.557   2.218  1.2563  1.0305  1.4293
 8066SOL    HW235661   0.625   0.407   2.201 -1.0673  2.0982 -2.3624
 8067SOL     OW35662   2.649   1.186   1.451 -0.0490 -0.3691  0.0443
 8067SOL    HW135663   2.623   1.105   1.494 -1.3387 -0.3627 -0.7276
 8067SOL    HW235664   2.715   1.159   1.387 -2.0586 -3.5732 -0.6486
 8068SOL     OW35665   1.112   1.349   6.563 -0.1622 -0.2189 -0.3071
 8068SOL    HW135666   1.087   1.269   6.515  1.7228 -0.7126 -0.4638
 8068SOL    HW235667   1.082   1.338   6.653  1.1026  2.6086  0.4573
 8069SOL     OW35668   1.539   2.568   0.024  0.1539 -0.1056 -0.0395
 8069SOL    HW135669   1.506   2.651   0.057 -0.7998 -0.4343 -0.1804
 8069SOL    HW235670   1.461   2.533  17.680 -0.0967  0.3174  0.0720
 8070SOL     OW35671   4.388   4.233   5.483 -0.3331  0.0477  0.4883
 8070SOL    HW135672   4.467   4.184   5.458  0.2075  0.7713  0.8016
 8070SOL    HW235673   4.428   4.320   5.481  0.8465 -0.4844  1.1584
 8071SOL     OW35674   3.490   3.646   2.919 -0.6792  0.2064 -0.6450
 8071SOL    HW135675   3.483   3.656   2.824 -2.1207 -2.6847 -0.8484
 8071SOL    HW235676   3.411   3.695   2.943 -1.2616 -1.0562  0.0185
 8072SOL     OW35677   0.544   3.863   3.370  0.3666  0.6104 -0.0914
 8072SOL    HW135678   0.527   3.786   3.315 -4.4683  1.0525  0.7966
 8072SOL    HW235679   0.488   3.927   3.327 -0.6747 -1.0210 -1.1506
 8073SOL     OW35680   0.166   1.077  16.701 -0.0658 -0.0329 -0.3789
 8073SOL    HW135681   0.160   0.981  16.700  1.7992 -0.1217 -2.1333
 8073SOL    HW235682   0.207   1.098  16.617 -1.1319 -0.3362 -0.9847
 8074SOL     OW35683   0.082   1.614   2.983 -0.4227  0.4666  0.1131
 8074SOL    HW135684   0.143   1.651   3.046  0.7711  1.0412 -1.3675
 8074SOL    HW235685   0.097   1.522   3.002 -2.8805 -0.1017 -0.6479
 8075SOL     OW35686   3.872   4.022   5.161 -0.5359 -0.4075 -0.4808
 8075SOL    HW135687   3.881   4.001   5.254 -2.5091  2.1813  0.3037
 8075SOL    HW235688   3.831   3.942   5.127  3.7359 -2.8544  0.1378
 8076SOL     OW35689   4.093   3.020   6.870  0.2597  0.1426 -0.5785
 8076SOL    HW135690   4.060   2.930   6.878  1.2733 -0.0313  1.5266
 8076SOL    HW235691   4.023   3.075   6.835  2.0134  1.7557 -1.5818
 8077SOL     OW35692   1.775   4.471  14.014  0.2436  0.0128  0.1914
 8077SOL    HW135693   1.861   4.433  14.030  0.6583  0.5466 -0.8019
 8077SOL    HW235694   1.727   4.433  14.088 -2.2505  2.9108  0.0465
 8078SOL     OW35695   4.240   3.725   2.855  0.1233  0.4248 -0.3243
 8078SOL    HW135696   4.329   3.734   2.822 -0.0485 -0.3474 -1.0162
 8078SOL    HW235697   4.204   3.799   2.807 -0.3412  0.6015  0.2896
 8079SOL     OW35698   2.862   1.728   6.939 -0.4959 -0.0774 -0.6342
 8079SOL    HW135699   2.902   1.684   7.013  0.7911 -2.4814 -2.7568
 8079SOL    HW235700   2.864   1.647   6.888  1.9335 -0.7532  0.5512
 8080SOL     OW35701   1.637   4.300  16.016 -0.5430  0.2690  0.6491
 8080SOL    HW135702   1.589   4.332  15.939  0.8958  2.6080  0.7217
 8080SOL    HW235703   1.650   4.381  16.065 -1.7729  0.7684  0.1546
 8081SOL     OW35704   3.311   3.839   4.646 -0.3894 -0.0708  0.2758
 8081SOL    HW135705   3.230   3.786   4.647 -0.2831 -0.2065  3.0869
 8081SOL    HW235706   3.365   3.792   4.709  1.0568  1.0827 -0.1239
 8082SOL     OW35707   2.024   3.700  16.149 -0.0480 -0.2204  0.3454
 8082SOL    HW135708   2.093   3.660  16.202 -0.1011  1.4250  1.6569
 8082SOL    HW235709   1.949   3.646  16.175 -0.0086 -1.1106 -1.3768
 8083SOL     OW35710   3.618   4.042   4.345 -0.3318 -0.5499  0.6043
 8083SOL    HW135711   3.528   4.059   4.316 -0.3041 -2.3269 -0.5415
 8083SOL    HW235712   3.614   3.947   4.349 -0.2473 -0.6855 -2.2031
 8084SOL     OW35713   4.369   0.441   6.314 -0.0834 -0.1685 -0.8063
 8084SOL    HW135714   4.324   0.523   6.293 -0.8686 -0.5092 -0.4729
 8084SOL    HW235715   4.299   0.402   6.366  0.0128  0.9349  0.1599
 8085SOL     OW35716   1.305   4.651   4.438  0.6687  0.2075  0.4041
 8085SOL    HW135717   1.250   4.591   4.388  1.2950 -0.2190  0.2240
 8085SOL    HW235718   1.273   0.011   4.405 -2.7275 -1.8139 -1.3358
 8086SOL     OW35719   3.530   3.015   8.338  0.0181  0.2966  0.4727
 8086SOL    HW135720   3.490   3.095   8.306 -0.8487 -0.1532  0.4196
 8086SOL    HW235721   3.610   3.009   8.286 -0.8929  0.1786 -0.9200
 8087SOL     OW35722   2.070   1.900   0.852 -0.5124 -0.4428 -0.2472
 8087SOL    HW135723   2.072   1.812   0.889  1.6453 -0.7521 -1.0663
 8087SOL    HW235724   1.983   1.903   0.811 -0.3829 -1.9531 -0.6610
 8088SOL     OW35725   2.485   1.815   3.166  0.3526  0.1024  0.9793
 8088SOL    HW135726   2.442   1.731   3.184 -0.8171  0.2354 -1.1552
 8088SOL    HW235727   2.417   1.882   3.174 -1.2249 -1.4098  0.1490
 8089SOL     OW35728   3.891   3.701   1.586  0.2344 -0.5744 -0.2728
 8089SOL    HW135729   3.937   3.785   1.591  1.6053 -1.3425 -0.0000
 8089SOL    HW235730   3.963   3.648   1.551  0.1244 -0.7938 -0.1705
 8090SOL     OW35731   3.711   3.048   5.042  0.1672 -0.2868  0.0258
 8090SOL    HW135732   3.715   2.956   5.017  0.6153 -0.2288 -0.1147
 8090SOL    HW235733   3.648   3.081   4.977  1.5616 -0.9984 -1.7046
 8091SOL     OW35734   3.547   2.264   0.060  0.2431  0.2991 -0.0142
 8091SOL    HW135735   3.549   2.188   0.118 -0.5487 -0.3990 -0.9221
 8091SOL    HW235736   3.601   2.233  17.685  1.0779  1.2209  0.2053
 8092SOL     OW35737   2.828   3.930   2.207  0.0199  0.0038  0.0787
 8092SOL    HW135738   2.905   3.968   2.163  0.8719 -1.1171  0.5850
 8092SOL    HW235739   2.761   3.985   2.167 -0.4565 -1.0612 -0.5728
 8093SOL     OW35740   4.202   3.144  13.107 -0.2008 -0.3201  0.1440
 8093SOL    HW135741   4.237   3.061  13.139 -2.0250 -1.1059  0.0844
 8093SOL    HW235742   4.226   3.142  13.014 -1.3470  3.9069 -0.2625
 8094SOL     OW35743   4.227   3.926   6.132  0.4182 -0.0860 -0.0387
 8094SOL    HW135744   4.162   3.859   6.153 -0.6094  1.0098  0.2851
 8094SOL    HW235745   4.175   3.978   6.071  0.4614  0.9088  0.7682
 8095SOL     OW35746   2.518   1.592  16.597 -0.1197  0.3002  0.3969
 8095SOL    HW135747   2.564   1.585  16.514  1.2356  0.6279  1.1078
 8095SOL    HW235748   2.557   1.515  16.639  1.8869 -0.0502 -2.1033
 8096SOL     OW35749   2.404   4.275   5.804  0.0186  0.2063  0.3154
 8096SOL    HW135750   2.325   4.325   5.825  0.5737  1.2903 -0.2192
 8096SOL    HW235751   2.460   4.346   5.774  1.5096 -0.8156  0.6874
 8097SOL     OW35752   4.496   2.768   1.940 -0.0409  0.1479  0.0707
 8097SOL    HW135753   4.407   2.799   1.927  1.1816  2.8969 -1.8764
 8097SOL    HW235754   4.535   2.850   1.972  0.8870 -0.6093  0.9020
 8098SOL     OW35755   3.022   0.774   1.488  0.1691  0.3106  0.3738
 8098SOL    HW135756   3.052   0.695   1.444 -3.6443 -0.5959 -0.6324
 8098SOL    HW235757   2.991   0.744   1.573 -0.2090 -0.4623 -0.0368
 8099SOL     OW35758   2.906   1.878  16.547  0.2302 -0.0393 -0.5087
 8099SOL    HW135759   2.845   1.926  16.604 -0.3029  0.0801 -1.1726
 8099SOL    HW235760   2.847   1.835  16.485 -0.6929 -1.0945  1.1275
 8100SOL     OW35761   0.210   0.870   7.934 -0.4014 -0.0194  0.7531
 8100SOL    HW135762   0.210   0.831   7.847  0.2199  2.4133 -0.3126
 8100SOL    HW235763   0.193   0.789   7.983  1.7331  0.0335  1.6084
 8101SOL     OW35764   2.601   2.857  14.137  0.1963  0.4235  0.8458
 8101SOL    HW135765   2.656   2.895  14.068 -0.1347 -2.0590 -0.7747
 8101SOL    HW235766   2.591   2.938  14.188 -1.4107 -0.1048  1.3705
 8102SOL     OW35767   0.988   3.080  12.677 -0.0799  0.2542 -0.1099
 8102SOL    HW135768   0.903   3.051  12.642  0.6429 -2.9137  0.7627
 8102SOL    HW235769   1.056   3.033  12.630  0.6989 -0.1122  1.4001
 8103SOL     OW35770   0.098   1.297   6.885 -0.0197 -0.4962 -0.8784
 8103SOL    HW135771   0.136   1.349   6.814  1.8508 -0.1212  0.4331
 8103SOL    HW235772   0.066   1.371   6.936  0.9983  0.0571 -1.0487
 8104SOL     OW35773   4.179   2.285  11.487 -0.6477 -0.1176  0.0387
 8104SOL    HW135774   4.145   2.332  11.563 -1.5732  0.3442 -0.6604
 8104SOL    HW235775   4.238   2.353  11.454  1.0452 -2.2404 -1.2909
 8105SOL     OW35776   2.277   1.301   0.332 -0.3038  0.0169  0.9000
 8105SOL    HW135777   2.327   1.382   0.347  1.6354 -0.8937 -0.6497
 8105SOL    HW235778   2.224   1.295   0.411 -2.1687  1.8199 -0.1944
 8106SOL     OW35779   0.915   3.613  14.089 -0.1184  0.1184  0.1974
 8106SOL    HW135780   0.889   3.534  14.136 -0.9084  0.8010  0.8807
 8106SOL    HW235781   0.975   3.645  14.156  0.3472  3.3094 -1.7491
 8107SOL     OW35782   4.504   1.556   2.080 -0.4092  0.6431 -0.0601
 8107SOL    HW135783   4.492   1.650   2.067 -1.4400  0.4273 -0.7132
 8107SOL    HW235784   4.514   1.523   1.990  0.1618 -0.7002  0.5050
 8108SOL     OW35785   4.123   1.109   7.754 -0.0126  0.7401  0.2549
 8108SOL    HW135786   4.194   1.056   7.717  1.4108  2.2804  0.7849
 8108SOL    HW235787   4.166   1.140   7.834  1.1740  0.5950 -0.3197
 8109SOL     OW35788   0.588   0.966   6.610  0.3716  0.4910  0.3418
 8109SOL    HW135789   0.552   1.030   6.549 -1.0069  1.8490  2.5867
 8109SOL    HW235790   0.549   1.007   6.687 -1.2228  3.5705 -2.0973
 8110SOL     OW35791   0.881   2.183  15.571 -0.2671 -0.1362 -0.4491
 8110SOL    HW135792   0.864   2.244  15.499  0.1787  1.6845  1.0092
 8110SOL    HW235793   0.976   2.175  15.569 -0.1778  0.2909  2.3361
 8111SOL     OW35794   1.880   1.352   8.079 -0.7652 -0.1670 -0.0129
 8111SOL    HW135795   1.831   1.281   8.037 -0.6414 -0.7030  0.7570
 8111SOL    HW235796   1.824   1.376   8.152 -2.2958 -1.2649 -0.8402
 8112SOL     OW35797   4.329   3.369   4.542  0.6147  0.4864 -0.5289
 8112SOL    HW135798   4.274   3.291   4.532 -1.1600  1.6891 -0.1229
 8112SOL    HW235799   4.418   3.335   4.550  0.5729  0.0161 -2.0085
 8113SOL     OW35800   4.462   4.295   8.802  0.3079 -0.1635  0.0833
 8113SOL    HW135801   4.374   4.330   8.817 -0.2315 -0.6451 -1.8871
 8113SOL    HW235802   4.504   4.360   8.746 -2.2131  0.4332 -1.1380
 8114SOL     OW35803   0.925   2.591   8.885  0.1840 -0.1739  0.2485
 8114SOL    HW135804   0.934   2.611   8.792  0.6984 -0.0732  0.3231
 8114SOL    HW235805   0.835   2.619   8.903 -0.7567 -2.2759 -1.2679
 8115SOL     OW35806   2.710   2.799  13.689  0.0709 -0.3790 -0.1934
 8115SOL    HW135807   2.766   2.728  13.720  0.4955  0.0693  0.0658
 8115SOL    HW235808   2.753   2.818  13.605 -0.3247  1.9166  0.1317
 8116SOL     OW35809   2.275   1.335   5.600 -0.8060 -0.5376 -0.4787
 8116SOL    HW135810   2.331   1.362   5.673  0.2216 -1.7548 -0.8092
 8116SOL    HW235811   2.187   1.346   5.637  0.9079  1.8414  2.8732
 8117SOL     OW35812   0.719   1.509   4.665  0.3091 -0.4258  0.3178
 8117SOL    HW135813   0.765   1.580   4.709  0.7748  0.1384 -1.0671
 8117SOL    HW235814   0.785   1.463   4.613  0.7188  1.5620 -0.9301
 8118SOL     OW35815   3.045   2.382   3.540 -0.1439 -0.5358  0.3707
 8118SOL    HW135816   3.098   2.451   3.579  0.7382 -0.0614 -1.6580
 8118SOL    HW235817   3.114   2.317   3.531  0.8842  0.7504 -0.8876
 8119SOL     OW35818   1.423   0.187   4.178  0.4041 -0.1096  0.0272
 8119SOL    HW135819   1.507   0.141   4.181  0.8065  0.4548 -2.4195
 8119SOL    HW235820   1.359   0.116   4.186 -0.0685  0.2081 -0.8849
 8120SOL     OW35821   3.507   1.348   2.937 -0.6765 -0.0385 -0.3505
 8120SOL    HW135822   3.573   1.417   2.931  1.6204 -2.1371  0.8783
 8120SOL    HW235823   3.452   1.363   3.014 -1.1548  0.7522 -0.8464
 8121SOL     OW35824   4.576   1.147   2.514  0.5615 -0.0202  0.4413
 8121SOL    HW135825   4.546   1.237   2.509 -1.0062 -0.6380 -1.1295
 8121SOL    HW235826   4.663   1.165   2.552  1.7856 -1.5903 -1.6281
 8122SOL     OW35827   2.526   3.400   2.770  0.2227 -0.5532 -0.2740
 8122SOL    HW135828   2.590   3.413   2.700  1.0447 -2.8556  0.0608
 8122SOL    HW235829   2.541   3.306   2.780  0.1181 -0.3540  1.8958
 8123SOL     OW35830   0.940   3.222  10.073  0.4966  0.1890 -0.0830
 8123SOL    HW135831   1.002   3.148  10.077  1.6859  1.2190  0.5948
 8123SOL    HW235832   0.884   3.174  10.013  1.1819 -1.5014  0.6157
 8124SOL     OW35833   1.107   3.936   3.846  0.2920  0.4612 -0.1856
 8124SOL    HW135834   1.151   4.021   3.849 -0.7060  0.9207  1.4504
 8124SOL    HW235835   1.102   3.917   3.752  2.6506  2.4628 -0.7430
 8125SOL     OW35836   1.204   1.276   3.917 -0.0021  0.1155 -0.1040
 8125SOL    HW135837   1.254   1.351   3.885  0.1236  0.4135  0.8061
 8125SOL    HW235838   1.274   1.214   3.897 -1.1842 -0.9596 -0.8692
 8126SOL     OW35839   0.114   1.001   8.973 -0.1179 -0.3315 -0.6382
 8126SOL    HW135840   0.194   0.950   8.983  0.3815  0.6012  0.0800
 8126SOL    HW235841   0.135   1.066   8.905  0.8967  0.1676  0.1473
 8127SOL     OW35842   3.027   0.042   9.144  0.1784 -0.4257 -0.1190
 8127SOL    HW135843   2.952   0.092   9.111  0.0494 -0.4047  0.2023
 8127SOL    HW235844   3.015   4.676   9.115 -0.5160 -0.6781  0.9578
 8128SOL     OW35845   2.205   0.950  14.170 -0.4841  0.1981 -0.0899
 8128SOL    HW135846   2.172   1.021  14.225 -3.3611  0.4298 -2.1409
 8128SOL    HW235847   2.191   0.874  14.227 -1.3211  1.0315  0.8044
 8129SOL     OW35848   2.555   2.368   6.985 -0.4343  0.0807 -0.1889
 8129SOL    HW135849   2.633   2.313   6.999 -0.4709 -0.0306 -0.4312
 8129SOL    HW235850   2.525   2.373   7.076 -0.1911  1.4485 -0.1854
 8130SOL     OW35851   0.411   2.458  12.729  0.1296  0.1376 -0.2756
 8130SOL    HW135852   0.332   2.490  12.772  0.9510  1.2894  0.3958
 8130SOL    HW235853   0.428   2.371  12.765 -1.6235  1.1457  3.0413
 8131SOL     OW35854   2.152   0.202   4.308  0.2421 -0.6154  0.3539
 8131SOL    HW135855   2.079   0.239   4.258  0.6570  1.6346  1.4186
 8131SOL    HW235856   2.135   0.109   4.293  0.3048 -0.7738  1.2486
 8132SOL     OW35857   4.671   4.075   0.444  0.0952 -0.0234 -0.7114
 8132SOL    HW135858   4.599   4.087   0.382  0.2607  1.4981 -0.6115
 8132SOL    HW235859   4.714   4.160   0.450 -1.9169  1.1025 -2.1329
 8133SOL     OW35860   1.633   0.933   7.855  0.0731 -0.3041  0.9010
 8133SOL    HW135861   1.687   0.856   7.837 -0.2896 -0.4142  0.2972
 8133SOL    HW235862   1.566   0.899   7.915  0.3928  1.0196  2.0048
 8134SOL     OW35863   4.248   4.174   6.489  0.1742  0.2637  0.7136
 8134SOL    HW135864   4.198   4.248   6.453  0.2236  0.5168  1.1558
 8134SOL    HW235865   4.322   4.163   6.430 -1.0999 -1.5538 -0.5556
 8135SOL     OW35866   1.873   0.413   8.168 -0.1976  0.0219 -0.4157
 8135SOL    HW135867   1.834   0.498   8.187 -0.5575 -0.2878  0.2245
 8135SOL    HW235868   1.948   0.444   8.117  0.2496  2.1432  1.5253
 8136SOL     OW35869   4.371   1.599  17.251  0.4363  0.0699  0.5267
 8136SOL    HW135870   4.303   1.533  17.267  0.6580  0.1093  1.6118
 8136SOL    HW235871   4.420   1.579  17.331  0.2166 -2.3415  0.0663
 8137SOL     OW35872   2.575   4.443   7.856 -0.7564 -0.1106 -0.1656
 8137SOL    HW135873   2.585   4.481   7.769  2.7055  0.2326  0.3476
 8137SOL    HW235874   2.664   4.409   7.871 -1.6614 -2.6459 -0.7158
 8138SOL     OW35875   4.064   3.160   9.224 -0.2516 -0.1504 -0.2283
 8138SOL    HW135876   4.049   3.242   9.176  0.9635 -0.9479 -1.9734
 8138SOL    HW235877   4.006   3.186   9.295  0.9044  0.9794  0.3147
 8139SOL     OW35878   3.240   0.195   7.695  0.9211  0.4643 -0.3470
 8139SOL    HW135879   3.235   0.258   7.767  0.4148  1.0937 -0.9323
 8139SOL    HW235880   3.229   0.245   7.614 -0.9569  0.0713 -0.3262
 8140SOL     OW35881   3.640   1.876   7.350 -0.3303 -0.4663 -0.3029
 8140SOL    HW135882   3.645   1.869   7.254  1.3808 -1.0180 -0.1679
 8140SOL    HW235883   3.552   1.913   7.354 -0.8177 -1.7745  0.6071
 8141SOL     OW35884   1.372   4.508   8.642  0.0874  0.4097  0.0872
 8141SOL    HW135885   1.401   4.590   8.682  0.4503 -0.4630  1.6256
 8141SOL    HW235886   1.442   4.490   8.579 -1.4002 -0.9015 -1.1850
 8142SOL     OW35887   0.395   3.064   1.506 -0.0192  0.3598 -0.0308
 8142SOL    HW135888   0.314   3.104   1.477 -0.4964  0.9356  2.0650
 8142SOL    HW235889   0.369   2.972   1.513  0.1480  0.2846 -0.4116
 8143SOL     OW35890   2.367   1.712   2.550 -0.2543  0.6196 -0.3684
 8143SOL    HW135891   2.319   1.654   2.491 -2.6816  2.9816 -0.7144
 8143SOL    HW235892   2.455   1.673   2.546 -0.1292  0.8881 -0.2058
 8144SOL     OW35893   2.235   1.702   4.608 -0.5239  0.5952 -0.5100
 8144SOL    HW135894   2.305   1.669   4.551 -2.6999 -3.0494 -1.0641
 8144SOL    HW235895   2.298   1.742   4.668 -1.6673  1.4074  0.1446
 8145SOL     OW35896   3.052   1.107  15.486 -0.3496  0.2098  0.2156
 8145SOL    HW135897   3.035   1.098  15.580 -0.4533  2.7542  0.4346
 8145SOL    HW235898   3.010   1.029  15.450  1.0119 -1.3401  1.9747
 8146SOL     OW35899   0.341   1.367   9.301  0.0805  0.3865  0.1012
 8146SOL    HW135900   0.317   1.275   9.307  2.2172 -0.2938 -1.8830
 8146SOL    HW235901   0.255   1.407   9.294 -0.4823 -0.6392  1.2399
 8147SOL     OW35902   0.992   3.527   0.200 -0.4040 -1.1551  0.1529
 8147SOL    HW135903   0.946   3.533   0.283 -1.0591  0.6151 -0.3309
 8147SOL    HW235904   1.056   3.456   0.203  2.9810  2.0296  3.1578
 8148SOL     OW35905   1.929   0.065   0.522 -0.1024  0.3388 -0.1828
 8148SOL    HW135906   1.854   0.005   0.528  0.4624 -0.4575 -1.2215
 8148SOL    HW235907   1.963   0.048   0.435  0.3461 -1.7607  0.4006
 8149SOL     OW35908   4.615   4.466  17.001  0.3005  0.1722  0.6019
 8149SOL    HW135909   4.576   4.411  17.068  0.2542 -0.5822 -0.0420
 8149SOL    HW235910   4.572   4.550  17.014  0.7807  0.7352 -1.3731
 8150SOL     OW35911   2.484   2.325   0.231  0.7834 -0.0025 -0.2247
 8150SOL    HW135912   2.418   2.256   0.244  1.0556 -0.4177 -1.0668
 8150SOL    HW235913   2.477   2.374   0.313 -0.7808  0.0528 -0.3812
 8151SOL     OW35914   0.050   0.186   2.182  0.2295 -0.1367 -0.1130
 8151SOL    HW135915   4.708   0.142   2.235 -0.8811 -0.7689 -2.0274
 8151SOL    HW235916   0.088   0.249   2.243 -1.2191  0.1134  0.5215
 8152SOL     OW35917   1.039   1.998   0.775  0.0444  0.6558  0.1203
 8152SOL    HW135918   1.087   2.017   0.694 -1.5135  1.1528 -0.6676
 8152SOL    HW235919   0.954   2.041   0.772 -0.4087 -0.0478  2.8015
 8153SOL     OW35920   0.997   2.724   1.640  0.6328 -0.1849 -0.2313
 8153SOL    HW135921   0.915   2.704   1.684 -0.3220  0.7252 -1.6122
 8153SOL    HW235922   0.984   2.690   1.551 -0.2236  1.6273 -0.7831
 8154SOL     OW35923   0.964   1.341   6.959  0.5001  0.9709 -0.2984
 8154SOL    HW135924   0.972   1.323   7.053 -0.7667 -0.9447 -0.5526
 8154SOL    HW235925   1.000   1.259   6.924  0.1142  0.4331  0.5449
 8155SOL     OW35926   2.045   2.438  10.755  0.3209  0.1846  0.0697
 8155SOL    HW135927   2.136   2.463  10.767  0.8616 -1.6505 -0.1248
 8155SOL    HW235928   2.008   2.497  10.821 -1.9180 -0.6006 -0.4585
 8156SOL     OW35929   0.676   3.794   3.019 -0.2033 -0.3886 -0.0121
 8156SOL    HW135930   0.714   3.764   3.102  0.6647 -1.8557 -0.9340
 8156SOL    HW235931   0.703   3.885   3.014 -0.3415 -0.4541 -1.7097
 8157SOL     OW35932   1.218   1.733   0.582 -0.3689 -0.2786 -0.0072
 8157SOL    HW135933   1.224   1.745   0.487 -1.3392  1.0202  0.0902
 8157SOL    HW235934   1.140   1.678   0.583 -1.8196  1.7640 -1.3835
 8158SOL     OW35935   0.805   4.545  10.526  0.0836 -0.2421  0.3869
 8158SOL    HW135936   0.824   4.453  10.507 -0.4896 -0.6746  1.8923
 8158SOL    HW235937   0.891   4.582  10.547  1.0488 -2.1806 -0.1190
 8159SOL     OW35938   2.372   0.960   8.806 -0.0050 -0.2976  0.7931
 8159SOL    HW135939   2.382   0.865   8.804  0.7424 -0.1490 -1.8680
 8159SOL    HW235940   2.402   0.986   8.719 -0.4698 -0.6359  0.5324
 8160SOL     OW35941   3.706   2.647   9.087 -0.2229  0.4081 -0.7525
 8160SOL    HW135942   3.703   2.607   9.000  3.2210  1.4627 -1.3466
 8160SOL    HW235943   3.795   2.641   9.121  0.1788  1.2326 -1.6718
 8161SOL     OW35944   1.927   3.099  11.651 -0.0701  0.2675  0.1477
 8161SOL    HW135945   1.963   3.121  11.737 -3.2924  0.5785  1.4125
 8161SOL    HW235946   1.913   3.005  11.656  0.6985  0.1728  0.5279
 8162SOL     OW35947   0.936   0.533   5.226 -0.2859 -0.5124 -0.0719
 8162SOL    HW135948   0.948   0.621   5.190  1.0673 -0.6166  0.1193
 8162SOL    HW235949   1.017   0.504   5.269  1.0521  0.4059 -1.9868
 8163SOL     OW35950   0.589   0.544  11.666 -0.5731 -0.1891  0.1356
 8163SOL    HW135951   0.644   0.514  11.594 -0.5271 -0.3951  0.2569
 8163SOL    HW235952   0.511   0.489  11.657 -0.4496 -0.8873  3.4023
 8164SOL     OW35953   0.887   1.218   7.828  0.4209  0.3381 -0.3451
 8164SOL    HW135954   0.860   1.246   7.741 -0.8659  1.5257  0.4378
 8164SOL    HW235955   0.936   1.289   7.869  0.6118 -0.0437  0.1016
 8165SOL     OW35956   3.918   3.367   4.502  0.6860 -0.1499  0.3570
 8165SOL    HW135957   3.868   3.346   4.423 -2.9187  1.3690  2.2276
 8165SOL    HW235958   4.001   3.398   4.467 -0.3414  1.5180 -0.6024
 8166SOL     OW35959   4.678   2.394   4.074  0.1561  0.1516 -0.2062
 8166SOL    HW135960   4.675   2.298   4.080 -0.5887  0.0513 -2.1389
 8166SOL    HW235961   4.598   2.415   4.026  0.6075  0.3503 -0.8714
 8167SOL     OW35962   1.640   4.143   6.401  0.2360  0.3615 -0.5348
 8167SOL    HW135963   1.602   4.092   6.474 -0.9057 -0.7897 -1.9245
 8167SOL    HW235964   1.664   4.231   6.429 -0.0544  0.9753 -2.2555
 8168SOL     OW35965   3.759   0.567   6.466  0.6674  0.4982  0.2612
 8168SOL    HW135966   3.840   0.518   6.480  1.4949  1.9723  0.6698
 8168SOL    HW235967   3.729   0.576   6.556 -1.8839 -0.5045 -0.4874
 8169SOL     OW35968   1.519   0.463   6.931  0.1594  0.4324 -0.4408
 8169SOL    HW135969   1.483   0.428   6.850  0.7250  1.0381 -0.9586
 8169SOL    HW235970   1.489   0.399   6.995  0.4212  1.7198  0.9610
 8170SOL     OW35971   4.355   3.001   3.123  0.1339 -0.3861 -0.4537
 8170SOL    HW135972   4.282   2.939   3.118 -0.9141  0.7583  0.6102
 8170SOL    HW235973   4.413   2.960   3.186 -0.3103 -0.7275 -0.2655
 8171SOL     OW35974   3.918   1.536   1.068  0.1783  0.6261 -0.3018
 8171SOL    HW135975   3.879   1.529   1.155  1.5656  0.0709  0.2791
 8171SOL    HW235976   3.985   1.467   1.064 -1.7080 -1.0703 -3.2909
 8172SOL     OW35977   1.453   2.117   2.646  0.2544 -0.4999 -0.3425
 8172SOL    HW135978   1.461   2.023   2.630  0.2995 -0.9131  2.1123
 8172SOL    HW235979   1.389   2.136   2.577 -0.8994 -1.5972  0.4408
 8173SOL     OW35980   0.446   1.863   2.869  0.1389 -0.1514 -0.2310
 8173SOL    HW135981   0.401   1.809   2.804  1.7536  0.3859 -1.8084
 8173SOL    HW235982   0.449   1.944   2.819  0.1213  1.1226  1.8171
 8174SOL     OW35983   3.896   3.798   2.536 -0.2032  0.4142 -0.3370
 8174SOL    HW135984   3.970   3.859   2.535  0.8830 -0.8939 -1.3498
 8174SOL    HW235985   3.852   3.813   2.620 -0.1608  1.5082 -0.5224
 8175SOL     OW35986   2.000   0.004   8.745  0.6563 -0.3071  0.2122
 8175SOL    HW135987   1.987   0.025   8.838  0.9513  0.3173  0.1106
 8175SOL    HW235988   1.946   4.651   8.731 -0.6834  0.5014  0.9310
 8176SOL     OW35989   4.445   2.516   3.265 -0.1875  0.2619 -0.6274
 8176SOL    HW135990   4.399   2.542   3.185 -0.3641  3.0419  0.3751
 8176SOL    HW235991   4.396   2.568   3.329  0.9486  0.2110  0.2729
 8177SOL     OW35992   1.016   2.084   5.789 -0.1466  0.1700  0.2607
 8177SOL    HW135993   1.046   2.151   5.851  1.1919 -1.8404  1.8265
 8177SOL    HW235994   1.089   2.083   5.727  0.8289 -0.4586  1.4071
 8178SOL     OW35995   0.430   2.629   1.684 -0.2283 -0.2813 -0.1996
 8178SOL    HW135996   0.516   2.619   1.724 -1.0921  1.4142  2.0485
 8178SOL    HW235997   0.429   2.724   1.687 -0.7914 -0.2518 -1.1506
 8179SOL     OW35998   1.330   3.267   2.921 -0.0322  0.3730  0.1721
 8179SOL    HW135999   1.389   3.317   2.866  1.2181 -0.9100  0.3272
 8179SOL    HW236000   1.377   3.245   3.002  1.5242 -0.8547 -1.0584
 8180SOL     OW36001   3.725   3.436  12.406 -0.2234  0.1133 -0.2869
 8180SOL    HW136002   3.762   3.520  12.434 -0.4057  0.4325 -1.0079
 8180SOL    HW236003   3.640   3.466  12.374 -0.4009  1.2611  1.2688
 8181SOL     OW36004   3.572   3.992   5.034 -0.8434  0.1796 -0.1162
 8181SOL    HW136005   3.587   4.086   5.036  0.4616 -0.0122 -0.5957
 8181SOL    HW236006   3.614   3.961   4.953 -2.0613  0.2196 -0.7635
 8182SOL     OW36007   1.210   0.772  13.620 -0.5935  0.5494  0.0007
 8182SOL    HW136008   1.280   0.782  13.556 -1.1277  2.0794 -0.3429
 8182SOL    HW236009   1.203   0.676  13.614 -0.9657  0.5469  0.4633
 8183SOL     OW36010   3.124   1.739   6.327 -0.6538 -0.5343 -0.0249
 8183SOL    HW136011   3.069   1.812   6.300 -0.7577 -1.1933 -1.6139
 8183SOL    HW236012   3.081   1.713   6.408 -1.4666  2.9206  0.6296
 8184SOL     OW36013   3.341   0.208   1.776  0.4463  0.1852  0.1188
 8184SOL    HW136014   3.252   0.237   1.756 -0.0535 -1.9162 -0.6914
 8184SOL    HW236015   3.328   0.115   1.758  0.5108  0.4337 -1.2155
 8185SOL     OW36016   3.846   3.499  15.312 -0.6875  0.4131 -0.4060
 8185SOL    HW136017   3.786   3.491  15.386 -0.7472  1.8737 -0.2961
 8185SOL    HW236018   3.922   3.456  15.352 -0.6579  0.8737  0.0339
 8186SOL     OW36019   0.293   4.060  13.466  0.8976  0.6075  0.1146
 8186SOL    HW136020   0.298   3.968  13.490  0.3863  0.7990  0.9541
 8186SOL    HW236021   0.204   4.076  13.434 -0.0390 -0.4778  2.2020
 8187SOL     OW36022   0.379   1.878   6.062  0.2104  0.0107 -0.5470
 8187SOL    HW136023   0.429   1.903   5.984  0.7419  0.8533  0.0635
 8187SOL    HW236024   0.285   1.878   6.044  0.1391  2.4406 -0.2158
 8188SOL     OW36025   0.081   3.270   6.105 -0.0286  0.0123  0.2759
 8188SOL    HW136026   4.718   3.258   6.142 -0.8248  0.7527 -1.3383
 8188SOL    HW236027   0.118   3.343   6.154 -0.3840 -0.2378  0.9120
 8189SOL     OW36028   1.596   1.930  13.039  0.7062 -0.0725  0.4238
 8189SOL    HW136029   1.615   1.836  13.032  0.9887 -0.0509  0.8632
 8189SOL    HW236030   1.653   1.959  13.110 -0.5197  2.9685  0.1721
 8190SOL     OW36031   2.919   0.087   4.961  0.3513  0.2458  0.5523
 8190SOL    HW136032   2.884   0.027   4.895  0.5401  0.1535  0.5360
 8190SOL    HW236033   2.964   0.145   4.899 -2.0446  1.5504  0.0301
 8191SOL     OW36034   4.437   2.468  16.854 -0.4396  0.1335  0.7673
 8191SOL    HW136035   4.493   2.538  16.820 -0.6973 -1.0146 -2.0291
 8191SOL    HW236036   4.505   2.409  16.886 -0.9383  0.6852  2.7991
 8192SOL     OW36037   4.612   0.076  14.920 -0.2352 -0.5819 -0.3269
 8192SOL    HW136038   4.585   0.143  14.858 -1.0523  0.3939  1.0759
 8192SOL    HW236039   4.530   0.064  14.968 -0.0921  0.2040  0.1082
 8193SOL     OW36040   0.138   4.592   4.446 -0.0739 -0.2105  0.4730
 8193SOL    HW136041   0.187   4.553   4.520 -0.4740  0.0678  0.8839
 8193SOL    HW236042   0.161   4.544   4.367  1.3450 -0.0336  0.7786
 8194SOL     OW36043   3.019   0.162   6.391  0.2558 -0.0484 -0.2218
 8194SOL    HW136044   3.114   0.155   6.379  0.2968  0.6834 -0.3194
 8194SOL    HW236045   3.014   0.150   6.486  0.1615  2.3117  0.0867
 8195SOL     OW36046   0.992   1.741   8.792 -0.3732  0.4111  0.1171
 8195SOL    HW136047   1.025   1.670   8.736  2.3427 -0.9464  3.4957
 8195SOL    HW236048   0.987   1.690   8.873 -0.0842  0.4072  0.1338
 8196SOL     OW36049   0.012   1.012   2.302 -0.5232 -0.3212  0.0667
 8196SOL    HW136050   0.085   1.046   2.355 -0.4154  0.6429 -0.7214
 8196SOL    HW236051   4.671   1.025   2.371 -0.4978  0.2065 -0.0099
 8197SOL     OW36052   0.742   4.425   4.825  0.2711 -0.8412  0.1474
 8197SOL    HW136053   0.709   4.470   4.747 -0.5413 -0.2815  0.8089
 8197SOL    HW236054   0.698   4.485   4.885 -2.5777 -2.2552 -0.5196
 8198SOL     OW36055   2.142   0.140  11.487  0.0593 -0.2063 -0.2679
 8198SOL    HW136056   2.107   0.118  11.401 -0.7502  0.4353 -0.1089
 8198SOL    HW236057   2.153   0.235  11.480 -1.3086  0.0701  1.1668
 8199SOL     OW36058   4.006   2.754   3.532 -0.2207 -0.1813  0.9205
 8199SOL    HW136059   3.983   2.838   3.574 -0.1403 -1.6141  3.8415
 8199SOL    HW236060   3.982   2.698   3.606 -0.5176 -2.5314 -0.9657
 8200SOL     OW36061   1.451   0.825   5.653  0.2936 -0.6943 -0.5111
 8200SOL    HW136062   1.526   0.865   5.609 -1.0395 -0.7263 -2.8133
 8200SOL    HW236063   1.493   0.790   5.732  1.6054  2.1801  0.0879
 8201SOL     OW36064   2.519   4.021   2.739 -0.1327  0.3028 -0.0499
 8201SOL    HW136065   2.480   3.957   2.680 -1.7702  0.7739  0.5216
 8201SOL    HW236066   2.547   4.094   2.684 -0.4905 -1.2161 -2.2490
 8202SOL     OW36067   4.581   3.125  16.885  0.0700  0.6067  0.0409
 8202SOL    HW136068   4.502   3.111  16.834 -0.2732  1.5753  0.3076
 8202SOL    HW236069   4.577   3.056  16.952 -1.6146  0.3868 -0.2767
 8203SOL     OW36070   3.550   1.354   7.098 -0.3795  0.3052  0.2840
 8203SOL    HW136071   3.602   1.301   7.159 -0.7058 -0.5465 -0.1805
 8203SOL    HW236072   3.565   1.312   7.013  1.2684 -0.2151  0.8221
 8204SOL     OW36073   3.846   0.677  10.095 -0.1511 -0.0130  0.5636
 8204SOL    HW136074   3.833   0.733  10.172 -0.3132 -1.2330  1.4300
 8204SOL    HW236075   3.835   0.588  10.128  0.3243 -0.9667 -1.8561
 8205SOL     OW36076   1.184   1.665   4.627 -0.2003  0.0561 -0.0028
 8205SOL    HW136077   1.158   1.671   4.535 -0.7658 -0.4418  0.1265
 8205SOL    HW236078   1.280   1.674   4.620 -0.1308  0.8166  1.9095
 8206SOL     OW36079   1.518   2.090   5.522 -0.3143 -0.0677  0.6684
 8206SOL    HW136080   1.475   2.102   5.437  2.1125 -1.2969 -0.7365
 8206SOL    HW236081   1.552   2.178   5.537 -1.4753  0.8023 -1.6593
 8207SOL     OW36082   0.278   3.572  17.546 -0.0341 -0.6337  0.4240
 8207SOL    HW136083   0.357   3.539  17.503 -2.5930 -0.4700 -4.3634
 8207SOL    HW236084   0.298   3.665  17.553 -0.1900 -0.6017  0.4295
 8208SOL     OW36085   4.375   2.269   5.655  0.2100  0.1455  0.0314
 8208SOL    HW136086   4.329   2.268   5.571  1.1934  0.4692 -0.5114
 8208SOL    HW236087   4.462   2.297   5.625  0.3010  1.5149  1.5113
 8209SOL     OW36088   2.494   2.303  12.058  0.3665  0.1228  0.0916
 8209SOL    HW136089   2.561   2.367  12.081  0.8784 -0.5320  0.4417
 8209SOL    HW236090   2.480   2.323  11.965  0.5872  2.8473  0.6382
 8210SOL     OW36091   0.376   2.252   6.539 -0.1386  0.2574 -0.2890
 8210SOL    HW136092   0.287   2.256   6.574  0.0569 -2.3292  0.4870
 8210SOL    HW236093   0.366   2.279   6.448 -4.2029  0.4119  0.2061
 8211SOL     OW36094   3.992   1.182   0.626  0.3260  0.0158 -0.0785
 8211SOL    HW136095   3.925   1.114   0.621  0.7546 -0.5698  1.8146
 8211SOL    HW236096   4.021   1.186   0.535  0.6006  2.5843  0.1383
 8212SOL     OW36097   1.368   1.404   2.210  0.2751  0.6258 -0.1569
 8212SOL    HW136098   1.283   1.365   2.234  0.6105  1.7724  2.8936
 8212SOL    HW236099   1.420   1.380   2.287  0.6249  0.6095 -0.4017
 8213SOL     OW36100   0.804   3.066   9.892  0.2167  0.3031  0.3662
 8213SOL    HW136101   0.862   3.047   9.819  1.8557  1.7454  1.2974
 8213SOL    HW236102   0.723   3.018   9.872 -0.7566  2.0604  0.1132
 8214SOL     OW36103   1.008   1.544   8.625  0.2742 -0.3838  0.2982
 8214SOL    HW136104   1.077   1.598   8.588 -0.2071 -0.4711 -0.7254
 8214SOL    HW236105   0.986   1.494   8.546  0.1321  0.7272 -0.3601
 8215SOL     OW36106   0.073   0.775   1.804  0.2074 -0.3105  0.3339
 8215SOL    HW136107   0.106   0.696   1.847 -3.2867 -2.4393 -0.8842
 8215SOL    HW236108   0.069   0.837   1.877 -0.7685 -0.9989  0.8570
 8216SOL     OW36109   2.274   3.296   9.370 -0.8517  0.1075 -0.4240
 8216SOL    HW136110   2.349   3.355   9.370 -2.4125  2.0706  0.7324
 8216SOL    HW236111   2.218   3.358   9.324 -1.2187 -0.2954 -0.5224
 8217SOL     OW36112   2.185   2.849   1.047 -0.5267 -0.5589 -0.4450
 8217SOL    HW136113   2.240   2.777   1.016 -0.2174 -0.0684 -1.0185
 8217SOL    HW236114   2.172   2.894   0.964  2.2088 -1.5793 -1.4102
 8218SOL     OW36115   1.120   1.478  13.606 -0.4522 -0.4578 -0.0475
 8218SOL    HW136116   1.034   1.486  13.566 -0.3825  1.3814  0.1440
 8218SOL    HW236117   1.098   1.397  13.651  0.7709 -0.8542 -0.1550
 8219SOL     OW36118   0.971   1.389  11.945  0.3159  0.1267 -0.7179
 8219SOL    HW136119   1.009   1.470  11.980 -0.9696  0.5972 -0.4014
 8219SOL    HW236120   0.985   1.397  11.850  0.9017  1.0202 -0.5507
 8220SOL     OW36121   2.047   3.134   9.486  0.1756  0.0562 -1.0428
 8220SOL    HW136122   2.125   3.187   9.502 -0.2516  0.4045 -0.0891
 8220SOL    HW236123   2.046   3.080   9.565 -2.9616  1.0062 -0.4452
 8221SOL     OW36124   3.908   4.341  10.709 -0.5313 -0.3741  0.1107
 8221SOL    HW136125   3.925   4.357  10.802  0.6544 -0.4768 -0.0923
 8221SOL    HW236126   3.991   4.376  10.677 -0.6020  0.4978  0.8827
 8222SOL     OW36127   1.459   2.843   1.862 -0.1448  0.1033 -0.5340
 8222SOL    HW136128   1.474   2.937   1.866  2.9547 -0.3981 -0.5247
 8222SOL    HW236129   1.380   2.840   1.808 -0.5642 -0.1399  0.0895
 8223SOL     OW36130   0.697   2.931   5.712  0.3190  0.4360 -0.8297
 8223SOL    HW136131   0.726   3.001   5.654  3.2557 -0.2459 -0.1808
 8223SOL    HW236132   0.606   2.920   5.683 -0.9918  2.4911  2.5817
 8224SOL     OW36133   0.146   2.280  17.160 -0.0317  0.7713 -0.1310
 8224SOL    HW136134   0.180   2.195  17.132  0.6179  1.0312 -0.1436
 8224SOL    HW236135   0.099   2.248  17.237 -0.9265 -0.3593 -1.1595
 8225SOL     OW36136   2.650   3.479   3.119  0.6427  0.0224  0.2551
 8225SOL    HW136137   2.662   3.493   3.025  1.4002  1.1309  0.5186
 8225SOL    HW236138   2.682   3.395   3.152 -0.5041  0.2803  2.0028
 8226SOL     OW36139   2.824   1.096   7.725  0.1290 -0.1627  0.0181
 8226SOL    HW136140   2.729   1.102   7.714 -0.2180 -0.4489  2.8688
 8226SOL    HW236141   2.854   1.121   7.637 -0.8209 -2.2186 -0.8781
 8227SOL     OW36142   1.894   2.054  16.339 -0.1150 -0.1079  0.4745
 8227SOL    HW136143   1.917   2.044  16.247 -0.6684  0.3908  0.2805
 8227SOL    HW236144   1.805   2.088  16.333 -0.2456 -0.5820 -0.1856
 8228SOL     OW36145   1.717   0.834   3.867 -0.1223 -0.3613 -0.0021
 8228SOL    HW136146   1.690   0.751   3.904 -0.7224  0.7932  2.1730
 8228SOL    HW236147   1.682   0.887   3.939  0.8318 -0.3616  0.4651
 8229SOL     OW36148   3.722   3.815   5.412 -0.2185  0.5710 -0.0208
 8229SOL    HW136149   3.757   3.755   5.347 -2.2208 -0.5417 -0.0630
 8229SOL    HW236150   3.644   3.855   5.373  0.4884  2.1700  0.1829
 8230SOL     OW36151   4.675   1.024   8.542 -0.4605  0.0439 -0.4436
 8230SOL    HW136152   0.025   0.964   8.529 -0.2897 -0.1106  1.2191
 8230SOL    HW236153   4.707   1.113   8.558 -1.1989 -0.0535  1.5761
 8231SOL     OW36154   0.479   4.199   4.809  0.3651 -0.2702 -0.1052
 8231SOL    HW136155   0.440   4.273   4.856 -0.6487 -0.1477 -1.1554
 8231SOL    HW236156   0.497   4.244   4.727  1.7824  0.9026  0.8496
 8232SOL     OW36157   1.863   0.162  11.263 -0.5023 -0.6898 -0.1999
 8232SOL    HW136158   1.787   0.181  11.208 -0.7054  1.6140  0.8671
 8232SOL    HW236159   1.862   0.067  11.254 -1.4346 -0.5791 -1.2514
 8233SOL     OW36160   4.132   2.780   4.981  0.3088 -0.4139 -0.1901
 8233SOL    HW136161   4.110   2.770   4.888  1.0898 -0.9035 -0.3185
 8233SOL    HW236162   4.185   2.702   4.990  1.4089  0.2303 -1.1096
 8234SOL     OW36163   0.456   0.825   3.297 -0.1883  0.0297  0.2159
 8234SOL    HW136164   0.532   0.780   3.333 -1.3867  0.5594  3.3936
 8234SOL    HW236165   0.437   0.901   3.353 -0.2996 -1.7706  2.6002
 8235SOL     OW36166   0.446   1.285   6.579 -0.3738 -0.3193 -0.0964
 8235SOL    HW136167   0.412   1.368   6.544 -1.0681  0.0306  1.4145
 8235SOL    HW236168   0.458   1.227   6.504 -0.8109  0.8809 -1.0848
 8236SOL     OW36169   1.220   0.344  15.811  0.4849  0.3154  0.5128
 8236SOL    HW136170   1.280   0.398  15.760  1.1116 -0.8976 -0.0229
 8236SOL    HW236171   1.190   0.288  15.739  1.8053  0.0131  0.2055
 8237SOL     OW36172   1.527   2.768   9.436  0.2674 -0.1177 -0.0572
 8237SOL    HW136173   1.570   2.839   9.387  0.8240  0.2853  1.0301
 8237SOL    HW236174   1.600   2.741   9.492  0.3991  1.0355  0.3238
 8238SOL     OW36175   4.089   2.819   7.599  0.4340  0.4798  0.0156
 8238SOL    HW136176   4.108   2.854   7.512  2.0300 -0.8424 -0.1775
 8238SOL    HW236177   4.043   2.888   7.646  0.8865  0.9028 -0.1662
 8239SOL     OW36178   1.220   0.267  12.233  0.5304 -0.1963 -0.3737
 8239SOL    HW136179   1.255   0.299  12.316  0.2532  2.6980 -1.3807
 8239SOL    HW236180   1.178   0.342  12.191 -1.9939 -1.6887 -0.4435
 8240SOL     OW36181   2.561   1.308   5.404 -0.2353 -0.2293  0.0440
 8240SOL    HW136182   2.584   1.385   5.457  1.7510 -1.1969  0.5756
 8240SOL    HW236183   2.552   1.246   5.477  1.1115  1.0385  1.3044
 8241SOL     OW36184   4.137   1.018   5.560 -0.1600 -0.2429  0.0273
 8241SOL    HW136185   4.064   1.076   5.540 -0.1308  0.1991  1.1957
 8241SOL    HW236186   4.208   1.065   5.518  0.7578 -2.6212 -1.0992
 8242SOL     OW36187   3.994   1.729   9.115 -0.1454  0.3170 -0.1091
 8242SOL    HW136188   4.001   1.692   9.027  0.2501  1.2737 -0.4738
 8242SOL    HW236189   3.905   1.765   9.111 -0.0058  0.7431  0.6617
 8243SOL     OW36190   0.319   2.013   8.394 -0.0647  0.4077  0.1447
 8243SOL    HW136191   0.275   1.970   8.467  0.0297 -1.6502 -1.0212
 8243SOL    HW236192   0.249   2.014   8.329  0.4963  0.1037 -0.4707
 8244SOL     OW36193   2.986   0.099  17.647 -0.2169  0.0233  0.3463
 8244SOL    HW136194   2.968   0.155   0.024 -0.3561  0.2435  0.1460
 8244SOL    HW236195   3.022   0.020  17.689  3.0151  1.3396  0.0078
 8245SOL     OW36196   3.175   3.453   6.126 -0.4130  0.3878 -0.3947
 8245SOL    HW136197   3.219   3.513   6.065 -1.4701  0.5163 -1.0500
 8245SOL    HW236198   3.089   3.439   6.086 -0.8290 -1.1293  1.0852
 8246SOL     OW36199   2.095   0.169   5.085  0.3188  0.0658  0.2594
 8246SOL    HW136200   2.105   0.265   5.085  0.6342  0.0381 -0.9173
 8246SOL    HW236201   2.111   0.146   4.993  0.4038  2.0536 -0.2247
 8247SOL     OW36202   0.116   2.956   5.458 -0.0567 -0.5030  0.0786
 8247SOL    HW136203   0.121   3.037   5.510 -1.1611 -0.7303  0.5333
 8247SOL    HW236204   0.023   2.934   5.461 -0.5209  1.8216  2.3702
 8248SOL     OW36205   4.611   4.181   4.208  0.2191 -0.6519 -0.4568
 8248SOL    HW136206   4.658   4.195   4.125  0.5601 -1.7468 -0.4533
 8248SOL    HW236207   4.547   4.251   4.196 -0.0383 -0.6977  0.7517
 8249SOL     OW36208   3.320   3.992   3.696 -0.0568  0.9814 -0.0979
 8249SOL    HW136209   3.384   3.948   3.752  1.1135  0.4974 -1.8249
 8249SOL    HW236210   3.286   3.918   3.646 -0.3240  1.0902 -0.0781
 8250SOL     OW36211   4.022   4.387   1.827 -0.1972 -0.0884 -0.5821
 8250SOL    HW136212   3.971   4.391   1.746  0.3992 -0.0951 -0.9593
 8250SOL    HW236213   4.109   4.389   1.787 -0.8864 -0.1258 -2.0748
 8251SOL     OW36214   2.280   0.486   3.399 -0.1862 -0.2545 -0.1251
 8251SOL    HW136215   2.309   0.395   3.388  0.2322 -0.1295 -0.0718
 8251SOL    HW236216   2.233   0.504   3.318  0.1034 -0.7837 -0.4136
 8252SOL     OW36217   0.626   4.516  14.940 -0.3194  0.2520  0.1419
 8252SOL    HW136218   0.646   4.483  14.852 -1.5188  0.9159 -0.3903
 8252SOL    HW236219   0.700   4.478  14.988  0.6099  1.0052 -0.6935
 8253SOL     OW36220   0.531   3.755  17.398  0.0588  0.2451  0.0318
 8253SOL    HW136221   0.492   3.795  17.476  0.7918  2.1887 -0.5834
 8253SOL    HW236222   0.564   3.674  17.437  2.0766  0.7834 -0.5331
 8254SOL     OW36223   1.021   3.787  17.268  0.2781 -0.1030 -0.1020
 8254SOL    HW136224   1.045   3.735  17.344 -1.9061 -1.5693 -0.4031
 8254SOL    HW236225   1.111   3.820  17.262 -0.2026  1.1436 -0.6146
 8255SOL     OW36226   2.935   2.719   3.500  0.1921 -0.6972  0.5174
 8255SOL    HW136227   2.870   2.649   3.515 -0.2479 -0.9290 -2.5031
 8255SOL    HW236228   2.950   2.708   3.407  0.2698  1.7820  0.2318
 8256SOL     OW36229   0.054   1.536   0.099 -0.2512  0.4533 -0.2909
 8256SOL    HW136230   0.028   1.479   0.026 -0.0777  0.3366 -0.2623
 8256SOL    HW236231   4.703   1.510   0.153  0.1347  0.3965  0.2148
 8257SOL     OW36232   0.226   1.863   4.872 -0.4612 -0.8044 -0.1086
 8257SOL    HW136233   0.267   1.922   4.809 -0.5328 -1.5032 -0.8012
 8257SOL    HW236234   0.306   1.831   4.914  0.3330  0.7716 -0.4083
 8258SOL     OW36235   4.527   2.501   2.475 -0.0294  0.2996 -0.4144
 8258SOL    HW136236   4.604   2.507   2.418  0.9898  0.0416  0.9187
 8258SOL    HW236237   4.567   2.446   2.542  0.0037 -0.7382 -1.2909
 8259SOL     OW36238   1.704   2.418  15.454  0.4725 -0.1957  0.6260
 8259SOL    HW136239   1.772   2.427  15.521  1.0523  3.1274 -0.4138
 8259SOL    HW236240   1.730   2.339  15.407 -1.8509 -0.7014  0.1928
 8260SOL     OW36241   1.091   2.591  15.577 -0.1023  0.0885  0.8986
 8260SOL    HW136242   1.133   2.602  15.662  0.5410  2.9448  0.1917
 8260SOL    HW236243   1.131   2.515  15.534  0.0968  1.3225 -1.0464
 8261SOL     OW36244   0.075   1.972   8.892  0.1338 -0.1569  0.5237
 8261SOL    HW136245   0.073   2.021   8.974 -2.4862 -0.5718  0.6978
 8261SOL    HW236246   0.011   2.028   8.849  1.1117  1.0795  0.6664
 8262SOL     OW36247   0.142   2.335  12.659 -0.4234 -0.4211  0.0493
 8262SOL    HW136248   0.094   2.331  12.742  1.9196 -1.0997  1.3850
 8262SOL    HW236249   0.234   2.322  12.682  0.4634  2.9336 -1.5676
 8263SOL     OW36250   2.685   0.029   9.779 -0.0422  0.6441 -1.1318
 8263SOL    HW136251   2.745   0.099   9.806  0.7420 -0.0111 -1.1629
 8263SOL    HW236252   2.601   0.074   9.782  0.6899  2.0810 -2.4403
 8264SOL     OW36253   2.986   3.763   4.580 -0.7776 -0.2721  0.4408
 8264SOL    HW136254   2.938   3.807   4.650  1.9877  2.2956  0.7290
 8264SOL    HW236255   3.041   3.700   4.627  0.4796  1.1442  0.8593
 8265SOL     OW36256   2.351   2.025  16.271 -0.0605 -0.0619 -0.0608
 8265SOL    HW136257   2.423   2.005  16.330 -0.6822  2.0170  1.4049
 8265SOL    HW236258   2.395   2.070  16.199  1.8665 -0.5713  0.8141
 8266SOL     OW36259   3.898   4.363  15.615  0.4886 -0.3580  0.1065
 8266SOL    HW136260   3.835   4.362  15.543  1.8389 -0.1091 -1.0793
 8266SOL    HW236261   3.931   4.274  15.616  0.0335 -0.5626 -2.6347
 8267SOL     OW36262   4.055   4.373   3.124  0.5279 -0.5753  0.1214
 8267SOL    HW136263   4.029   4.297   3.176  0.8590 -1.6174 -1.2307
 8267SOL    HW236264   3.973   4.422   3.114  0.2006 -1.3873 -1.1023
 8268SOL     OW36265   4.526   1.518   6.060 -0.1943  0.7837 -0.1411
 8268SOL    HW136266   4.621   1.518   6.069 -0.2255 -0.1313  0.1526
 8268SOL    HW236267   4.504   1.447   6.000  0.1858 -0.5022  1.2268
 8269SOL     OW36268   4.208   4.093   3.902  0.3351 -0.2012 -0.3799
 8269SOL    HW136269   4.117   4.069   3.887  0.6307 -0.2809 -2.1238
 8269SOL    HW236270   4.234   4.024   3.963 -0.3352 -0.7784 -0.7484
 8270SOL     OW36271   1.936   2.837  11.653  0.2018  0.6882  0.1173
 8270SOL    HW136272   1.841   2.828  11.650  0.3261 -0.8576  0.5218
 8270SOL    HW236273   1.961   2.787  11.575  1.8532  0.9155  0.5058
 8271SOL     OW36274   2.432   2.925   6.311  0.0258  0.4155  0.2069
 8271SOL    HW136275   2.460   3.010   6.344 -2.2189  1.1620  0.1760
 8271SOL    HW236276   2.494   2.923   6.238  0.0201 -2.7128  0.2831
 8272SOL     OW36277   2.889   2.434   7.730  0.1421 -0.2438 -0.0152
 8272SOL    HW136278   2.876   2.527   7.710 -0.7654 -0.1907  0.8210
 8272SOL    HW236279   2.916   2.406   7.642 -2.3095 -1.0404 -0.5038
 8273SOL     OW36280   3.368   0.180   4.194 -0.6516 -0.4175  0.3330
 8273SOL    HW136281   3.378   0.111   4.129  0.1429 -0.7113  0.7721
 8273SOL    HW236282   3.392   0.252   4.136  2.5936 -1.5711  0.2382
 8274SOL     OW36283   2.497   1.356   5.745 -0.6744 -0.5194  0.2459
 8274SOL    HW136284   2.519   1.264   5.731  1.3689 -0.1045  0.7207
 8274SOL    HW236285   2.513   1.356   5.839  2.2161  0.9024 -0.2442
 8275SOL     OW36286   1.502   1.807   5.354  0.3157  0.2910 -0.2112
 8275SOL    HW136287   1.544   1.760   5.425  1.1322  0.7807 -0.3732
 8275SOL    HW236288   1.562   1.878   5.332 -0.4570  0.1023 -2.9515
 8276SOL     OW36289   0.834   4.038  10.558 -1.0468 -0.5710  0.5667
 8276SOL    HW136290   0.777   3.967  10.528  0.5216 -2.7357  2.7551
 8276SOL    HW236291   0.864   3.999  10.640  1.2045  0.3446  0.1912
 8277SOL     OW36292   1.630   4.105   0.654 -0.1107 -0.0929  0.2763
 8277SOL    HW136293   1.553   4.091   0.599 -1.0163  0.4598  1.4278
 8277SOL    HW236294   1.599   4.079   0.740  1.0378  0.0717  0.7379
 8278SOL     OW36295   2.348   3.652   3.907  0.5835  0.0931  0.3793
 8278SOL    HW136296   2.256   3.644   3.932  0.1847  0.1314 -1.0795
 8278SOL    HW236297   2.335   3.703   3.827 -1.3900 -1.3744 -0.2201
 8279SOL     OW36298   2.191   3.044   7.560  0.0524 -0.2817  0.3456
 8279SOL    HW136299   2.115   3.095   7.587  1.1837  0.5500  1.8983
 8279SOL    HW236300   2.175   2.955   7.593  1.7760 -0.2411  1.2639
 8280SOL     OW36301   1.451   1.162   2.600 -0.5869  0.1623  0.2251
 8280SOL    HW136302   1.435   1.244   2.552  1.5747  0.2201 -0.3705
 8280SOL    HW236303   1.545   1.156   2.586 -0.7377 -2.6032  0.4678
 8281SOL     OW36304   2.029   1.780   6.516  0.4413  0.3019 -0.4317
 8281SOL    HW136305   1.955   1.732   6.554  0.4246  0.2321 -0.5528
 8281SOL    HW236306   2.094   1.753   6.581  1.1955 -1.2203 -1.8173
 8282SOL     OW36307   3.890   4.221  10.456  0.0626  0.3778  0.1405
 8282SOL    HW136308   3.795   4.210  10.458  0.0654  0.7867  3.0251
 8282SOL    HW236309   3.912   4.270  10.535 -0.6873 -1.8643  1.7473
 8283SOL     OW36310   0.063   3.310   8.943  0.3820 -0.3666 -0.0977
 8283SOL    HW136311   0.125   3.361   8.994 -0.7238  1.6648 -0.8186
 8283SOL    HW236312   0.017   3.384   8.903 -2.3395 -1.3026  1.2973
 8284SOL     OW36313   2.167   0.564   4.098 -0.1476  0.3851  0.4680
 8284SOL    HW136314   2.079   0.583   4.066  0.2375  0.5068 -0.5103
 8284SOL    HW236315   2.161   0.469   4.094 -0.2069  0.3123  2.0828
 8285SOL     OW36316   0.252   2.231   3.413 -0.1333  0.6117 -0.1199
 8285SOL    HW136317   0.223   2.149   3.374 -0.6812  0.9072 -0.3333
 8285SOL    HW236318   0.340   2.230   3.374 -0.0218  0.5955  0.1313
 8286SOL     OW36319   2.833   1.413   7.537  0.7531 -0.1767  0.0800
 8286SOL    HW136320   2.902   1.476   7.516 -0.5553  0.7450 -1.4118
 8286SOL    HW236321   2.881   1.337   7.505 -0.3235 -0.0003 -1.9562
 8287SOL     OW36322   4.043   2.117   8.411 -0.1682 -0.8056  0.1121
 8287SOL    HW136323   4.110   2.150   8.471  0.6716 -0.4545 -1.0015
 8287SOL    HW236324   4.019   2.196   8.362  0.4664 -1.0723 -0.6249
 8288SOL     OW36325   1.690   4.037   3.211  0.5222  0.6508 -0.2002
 8288SOL    HW136326   1.762   4.016   3.271  1.3954 -0.1571 -1.5237
 8288SOL    HW236327   1.727   4.011   3.127 -2.3440 -0.6658 -1.0397
 8289SOL     OW36328   1.256   0.044   1.074  0.0718  0.1032 -0.3506
 8289SOL    HW136329   1.171   0.087   1.078 -0.7332 -1.6041  1.2682
 8289SOL    HW236330   1.314   0.107   1.031  0.6675 -0.5024 -0.4506
 8290SOL     OW36331   0.937   3.487  16.088 -0.8877 -0.1751 -0.3637
 8290SOL    HW136332   0.854   3.532  16.101 -1.1539 -0.5980 -0.6447
 8290SOL    HW236333   0.913   3.416  16.029  0.4598 -1.5071  0.6794
 8291SOL     OW36334   4.361   3.478   1.307 -0.1155  0.1336  0.0752
 8291SOL    HW136335   4.344   3.550   1.246  1.2221 -0.9724 -1.6002
 8291SOL    HW236336   4.419   3.430   1.248  0.7307 -0.9807  1.8050
 8292SOL     OW36337   2.309   2.630   5.066  0.2029  0.1819  0.0650
 8292SOL    HW136338   2.292   2.709   5.015 -0.2578  0.7845  1.1558
 8292SOL    HW236339   2.228   2.583   5.047  0.6592 -0.9121  0.7986
 8293SOL     OW36340   3.498   4.652   8.772 -0.6919 -0.1129  0.1981
 8293SOL    HW136341   3.542   4.567   8.783 -0.7285  0.1777  2.5677
 8293SOL    HW236342   3.531   4.691   8.853 -0.0279  4.5895 -2.3533
 8294SOL     OW36343   2.987   2.094   9.251  0.5203 -0.2807  0.4056
 8294SOL    HW136344   3.003   2.141   9.169 -0.6867  1.3127  1.0826
 8294SOL    HW236345   2.907   2.046   9.231  0.5897 -1.2411  2.4894
 8295SOL     OW36346   3.425   4.136  16.976 -0.1284 -0.0765 -0.0510
 8295SOL    HW136347   3.347   4.180  16.942  1.2609  1.3593 -1.3759
 8295SOL    HW236348   3.398   4.097  17.059 -0.0116 -1.1107 -0.4936
 8296SOL     OW36349   1.121   2.842   7.184  0.2086 -0.2701  0.0664
 8296SOL    HW136350   1.108   2.757   7.141  0.8376 -0.0920 -0.4617
 8296SOL    HW236351   1.146   2.808   7.271  0.3595 -0.0502  0.1071
 8297SOL     OW36352   4.116   0.200   2.614  0.0870  0.5036 -0.1018
 8297SOL    HW136353   4.048   0.255   2.574  0.6336  0.5647 -0.9501
 8297SOL    HW236354   4.184   0.267   2.601  0.1880  0.4252  0.0201
 8298SOL     OW36355   2.744   3.328   1.674  0.5646 -0.5198  0.0256
 8298SOL    HW136356   2.674   3.263   1.677 -0.5873  0.7017 -0.1676
 8298SOL    HW236357   2.692   3.409   1.676 -0.0192 -0.8160 -3.1328
 8299SOL     OW36358   3.700   0.328   9.523 -0.0350  0.2587  0.3256
 8299SOL    HW136359   3.755   0.391   9.570  0.5966  1.1140 -1.5581
 8299SOL    HW236360   3.663   0.380   9.452 -0.0982  1.5009  1.2774
 8300SOL     OW36361   2.517   1.387   6.414 -0.2682  0.1245 -0.4689
 8300SOL    HW136362   2.441   1.438   6.387 -1.3936 -0.7306  1.1179
 8300SOL    HW236363   2.539   1.331   6.340  0.1875 -1.5955  0.9732
 8301SOL     OW36364   4.630   0.008   4.437 -0.3903  0.2568 -0.8092
 8301SOL    HW136365   4.581   4.723   4.518 -0.2042  0.5656 -0.6623
 8301SOL    HW236366   4.706   4.675   4.447  0.0325  1.3113  1.8959
 8302SOL     OW36367   2.856   0.115   2.381 -0.1403 -0.6658  0.0619
 8302SOL    HW136368   2.837   0.134   2.473  0.3341 -0.3723  0.0969
 8302SOL    HW236369   2.874   0.204   2.350 -3.4733 -0.1495 -0.3369
 8303SOL     OW36370   4.108   1.312   8.593  0.4293 -0.0619 -0.1755
 8303SOL    HW136371   4.166   1.286   8.521  0.1587 -0.2650 -0.3179
 8303SOL    HW236372   4.108   1.229   8.640 -2.6383  0.3119  0.4827
 8304SOL     OW36373   2.523   4.115   6.508 -0.0038  0.0314  0.2116
 8304SOL    HW136374   2.434   4.098   6.478 -0.0566 -0.5009  0.6573
 8304SOL    HW236375   2.582   4.094   6.436 -0.5544 -1.9505  0.3353
 8305SOL     OW36376   2.879   2.964   7.814 -0.2082 -0.3054 -0.3027
 8305SOL    HW136377   2.858   3.058   7.818 -0.4939 -0.4103  0.7985
 8305SOL    HW236378   2.847   2.937   7.728  1.8397  0.8387 -1.4120
 8306SOL     OW36379   3.065   1.835   7.236 -0.2901  0.4073 -0.3629
 8306SOL    HW136380   3.057   1.755   7.184  0.6553  0.7773 -1.0694
 8306SOL    HW236381   3.133   1.886   7.192  0.1161 -1.0839 -1.4606
 8307SOL     OW36382   1.885   1.858   3.545 -0.0355  0.1648 -0.5431
 8307SOL    HW136383   1.932   1.778   3.568  0.9287  1.0406  0.5430
 8307SOL    HW236384   1.820   1.870   3.614  0.2140 -2.3426  0.1081
 8308SOL     OW36385   2.563   3.721   2.487  0.0618  0.0241  0.2258
 8308SOL    HW136386   2.640   3.740   2.540  0.8085 -1.2283 -0.3939
 8308SOL    HW236387   2.601   3.731   2.400  1.3112 -1.0926  0.6488
 8309SOL     OW36388   0.339   0.261  15.201  0.6668  0.1235 -0.3033
 8309SOL    HW136389   0.315   0.291  15.289  3.7789 -0.9530  0.9450
 8309SOL    HW236390   0.264   0.210  15.170  0.1271  0.5200  0.3460
 8310SOL     OW36391   2.739   1.225  10.152 -0.1423 -0.1916 -0.6292
 8310SOL    HW136392   2.820   1.234  10.202  0.1735  0.9861 -1.3537
 8310SOL    HW236393   2.729   1.314  10.118 -0.7904 -0.1737 -0.3879
 8311SOL     OW36394   3.637   4.273   1.332  0.6140  0.0916  0.1794
 8311SOL    HW136395   3.602   4.209   1.270 -2.1289  1.0523  0.7063
 8311SOL    HW236396   3.724   4.284   1.294  0.2757  3.1654  0.2840
 8312SOL     OW36397   4.560   3.795  10.749 -0.1141  0.0521  0.6296
 8312SOL    HW136398   4.564   3.820  10.841  1.4412  0.7281  0.3729
 8312SOL    HW236399   4.595   3.706  10.753  0.0393  0.0722 -0.2094
 8313SOL     OW36400   1.731   2.683   0.396 -0.3095 -0.3136 -0.0544
 8313SOL    HW136401   1.704   2.591   0.391  0.2820 -0.5428  0.9329
 8313SOL    HW236402   1.755   2.703   0.305 -1.0666 -5.3418 -1.3615
 8314SOL     OW36403   3.986   0.438   4.075  0.4192 -0.3253  0.3771
 8314SOL    HW136404   3.993   0.405   3.986  0.6619 -0.2882  0.3848
 8314SOL    HW236405   4.073   0.467   4.099  0.8314 -0.1807 -1.3082
 8315SOL     OW36406   1.101   0.291   7.682 -0.4937 -0.0308 -0.1644
 8315SOL    HW136407   1.125   0.360   7.743  1.0306  0.7892 -1.6970
 8315SOL    HW236408   1.188   0.264   7.654 -0.8580 -0.5823 -0.7743
 8316SOL     OW36409   2.547   3.925   4.469 -0.4206  0.7874 -0.8080
 8316SOL    HW136410   2.625   3.959   4.426  1.0472 -0.6084  0.7192
 8316SOL    HW236411   2.538   3.839   4.427  2.3563 -0.0015  0.2373
 8317SOL     OW36412   4.396   3.971   7.827 -0.5643 -0.2130  1.0039
 8317SOL    HW136413   4.465   4.019   7.781 -0.3594 -0.9962  0.4923
 8317SOL    HW236414   4.462   3.912   7.864  0.7018  0.4154 -0.2465
 8318SOL     OW36415   4.326   2.478  14.334 -0.0699 -0.1227 -0.2612
 8318SOL    HW136416   4.239   2.467  14.296 -0.7225  2.8709  0.3782
 8318SOL    HW236417   4.349   2.555  14.282 -0.8705  0.4161  0.1946
 8319SOL     OW36418   3.420   0.448   7.409 -0.4013 -0.6041 -0.1011
 8319SOL    HW136419   3.463   0.425   7.492  0.7832 -1.8020 -1.0381
 8319SOL    HW236420   3.421   0.543   7.417 -2.1032 -0.4540 -1.7721
 8320SOL     OW36421   1.746   1.107  14.290  0.0408 -0.1232 -0.0275
 8320SOL    HW136422   1.662   1.063  14.283  0.6531 -0.6227 -3.8730
 8320SOL    HW236423   1.741   1.186  14.237 -0.0293 -0.5713 -0.6925
 8321SOL     OW36424   3.998   2.207   3.035 -0.0568  0.5466  0.1803
 8321SOL    HW136425   4.073   2.257   3.003  0.1743  0.5835  0.7827
 8321SOL    HW236426   3.947   2.272   3.083 -0.7437  1.0805 -1.2868
 8322SOL     OW36427   0.456   0.184   5.601  0.0024 -0.0174 -0.6790
 8322SOL    HW136428   0.420   0.147   5.681  0.5225 -0.5101 -0.6763
 8322SOL    HW236429   0.372   0.215   5.567  0.3209 -0.0040 -1.4443
 8323SOL     OW36430   2.871   4.139   1.558  0.5547  0.2014 -0.0178
 8323SOL    HW136431   2.855   4.151   1.651 -0.3145  0.6205 -0.2156
 8323SOL    HW236432   2.829   4.056   1.533 -0.0580  0.1121  1.3173
 8324SOL     OW36433   0.522   4.672   6.445 -0.5156  0.1411  0.0917
 8324SOL    HW136434   0.524   4.587   6.487  0.1063  0.8454  1.4855
 8324SOL    HW236435   0.578   0.004   6.498 -3.3711 -0.2422  3.4972
 8325SOL     OW36436   0.324   2.047   7.265  1.0341 -0.1837 -0.3610
 8325SOL    HW136437   0.247   2.094   7.233  2.4652  1.8169 -0.8640
 8325SOL    HW236438   0.359   2.000   7.190  0.1031  1.5196 -1.8769
 8326SOL     OW36439   4.082   3.753   1.888  0.0029 -0.2741  0.1359
 8326SOL    HW136440   4.067   3.797   1.804  2.5009 -1.2000 -0.8340
 8326SOL    HW236441   4.172   3.722   1.872  0.5761  0.6627  1.6277
 8327SOL     OW36442   1.720   3.835   7.564 -0.8386 -0.1390  0.3454
 8327SOL    HW136443   1.783   3.864   7.499  0.3963  1.9160  2.4664
 8327SOL    HW236444   1.647   3.894   7.544 -0.4386 -0.2614 -1.4235
 8328SOL     OW36445   4.585   1.438   4.167  0.1345 -0.3722 -0.4535
 8328SOL    HW136446   4.583   1.471   4.077 -0.2708 -2.2054 -1.1259
 8328SOL    HW236447   4.513   1.375   4.169  1.2150 -1.5939  0.1506
 8329SOL     OW36448   3.766   3.190   9.366  0.2331  0.5096 -0.2043
 8329SOL    HW136449   3.697   3.243   9.325 -0.9133 -1.2436 -0.5648
 8329SOL    HW236450   3.756   3.215   9.458 -0.9385 -0.8637  0.0486
 8330SOL     OW36451   4.573   1.872   0.602  0.4413  0.2146 -0.2938
 8330SOL    HW136452   4.541   1.908   0.520  1.2327 -1.7614 -1.4879
 8330SOL    HW236453   4.500   1.883   0.663 -1.2782 -3.3653 -1.6563
 8331SOL     OW36454   2.482   0.723   2.463  0.5545 -0.3116 -0.3341
 8331SOL    HW136455   2.544   0.655   2.490  0.8825  0.6091  1.2665
 8331SOL    HW236456   2.436   0.734   2.547  2.0840 -0.3275  0.5086
 8332SOL     OW36457   0.026   0.997   2.021  0.2263 -0.1937 -0.4301
 8332SOL    HW136458   0.079   1.055   1.967 -1.8342  0.8828 -1.3145
 8332SOL    HW236459   0.054   1.016   2.111 -3.0922  1.1579  0.3199
 8333SOL     OW36460   2.468   2.639  12.014  0.4275 -0.1242 -0.5326
 8333SOL    HW136461   2.551   2.593  12.025  0.9965  0.8897 -0.4889
 8333SOL    HW236462   2.460   2.642  11.919  1.3087  1.7597 -0.5495
 8334SOL     OW36463   3.236   2.077  11.511 -0.1042  0.3234  0.1086
 8334SOL    HW136464   3.215   2.170  11.518 -0.6272  0.1708  0.5849
 8334SOL    HW236465   3.330   2.076  11.529  0.0084 -0.9710 -0.5401
 8335SOL     OW36466   4.040   0.082   6.648 -0.7211 -0.5530  0.4198
 8335SOL    HW136467   4.078   0.075   6.736 -0.2621  0.0614  0.2734
 8335SOL    HW236468   4.032   4.715   6.621 -0.6725 -0.9027  1.5911
 8336SOL     OW36469   3.161   3.224   6.272 -0.2037 -0.3250 -1.0078
 8336SOL    HW136470   3.242   3.176   6.255  2.4059  3.5683  0.3125
 8336SOL    HW236471   3.184   3.295   6.212  0.7216  0.3229  0.1028
 8337SOL     OW36472   1.460   1.173  14.433  0.0962  0.7167  0.3059
 8337SOL    HW136473   1.451   1.201  14.342  2.1138  2.1458  0.5505
 8337SOL    HW236474   1.485   1.080  14.425 -0.3796  0.5313  0.9576
 8338SOL     OW36475   4.716   4.707   5.704  0.2211  0.4373 -0.0243
 8338SOL    HW136476   0.045   0.017   5.775 -0.8998  0.4893  0.8004
 8338SOL    HW236477   4.681   4.628   5.746  1.5084  0.0110  0.2493
 8339SOL     OW36478   0.475   0.588   7.637 -0.4073  0.1658 -0.1107
 8339SOL    HW136479   0.517   0.648   7.575 -0.6741  2.3549  1.8008
 8339SOL    HW236480   0.486   0.649   7.710  1.6273 -1.4255  0.9224
 8340SOL     OW36481   0.895   3.121  11.155 -0.1245 -0.3149  0.3425
 8340SOL    HW136482   0.984   3.110  11.187  0.3649  0.7226 -0.6621
 8340SOL    HW236483   0.911   3.213  11.133 -1.7489 -0.4724 -1.5601
 8341SOL     OW36484   0.424   2.742  17.191 -0.5421 -0.2462 -0.6264
 8341SOL    HW136485   0.353   2.780  17.243  1.9212  1.9582  1.1309
 8341SOL    HW236486   0.400   2.650  17.189 -3.0455  0.4015 -0.7513
 8342SOL     OW36487   2.396   1.521   6.858  0.1021 -0.2335 -0.0936
 8342SOL    HW136488   2.384   1.432   6.825  1.3318 -0.2331 -0.5295
 8342SOL    HW236489   2.468   1.547   6.801  0.4450  0.9475  0.8739
 8343SOL     OW36490   2.311   2.366   8.340  0.0947 -0.6614 -0.1074
 8343SOL    HW136491   2.333   2.329   8.254  0.2672  0.4433 -0.5451
 8343SOL    HW236492   2.366   2.312   8.397  0.2187  0.9138  1.2898
 8344SOL     OW36493   4.278   2.076   9.596 -0.2710  0.3871 -0.1700
 8344SOL    HW136494   4.327   2.152   9.566  3.3983 -2.4952 -1.4142
 8344SOL    HW236495   4.216   2.058   9.526 -0.9198  1.2486  0.1773
 8345SOL     OW36496   0.398   2.523   4.594 -0.2333  0.2647  0.1397
 8345SOL    HW136497   0.382   2.460   4.523  0.7205  0.9621 -0.7045
 8345SOL    HW236498   0.309   2.559   4.596  0.5973  2.1697  1.6641
 8346SOL     OW36499   1.603   4.303  11.305  0.7780 -0.0416  0.0473
 8346SOL    HW136500   1.523   4.253  11.317  0.2483  0.6637 -0.5976
 8346SOL    HW236501   1.576   4.394  11.315  1.0987  0.1348 -0.6559
 8347SOL     OW36502   3.742   3.863  12.824  1.0819  0.5699  0.1164
 8347SOL    HW136503   3.667   3.909  12.861  0.8300 -1.8295  2.5760
 8347SOL    HW236504   3.745   3.781  12.873 -1.0193  0.1930 -0.4191
 8348SOL     OW36505   1.164   1.383   0.630  0.0511  0.1809 -0.4234
 8348SOL    HW136506   1.119   1.446   0.574 -2.6577 -1.4082 -0.0462
 8348SOL    HW236507   1.204   1.322   0.568  0.3963 -0.3878  0.3550
 8349SOL     OW36508   4.013   0.916   3.561 -0.2401  0.1834 -0.3053
 8349SOL    HW136509   4.008   0.826   3.593  1.3154  0.8595  1.8472
 8349SOL    HW236510   3.997   0.968   3.640  2.2202  0.1164  0.2435
 8350SOL     OW36511   0.713   1.187   6.223  0.0531  0.2067  0.3654
 8350SOL    HW136512   0.743   1.217   6.137  1.4532 -2.1181  0.0644
 8350SOL    HW236513   0.685   1.275   6.251 -0.0828  0.7413 -1.4340
 8351SOL     OW36514   4.717   1.885   3.249  0.6054 -0.0055  0.3283
 8351SOL    HW136515   0.009   1.792   3.265  3.7559  0.5195  0.2474
 8351SOL    HW236516   4.625   1.882   3.223  0.1228 -3.3967  2.3790
 8352SOL     OW36517   2.600   1.130   5.620 -0.0679 -0.3276 -0.4328
 8352SOL    HW136518   2.600   1.075   5.699 -1.5012 -2.8480 -2.1668
 8352SOL    HW236519   2.657   1.071   5.572  2.4949  1.8936 -0.0693
 8353SOL     OW36520   3.720   2.018   4.219 -0.2640  0.3242  0.5002
 8353SOL    HW136521   3.661   1.992   4.289 -1.9170 -0.8173 -1.3097
 8353SOL    HW236522   3.672   1.972   4.150 -1.3225  1.5260  0.4420
 8354SOL     OW36523   1.966   3.564   9.285 -0.1980 -0.2906  0.1674
 8354SOL    HW136524   1.944   3.477   9.317  1.9623 -2.0600 -3.2748
 8354SOL    HW236525   1.984   3.600   9.372 -1.3274 -0.5703  0.5199
 8355SOL     OW36526   3.176   1.252   1.222  0.4805  0.0224 -0.0721
 8355SOL    HW136527   3.170   1.221   1.313  0.7699  1.6144  0.4800
 8355SOL    HW236528   3.086   1.244   1.193  0.3795  1.4094 -0.1297
 8356SOL     OW36529   2.749   4.362  17.695  0.4053 -0.6688  0.4383
 8356SOL    HW136530   2.822   4.368  17.634  0.3505 -3.1024  0.1372
 8356SOL    HW236531   2.774   4.279   0.038  2.8999 -1.1966 -2.1621
 8357SOL     OW36532   1.262   1.270   9.246 -0.9769 -0.5515  0.3829
 8357SOL    HW136533   1.302   1.356   9.256 -0.2421 -0.9190  0.6247
 8357SOL    HW236534   1.340   1.219   9.270  0.5958  2.1975  1.1024
 8358SOL     OW36535   1.163   2.008   9.448 -0.1360  0.0589  0.1432
 8358SOL    HW136536   1.166   2.066   9.372  0.4254  3.0937  2.4870
 8358SOL    HW236537   1.123   2.076   9.501  1.2630  2.3265 -1.7087
 8359SOL     OW36538   3.205   1.171   6.985  0.1265  0.0761 -0.3165
 8359SOL    HW136539   3.135   1.211   6.934 -0.9220  0.6158  1.5350
 8359SOL    HW236540   3.276   1.177   6.921  0.8839  0.2014  0.5368
 8360SOL     OW36541   3.750   1.464   9.066  0.0042 -0.9176 -0.4092
 8360SOL    HW136542   3.774   1.555   9.051 -1.3977 -0.6904 -1.2635
 8360SOL    HW236543   3.810   1.437   9.135  0.7512  2.2651  0.1760
 8361SOL     OW36544   0.951   1.832   8.362  0.2985  0.0419  0.1160
 8361SOL    HW136545   1.017   1.771   8.393 -0.2635 -1.2427 -1.2445
 8361SOL    HW236546   0.938   1.810   8.269 -0.0734 -0.6561  0.3355
 8362SOL     OW36547   4.066   3.923   1.657  0.2435  0.2447  0.2231
 8362SOL    HW136548   4.041   4.014   1.674  1.8921  0.7553 -0.0656
 8362SOL    HW236549   4.135   3.922   1.590 -0.8463 -0.7609 -0.8826
 8363SOL     OW36550   2.709   0.332   1.436  0.3482  0.1609 -0.8515
 8363SOL    HW136551   2.681   0.260   1.494  0.1288  2.0325  1.3807
 8363SOL    HW236552   2.619   0.357   1.414 -0.5035 -0.2204  2.1848
 8364SOL     OW36553   1.283   1.447   6.207 -0.6215  0.0341  0.7874
 8364SOL    HW136554   1.235   1.529   6.195 -1.3328 -0.2144  1.9326
 8364SOL    HW236555   1.211   1.384   6.206 -0.7604  0.2064 -0.0107
 8365SOL     OW36556   0.026   2.942   5.009  0.0161 -0.2098 -0.2032
 8365SOL    HW136557   4.694   2.977   5.077 -0.9681 -0.4693 -0.8780
 8365SOL    HW236558   0.043   2.851   5.035  1.3216  0.0913 -0.0313
 8366SOL     OW36559   3.158   2.821  15.642  0.2311 -0.6904 -0.0521
 8366SOL    HW136560   3.228   2.776  15.690 -0.7355  0.7437  2.7124
 8366SOL    HW236561   3.209   2.889  15.597 -0.8693  0.4754  0.4483
 8367SOL     OW36562   1.692   1.859  16.944 -0.0590  0.0896 -0.0166
 8367SOL    HW136563   1.757   1.789  16.934  0.6715  0.7598  0.0350
 8367SOL    HW236564   1.691   1.863  17.040  1.2019 -0.1849  0.0156
 8368SOL     OW36565   2.509   2.505  17.318 -0.0169 -0.1062 -0.2107
 8368SOL    HW136566   2.542   2.593  17.335 -0.2701  0.3927 -2.3475
 8368SOL    HW236567   2.518   2.474  17.408 -1.6306 -1.2199 -0.4462
 8369SOL     OW36568   1.904   4.530   1.233  0.0157 -0.5630 -0.1291
 8369SOL    HW136569   1.904   4.461   1.166 -2.7974 -0.9601  0.2720
 8369SOL    HW236570   1.815   4.533   1.269 -0.8209  0.4878 -2.2731
 8370SOL     OW36571   0.685   4.381   3.534  0.4185 -0.4509 -0.0430
 8370SOL    HW136572   0.625   4.361   3.462 -0.3301  1.9294 -0.1037
 8370SOL    HW236573   0.657   4.310   3.592 -2.0272 -1.8437 -2.9238
 8371SOL     OW36574   3.176   4.250   8.235  0.1250  0.3914 -0.3572
 8371SOL    HW136575   3.196   4.169   8.282 -1.3458  1.7378  2.6129
 8371SOL    HW236576   3.090   4.267   8.272 -0.0898 -0.5967 -0.4010
 8372SOL     OW36577   3.956   3.940  12.066  0.5331 -0.4199 -0.3662
 8372SOL    HW136578   4.023   3.875  12.045  0.8314 -0.0479 -0.5805
 8372SOL    HW236579   3.999   4.008  12.014  0.0649  0.2904  0.1678
 8373SOL     OW36580   1.462   0.508  17.100  0.4127  0.5030  0.5015
 8373SOL    HW136581   1.406   0.585  17.093  0.5375  0.7019  1.6266
 8373SOL    HW236582   1.503   0.504  17.014  1.1875 -0.7560  0.9244
 8374SOL     OW36583   3.966   2.758   6.863  0.7254 -0.1663 -0.4708
 8374SOL    HW136584   3.939   2.680   6.814  1.3121 -1.3279  1.0680
 8374SOL    HW236585   3.883   2.774   6.909  0.8545 -0.8952  0.0076
 8375SOL     OW36586   0.723   1.738   7.445  0.1514 -0.7185 -0.0785
 8375SOL    HW136587   0.786   1.740   7.373  0.7058  1.2982  0.4707
 8375SOL    HW236588   0.732   1.827   7.478 -1.2767 -0.3374 -0.7428
 8376SOL     OW36589   4.590   2.584   1.199  1.0165  0.5435  0.1994
 8376SOL    HW136590   4.648   2.639   1.253  1.0253  0.5932  0.1401
 8376SOL    HW236591   4.546   2.529   1.263 -1.0772  2.7290  0.6647
 8377SOL     OW36592   0.456   0.851   6.064  0.5647 -0.2451 -0.1180
 8377SOL    HW136593   0.413   0.907   5.998 -1.1111  0.5709  1.6770
 8377SOL    HW236594   0.382   0.838   6.122  1.2414 -0.5300  0.6746
 8378SOL     OW36595   2.457   4.025   8.089 -0.0403  0.0470 -0.3685
 8378SOL    HW136596   2.537   4.064   8.055  0.2552  0.1381  0.4254
 8378SOL    HW236597   2.470   3.934   8.065 -0.2698  0.4069 -1.8421
 8379SOL     OW36598   3.735   4.010   9.294  0.1311  0.1261 -0.1750
 8379SOL    HW136599   3.742   4.098   9.331  2.2600  0.6372 -1.7824
 8379SOL    HW236600   3.818   3.969   9.320  0.3064  0.8946  0.4917
 8380SOL     OW36601   0.585   1.820   4.871  0.8094  0.2303  0.0436
 8380SOL    HW136602   0.557   1.844   4.783 -0.2318 -3.1396 -0.5292
 8380SOL    HW236603   0.562   1.901   4.917 -1.8219 -0.0790 -0.6934
 8381SOL     OW36604   4.640   0.744   2.080  1.2112 -0.3098  0.0298
 8381SOL    HW136605   4.645   0.751   2.175  1.2023  0.7182 -0.0472
 8381SOL    HW236606   4.696   0.816   2.052 -0.0659  0.1709 -1.3261
 8382SOL     OW36607   4.408   2.396   0.239  0.3498 -1.0219  0.4351
 8382SOL    HW136608   4.481   2.403   0.178 -0.4203 -1.8601 -0.5750
 8382SOL    HW236609   4.372   2.485   0.235 -0.7844 -1.3795  2.3980
 8383SOL     OW36610   0.447   2.915  14.828 -0.4926  0.0509  0.4571
 8383SOL    HW136611   0.453   2.983  14.760  0.1836  0.6007  1.0693
 8383SOL    HW236612   0.402   2.968  14.894 -0.5422  0.7068 -0.1037
 8384SOL     OW36613   3.381   1.957   7.397 -0.2481  0.2113  0.1396
 8384SOL    HW136614   3.297   1.928   7.361 -0.9910  0.3119  1.7874
 8384SOL    HW236615   3.362   2.047   7.420 -1.0085  0.0236  0.2578
 8385SOL     OW36616   3.018   1.300   3.237 -0.1785  0.7097 -0.0730
 8385SOL    HW136617   3.092   1.239   3.238  0.2929  1.2355 -3.5523
 8385SOL    HW236618   2.969   1.261   3.164  2.7373 -1.0822 -1.0492
 8386SOL     OW36619   1.737   2.143   7.914  0.3498 -0.4600  0.0438
 8386SOL    HW136620   1.750   2.088   7.837  2.3520 -0.0536  0.1065
 8386SOL    HW236621   1.649   2.116   7.942  0.7813 -1.0278  0.8364
 8387SOL     OW36622   0.618   4.052  14.433 -0.3138 -0.2381 -0.9539
 8387SOL    HW136623   0.649   4.137  14.401  0.5635  0.9431  2.9995
 8387SOL    HW236624   0.703   4.014  14.451 -1.1703 -1.8493 -0.3030
 8388SOL     OW36625   2.567   2.595   8.141  0.0845  0.2555  0.3850
 8388SOL    HW136626   2.510   2.640   8.203 -1.3536 -1.8615  0.6038
 8388SOL    HW236627   2.620   2.672   8.120 -1.7742  0.4050 -3.6259
 8389SOL     OW36628   0.358   2.171  13.648  0.3487 -0.0412  0.0864
 8389SOL    HW136629   0.411   2.223  13.587 -1.7011  1.1853 -0.6580
 8389SOL    HW236630   0.422   2.102  13.660  0.9250  0.8801  2.3663
 8390SOL     OW36631   1.629   4.498   2.892 -0.1610  0.6019 -0.1773
 8390SOL    HW136632   1.602   4.515   2.983  0.5182 -0.8579  0.3081
 8390SOL    HW236633   1.542   4.487   2.853  0.1920  0.1466 -0.8424
 8391SOL     OW36634   0.849   1.500  12.800 -0.1757 -0.1418  0.6470
 8391SOL    HW136635   0.821   1.591  12.811 -3.0452 -0.6098 -2.9655
 8391SOL    HW236636   0.791   1.486  12.726  0.9880 -0.2067 -0.2443
 8392SOL     OW36637   0.213   1.464   1.359  0.4400 -0.6162  0.0190
 8392SOL    HW136638   0.164   1.384   1.375  0.0909 -0.6554 -1.2181
 8392SOL    HW236639   0.238   1.487   1.448 -1.0683 -1.2347  0.5965
 8393SOL     OW36640   1.203   4.117   7.621 -0.2212  0.3558  0.6868
 8393SOL    HW136641   1.209   4.205   7.585  0.1864 -0.1338 -0.4461
 8393SOL    HW236642   1.152   4.071   7.554 -0.3972  0.2098  0.9223
 8394SOL     OW36643   4.607   0.277   6.927 -0.1618 -0.0703  0.5940
 8394SOL    HW136644   4.519   0.305   6.902 -0.7646 -0.5535  2.1301
 8394SOL    HW236645   4.645   0.361   6.951  0.8130 -0.7708  1.5040
 8395SOL     OW36646   4.187   2.212  16.235 -0.2176 -0.0577 -0.1042
 8395SOL    HW136647   4.273   2.169  16.237 -0.8896 -1.3936 -0.0939
 8395SOL    HW236648   4.211   2.305  16.227  3.9928 -0.9490  1.8649
 8396SOL     OW36649   2.795   4.567   5.197 -0.7351  0.0357 -0.1194
 8396SOL    HW136650   2.886   4.559   5.168 -0.6592 -1.1254  0.4613
 8396SOL    HW236651   2.803   4.631   5.268  1.5028  0.8857 -1.1229
 8397SOL     OW36652   3.513   2.573  11.433 -0.0643 -0.1421 -0.0398
 8397SOL    HW136653   3.530   2.629  11.509 -1.8672  1.1947 -0.6193
 8397SOL    HW236654   3.504   2.644  11.369 -0.9467  0.6886  1.0170
 8398SOL     OW36655   2.181   0.515   6.824  0.2915 -0.2857 -0.6212
 8398SOL    HW136656   2.110   0.552   6.877  0.0075  0.3423 -1.4497
 8398SOL    HW236657   2.137   0.496   6.741  0.0619  0.8656 -0.7539
 8399SOL     OW36658   0.172   3.232   6.667 -0.2753  0.4850 -0.6738
 8399SOL    HW136659   0.143   3.249   6.578 -2.3662 -1.6666 -0.4033
 8399SOL    HW236660   0.094   3.201   6.713  1.3437 -2.9076 -0.2430
 8400SOL     OW36661   0.710   0.252  13.383  0.7142 -0.1619  0.3027
 8400SOL    HW136662   0.702   0.333  13.332  2.7104  0.6965  1.3270
 8400SOL    HW236663   0.781   0.215  13.330  0.5132 -0.6167  0.3540
 8401SOL     OW36664   0.311   1.000   8.332  0.2696  0.5878  0.2393
 8401SOL    HW136665   0.366   0.950   8.392 -0.8757 -0.3705  0.4717
 8401SOL    HW236666   0.375   0.999   8.260 -0.7355  0.3746 -0.6605
 8402SOL     OW36667   0.744   2.438   5.060 -0.1545  0.2341 -0.4483
 8402SOL    HW136668   0.758   2.392   5.143  1.7858  1.0712 -0.3102
 8402SOL    HW236669   0.655   2.473   5.068 -1.0781 -2.2032 -0.0922
 8403SOL     OW36670   2.983   0.267   5.872  0.5852 -0.0925  0.0394
 8403SOL    HW136671   3.056   0.206   5.870  1.1876  0.6163  0.5488
 8403SOL    HW236672   2.906   0.213   5.852  1.2013 -1.3907  1.2480
 8404SOL     OW36673   1.779   4.510   9.700  0.0536 -0.0612 -0.3892
 8404SOL    HW136674   1.801   4.503   9.607  1.2634 -0.2467 -0.0848
 8404SOL    HW236675   1.862   4.500   9.745  0.2267 -1.2490 -0.9668
 8405SOL     OW36676   1.688   1.088  17.582  0.3135 -0.0100 -0.2871
 8405SOL    HW136677   1.704   0.998  17.553 -0.9021 -0.9629  2.0389
 8405SOL    HW236678   1.654   1.064  17.668 -1.3282  0.4719 -0.8139
 8406SOL     OW36679   0.028   1.372   3.088 -0.6933 -0.1236 -0.0710
 8406SOL    HW136680   4.714   1.287   3.108  0.0412 -0.2558  0.7748
 8406SOL    HW236681   4.671   1.422   3.098 -0.3431  0.4701 -0.1549
 8407SOL     OW36682   4.568   0.036   3.398 -0.0583  0.0119  0.2188
 8407SOL    HW136683   4.617   0.087   3.462 -1.6262 -0.9984  2.2209
 8407SOL    HW236684   4.555   4.678   3.445 -0.4949  1.6730  2.9871
 8408SOL     OW36685   3.276   2.949   5.803  0.5584 -0.1883  0.1264
 8408SOL    HW136686   3.334   2.896   5.748 -0.9066  0.5137 -2.0539
 8408SOL    HW236687   3.206   2.968   5.741  0.8248  1.5185  0.3509
 8409SOL     OW36688   0.297   2.037  12.104 -0.2889 -0.3313 -0.3814
 8409SOL    HW136689   0.285   2.076  12.191 -2.4339 -0.1421 -0.7554
 8409SOL    HW236690   0.254   1.951  12.108 -1.5678  0.3785  1.7095
 8410SOL     OW36691   1.621   2.615   6.015 -0.2371 -0.0460 -0.3739
 8410SOL    HW136692   1.637   2.621   6.109 -0.8342  0.3451 -0.2955
 8410SOL    HW236693   1.709   2.620   5.979  0.0694 -1.3075  0.1720
 8411SOL     OW36694   0.231   2.915   6.646  0.4314  0.2192 -0.3537
 8411SOL    HW136695   0.290   2.914   6.570 -0.1223  0.8057 -0.7926
 8411SOL    HW236696   0.263   3.000   6.678  1.7430 -1.7285  3.5168
 8412SOL     OW36697   0.238   2.022   3.749  0.0383  0.4322  0.1779
 8412SOL    HW136698   0.224   1.978   3.665  2.6928  2.4404 -1.3515
 8412SOL    HW236699   0.228   2.116   3.730 -2.0671  0.3747  1.1017
 8413SOL     OW36700   4.357   1.185   5.441  0.9228 -0.1394  0.6598
 8413SOL    HW136701   4.343   1.271   5.403  0.7078  0.0691  1.2110
 8413SOL    HW236702   4.389   1.140   5.362  1.3557  0.6571  0.3772
 8414SOL     OW36703   3.978   3.020   5.091 -0.0196  0.9147  0.1369
 8414SOL    HW136704   3.893   3.048   5.058  0.0913  0.5106 -0.4701
 8414SOL    HW236705   3.998   2.941   5.041  0.8215  0.2267  1.5583
 8415SOL     OW36706   2.339   3.515   4.902 -0.4003 -0.1054  0.5865
 8415SOL    HW136707   2.312   3.586   4.843  0.7233 -0.5122 -0.4113
 8415SOL    HW236708   2.350   3.564   4.983  1.4534  0.8593 -0.2705
 8416SOL     OW36709   4.399   3.515   0.903  0.3767 -0.1849 -0.0771
 8416SOL    HW136710   4.323   3.475   0.860 -0.7136  1.1726  0.5522
 8416SOL    HW236711   4.443   3.560   0.831  0.9490  0.0474  0.4260
 8417SOL     OW36712   1.565   1.928  15.632 -0.2017  0.1275 -0.3272
 8417SOL    HW136713   1.572   1.958  15.542 -0.7905  2.1065  0.2927
 8417SOL    HW236714   1.650   1.886  15.647 -0.0792  0.2375 -0.7268
 8418SOL     OW36715   1.384   2.373   5.484 -0.4871 -0.4915 -0.0117
 8418SOL    HW136716   1.402   2.382   5.391  0.6056  1.2094  0.3500
 8418SOL    HW236717   1.422   2.455   5.517  3.3798 -2.1350 -0.3382
 8419SOL     OW36718   3.984   0.711   7.640 -0.0545 -0.0223  0.5376
 8419SOL    HW136719   4.029   0.645   7.693  1.3264  2.0165  1.8997
 8419SOL    HW236720   4.063   0.754   7.608 -1.1786  0.8819 -0.9766
 8420SOL     OW36721   3.747   0.884   1.033 -0.7694  0.3163 -0.0728
 8420SOL    HW136722   3.741   0.792   1.060 -2.7506  0.4864  0.0526
 8420SOL    HW236723   3.830   0.913   1.071  0.1782 -0.4095 -1.6187
 8421SOL     OW36724   1.355   2.494   7.605 -0.4062 -0.2906 -0.6440
 8421SOL    HW136725   1.394   2.442   7.534 -2.2672 -1.7414 -0.6072
 8421SOL    HW236726   1.419   2.565   7.596 -0.3878 -0.1005  0.9103
 8422SOL     OW36727   0.093   1.293  14.122 -0.4769  0.6762 -0.4455
 8422SOL    HW136728   0.123   1.224  14.062 -1.0740 -2.4635  2.8448
 8422SOL    HW236729   0.058   1.358  14.061 -0.5318  1.8010  0.7963
 8423SOL     OW36730   2.088   3.587   1.925 -0.3129 -0.3563 -0.6651
 8423SOL    HW136731   2.004   3.566   1.967 -0.5675  0.2155 -0.8820
 8423SOL    HW236732   2.064   3.666   1.876 -0.5860 -2.7422 -4.3464
 8424SOL     OW36733   3.844   1.687   9.731  0.7864 -0.4282 -0.1782
 8424SOL    HW136734   3.905   1.615   9.722  0.5984 -0.4714 -1.0313
 8424SOL    HW236735   3.900   1.763   9.748  0.9121  0.3716 -4.2984
 8425SOL     OW36736   3.948   3.388   9.125 -0.0319  0.0055  0.2654
 8425SOL    HW136737   3.944   3.457   9.191  0.5950  1.0698 -0.8059
 8425SOL    HW236738   3.857   3.386   9.095 -0.9369  1.0555  2.9578
 8426SOL     OW36739   4.601   2.918  14.588 -0.5410 -0.0657 -0.1927
 8426SOL    HW136740   4.580   2.869  14.509  2.2185 -1.8477  0.2108
 8426SOL    HW236741   4.640   2.995  14.546 -2.4596  1.8757  1.5021
 8427SOL     OW36742   4.234   2.479   2.653 -0.0608  0.1267 -0.1779
 8427SOL    HW136743   4.299   2.544   2.680  0.0989 -0.1221  0.0364
 8427SOL    HW236744   4.223   2.500   2.560 -3.6785 -2.3334 -0.2916
 8428SOL     OW36745   0.404   2.538   8.885 -0.7376 -0.1434  0.3923
 8428SOL    HW136746   0.395   2.586   8.968  0.2167  0.3773  0.1944
 8428SOL    HW236747   0.314   2.541   8.853 -0.7919 -0.5961  0.5010
 8429SOL     OW36748   4.075   4.299   7.889  0.2154  0.1844 -0.8303
 8429SOL    HW136749   4.096   4.206   7.889 -0.0755  0.1231  0.8792
 8429SOL    HW236750   4.057   4.300   7.983  0.0865 -0.6903 -0.8515
 8430SOL     OW36751   0.813   2.096   0.582  0.1129  0.1536  0.0803
 8430SOL    HW136752   0.740   2.157   0.577 -1.2353 -1.1429  3.8144
 8430SOL    HW236753   0.881   2.122   0.519 -0.4236  1.3205 -0.0125
 8431SOL     OW36754   1.383   1.477   4.446 -0.1969  0.1925 -0.4167
 8431SOL    HW136755   1.421   1.563   4.464 -0.6863  0.3610 -0.1615
 8431SOL    HW236756   1.364   1.481   4.353  1.2853  1.2367 -0.6752
 8432SOL     OW36757   0.910   1.908  16.839 -0.1746  0.2058  0.0523
 8432SOL    HW136758   0.909   1.872  16.750 -1.1471  1.3587 -0.4031
 8432SOL    HW236759   0.964   1.987  16.839  0.1705 -0.0267 -0.7937
 8433SOL     OW36760   2.775   4.596   1.486 -0.0007  0.2154 -0.2292
 8433SOL    HW136761   2.824   4.531   1.537 -2.3021 -3.3092 -2.5178
 8433SOL    HW236762   2.708   4.542   1.444  0.4112 -0.9393  0.6073
 8434SOL     OW36763   4.405   2.253   9.470  0.4509  0.4650  0.6030
 8434SOL    HW136764   4.415   2.348   9.481 -1.4888  0.7344  0.0671
 8434SOL    HW236765   4.465   2.248   9.395 -0.3514  2.4569 -0.1805
 8435SOL     OW36766   2.146   4.063  16.435 -0.1321  0.0974 -0.5135
 8435SOL    HW136767   2.228   4.019  16.413 -0.0372  0.0758 -0.1193
 8435SOL    HW236768   2.149   4.139  16.377 -1.2383 -0.0654 -0.7799
 8436SOL     OW36769   4.720   1.312   1.932  0.3074 -0.2553  0.1209
 8436SOL    HW136770   4.692   1.248   1.866 -1.0828  1.0017 -0.4880
 8436SOL    HW236771   4.650   1.290   1.993  1.1862 -2.1470  0.4695
 8437SOL     OW36772   4.709   0.283   7.883 -0.2131 -0.0284  0.2793
 8437SOL    HW136773   0.047   0.318   7.819  1.3943 -1.6645  0.9460
 8437SOL    HW236774   4.625   0.318   7.854  0.1427  0.4485 -0.1712
 8438SOL     OW36775   0.646   3.711   0.474 -0.0415  0.2037  0.0161
 8438SOL    HW136776   0.645   3.728   0.568 -0.6055  1.5491 -0.2416
 8438SOL    HW236777   0.579   3.771   0.442 -1.7671 -3.5680 -3.4567
 8439SOL     OW36778   0.829   0.636   7.206  0.2143 -0.2285 -0.2774
 8439SOL    HW136779   0.750   0.624   7.152 -0.9189 -0.9777  1.5486
 8439SOL    HW236780   0.887   0.664   7.135 -2.9391  1.7970 -2.0706
 8440SOL     OW36781   3.810   3.516   5.320  0.1266  0.3105  0.6988
 8440SOL    HW136782   3.723   3.502   5.356  0.2890 -0.1983  0.8925
 8440SOL    HW236783   3.789   3.508   5.227 -0.3728 -0.0291  0.8453
 8441SOL     OW36784   0.432   4.349   7.395 -0.0806  0.2213 -0.3337
 8441SOL    HW136785   0.494   4.421   7.394  1.0003 -0.6809  1.0926
 8441SOL    HW236786   0.346   4.387   7.377 -0.0347  0.0388 -0.9246
 8442SOL     OW36787   1.921   0.847   8.527 -0.1945  0.1053 -0.4578
 8442SOL    HW136788   1.957   0.802   8.450  1.5207 -0.0639  0.4355
 8442SOL    HW236789   1.897   0.928   8.483 -0.5167  0.1493 -0.1949
 8443SOL     OW36790   4.692   0.062   5.225  0.6792 -0.1865 -0.1219
 8443SOL    HW136791   4.639   0.008   5.284 -0.1301  0.3770 -0.3263
 8443SOL    HW236792   4.631   0.126   5.189 -1.5435 -2.0396  0.3604
 8444SOL     OW36793   1.615   1.075   3.301 -0.0848  0.5222  0.6146
 8444SOL    HW136794   1.638   0.986   3.276  0.9742  1.1414 -0.5822
 8444SOL    HW236795   1.660   1.133   3.239  0.2787  1.8159  2.0797
 8445SOL     OW36796   3.099   1.557  11.329 -0.2670 -0.3051 -0.4397
 8445SOL    HW136797   3.068   1.580  11.241 -0.8744 -0.6871 -0.3302
 8445SOL    HW236798   3.019   1.575  11.379  0.4148  1.5918 -0.0345
 8446SOL     OW36799   3.775   3.455   4.038 -0.2482  0.2661 -0.2774
 8446SOL    HW136800   3.866   3.481   4.053 -1.0363  1.8545  1.6633
 8446SOL    HW236801   3.780   3.403   3.958 -0.3208  1.9978 -1.4052
 8447SOL     OW36802   4.353   0.050   0.852  0.3007  0.5756 -0.1759
 8447SOL    HW136803   4.432   0.064   0.904 -0.2545 -0.5649  0.9816
 8447SOL    HW236804   4.341   4.682   0.874 -0.5830  0.8343  0.4099
 8448SOL     OW36805   2.700   1.166   4.752  0.1563 -0.5868 -0.0653
 8448SOL    HW136806   2.766   1.105   4.718 -0.6929 -2.8580  2.3118
 8448SOL    HW236807   2.750   1.210   4.821 -0.4223  0.8272 -0.5633
 8449SOL     OW36808   1.682   2.584   4.644  0.1855  0.0159 -0.0585
 8449SOL    HW136809   1.750   2.597   4.709  0.9181 -1.2264 -0.5733
 8449SOL    HW236810   1.629   2.662   4.661  1.9039  0.9952  0.8521
 8450SOL     OW36811   3.080   2.960   3.466  0.4466  0.5695  0.5848
 8450SOL    HW136812   3.039   2.874   3.478 -0.0702  0.6758 -0.4206
 8450SOL    HW236813   3.122   2.968   3.552  2.1197  1.9640 -0.3802
 8451SOL     OW36814   1.764   2.558   7.259  0.0950  0.2848  0.7154
 8451SOL    HW136815   1.843   2.551   7.313  0.0253 -0.9218  0.6710
 8451SOL    HW236816   1.741   2.466   7.244  2.8692 -0.2294 -0.4551
 8452SOL     OW36817   0.765   0.153   7.611  0.1616  0.5067  0.8900
 8452SOL    HW136818   0.850   0.114   7.634  0.3816  0.9550  0.8400
 8452SOL    HW236819   0.749   0.116   7.525  0.2362 -0.8456  1.4624
 8453SOL     OW36820   2.718   1.925   4.019  0.4959  0.4047  0.2577
 8453SOL    HW136821   2.671   1.846   3.991 -0.9189  1.2041  0.3625
 8453SOL    HW236822   2.809   1.903   4.004  0.6835 -0.3104  2.3752
 8454SOL     OW36823   1.856   3.040   2.293  0.2038 -0.1945  0.2318
 8454SOL    HW136824   1.765   3.068   2.303  1.0490  2.6352 -0.0557
 8454SOL    HW236825   1.891   3.038   2.382 -2.6464 -4.0361  1.2337
 8455SOL     OW36826   3.150   1.851  11.161  0.1115  0.0883 -0.3312
 8455SOL    HW136827   3.245   1.856  11.168  0.2326 -2.2994 -0.4944
 8455SOL    HW236828   3.136   1.766  11.121 -0.7279  0.3976 -0.7002
 8456SOL     OW36829   2.278   0.680   4.343 -0.5540 -0.4738  0.1411
 8456SOL    HW136830   2.357   0.720   4.308  0.1584 -1.9474  0.0778
 8456SOL    HW236831   2.228   0.665   4.262  0.9784  0.4673 -0.9795
 8457SOL     OW36832   2.365   4.230   3.124 -0.9768  0.1316  0.2986
 8457SOL    HW136833   2.342   4.149   3.080 -0.1005  0.5306 -0.8981
 8457SOL    HW236834   2.282   4.270   3.150 -1.9965 -0.9551 -1.2676
 8458SOL     OW36835   4.057   0.145  10.380  1.0379 -0.7394 -0.3671
 8458SOL    HW136836   4.038   0.234  10.411 -0.6487 -1.2360  0.0599
 8458SOL    HW236837   4.045   0.145  10.285 -1.7523 -1.5961 -0.0247
 8459SOL     OW36838   4.593   0.641   6.362  0.6011  0.7030  0.4368
 8459SOL    HW136839   4.597   0.582   6.287  0.3214 -0.2407  1.1608
 8459SOL    HW236840   4.507   0.623   6.400  1.8442  1.4434  3.6456
 8460SOL     OW36841   2.608   0.316  13.532 -0.5381 -0.2455  0.0032
 8460SOL    HW136842   2.694   0.345  13.501 -1.0795 -0.1028 -1.3415
 8460SOL    HW236843   2.621   0.283  13.621  3.7713 -2.5231 -1.4746
 8461SOL     OW36844   0.654   1.532   6.643  0.3511 -0.0521 -0.0276
 8461SOL    HW136845   0.596   1.523   6.567 -0.5321 -1.3166  0.8066
 8461SOL    HW236846   0.589   1.567   6.705 -0.0223  1.3585 -1.2050
 8462SOL     OW36847   2.837   4.431   6.384 -0.2239  0.5051 -0.8310
 8462SOL    HW136848   2.909   4.462   6.439  0.3083 -0.7680 -0.8104
 8462SOL    HW236849   2.807   4.510   6.340 -2.4569  0.5745  0.7906
 8463SOL     OW36850   3.459   0.416  11.750 -1.0217  0.1234  0.2578
 8463SOL    HW136851   3.422   0.484  11.807 -0.6154 -1.4328  2.3498
 8463SOL    HW236852   3.483   0.347  11.812 -0.5072 -0.8837 -1.0574
 8464SOL     OW36853   1.178   3.628   9.130 -0.5174  0.2235 -0.1315
 8464SOL    HW136854   1.115   3.557   9.144  0.8478 -0.5107  2.1464
 8464SOL    HW236855   1.184   3.668   9.216  3.1417 -0.0479 -0.2602
 8465SOL     OW36856   2.223   1.477  13.278  0.1791 -0.1980  0.3235
 8465SOL    HW136857   2.171   1.431  13.344  1.8286 -0.9361  1.1007
 8465SOL    HW236858   2.302   1.425  13.262 -0.3590 -1.0041  0.3115
 8466SOL     OW36859   0.947   0.734  15.007 -0.0368  0.1942  0.2154
 8466SOL    HW136860   0.897   0.696  14.934  1.3827  1.4878 -1.4385
 8466SOL    HW236861   0.949   0.823  14.971 -1.2742 -0.7205 -2.1207
 8467SOL     OW36862   0.857   2.028   4.367 -0.3971  0.1215  0.4861
 8467SOL    HW136863   0.841   2.023   4.461 -0.7262 -1.1853  0.3506
 8467SOL    HW236864   0.950   2.049   4.356 -0.6940  2.2077  1.9475
 8468SOL     OW36865   2.243   0.075   7.727  0.7441  0.8756  0.1591
 8468SOL    HW136866   2.321   0.108   7.683  1.2835  0.4987  0.8183
 8468SOL    HW236867   2.168   0.065   7.668  2.5198 -1.5347 -1.6595
 8469SOL     OW36868   4.637   4.590   3.623 -0.0935  0.0602  0.5331
 8469SOL    HW136869   4.675   4.531   3.688 -0.3832 -0.5647  0.1381
 8469SOL    HW236870   4.584   4.635   3.688  0.4159  0.1244  0.8990
 8470SOL     OW36871   4.625   2.159   8.005 -0.5113  0.0643 -0.1486
 8470SOL    HW136872   4.553   2.182   7.946 -0.7316 -0.3509 -0.0407
 8470SOL    HW236873   4.602   2.224   8.071 -0.8409 -0.9835  0.7647
 8471SOL     OW36874   0.138   3.301   4.250  0.0162  0.3311  0.0180
 8471SOL    HW136875   0.058   3.353   4.238  0.2087  1.3649  3.1993
 8471SOL    HW236876   0.133   3.216   4.207  0.4228  0.0862  0.4533
 8472SOL     OW36877   0.243   0.186   1.849 -0.1348 -0.4864 -0.7583
 8472SOL    HW136878   0.318   0.243   1.829  0.5954 -2.0188 -2.4046
 8472SOL    HW236879   0.217   0.160   1.760 -2.7400  0.5350 -0.2950
 8473SOL     OW36880   4.471   1.547   3.927 -0.1731 -0.3471 -0.4516
 8473SOL    HW136881   4.391   1.508   3.892  1.0318  2.8848 -6.7522
 8473SOL    HW236882   4.498   1.599   3.851 -1.4659 -1.0223 -1.3697
 8474SOL     OW36883   1.261   2.192   6.140 -0.2650  0.0900 -0.0909
 8474SOL    HW136884   1.344   2.168   6.099 -0.0804 -0.5933  0.7072
 8474SOL    HW236885   1.244   2.107   6.180  0.5496 -0.7537 -1.5582
 8475SOL     OW36886   4.594   2.593   1.742  0.0677 -0.0124  0.2131
 8475SOL    HW136887   4.586   2.512   1.792  0.4190 -0.1342  0.0781
 8475SOL    HW236888   4.569   2.664   1.801  0.7058 -1.4567  2.2261
 8476SOL     OW36889   3.109   0.539   1.395 -0.6111  0.5028  0.5010
 8476SOL    HW136890   3.180   0.500   1.344 -1.3667 -0.3733  0.1302
 8476SOL    HW236891   3.041   0.474   1.376 -0.5984  0.3845  0.8548
 8477SOL     OW36892   4.574   0.584   5.506 -0.2466  0.5446  0.1054
 8477SOL    HW136893   4.496   0.633   5.481 -0.1485  0.3069 -0.6758
 8477SOL    HW236894   4.621   0.617   5.429  0.8272 -0.7436  0.1965
 8478SOL     OW36895   1.312   2.285   0.695  0.3662 -0.7008 -0.0235
 8478SOL    HW136896   1.389   2.241   0.732  0.4614 -0.8263 -0.3802
 8478SOL    HW236897   1.295   2.246   0.610 -0.8169 -2.3518  0.9589
 8479SOL     OW36898   4.691   2.554   8.420 -0.1130 -0.0733  0.2858
 8479SOL    HW136899   4.632   2.622   8.388  0.9177 -0.0713 -1.6383
 8479SOL    HW236900   4.668   2.542   8.512  0.7325 -1.3617  0.3319
 8480SOL     OW36901   4.480   2.973  13.926  0.1768  0.1114  0.2645
 8480SOL    HW136902   4.532   2.979  14.006  0.6782 -3.1585  0.1588
 8480SOL    HW236903   4.498   2.884  13.895 -0.6533 -0.7892  2.3364
 8481SOL     OW36904   4.630   4.361  14.065 -0.0449  0.0532 -0.1399
 8481SOL    HW136905   4.698   4.366  14.132 -0.1896 -0.3484  0.0350
 8481SOL    HW236906   4.610   4.452  14.042 -0.3009  0.1209  0.3308
 8482SOL     OW36907   0.302   1.544   7.523  0.1790  0.2251 -0.1987
 8482SOL    HW136908   0.271   1.601   7.453 -1.7436 -1.5898 -0.7801
 8482SOL    HW236909   0.329   1.469   7.470 -0.5484  1.4273 -2.2516
 8483SOL     OW36910   0.672   3.615   8.146 -0.2572 -0.2073 -0.1323
 8483SOL    HW136911   0.708   3.682   8.205  0.6243 -1.0667  0.3035
 8483SOL    HW236912   0.603   3.581   8.204  0.3435 -0.5617  0.3700
 8484SOL     OW36913   1.529   4.274   8.272 -0.6863  0.4121 -0.4246
 8484SOL    HW136914   1.439   4.294   8.297 -0.1635  1.4285  0.6481
 8484SOL    HW236915   1.574   4.354   8.300 -0.8955  0.9581 -1.6405
 8485SOL     OW36916   3.891   3.981   3.629 -0.0510 -0.1478 -0.7497
 8485SOL    HW136917   3.816   4.012   3.578 -0.1405 -2.7218 -2.2458
 8485SOL    HW236918   3.888   3.885   3.622  0.4891 -0.2077 -0.0708
 8486SOL     OW36919   3.359   3.601  15.879 -0.2095  0.1244 -0.0843
 8486SOL    HW136920   3.376   3.521  15.829  1.2366  0.1911  0.3270
 8486SOL    HW236921   3.439   3.648  15.857  1.6754 -2.9934  0.2014
 8487SOL     OW36922   0.955   4.396   8.380  0.1036  0.0509  0.0163
 8487SOL    HW136923   0.978   4.347   8.301 -1.2770 -1.7953  0.7564
 8487SOL    HW236924   0.971   4.324   8.441 -1.5933  0.1126  0.5305
 8488SOL     OW36925   1.956   0.052  12.133 -0.1574 -0.0637 -0.2088
 8488SOL    HW136926   1.889   0.120  12.134 -2.0789 -1.9270 -1.5352
 8488SOL    HW236927   1.991   0.052  12.044  2.3847 -1.9079  0.8033
 8489SOL     OW36928   1.668   0.615   2.878  0.4983  0.0639 -0.7240
 8489SOL    HW136929   1.578   0.613   2.846  0.8677  1.2087 -1.8203
 8489SOL    HW236930   1.674   0.710   2.891  2.7134 -0.1936  0.1510
 8490SOL     OW36931   3.303   3.701  10.275  0.2068  0.1605  0.0641
 8490SOL    HW136932   3.229   3.677  10.331  0.6019  2.2161  1.4686
 8490SOL    HW236933   3.355   3.748  10.340 -0.2871  1.2268 -0.3214
 8491SOL     OW36934   1.642   4.617  12.096  0.3353  0.2895 -0.0166
 8491SOL    HW136935   1.596   4.535  12.115  0.7069  0.2500  0.7039
 8491SOL    HW236936   1.632   4.665  12.178 -1.1745 -0.1345  0.0445
 8492SOL     OW36937   3.403   2.123   5.320  0.6749 -0.1442  0.5569
 8492SOL    HW136938   3.460   2.088   5.252  0.2616  1.0965 -0.4303
 8492SOL    HW236939   3.328   2.154   5.269  1.4308 -1.5639 -1.4242
 8493SOL     OW36940   0.651   1.213   2.003  0.5930 -0.1103  0.4493
 8493SOL    HW136941   0.605   1.273   1.944 -1.7524 -0.7656  1.5969
 8493SOL    HW236942   0.660   1.272   2.079  0.1798  0.8406 -0.2348
 8494SOL     OW36943   1.397   2.529   3.953 -0.4176  0.3089 -0.3186
 8494SOL    HW136944   1.346   2.462   3.999 -0.1971  0.5971  0.3388
 8494SOL    HW236945   1.342   2.608   3.959  0.8664  1.2532 -0.9498
 8495SOL     OW36946   1.073   2.625   1.929  0.6345 -0.3748 -0.1691
 8495SOL    HW136947   1.167   2.639   1.924  0.6408  1.1368  4.1128
 8495SOL    HW236948   1.056   2.645   1.837 -0.0871  1.1091  0.2875
 8496SOL     OW36949   3.079   3.130   3.246  0.2969 -0.1811 -0.0221
 8496SOL    HW136950   3.060   3.050   3.295 -2.9388  0.2601 -0.6099
 8496SOL    HW236951   3.022   3.128   3.169  2.7145 -0.5489 -1.8062
 8497SOL     OW36952   0.548   2.142   1.383  0.1530  0.5093 -0.5997
 8497SOL    HW136953   0.569   2.142   1.290  0.2456 -1.8969 -0.5901
 8497SOL    HW236954   0.481   2.209   1.393  0.2002  0.3880  0.5688
 8498SOL     OW36955   4.654   2.793   3.732  0.2999  0.3028  0.5299
 8498SOL    HW136956   4.615   2.705   3.737  0.4042  0.2611  0.6024
 8498SOL    HW236957   0.011   2.778   3.780 -0.8931 -0.3836  2.3128
 8499SOL     OW36958   0.830   2.898  17.364  0.1943 -0.0218 -0.6070
 8499SOL    HW136959   0.840   2.980  17.413 -2.6966 -0.7362  1.1783
 8499SOL    HW236960   0.826   2.933  17.275  0.5033  0.5076 -0.4159
 8500SOL     OW36961   3.837   0.510   9.677 -0.3663 -0.3012  0.1981
 8500SOL    HW136962   3.850   0.454   9.753  0.4536  0.5638  0.6976
 8500SOL    HW236963   3.768   0.561   9.717 -0.3018  0.4936 -0.7036
 8501SOL     OW36964   0.231   4.196   8.807  0.7192  0.3858  0.5542
 8501SOL    HW136965   0.223   4.274   8.752 -0.7426  0.5325  0.9603
 8501SOL    HW236966   0.266   4.239   8.885 -0.4656  0.3850  1.1018
 8502SOL     OW36967   2.876   2.464   8.002 -0.6444  0.2507  0.0498
 8502SOL    HW136968   2.892   2.557   7.984  0.8496  0.4085  2.1787
 8502SOL    HW236969   2.898   2.430   7.916 -0.0913 -0.3376  0.4251
 8503SOL     OW36970   0.740   2.881   1.310  0.3542  0.1205 -0.0494
 8503SOL    HW136971   0.663   2.936   1.296  0.4795 -0.1793 -2.0310
 8503SOL    HW236972   0.722   2.813   1.245  3.1282  1.2672 -2.0328
 8504SOL     OW36973   3.172   4.201   3.775 -0.3518  0.5288 -0.0916
 8504SOL    HW136974   3.088   4.157   3.763 -0.3947  0.2416  1.2475
 8504SOL    HW236975   3.234   4.135   3.742 -1.5021 -0.6204  0.0601
 8505SOL     OW36976   2.575   4.581  14.267 -0.0447  0.0280 -0.1263
 8505SOL    HW136977   2.592   4.666  14.307 -0.1520 -0.2432  0.4938
 8505SOL    HW236978   2.497   4.603  14.216  0.3607  1.6188 -0.0725
 8506SOL     OW36979   3.955   2.197   4.599 -0.2577  0.1118  0.1093
 8506SOL    HW136980   3.885   2.132   4.604  1.5618 -1.8781 -0.2485
 8506SOL    HW236981   3.975   2.203   4.506  0.6179  0.5746  0.3292
 8507SOL     OW36982   2.218   0.893   8.084  0.2990 -0.1578  0.3976
 8507SOL    HW136983   2.154   0.821   8.092 -0.8097  0.5551 -2.0165
 8507SOL    HW236984   2.185   0.939   8.007  0.3662  1.4672  1.3476
 8508SOL     OW36985   2.723   4.117   6.698 -0.4726  0.4016  0.1882
 8508SOL    HW136986   2.758   4.041   6.652  0.4194  2.2577 -2.1927
 8508SOL    HW236987   2.643   4.131   6.648 -0.8944  1.2627  1.1037
 8509SOL     OW36988   3.331   4.537   2.302 -0.5223 -0.4660  0.3423
 8509SOL    HW136989   3.386   4.531   2.224 -0.3941  1.5696  0.2732
 8509SOL    HW236990   3.262   4.598   2.276  1.4617  0.7290 -2.1283
 8510SOL     OW36991   4.257   0.540   4.478 -0.7618 -0.5461 -0.0731
 8510SOL    HW136992   4.280   0.483   4.405  2.4245  1.2445 -0.4461
 8510SOL    HW236993   4.170   0.506   4.499 -1.3069 -0.0974 -1.6461
 8511SOL     OW36994   4.281   1.867  15.167 -0.1443 -0.5744 -0.5222
 8511SOL    HW136995   4.325   1.783  15.175  0.4621 -0.0753  1.3609
 8511SOL    HW236996   4.230   1.854  15.087 -1.4770 -0.8882  0.3695
 8512SOL     OW36997   2.027   0.951   6.813  0.1204 -0.3673 -0.2666
 8512SOL    HW136998   1.953   1.008   6.790  1.2838  0.7166 -1.3429
 8512SOL    HW236999   2.066   0.993   6.890 -0.1221  2.0280 -1.4653
 8513SOL     OW37000   3.043   0.387   0.312 -0.2492 -0.2212 -0.0144
 8513SOL    HW137001   3.138   0.377   0.302 -0.1038  1.7133 -0.5960
 8513SOL    HW237002   3.018   0.330   0.385  1.0669 -1.7497 -0.7313
 8514SOL     OW37003   2.139   1.983   8.963 -0.2726 -0.2313  0.1871
 8514SOL    HW137004   2.164   2.061   8.914 -0.1932 -1.2041 -1.3177
 8514SOL    HW237005   2.078   2.023   9.025 -2.2051 -0.0014 -1.8739
 8515SOL     OW37006   4.242   2.276   4.212  0.1948  0.4030  0.1423
 8515SOL    HW137007   4.207   2.267   4.301 -0.7445  0.8287 -0.1753
 8515SOL    HW237008   4.273   2.366   4.215 -0.6559  0.8047 -2.7060
 8516SOL     OW37009   1.505   3.107   4.330  0.2264 -0.5830  0.4435
 8516SOL    HW137010   1.426   3.102   4.275 -0.1840  0.3387  0.9531
 8516SOL    HW237011   1.510   3.016   4.358 -0.9290 -0.5268  0.8496
 8517SOL     OW37012   4.328   2.378   4.651  0.1097  0.4135  0.4942
 8517SOL    HW137013   4.240   2.391   4.686 -0.1140 -0.6674  0.3210
 8517SOL    HW237014   4.362   2.323   4.722  1.7275  1.2132  0.3487
 8518SOL     OW37015   1.799   1.601  16.131 -0.6414 -0.5088  0.1304
 8518SOL    HW137016   1.722   1.620  16.078  0.1614  2.3888  0.0311
 8518SOL    HW237017   1.763   1.597  16.220  2.3362  1.9200  1.4365
 8519SOL     OW37018   4.420   2.905   8.578 -0.5157 -0.5275  0.5112
 8519SOL    HW137019   4.411   2.980   8.637  2.9220 -1.0933  1.7138
 8519SOL    HW237020   4.332   2.899   8.541 -0.1764 -1.1766 -0.1837
 8520SOL     OW37021   3.019   0.808   9.535  0.0906  0.1321  0.2248
 8520SOL    HW137022   3.095   0.761   9.568  0.2862  0.0282 -0.3763
 8520SOL    HW237023   2.985   0.827   9.623 -1.2701 -0.1554 -0.2366
 8521SOL     OW37024   4.686   0.639   7.978  0.3837 -0.0603  0.2071
 8521SOL    HW137025   0.030   0.580   8.012  0.5475 -1.5255 -2.6693
 8521SOL    HW237026   4.686   0.622   7.884  0.6410 -1.5121  0.4602
 8522SOL     OW37027   2.140   2.010   5.380 -0.1652 -0.1508  0.4764
 8522SOL    HW137028   2.069   1.947   5.395 -1.1046  0.9271  0.6047
 8522SOL    HW237029   2.197   1.994   5.455 -1.5822  4.1313  2.4612
 8523SOL     OW37030   3.699   2.584  14.801  0.2766  0.0175 -0.2900
 8523SOL    HW137031   3.730   2.508  14.851 -2.3339 -0.6086  0.3397
 8523SOL    HW237032   3.780   2.632  14.783 -0.3989  1.0359 -0.5749
 8524SOL     OW37033   1.342   0.037   7.917  0.2044 -0.0363  0.2768
 8524SOL    HW137034   1.274   0.089   7.960 -1.9245 -2.0021 -0.6704
 8524SOL    HW237035   1.405   0.101   7.885  0.0856 -0.9677 -1.8578
 8525SOL     OW37036   3.279   0.037  13.777 -0.0955  0.4510 -0.2040
 8525SOL    HW137037   3.205   4.701  13.775 -0.7888  1.2579  0.8644
 8525SOL    HW237038   3.242   0.125  13.782 -0.9754  0.0569  0.2881
 8526SOL     OW37039   0.038   3.161  14.457 -0.2179  0.2358  0.0575
 8526SOL    HW137040   4.709   3.215  14.515  0.7360  0.8320  0.3930
 8526SOL    HW237041   0.122   3.178  14.499  0.1838 -0.1286 -0.5887
 8527SOL     OW37042   3.255   2.810   4.495 -0.8869 -0.1985  0.1000
 8527SOL    HW137043   3.253   2.855   4.411  1.3352 -0.3607 -0.0218
 8527SOL    HW237044   3.284   2.725   4.464 -0.4702 -0.2418  0.6067
 8528SOL     OW37045   2.483   2.981   2.582 -0.0680 -0.0959 -0.1184
 8528SOL    HW137046   2.525   2.956   2.499 -0.8330 -1.9431  0.0623
 8528SOL    HW237047   2.437   2.900   2.604 -1.6153  1.2291  1.5245
 8529SOL     OW37048   0.963   3.799   6.445 -0.0054 -0.0774 -0.1784
 8529SOL    HW137049   0.949   3.775   6.354 -1.1387  0.9997 -0.2851
 8529SOL    HW237050   1.057   3.779   6.448 -0.0914 -0.2791  1.0548
 8530SOL     OW37051   4.294   2.471  16.205  0.6876  0.0775 -0.6480
 8530SOL    HW137052   4.304   2.504  16.294 -0.0762  1.2197 -0.9988
 8530SOL    HW237053   4.258   2.545  16.156 -1.7700 -0.5768  0.1639
 8531SOL     OW37054   2.421   2.144   6.533  0.4293 -0.1908  0.2872
 8531SOL    HW137055   2.369   2.220   6.558 -1.7515 -2.0293  1.3309
 8531SOL    HW237056   2.511   2.177   6.535 -0.3530  1.9414 -0.3501
 8532SOL     OW37057   3.191   0.450   2.265  0.0268 -0.5977  0.5154
 8532SOL    HW137058   3.129   0.452   2.192  2.8071 -2.8176 -1.9092
 8532SOL    HW237059   3.264   0.413   2.216 -0.1062 -0.8679  0.5198
 8533SOL     OW37060   1.934   3.395   3.819 -0.5734 -0.2738 -0.3951
 8533SOL    HW137061   1.920   3.485   3.790  0.8366 -0.5530 -1.9813
 8533SOL    HW237062   1.996   3.403   3.891 -2.0572 -2.0741  1.0813
 8534SOL     OW37063   2.535   1.106   6.787  0.7448  0.2269 -0.0557
 8534SOL    HW137064   2.468   1.160   6.744  0.3073 -0.3266 -0.0630
 8534SOL    HW237065   2.489   1.024   6.806 -0.1137  0.8172  0.4238
 8535SOL     OW37066   0.850   0.661  14.752  0.4591 -0.2003  0.0489
 8535SOL    HW137067   0.840   0.620  14.666  0.0197 -0.9133  0.4440
 8535SOL    HW237068   0.776   0.722  14.758  0.9287  0.2190  1.5601
 8536SOL     OW37069   1.076   2.060   4.185 -0.3302  0.4572 -0.3698
 8536SOL    HW137070   1.040   1.994   4.126  0.3674 -1.0130  0.8635
 8536SOL    HW237071   1.145   2.011   4.229 -0.0998 -0.2909 -1.5736
 8537SOL     OW37072   1.894   4.344   1.789 -0.2979  0.4830 -0.1163
 8537SOL    HW137073   1.810   4.379   1.759  0.4403  1.3618 -1.1230
 8537SOL    HW237074   1.927   4.291   1.716 -1.0257  0.8355 -0.6930
 8538SOL     OW37075   1.203   1.397   7.475 -0.3034 -0.0911 -0.4476
 8538SOL    HW137076   1.208   1.366   7.384  1.3013 -1.7535  0.2150
 8538SOL    HW237077   1.113   1.431   7.474 -0.6641 -1.1118 -2.8622
 8539SOL     OW37078   3.950   1.021   4.799  0.4843 -0.2280  0.1919
 8539SOL    HW137079   4.007   1.002   4.725  1.0094  4.7655 -0.6448
 8539SOL    HW237080   3.861   1.012   4.765  1.1195 -0.1239 -1.4773
 8540SOL     OW37081   4.229   1.453  16.105  0.2044  0.5028 -0.4012
 8540SOL    HW137082   4.139   1.474  16.128  0.1977  0.0073  0.0320
 8540SOL    HW237083   4.285   1.469  16.181 -0.2025  2.1731 -0.4592
 8541SOL     OW37084   0.822   0.454   7.661  0.5078 -0.0590  0.2396
 8541SOL    HW137085   0.880   0.382   7.636  0.6909 -0.0326  0.5984
 8541SOL    HW237086   0.828   0.516   7.588 -0.7145  0.2218  0.3896
 8542SOL     OW37087   0.091   1.667  15.155  0.0309 -0.2410  0.5561
 8542SOL    HW137088   0.106   1.593  15.097 -1.0879  1.9398 -2.5149
 8542SOL    HW237089   4.720   1.665  15.142 -0.2302 -0.7221  2.4863
 8543SOL     OW37090   2.465   3.779  11.577  0.3578 -0.2776 -0.0428
 8543SOL    HW137091   2.540   3.839  11.580 -0.5483  0.8495 -0.3380
 8543SOL    HW237092   2.483   3.738  11.492  0.6259  2.4693 -1.3073
 8544SOL     OW37093   0.124   2.288   2.901 -0.0359  0.0051  0.4706
 8544SOL    HW137094   0.128   2.257   2.991  1.3037 -0.1490  0.3488
 8544SOL    HW237095   0.083   2.212   2.859  0.7681  1.0360 -2.2349
 8545SOL     OW37096   0.919   3.098   7.758  0.3730 -0.0461  0.1640
 8545SOL    HW137097   0.892   3.189   7.742 -0.3476 -0.2454  0.2317
 8545SOL    HW237098   0.849   3.051   7.713  0.0244  1.3938 -0.8254
 8546SOL     OW37099   0.754   4.692   7.074 -0.2763  0.1398 -0.0777
 8546SOL    HW137100   0.725   0.036   7.013 -0.8196  0.1623  0.2037
 8546SOL    HW237101   0.781   4.622   7.015 -1.0706  0.3608 -0.6969
 8547SOL     OW37102   3.443   1.274   5.707 -0.3515 -0.8273  0.0738
 8547SOL    HW137103   3.411   1.323   5.631  0.8310  0.4495  0.3984
 8547SOL    HW237104   3.501   1.339   5.745  0.6991 -1.7254  0.0085
 8548SOL     OW37105   3.314   4.692   7.328 -0.3280 -0.0415  0.0533
 8548SOL    HW137106   3.327   0.061   7.309  0.5220 -0.1430  0.1463
 8548SOL    HW237107   3.403   4.668   7.355  0.4202  2.3028 -0.2927
 8549SOL     OW37108   0.300   0.922   2.535 -0.3775 -0.4670  0.2417
 8549SOL    HW137109   0.271   0.920   2.627  0.2573 -0.3151  0.4400
 8549SOL    HW237110   0.286   1.008   2.495  0.5528  0.3085  1.5850
 8550SOL     OW37111   0.877   1.645   6.702 -0.5569  0.0060  0.4973
 8550SOL    HW137112   0.807   1.596   6.659 -0.9477 -0.9681  2.2766
 8550SOL    HW237113   0.839   1.731   6.682 -1.5218  0.8640  6.1244
 8551SOL     OW37114   1.448   4.346  15.844 -0.3915 -0.6331 -0.1111
 8551SOL    HW137115   1.390   4.277  15.877 -0.2902 -0.5293  0.2734
 8551SOL    HW237116   1.408   4.374  15.761  0.5513  1.2353  0.0665
 8552SOL     OW37117   3.084   4.496   2.844 -0.4436  0.0627 -0.1788
 8552SOL    HW137118   3.096   4.438   2.919  1.9381  1.8432  0.8244
 8552SOL    HW237119   3.002   4.529   2.881  0.9656  1.4296  1.7695
 8553SOL     OW37120   2.763   3.402   4.512  0.3038  0.2175 -0.4521
 8553SOL    HW137121   2.737   3.493   4.519 -1.5774 -0.5432  2.2343
 8553SOL    HW237122   2.692   3.347   4.545 -0.7059  1.3606 -0.7295
 8554SOL     OW37123   3.193   0.934   2.662  0.2694 -0.3731 -0.4183
 8554SOL    HW137124   3.210   1.025   2.640 -0.0848 -0.5192 -1.2750
 8554SOL    HW237125   3.099   0.933   2.675  0.3966 -0.2923  0.5211
 8555SOL     OW37126   4.635   4.717  11.745  0.2581  0.3979  0.4249
 8555SOL    HW137127   4.643   4.704  11.651  1.7475 -2.1101  0.8719
 8555SOL    HW237128   4.540   0.007  11.747  0.1846  0.0144 -0.2956
 8556SOL     OW37129   0.664   0.096  14.323  0.2263  0.1727 -0.7020
 8556SOL    HW137130   0.694   0.015  14.280  0.8224 -0.4082  0.7964
 8556SOL    HW237131   0.737   0.107  14.384  0.5783 -0.5428 -0.9942
 8557SOL     OW37132   0.820   1.801  13.642 -0.0692  0.0343 -0.4502
 8557SOL    HW137133   0.817   1.890  13.607 -0.5833  0.4708  0.6958
 8557SOL    HW237134   0.747   1.791  13.703 -1.5368  1.3108 -2.0204
 8558SOL     OW37135   3.579   4.577   7.756  0.6053 -0.3201  0.3991
 8558SOL    HW137136   3.565   4.641   7.825  0.9122  1.1559 -0.8983
 8558SOL    HW237137   3.657   4.535   7.791 -0.0973 -1.8930  0.0737
 8559SOL     OW37138   4.409   0.152  13.272 -0.0212 -0.2693 -0.4459
 8559SOL    HW137139   4.437   0.151  13.364  2.8254 -1.4082 -1.3324
 8559SOL    HW237140   4.386   0.244  13.257  1.6104  0.2899  0.4125
 8560SOL     OW37141   1.388   3.689   7.946  0.1027 -0.3881  0.1825
 8560SOL    HW137142   1.381   3.737   7.863  1.0127  0.5687  0.6622
 8560SOL    HW237143   1.307   3.640   7.933  0.6994 -1.7888  1.8775
 8561SOL     OW37144   3.118   2.609   3.657  0.5598 -0.4269 -0.9178
 8561SOL    HW137145   3.115   2.679   3.722  2.2166 -0.4511 -0.8138
 8561SOL    HW237146   3.074   2.652   3.584  0.1844 -1.0873 -1.0850
 8562SOL     OW37147   3.091   4.181   7.034  0.0104  0.3939 -0.3461
 8562SOL    HW137148   3.103   4.161   6.942 -1.7984  0.8147 -0.6921
 8562SOL    HW237149   2.998   4.159   7.048  0.0517  1.1612  1.2330
 8563SOL     OW37150   0.692   4.221   4.066  0.8793 -0.4156  0.9264
 8563SOL    HW137151   0.655   4.133   4.056  0.2440  0.0754 -0.9173
 8563SOL    HW237152   0.704   4.244   3.974 -1.1280 -0.7326  0.5729
 8564SOL     OW37153   3.234   4.207   8.909  0.0233  0.7239  0.3724
 8564SOL    HW137154   3.188   4.286   8.880 -0.7009  0.1224 -0.1121
 8564SOL    HW237155   3.294   4.252   8.969  1.0694  0.0233 -0.1316
 8565SOL     OW37156   1.180   1.459   3.070 -0.7449  0.2045 -0.0144
 8565SOL    HW137157   1.220   1.375   3.092  2.3328  1.8837  0.8237
 8565SOL    HW237158   1.233   1.534   3.097 -1.6312 -0.2074  2.8796
 8566SOL     OW37159   4.364   3.672   4.488  0.3627 -0.4199 -0.1856
 8566SOL    HW137160   4.302   3.649   4.557  1.5876 -0.5139  0.8902
 8566SOL    HW237161   4.447   3.656   4.534 -0.5445 -1.5049  1.0664
 8567SOL     OW37162   1.911   0.572   4.236 -0.1689  0.2990  0.0133
 8567SOL    HW137163   1.924   0.666   4.224  0.8330 -0.0336 -1.5223
 8567SOL    HW237164   1.901   0.563   4.331 -0.5232  0.0786 -0.0453
 8568SOL     OW37165   2.808   3.013   1.956 -0.7163 -0.3208  0.7423
 8568SOL    HW137166   2.818   2.990   2.048 -1.2106  1.6482  1.2845
 8568SOL    HW237167   2.796   3.106   1.974  0.2008 -0.0572  0.0321
 8569SOL     OW37168   1.380   0.718  16.784  0.3235  0.3117  0.1042
 8569SOL    HW137169   1.381   0.805  16.823 -0.7760  0.5577 -0.3923
 8569SOL    HW237170   1.472   0.703  16.763  0.0299 -1.6361  0.2202
 8570SOL     OW37171   2.094   1.452   5.031 -0.1391  0.1967  0.7558
 8570SOL    HW137172   2.040   1.381   4.995  1.4520 -1.1114  0.9598
 8570SOL    HW237173   2.022   1.513   5.049 -1.0538 -0.4996 -0.5256
 8571SOL     OW37174   2.223   1.694  17.642  0.3572 -0.4676  0.4620
 8571SOL    HW137175   2.234   1.702  17.547 -1.9519 -0.8491  0.1487
 8571SOL    HW237176   2.166   1.617  17.639  2.5440 -2.0905  0.7092
 8572SOL     OW37177   1.623   2.729  12.054 -0.2420 -0.0230 -0.1318
 8572SOL    HW137178   1.653   2.707  12.142  1.0108  4.8394  0.6146
 8572SOL    HW237179   1.535   2.751  12.085  0.1328  0.3368  0.6737
 8573SOL     OW37180   3.448   1.109   9.161 -0.0216 -0.0504 -0.3247
 8573SOL    HW137181   3.382   1.075   9.100 -1.0871  0.9316  0.2798
 8573SOL    HW237182   3.505   1.165   9.108  1.9355 -0.9062  0.8850
 8574SOL     OW37183   3.193   3.972   1.384  0.5092  0.1871 -0.2101
 8574SOL    HW137184   3.131   4.045   1.388  0.1381 -0.3001  4.0414
 8574SOL    HW237185   3.141   3.911   1.332 -0.3031 -0.2046  1.0456
 8575SOL     OW37186   0.830   0.966   3.314  0.2236  0.1832  0.1096
 8575SOL    HW137187   0.827   0.871   3.327 -1.0456  0.3151  0.7636
 8575SOL    HW237188   0.899   0.985   3.377 -0.9526 -0.2609  1.5309
 8576SOL     OW37189   1.372   2.230   6.563 -0.2523 -0.0647  0.3864
 8576SOL    HW137190   1.277   2.237   6.559 -0.2303 -1.7082 -3.2779
 8576SOL    HW237191   1.396   2.137   6.570 -2.1794 -0.4887  1.3009
 8577SOL     OW37192   2.590   4.513  11.065  0.3924 -0.3720  0.4525
 8577SOL    HW137193   2.686   4.512  11.064  0.3994 -0.1267  0.9207
 8577SOL    HW237194   2.573   4.523  10.971  0.7564 -0.1591  0.4088
 8578SOL     OW37195   1.216   4.086   8.013 -0.3856 -0.0396 -0.2960
 8578SOL    HW137196   1.154   4.158   8.001  0.7679  1.1680  1.1245
 8578SOL    HW237197   1.173   4.028   8.077  0.2181 -0.5193 -0.3271
 8579SOL     OW37198   0.861   2.626   2.478  0.0484 -0.4236  0.5310
 8579SOL    HW137199   0.879   2.628   2.572 -0.1041  2.5176  0.4821
 8579SOL    HW237200   0.769   2.647   2.488  0.8110  1.3218  3.9394
 8580SOL     OW37201   1.786   2.085   7.427 -0.0550 -0.3594 -0.2136
 8580SOL    HW137202   1.711   2.144   7.416  1.7358  2.0231  0.4710
 8580SOL    HW237203   1.786   2.077   7.523  1.5292  1.5587 -0.0579
 8581SOL     OW37204   3.891   0.687   7.984  0.4555 -0.3331 -0.8020
 8581SOL    HW137205   3.807   0.650   7.959  0.1748 -0.7106  0.6990
 8581SOL    HW237206   3.950   0.656   7.915  1.5254 -1.5918  0.6684
 8582SOL     OW37207   1.617   0.737   9.345 -0.4752  0.2870  0.4216
 8582SOL    HW137208   1.689   0.779   9.392  0.0888 -0.2008 -0.0023
 8582SOL    HW237209   1.624   0.648   9.378 -3.5566 -0.1900 -0.2749
 8583SOL     OW37210   2.910   1.887  12.425  0.4386  0.6213  0.6641
 8583SOL    HW137211   2.962   1.953  12.472  0.7306  0.9209 -0.0826
 8583SOL    HW237212   2.873   1.844  12.502 -1.8311  0.4872 -0.5261
 8584SOL     OW37213   1.924   4.329   1.065  0.0160 -0.2129  0.4476
 8584SOL    HW137214   1.958   4.334   0.975 -0.7972  0.1452  0.1587
 8584SOL    HW237215   1.854   4.264   1.054 -0.2332 -0.0445  1.0774
 8585SOL     OW37216   2.322   1.975   7.188  0.3244  0.1215 -0.1795
 8585SOL    HW137217   2.354   2.035   7.256 -0.3993 -2.1458  2.1776
 8585SOL    HW237218   2.399   1.965   7.133 -0.0581 -1.2772 -0.4724
 8586SOL     OW37219   0.295   1.352   5.399  0.1293 -0.0611  0.8309
 8586SOL    HW137220   0.256   1.398   5.324  0.8741 -1.2201 -0.2574
 8586SOL    HW237221   0.385   1.334   5.373 -1.3972 -2.4967 -2.7159
 8587SOL     OW37222   0.456   1.416  16.209  1.1575  0.2671 -0.5589
 8587SOL    HW137223   0.433   1.493  16.260 -1.2652  0.3065 -1.7295
 8587SOL    HW237224   0.509   1.364  16.270 -0.9577 -1.1145  0.1235
 8588SOL     OW37225   1.979   1.959   4.075 -0.2189  0.3614 -0.3515
 8588SOL    HW137226   1.886   1.951   4.096  0.2773  0.0237  1.7563
 8588SOL    HW237227   1.989   2.017   3.999  2.1701 -0.7499 -0.8905
 8589SOL     OW37228   0.438   0.968   7.490  0.1492 -0.3838  0.0654
 8589SOL    HW137229   0.508   0.975   7.425  0.8328 -2.0473  0.6486
 8589SOL    HW237230   0.469   0.901   7.550  0.3832  1.0663  1.5950
 8590SOL     OW37231   4.492   1.118   1.366  0.4145  0.1358  0.0183
 8590SOL    HW137232   4.566   1.097   1.309  1.1012  1.8814  0.2443
 8590SOL    HW237233   4.528   1.099   1.453 -2.4624 -1.9525  0.7233
 8591SOL     OW37234   4.601   2.452  14.043 -0.4957 -0.7737 -0.2626
 8591SOL    HW137235   4.696   2.460  14.050 -0.4368 -0.2923 -1.6010
 8591SOL    HW237236   4.582   2.514  14.112  0.9487  0.0983 -0.6626
 8592SOL     OW37237   2.947   2.915   2.383 -1.0336 -0.3074 -0.2278
 8592SOL    HW137238   2.996   2.880   2.309 -0.2756  0.0722  0.1015
 8592SOL    HW237239   2.994   2.882   2.459  1.2037  3.0740 -0.1476
 8593SOL     OW37240   3.712   1.224   7.665 -1.0755 -0.1833  0.1005
 8593SOL    HW137241   3.781   1.161   7.687 -1.1317  0.2795  1.6127
 8593SOL    HW237242   3.673   1.238   7.751  0.0920  1.7341  0.3387
 8594SOL     OW37243   1.069   3.516   5.721 -0.0956 -0.3356  0.4870
 8594SOL    HW137244   1.128   3.528   5.647  0.6521  2.2206  1.5167
 8594SOL    HW237245   1.055   3.610   5.729  0.9449  0.1602 -3.5955
 8595SOL     OW37246   3.434   1.919   6.173 -0.3708 -0.0651  0.1032
 8595SOL    HW137247   3.411   1.858   6.104  2.1868 -1.6570  0.6563
 8595SOL    HW237248   3.368   1.986   6.161  0.1019  0.4148  0.1563
 8596SOL     OW37249   1.321   2.678   3.066 -0.0174  0.2234 -0.2135
 8596SOL    HW137250   1.309   2.601   3.011  1.5645 -0.8380  0.9271
 8596SOL    HW237251   1.403   2.645   3.103  0.8983  2.8129  0.0709
 8597SOL     OW37252   2.036   2.926   5.467 -0.4697  0.4293 -0.3579
 8597SOL    HW137253   2.058   2.925   5.374 -0.2841  1.7078 -0.3324
 8597SOL    HW237254   2.076   3.012   5.480 -0.9596  0.5014  0.7600
 8598SOL     OW37255   4.000   4.586  13.026  0.4197 -0.0314 -0.4643
 8598SOL    HW137256   4.059   4.517  13.056  0.4550  0.2550  0.1302
 8598SOL    HW237257   4.060   4.659  13.044  0.7392 -0.4294  0.0873
 8599SOL     OW37258   0.068   4.570  14.395 -0.3786 -0.0503 -0.5109
 8599SOL    HW137259   0.106   4.495  14.351  0.6824 -0.0280  0.3657
 8599SOL    HW237260   4.700   4.561  14.371 -1.0413 -2.7366  3.1203
 8600SOL     OW37261   0.560   2.528   7.768 -0.0649 -0.5899 -0.3411
 8600SOL    HW137262   0.635   2.471   7.785  0.6518  0.2533 -0.6751
 8600SOL    HW237263   0.487   2.470   7.790  0.5430 -0.6122  1.5468
 8601SOL     OW37264   1.019   3.708   3.135 -0.3625 -0.2098  0.6803
 8601SOL    HW137265   0.955   3.640   3.158 -0.7752  0.2095  0.7632
 8601SOL    HW237266   1.061   3.670   3.057  1.0834  0.5193  1.1073
 8602SOL     OW37267   3.593   0.588   3.064  0.3749  0.6337 -0.4106
 8602SOL    HW137268   3.513   0.641   3.071  0.8775  1.1242  1.5757
 8602SOL    HW237269   3.647   0.629   2.996  0.9762 -1.0932 -0.9514
 8603SOL     OW37270   3.805   4.125  12.254 -0.0900  0.1622  0.5514
 8603SOL    HW137271   3.853   4.082  12.183 -2.2842 -0.5651 -0.4958
 8603SOL    HW237272   3.803   4.045  12.307  0.8003 -2.1889 -2.9484
 8604SOL     OW37273   3.662   0.659   4.418  0.3033  0.0975 -0.5704
 8604SOL    HW137274   3.693   0.656   4.327  0.1192  0.8099 -0.6589
 8604SOL    HW237275   3.686   0.747   4.448  0.3221 -0.0982 -0.0198
 8605SOL     OW37276   2.742   3.060   9.409  0.1433  0.4189 -0.0625
 8605SOL    HW137277   2.819   3.005   9.393  0.9244  1.7442 -0.8600
 8605SOL    HW237278   2.687   3.016   9.344  0.1806  1.9874 -1.1551
 8606SOL     OW37279   2.686   2.412  13.702  0.1672  0.2760  0.2568
 8606SOL    HW137280   2.666   2.432  13.793  0.2959  1.9190 -0.0909
 8606SOL    HW237281   2.688   2.499  13.662  2.5193  0.0336 -0.1721
 8607SOL     OW37282   3.758   4.111  15.260  0.0139  0.2231 -0.1722
 8607SOL    HW137283   3.772   4.017  15.262 -0.1555  0.2176  1.0291
 8607SOL    HW237284   3.666   4.125  15.239  0.3706  0.2130 -1.7648
 8608SOL     OW37285   2.758   4.120   8.306 -0.3185  0.0598 -0.4946
 8608SOL    HW137286   2.742   4.135   8.213  2.2691  3.5234 -0.3752
 8608SOL    HW237287   2.838   4.068   8.303  0.1458  0.8099 -0.8711
 8609SOL     OW37288   4.040   2.253   0.019  0.6704 -0.3039  0.3926
 8609SOL    HW137289   3.984   2.235   0.094  0.4297  0.4935  0.4015
 8609SOL    HW237290   4.120   2.207   0.045  1.2115  1.8847  2.5219
 8610SOL     OW37291   4.050   2.778  13.317  0.7514  0.2981 -0.3520
 8610SOL    HW137292   3.957   2.781  13.296  0.8971 -2.1707 -1.3718
 8610SOL    HW237293   4.088   2.815  13.238  1.5173  0.1574 -0.0567
 8611SOL     OW37294   4.353   0.094   8.795 -0.7067  1.0495  0.8276
 8611SOL    HW137295   4.436   0.050   8.778 -1.6772 -0.2579 -0.5730
 8611SOL    HW237296   4.316   0.104   8.707  2.1628 -0.6888 -0.5559
 8612SOL     OW37297   4.530   0.967   4.973 -0.1099 -0.3710  0.1863
 8612SOL    HW137298   4.492   0.989   4.887  1.6289  0.3013 -0.4163
 8612SOL    HW237299   4.619   1.001   4.964  1.2460 -3.7382  0.9653
 8613SOL     OW37300   4.628   3.479   2.455 -0.7638  0.3071 -0.0721
 8613SOL    HW137301   4.610   3.436   2.371 -0.9551  1.6199 -0.7012
 8613SOL    HW237302   4.596   3.405   2.507 -2.5970  0.9169 -0.3558
 8614SOL     OW37303   0.812   2.213   5.299 -0.0788  0.2838  0.0603
 8614SOL    HW137304   0.850   2.186   5.383  1.9277 -0.4659 -1.0826
 8614SOL    HW237305   0.864   2.155   5.244  3.4968  1.1897  2.4646
 8615SOL     OW37306   0.204   2.478  13.399 -0.4897 -0.3584  0.3333
 8615SOL    HW137307   0.220   2.566  13.364  1.3097 -0.7329  0.2024
 8615SOL    HW237308   0.265   2.428  13.345  0.1268 -0.1502  0.8235
 8616SOL     OW37309   3.002   0.918  14.893 -0.5373  0.1791  0.3799
 8616SOL    HW137310   2.940   0.991  14.884  2.6748  2.7425 -0.5829
 8616SOL    HW237311   2.939   0.869  14.946  0.6521 -1.5838  0.1482
 8617SOL     OW37312   3.683   0.299   1.178 -0.1806  0.1367 -0.2477
 8617SOL    HW137313   3.639   0.265   1.256 -0.3242 -0.6838 -0.6966
 8617SOL    HW237314   3.644   0.252   1.105  1.4190  0.2691 -1.1816
 8618SOL     OW37315   2.404   0.372  10.567 -0.2274  0.6567 -0.0366
 8618SOL    HW137316   2.475   0.436  10.563  0.6207 -0.3020 -0.4184
 8618SOL    HW237317   2.375   0.358  10.476  1.5895 -1.6315 -0.2633
 8619SOL     OW37318   3.508   1.077   2.618  0.5869  0.5740 -0.5323
 8619SOL    HW137319   3.493   1.083   2.712 -1.0650 -1.7430 -0.6338
 8619SOL    HW237320   3.437   1.014   2.602  0.5381  0.3582  0.5461
 8620SOL     OW37321   1.433   4.056  15.302 -0.3228  0.1010 -0.2780
 8620SOL    HW137322   1.400   3.967  15.305  1.1834 -0.4924 -1.0982
 8620SOL    HW237323   1.397   4.080  15.216 -0.0166 -3.4195 -1.3749
 8621SOL     OW37324   3.302   1.836   3.646  0.5720 -0.2579 -0.2936
 8621SOL    HW137325   3.382   1.786   3.631  0.0647 -0.9430 -0.7454
 8621SOL    HW237326   3.292   1.843   3.741  0.5491  2.1604 -0.4804
 8622SOL     OW37327   4.419   2.890   3.353  0.2406 -0.0283 -0.0826
 8622SOL    HW137328   4.396   2.814   3.407 -0.7164 -0.2185 -0.7638
 8622SOL    HW237329   4.339   2.943   3.358  0.8424  0.6873  2.1149
 8623SOL     OW37330   3.791   0.083   9.530 -0.5687  0.0699  0.3134
 8623SOL    HW137331   3.883   0.099   9.512 -1.1418  0.2168 -2.5120
 8623SOL    HW237332   3.758   0.173   9.538  0.4688  0.6093 -1.4717
 8624SOL     OW37333   0.331   1.193  10.882  0.6616  0.3351 -0.2788
 8624SOL    HW137334   0.260   1.182  10.819  0.6409 -1.1835  0.0034
 8624SOL    HW237335   0.292   1.251  10.947 -0.2156  0.3307 -0.8075
 8625SOL     OW37336   3.448   1.699  11.667 -0.5943  0.2451  0.4121
 8625SOL    HW137337   3.381   1.632  11.656 -0.6844  0.7807 -2.2287
 8625SOL    HW237338   3.379   1.765  11.678  0.4950  1.5932 -0.7223
 8626SOL     OW37339   3.397   0.592   9.767  0.2808 -0.0153 -0.0088
 8626SOL    HW137340   3.355   0.506   9.758  2.6701 -1.2345  0.5486
 8626SOL    HW237341   3.417   0.595   9.861  1.1060  1.1517 -0.2313
 8627SOL     OW37342   1.694   0.085   3.012  0.6309  0.0535  0.1871
 8627SOL    HW137343   1.654   0.168   3.037 -1.4769 -0.8747 -0.0912
 8627SOL    HW237344   1.786   0.102   3.030  1.1016 -1.0929 -1.1527
 8628SOL     OW37345   2.387   2.740   8.301  0.2991  0.7648  0.0584
 8628SOL    HW137346   2.315   2.802   8.311 -1.6753 -1.2318 -2.1012
 8628SOL    HW237347   2.396   2.718   8.394 -1.4365  0.0182  0.0510
 8629SOL     OW37348   3.946   3.849   6.126  0.5559  0.0127  0.4402
 8629SOL    HW137349   3.896   3.927   6.150 -0.6672 -1.0914  1.4609
 8629SOL    HW237350   3.906   3.781   6.180  1.9324 -1.0413  0.1519
 8630SOL     OW37351   3.381   3.256   0.866 -0.0721  0.2204 -0.3540
 8630SOL    HW137352   3.294   3.291   0.881  0.1628  0.6932 -0.0941
 8630SOL    HW237353   3.410   3.225   0.952 -3.2727 -0.4070  0.4777
 8631SOL     OW37354   1.277   1.234   5.219 -0.7062 -0.4729 -0.2491
 8631SOL    HW137355   1.355   1.179   5.229 -0.3258  0.4343  1.8245
 8631SOL    HW237356   1.226   1.193   5.150  0.4737  0.8281 -1.8803
 8632SOL     OW37357   3.337   3.606   5.943 -0.4276  0.1245 -0.1778
 8632SOL    HW137358   3.373   3.525   5.908 -2.6514 -0.7759 -0.3876
 8632SOL    HW237359   3.371   3.670   5.880  1.4150 -0.3630  0.3288
 8633SOL     OW37360   0.861   1.534  13.523 -0.0097  0.0947 -0.2285
 8633SOL    HW137361   0.854   1.543  13.428  0.7907 -0.7235 -0.3650
 8633SOL    HW237362   0.839   1.624  13.549  1.4585  0.6633 -0.9883
 8634SOL     OW37363   0.726   0.151   4.711 -0.1442  0.5080  0.1471
 8634SOL    HW137364   0.679   0.221   4.756 -1.5516 -1.4149  1.6839
 8634SOL    HW237365   0.781   0.195   4.646 -2.1553  0.8359 -1.3076
 8635SOL     OW37366   4.332   1.746   6.679  0.2883  0.1305 -0.4281
 8635SOL    HW137367   4.359   1.718   6.766 -1.2992 -4.1434 -1.3075
 8635SOL    HW237368   4.309   1.659   6.648  3.4709 -0.9470  0.2654
 8636SOL     OW37369   1.294   2.386   9.687 -0.1411  0.2458  0.3580
 8636SOL    HW137370   1.273   2.479   9.678 -2.1518  0.1884  4.4662
 8636SOL    HW237371   1.389   2.393   9.676 -0.1126  0.0958  0.4979
 8637SOL     OW37372   4.148   1.645   5.384  0.1020  0.1660 -0.3150
 8637SOL    HW137373   4.194   1.705   5.444  2.6316 -2.2436  0.1838
 8637SOL    HW237374   4.058   1.677   5.380  0.9823  2.4250 -2.3163
 8638SOL     OW37375   2.587   1.686   6.731  0.0854  0.3653 -0.1571
 8638SOL    HW137376   2.604   1.776   6.701 -0.0514  0.6717  0.6897
 8638SOL    HW237377   2.672   1.646   6.711  1.1424  1.7322  1.4879
 8639SOL     OW37378   2.269   4.505   1.451  0.8281 -0.2509  0.6954
 8639SOL    HW137379   2.289   4.544   1.366  1.7097  0.0286  1.0267
 8639SOL    HW237380   2.340   4.548   1.499  0.0183  1.6637  0.1669
 8640SOL     OW37381   2.278   1.682  10.939  0.0735  0.0213  0.0474
 8640SOL    HW137382   2.257   1.645  11.025 -1.4953  0.9538  0.0468
 8640SOL    HW237383   2.367   1.708  10.965  1.1543 -3.1627 -0.3468
 8641SOL     OW37384   2.172   4.716   2.193 -0.4247 -0.1973  0.0071
 8641SOL    HW137385   2.171   0.058   2.124 -0.1997  0.6876  0.8418
 8641SOL    HW237386   2.237   4.656   2.158  1.1089  1.6160 -0.2480
 8642SOL     OW37387   4.567   4.006   4.397  0.4355 -0.5183  0.4839
 8642SOL    HW137388   4.586   4.041   4.484 -0.7410 -0.5323  0.7435
 8642SOL    HW237389   4.573   4.083   4.341  2.4173  1.0360  2.8637
 8643SOL     OW37390   2.415   2.829   6.766 -0.8290  0.7388 -0.4879
 8643SOL    HW137391   2.320   2.834   6.752 -0.8615 -0.4447 -0.6997
 8643SOL    HW237392   2.429   2.923   6.775  0.6009  0.3308  1.4867
 8644SOL     OW37393   3.608   2.825   7.228  0.6600 -0.3713  0.1508
 8644SOL    HW137394   3.613   2.874   7.310 -0.7609 -1.0366  0.6350
 8644SOL    HW237395   3.575   2.882   7.159  1.1607 -0.2662 -0.0026
 8645SOL     OW37396   3.498   3.066   4.874  0.4575  0.1342 -0.5585
 8645SOL    HW137397   3.541   3.039   4.792  0.2436 -1.0837 -0.2808
 8645SOL    HW237398   3.413   3.055   4.832  0.8552 -1.8746 -0.8657
 8646SOL     OW37399   0.310   0.473   2.152 -0.1327  0.4831  0.0513
 8646SOL    HW137400   0.390   0.423   2.167  0.1987  1.5887  1.8992
 8646SOL    HW237401   0.279   0.501   2.238 -2.6148 -1.8380 -0.0784
 8647SOL     OW37402   4.470   1.745  17.038  0.7013 -0.0666 -0.1997
 8647SOL    HW137403   4.394   1.742  17.097 -1.1427 -1.0261 -2.6166
 8647SOL    HW237404   4.510   1.664  17.070 -1.3269 -1.2632 -0.6740
 8648SOL     OW37405   1.636   1.731   7.686 -0.1710 -0.9040 -0.0554
 8648SOL    HW137406   1.565   1.715   7.623  0.2008 -2.6893  0.0082
 8648SOL    HW237407   1.690   1.654   7.673 -1.3554 -2.0964  2.1867
 8649SOL     OW37408   3.964   3.372  13.866 -0.5297 -0.1628 -0.0466
 8649SOL    HW137409   4.036   3.410  13.816 -1.7008  1.7526 -0.2790
 8649SOL    HW237410   4.010   3.296  13.902 -1.5244 -0.4514  0.6291
 8650SOL     OW37411   3.919   2.233   6.356 -0.2976  0.1462 -0.0834
 8650SOL    HW137412   3.867   2.208   6.432 -1.0147 -0.8089 -0.8985
 8650SOL    HW237413   4.009   2.220   6.389 -1.4133  0.2256  3.0079
 8651SOL     OW37414   1.144   1.310   2.607  0.7320 -0.0347 -0.1776
 8651SOL    HW137415   1.194   1.387   2.634  0.1969  0.9143 -1.8794
 8651SOL    HW237416   1.138   1.321   2.512 -1.1540  0.0879 -0.0532
 8652SOL     OW37417   4.644   3.807   3.737  0.1318  0.4505 -0.4732
 8652SOL    HW137418   4.577   3.847   3.683 -0.9756 -0.3732  0.2927
 8652SOL    HW237419   4.620   3.838   3.824 -0.2851 -1.4712  0.1002
 8653SOL     OW37420   0.640   3.201   4.567  0.0790  0.4326 -0.2680
 8653SOL    HW137421   0.668   3.275   4.514 -1.6388  0.6320 -0.8806
 8653SOL    HW237422   0.567   3.237   4.617 -0.0956 -2.3184  1.4723
 8654SOL     OW37423   4.400   3.741  15.375  0.0824  0.0219 -0.0716
 8654SOL    HW137424   4.430   3.671  15.432  1.0564  1.9291  1.7337
 8654SOL    HW237425   4.418   3.822  15.422  0.3314 -0.5024  0.7247
 8655SOL     OW37426   1.138   0.706   2.354 -0.6662 -0.3567 -0.1807
 8655SOL    HW137427   1.223   0.727   2.393 -1.5789  0.6921  1.2866
 8655SOL    HW237428   1.097   0.650   2.421 -0.8581  2.9363  2.4640
 8656SOL     OW37429   2.232   0.394   7.766  0.9959  0.5120  0.8535
 8656SOL    HW137430   2.307   0.431   7.814  0.6710  2.5296 -0.2026
 8656SOL    HW237431   2.262   0.312   7.726 -2.0135  0.3807 -1.1127
 8657SOL     OW37432   1.649   0.921   1.673 -0.4099 -0.8389  0.0096
 8657SOL    HW137433   1.583   0.872   1.722 -1.3827 -2.2981 -2.8057
 8657SOL    HW237434   1.726   0.908   1.729 -1.0477 -2.0205  0.5987
 8658SOL     OW37435   2.681   0.854   6.150 -0.1589  0.5379 -0.4743
 8658SOL    HW137436   2.765   0.900   6.153 -0.5265  1.2026 -0.2450
 8658SOL    HW237437   2.710   0.784   6.092 -1.8930  0.3049 -1.0576
 8659SOL     OW37438   4.628   2.360   6.509  0.0477 -0.0536  0.0430
 8659SOL    HW137439   4.679   2.310   6.445 -1.9954  0.0593 -1.6662
 8659SOL    HW237440   4.683   2.437   6.529  0.3497  0.0284 -1.1212
 8660SOL     OW37441   0.078   3.638   5.723  0.2614  0.4146 -0.4942
 8660SOL    HW137442   0.060   3.731   5.734 -1.3036 -0.0698  0.9571
 8660SOL    HW237443   0.076   3.609   5.814 -0.9691  0.8582 -0.3881
 8661SOL     OW37444   3.031   0.123   3.415 -0.3573  0.2738 -0.4423
 8661SOL    HW137445   3.102   0.126   3.479 -0.3551 -1.8771 -0.3268
 8661SOL    HW237446   3.045   0.042   3.366  1.1487  0.4816 -0.3537
 8662SOL     OW37447   3.471   3.229  11.397  0.0976 -0.2684  0.5913
 8662SOL    HW137448   3.394   3.237  11.342  0.4500 -0.9547 -0.0081
 8662SOL    HW237449   3.515   3.157  11.351  0.0316  0.6915 -0.9485
 8663SOL     OW37450   0.168   0.300   3.801  0.3685 -0.0212 -0.4552
 8663SOL    HW137451   0.166   0.376   3.860 -1.0369  0.5138 -1.1846
 8663SOL    HW237452   0.163   0.222   3.855  0.7204  1.3271  1.5448
 8664SOL     OW37453   2.335   0.820  12.595 -0.7006  0.2099 -0.5598
 8664SOL    HW137454   2.295   0.876  12.662 -0.7684 -0.4526 -0.0471
 8664SOL    HW237455   2.302   0.733  12.615  1.0214 -0.1668  0.7160
 8665SOL     OW37456   2.470   2.927  15.328 -0.8591  0.3297 -0.8234
 8665SOL    HW137457   2.503   2.838  15.317 -1.3595 -0.0598  0.8281
 8665SOL    HW237458   2.550   2.979  15.333  0.8000 -2.1229 -2.2085
 8666SOL     OW37459   0.348   3.459   6.473 -0.4419  0.3210  0.0392
 8666SOL    HW137460   0.360   3.398   6.545 -0.1856 -1.4658 -1.5200
 8666SOL    HW237461   0.311   3.531   6.525 -0.9565 -0.3580  0.6081
 8667SOL     OW37462   0.886   3.984   8.503 -0.3637 -0.2726  0.3917
 8667SOL    HW137463   0.938   4.054   8.541  0.9949 -0.6240 -0.8629
 8667SOL    HW237464   0.829   3.962   8.577 -0.6759 -2.5137 -0.4953
 8668SOL     OW37465   1.739   3.570   7.492 -0.2332 -0.0568  0.0276
 8668SOL    HW137466   1.671   3.532   7.437  0.3814 -0.4319 -0.4789
 8668SOL    HW237467   1.712   3.660   7.505 -2.5987 -0.7881  0.0563
 8669SOL     OW37468   3.299   2.466  12.662 -0.0614 -0.2440  0.1745
 8669SOL    HW137469   3.249   2.483  12.582  0.2242 -0.2590 -0.0070
 8669SOL    HW237470   3.265   2.541  12.710  0.8804 -0.1560  0.7043
 8670SOL     OW37471   4.088   2.343   4.781 -0.1816 -0.0911  0.0846
 8670SOL    HW137472   4.047   2.291   4.712  1.4340 -0.3198 -0.7116
 8670SOL    HW237473   4.019   2.332   4.846 -1.2656 -1.7830 -1.3388
 8671SOL     OW37474   0.913   4.265  13.405 -0.3119 -0.0996  0.0695
 8671SOL    HW137475   0.844   4.242  13.343  1.7642 -1.9110 -1.5757
 8671SOL    HW237476   0.990   4.235  13.356  0.0942 -1.1999  1.3750
 8672SOL     OW37477   2.076   4.686  16.422  0.1898 -0.1870 -0.0580
 8672SOL    HW137478   2.003   4.682  16.360 -0.0821  1.6307  0.1304
 8672SOL    HW237479   2.148   4.694  16.358  1.5152 -1.0468  1.3339
 8673SOL     OW37480   3.407   0.024   7.041 -0.1897 -0.7891 -0.2925
 8673SOL    HW137481   3.495   4.721   7.068 -0.2006  0.2153  0.7458
 8673SOL    HW237482   3.404   0.116   7.068 -0.7611 -0.8477 -0.1440
 8674SOL     OW37483   4.243   2.638  16.992  0.0988 -0.0060  0.3410
 8674SOL    HW137484   4.271   2.633  17.083  2.7609  0.7685 -0.4240
 8674SOL    HW237485   4.274   2.558  16.951  0.0058  1.1834 -2.0765
 8675SOL     OW37486   1.709   2.089   1.302  0.0580 -0.2185  0.3163
 8675SOL    HW137487   1.804   2.074   1.303  0.4745  2.4991 -0.3848
 8675SOL    HW237488   1.700   2.095   1.397  1.8885  3.7818  0.2063
 8676SOL     OW37489   4.608   3.976  11.043 -0.3537  0.2686  0.3986
 8676SOL    HW137490   4.524   3.932  11.053  0.2939 -0.8546  0.9161
 8676SOL    HW237491   4.660   3.934  11.111  0.3005 -1.6734 -1.2771
 8677SOL     OW37492   3.612   0.421  12.767 -0.4413  0.2799 -0.3591
 8677SOL    HW137493   3.565   0.484  12.713  0.3429  0.7533 -0.4939
 8677SOL    HW237494   3.583   0.436  12.857  0.7664  1.6600 -0.1986
 8678SOL     OW37495   0.767   1.921   1.921 -0.4744 -0.0088  0.2055
 8678SOL    HW137496   0.829   1.889   1.855 -1.5617 -0.0154 -0.8351
 8678SOL    HW237497   0.833   1.939   1.987  1.7909  0.7798 -2.2408
 8679SOL     OW37498   0.057   2.717   2.470 -0.2902 -0.0079  0.4116
 8679SOL    HW137499   0.028   2.726   2.380  1.0889 -2.2065 -0.2467
 8679SOL    HW237500   0.117   2.791   2.479  0.6440 -0.5782 -1.1712
 8680SOL     OW37501   2.565   3.897  15.799 -0.2398 -0.4616  0.0361
 8680SOL    HW137502   2.650   3.888  15.755 -0.1278 -1.3455  0.4288
 8680SOL    HW237503   2.510   3.864  15.728 -0.2561  0.1050 -0.2151
 8681SOL     OW37504   4.549   2.345  15.192 -0.1833  0.0335 -0.9169
 8681SOL    HW137505   4.491   2.269  15.185 -0.4310  0.2287 -0.9591
 8681SOL    HW237506   4.540   2.385  15.106  1.0134 -0.8579 -1.4744
 8682SOL     OW37507   1.911   2.545   4.446  0.3731 -0.5804 -0.0146
 8682SOL    HW137508   1.875   2.577   4.529 -0.3867 -0.4693 -0.3910
 8682SOL    HW237509   1.901   2.451   4.453 -0.6853 -0.5732 -1.4523
 8683SOL     OW37510   4.318   4.006   8.192  0.0645  0.3753 -0.4789
 8683SOL    HW137511   4.307   4.079   8.253 -0.5928 -0.3055  0.2257
 8683SOL    HW237512   4.269   3.935   8.234 -2.4245  1.1046 -2.1478
 8684SOL     OW37513   2.471   4.616  11.559  0.0445  0.6964 -0.0145
 8684SOL    HW137514   2.526   4.539  11.544 -1.2456 -0.5108  1.5288
 8684SOL    HW237515   2.493   4.635  11.650 -1.7537 -0.2224  0.6078
 8685SOL     OW37516   3.260   2.249   6.676  0.2636  0.1459 -0.4382
 8685SOL    HW137517   3.200   2.200   6.732  1.1007 -0.3391  0.0389
 8685SOL    HW237518   3.217   2.334   6.666  0.2891  0.3167  0.8584
 8686SOL     OW37519   3.459   0.800  15.711 -0.2185 -0.0180 -0.2993
 8686SOL    HW137520   3.506   0.808  15.794  1.8764  0.9700 -1.5821
 8686SOL    HW237521   3.515   0.739  15.664  0.5978  0.4445  0.0688
 8687SOL     OW37522   2.150   0.826   5.991  0.1119  0.4935  0.2839
 8687SOL    HW137523   2.114   0.742   5.961  2.3982 -0.8329  1.2409
 8687SOL    HW237524   2.074   0.866   6.032 -0.7370 -0.9521  0.1381
 8688SOL     OW37525   2.454   4.573   3.497  0.7454  0.0198 -0.3437
 8688SOL    HW137526   2.492   4.523   3.426  0.8338 -2.9153  1.7666
 8688SOL    HW237527   2.528   4.587   3.557 -1.4464  2.5547  1.7866
 8689SOL     OW37528   4.401   2.349  13.893 -0.0992 -0.0040 -0.5461
 8689SOL    HW137529   4.478   2.391  13.930 -1.3829  1.7080  0.1624
 8689SOL    HW237530   4.339   2.421  13.898  0.5005  0.2971  2.5124
 8690SOL     OW37531   2.378   3.040   9.477 -0.3336 -0.0108  0.3446
 8690SOL    HW137532   2.301   3.037   9.534 -0.0542  0.0717  0.7254
 8690SOL    HW237533   2.359   3.119   9.426  1.8809  0.7590  0.7252
 8691SOL     OW37534   1.001   2.825  13.774 -0.3014  0.0326 -0.0143
 8691SOL    HW137535   1.029   2.909  13.738 -0.8708  0.6315  0.9517
 8691SOL    HW237536   1.034   2.763  13.709 -3.8399 -0.0437 -1.7492
 8692SOL     OW37537   3.107   2.283  13.139  0.1279  0.1353  0.3947
 8692SOL    HW137538   3.022   2.239  13.137  1.4581 -2.3689 -0.2664
 8692SOL    HW237539   3.160   2.240  13.071  0.6235  0.2136  0.7327
 8693SOL     OW37540   1.503   4.604   9.630 -0.0905  0.0584 -0.1320
 8693SOL    HW137541   1.541   4.666   9.568  1.1624  0.8993  1.4876
 8693SOL    HW237542   1.580   4.557   9.663  1.6714  2.2359 -1.1485
 8694SOL     OW37543   1.415   2.726   5.434  0.0786 -0.5175  0.0595
 8694SOL    HW137544   1.377   2.727   5.346  1.8598 -0.5089 -0.7066
 8694SOL    HW237545   1.338   2.720   5.490 -0.0389 -1.0112 -0.1578
 8695SOL     OW37546   0.473   3.026   4.004  0.0669  0.0534 -0.5692
 8695SOL    HW137547   0.492   3.119   3.991  0.9610 -0.1143 -0.4103
 8695SOL    HW237548   0.423   3.027   4.086  1.7275  4.3829  0.4261
 8696SOL     OW37549   0.139   2.828   1.339 -0.0278  0.4588 -0.2465
 8696SOL    HW137550   0.088   2.861   1.265  2.2638  0.8112 -1.6715
 8696SOL    HW237551   0.071   2.793   1.396  1.5401  1.4574  2.2785
 8697SOL     OW37552   0.373   1.904   0.047  0.1007  0.7131 -0.3775
 8697SOL    HW137553   0.415   1.819   0.032 -1.5577 -0.1788 -0.0867
 8697SOL    HW237554   0.282   1.878   0.065  0.5302 -1.4018 -1.2435
 8698SOL     OW37555   2.638   1.626  14.515  0.2706  0.8456 -0.6128
 8698SOL    HW137556   2.706   1.634  14.448  1.4129 -1.4171  0.2998
 8698SOL    HW237557   2.689   1.600  14.591 -2.4449  2.3470  1.7160
 8699SOL     OW37558   1.949   0.319   4.161  0.0688 -0.5571  0.4703
 8699SOL    HW137559   1.940   0.410   4.187 -0.5266 -0.5496  0.2451
 8699SOL    HW237560   1.936   0.337   4.067  0.7431 -1.0751  0.2769
 8700SOL     OW37561   0.432   3.598  13.357 -0.3538 -0.4788  0.1208
 8700SOL    HW137562   0.520   3.582  13.391  0.9791 -0.3313 -3.1967
 8700SOL    HW237563   0.443   3.542  13.280  3.1502  0.1248  0.1572
 8701SOL     OW37564   2.752   1.939   9.140  0.5131 -0.7293  0.2908
 8701SOL    HW137565   2.758   1.847   9.167 -0.5489 -0.9142 -0.0770
 8701SOL    HW237566   2.769   1.934   9.046  0.5420 -0.1883  0.2664
 8702SOL     OW37567   3.821   4.417  12.905  0.3279 -0.4247  0.0704
 8702SOL    HW137568   3.872   4.471  12.966  1.2042 -0.1435 -0.9188
 8702SOL    HW237569   3.844   4.460  12.823 -1.7048 -0.6865 -0.6295
 8703SOL     OW37570   4.105   3.237  10.802  0.1812 -0.1664  0.1627
 8703SOL    HW137571   4.098   3.323  10.843 -1.1229  0.4624 -1.3936
 8703SOL    HW237572   4.140   3.195  10.880 -0.1581 -0.1076  0.3467
 8704SOL     OW37573   4.087   0.205   9.505 -0.2155  0.2472 -0.2469
 8704SOL    HW137574   4.106   0.124   9.458 -2.8891 -0.2651 -0.4218
 8704SOL    HW237575   4.171   0.226   9.547 -0.8641  0.6554  0.8287
 8705SOL     OW37576   1.134   1.980   3.693  0.4095 -0.2322  0.3627
 8705SOL    HW137577   1.204   2.031   3.651  0.8638 -0.7514  0.4805
 8705SOL    HW237578   1.124   2.023   3.778  0.0196 -0.2330  0.3170
 8706SOL     OW37579   1.752   1.104  10.907  0.7241  0.3675  0.3933
 8706SOL    HW137580   1.707   1.123  10.824  1.1418  0.5056  0.1958
 8706SOL    HW237581   1.830   1.089  10.853 -1.5281 -2.3488 -2.1671
 8707SOL     OW37582   3.419   2.167   7.126 -0.3460  0.3626  0.4945
 8707SOL    HW137583   3.348   2.214   7.169 -1.4853  0.3076 -1.3329
 8707SOL    HW237584   3.490   2.168   7.190  1.7769 -0.5208 -1.8578
 8708SOL     OW37585   2.632   3.184   3.202  0.3538 -0.0826  0.2348
 8708SOL    HW137586   2.538   3.200   3.198  0.4388  0.5032  0.5725
 8708SOL    HW237587   2.628   3.122   3.275  0.5235 -0.7294 -0.3021
 8709SOL     OW37588   4.688   4.673  13.376 -0.3405  0.2768 -0.0346
 8709SOL    HW137589   4.686   0.035  13.334  1.2984 -0.1573 -0.9827
 8709SOL    HW237590   4.722   4.700  13.461 -0.5237 -0.3372  0.2382
 8710SOL     OW37591   1.738   1.121   7.157 -0.0152  0.2488 -0.4769
 8710SOL    HW137592   1.643   1.119   7.149  0.1539 -2.1643 -1.8517
 8710SOL    HW237593   1.741   1.071   7.239  0.0503 -0.1985 -0.7538
 8711SOL     OW37594   4.372   0.624   2.723  0.3126  0.3281 -0.9833
 8711SOL    HW137595   4.426   0.701   2.738  0.5663  0.0785 -0.6184
 8711SOL    HW237596   4.385   0.583   2.809  2.0735  1.9757 -0.4854
 8712SOL     OW37597   4.433   3.493   9.610  0.9771  0.3203  0.5341
 8712SOL    HW137598   4.348   3.473   9.571  0.5438  1.4797  0.8712
 8712SOL    HW237599   4.498   3.489   9.540  1.8022  0.4206  1.2866
 8713SOL     OW37600   2.184   4.559   3.522 -0.0437  0.0191  0.2089
 8713SOL    HW137601   2.268   4.593   3.491  0.3755 -1.5902 -0.4621
 8713SOL    HW237602   2.216   4.536   3.609  2.4653 -1.8301 -1.1985
 8714SOL     OW37603   3.827   3.663   1.837 -0.6601  0.3439 -0.2886
 8714SOL    HW137604   3.903   3.707   1.876  0.5812  0.0863 -2.4148
 8714SOL    HW237605   3.851   3.671   1.744 -1.7103 -1.5341 -0.7209
 8715SOL     OW37606   3.486   1.442   4.376  0.1446 -0.3831  0.0609
 8715SOL    HW137607   3.502   1.421   4.284  1.1203  3.3455 -0.6529
 8715SOL    HW237608   3.421   1.378   4.404  1.3721 -1.1505  1.1279
 8716SOL     OW37609   1.728   2.716   6.636  0.0115 -0.0083  0.1489
 8716SOL    HW137610   1.683   2.756   6.562  0.4197 -2.3063 -1.3396
 8716SOL    HW237611   1.710   2.773   6.711 -0.4323  2.3069 -1.7077
 8717SOL     OW37612   0.393   2.331   1.329  0.1030 -0.1076 -0.6101
 8717SOL    HW137613   0.348   2.275   1.266  0.6215  0.5057 -1.5219
 8717SOL    HW237614   0.394   2.415   1.282 -1.9511 -1.1013 -2.4081
 8718SOL     OW37615   3.815   3.099   6.783 -0.2805 -0.2411  0.0860
 8718SOL    HW137616   3.788   3.178   6.830 -0.0286 -0.1557  0.0872
 8718SOL    HW237617   3.754   3.036   6.820 -1.2774  0.2033 -0.7889
 8719SOL     OW37618   0.863   4.368  14.475 -0.3770 -0.0494 -0.3038
 8719SOL    HW137619   0.880   4.450  14.430  0.1269  0.9303  1.6427
 8719SOL    HW237620   0.936   4.314  14.446 -0.2529 -0.9989  1.7501
 8720SOL     OW37621   0.767   1.980  10.019  0.6777  0.3202 -0.1602
 8720SOL    HW137622   0.832   1.984  10.089 -0.0309  0.8241  0.4715
 8720SOL    HW237623   0.824   1.988   9.943  2.8666 -1.0408  1.3123
 8721SOL     OW37624   3.728   1.821   9.090  0.1553  0.5237  0.8671
 8721SOL    HW137625   3.642   1.814   9.132 -0.8171 -1.3702 -1.4087
 8721SOL    HW237626   3.720   1.914   9.072  4.1773  0.6900 -0.1690
 8722SOL     OW37627   0.047   1.090   4.917  0.3289  0.2430  0.5852
 8722SOL    HW137628   0.064   1.035   4.840 -1.0986  0.3701  0.1801
 8722SOL    HW237629   0.137   1.085   4.950  0.0207  0.2433  1.4229
 8723SOL     OW37630   2.292   1.681   4.329 -0.1169 -0.5063  0.2209
 8723SOL    HW137631   2.245   1.716   4.253  2.1579  0.1352 -0.9257
 8723SOL    HW237632   2.252   1.595   4.331  0.4331 -0.6911  2.4034
 8724SOL     OW37633   2.113   1.329   8.189  0.3717 -0.0503  0.4085
 8724SOL    HW137634   2.043   1.344   8.126  0.6399  2.1292  0.6368
 8724SOL    HW237635   2.077   1.245   8.220 -1.6275 -0.0155 -1.8667
 8725SOL     OW37636   1.538   0.323   8.241  0.4001 -0.8103  0.4719
 8725SOL    HW137637   1.446   0.337   8.220  0.5147 -0.1928  0.3811
 8725SOL    HW237638   1.549   0.402   8.294 -0.0712 -1.5813  1.7119
 8726SOL     OW37639   1.963   0.903   5.679 -0.3828  0.2457  0.3493
 8726SOL    HW137640   1.961   0.947   5.764 -1.1320  1.2969 -0.2155
 8726SOL    HW237641   1.995   0.818   5.708 -0.9663  0.4821  1.6877
 8727SOL     OW37642   4.059   4.604   3.692  0.0210 -0.2688  0.0003
 8727SOL    HW137643   4.116   4.574   3.762 -0.2245 -1.1482 -0.1793
 8727SOL    HW237644   4.101   4.690   3.685 -1.1306  0.4542  2.0724
 8728SOL     OW37645   0.555   2.488   2.098 -0.1239  0.7390  0.2994
 8728SOL    HW137646   0.587   2.578   2.099  1.3045  0.2422 -1.2182
 8728SOL    HW237647   0.602   2.471   2.016  0.2862 -1.0466  0.8939
 8729SOL     OW37648   2.421   1.464   1.514  0.7622  0.6714  0.1432
 8729SOL    HW137649   2.387   1.546   1.550  0.8679  1.3685 -1.3385
 8729SOL    HW237650   2.337   1.419   1.511  0.2375  1.6368  0.1987
 8730SOL     OW37651   2.489   2.691   3.006 -0.7094 -0.3679  0.3788
 8730SOL    HW137652   2.539   2.734   3.076  2.0221  0.7655 -2.2606
 8730SOL    HW237653   2.467   2.764   2.948 -1.7309 -1.9199 -1.1779
 8731SOL     OW37654   3.005   4.482   9.144 -0.2305  0.5605  0.2291
 8731SOL    HW137655   3.083   4.490   9.199  0.7377 -1.9151 -0.7614
 8731SOL    HW237656   2.933   4.489   9.206  0.0944  0.3612  0.6265
 8732SOL     OW37657   1.614   4.536   7.814 -0.0956  0.2055  0.1087
 8732SOL    HW137658   1.667   4.588   7.874  0.4196 -1.3680  1.0438
 8732SOL    HW237659   1.624   4.449   7.853 -1.8118 -0.1700 -0.2877
 8733SOL     OW37660   0.986   0.128   3.030 -0.3251  0.0427  0.7283
 8733SOL    HW137661   1.027   0.200   3.077  2.0078 -0.8860  0.1191
 8733SOL    HW237662   0.933   0.102   3.105  0.6099 -0.8008  1.0951
 8734SOL     OW37663   1.685   0.416   0.670 -0.6116  0.3158 -0.4344
 8734SOL    HW137664   1.636   0.495   0.691  2.4238  2.2622 -0.8616
 8734SOL    HW237665   1.617   0.360   0.632 -0.6266  0.0852 -0.0754
 8735SOL     OW37666   4.160   0.873   8.013  0.0910 -0.5997  0.3195
 8735SOL    HW137667   4.192   0.794   7.971 -1.0635 -0.5841 -0.5993
 8735SOL    HW237668   4.242   0.923   8.011 -1.0014  1.2079  0.1442
 8736SOL     OW37669   3.327   3.448   8.048  0.2518  0.5733  0.0897
 8736SOL    HW137670   3.303   3.487   7.964 -0.0681  1.9588  0.8240
 8736SOL    HW237671   3.331   3.353   8.045  0.6216  0.6430 -1.3380
 8737SOL     OW37672   4.634   4.621   5.449  0.7500 -0.1754 -0.5313
 8737SOL    HW137673   4.673   4.656   5.529  0.9288  0.4198 -0.8803
 8737SOL    HW237674   4.701   4.555   5.428 -0.0404 -1.3515  0.6755
 8738SOL     OW37675   3.596   1.983   5.941 -0.5330 -0.4086 -0.5220
 8738SOL    HW137676   3.562   2.028   6.019  0.3812  0.3476 -0.5597
 8738SOL    HW237677   3.618   2.061   5.889 -0.3669  0.7868  1.3149
 8739SOL     OW37678   2.441   1.310  12.902  0.2556 -0.5639  0.0690
 8739SOL    HW137679   2.486   1.380  12.854 -0.2072 -1.8173 -2.1493
 8739SOL    HW237680   2.386   1.357  12.965  0.8953 -0.1495  0.3233
 8740SOL     OW37681   0.229   2.071   2.115  0.5106 -0.5849 -0.0026
 8740SOL    HW137682   0.272   2.150   2.083 -0.0743  0.7353  2.3910
 8740SOL    HW237683   0.256   2.007   2.050 -0.5375  0.3268 -1.3422
 8741SOL     OW37684   2.237   2.748   6.387  0.8100  0.5767  0.0962
 8741SOL    HW137685   2.319   2.782   6.352  0.5810  0.3312 -0.6935
 8741SOL    HW237686   2.238   2.801   6.467 -0.9715  2.0140 -0.8119
 8742SOL     OW37687   3.449   3.281   1.272  0.3291 -0.3708 -0.0613
 8742SOL    HW137688   3.404   3.353   1.316  1.7602  0.4692  0.0063
 8742SOL    HW237689   3.374   3.248   1.222 -0.3810  1.1210  0.0099
 8743SOL     OW37690   3.139   2.325   5.366 -0.1722  0.0124 -0.1610
 8743SOL    HW137691   3.072   2.310   5.433  0.3684  1.3621  0.6779
 8743SOL    HW237692   3.214   2.357   5.416  1.0672 -2.2456 -0.6179
 8744SOL     OW37693   2.347   2.713  12.374  0.4497  0.4357  0.3651
 8744SOL    HW137694   2.338   2.626  12.411  0.3154  0.4391  0.3426
 8744SOL    HW237695   2.300   2.702  12.292 -3.1422  0.6196  2.3805
 8745SOL     OW37696   4.356   3.692   1.104 -0.7654  0.2048 -0.3265
 8745SOL    HW137697   4.363   3.628   1.033  0.4589 -0.9840  0.8617
 8745SOL    HW237698   4.285   3.753   1.085  0.1678  1.5041  0.4101
 8746SOL     OW37699   3.404   1.977   6.448 -0.6508 -0.9968 -0.0133
 8746SOL    HW137700   3.440   2.065   6.442 -3.6269  0.2244 -0.0488
 8746SOL    HW237701   3.405   1.954   6.355 -1.4463  3.3933 -1.0879
 8747SOL     OW37702   2.907   2.600  13.780  0.3203 -0.5473 -0.5982
 8747SOL    HW137703   2.959   2.563  13.709  2.0096 -1.6143  1.1921
 8747SOL    HW237704   2.906   2.521  13.834  6.4589  0.7199  1.2997
 8748SOL     OW37705   3.609   2.632  14.541  0.5676  0.6885 -0.4416
 8748SOL    HW137706   3.519   2.604  14.526  1.0393 -1.8926  1.3829
 8748SOL    HW237707   3.629   2.591  14.625 -0.9469  0.2211 -0.3144
 8749SOL     OW37708   1.468   0.949   6.744  0.1507 -0.3688  0.0728
 8749SOL    HW137709   1.556   0.928   6.775  0.2089 -0.6602 -0.2898
 8749SOL    HW237710   1.441   0.870   6.698 -1.4442 -0.4540  1.1375
 8750SOL     OW37711   0.633   3.134  13.037  0.3369 -0.1504 -0.3199
 8750SOL    HW137712   0.599   3.080  13.108  0.4307 -1.1217 -1.0104
 8750SOL    HW237713   0.650   3.061  12.977  0.2261 -0.3392 -0.1222
 8751SOL     OW37714   4.107   2.808   2.856 -0.4597 -0.6260  0.3418
 8751SOL    HW137715   4.118   2.887   2.803 -2.2308 -0.3834  0.3351
 8751SOL    HW237716   4.129   2.740   2.792 -0.2733  0.6937 -0.9969
 8752SOL     OW37717   3.264   2.713  10.750 -0.5289 -0.5648  0.1468
 8752SOL    HW137718   3.313   2.715  10.832  1.1005  1.3218 -0.8802
 8752SOL    HW237719   3.262   2.617  10.746 -1.0099 -0.6476  2.3132
 8753SOL     OW37720   2.180   1.086   6.971  0.5976 -0.4053  0.4368
 8753SOL    HW137721   2.192   1.079   7.066 -0.5008 -0.5780  0.5580
 8753SOL    HW237722   2.237   1.162   6.957  0.9628 -1.2081 -2.3052
 8754SOL     OW37723   1.737   2.423   6.830 -0.5644  0.1461 -0.2687
 8754SOL    HW137724   1.728   2.404   6.737  0.3349 -0.7155 -0.1779
 8754SOL    HW237725   1.648   2.421   6.863 -0.7887  0.3140 -0.8633
 8755SOL     OW37726   3.343   1.178   1.896  0.2805 -0.2203 -0.3656
 8755SOL    HW137727   3.385   1.248   1.847 -1.0189  0.6920 -0.1816
 8755SOL    HW237728   3.253   1.185   1.863  0.3030  2.6383  0.2009
 8756SOL     OW37729   0.502   1.886   3.952 -0.0140 -0.2322  0.3012
 8756SOL    HW137730   0.495   1.973   3.914 -1.0010 -0.8495 -0.9384
 8756SOL    HW237731   0.515   1.830   3.875 -1.8729 -0.2478 -0.0033
 8757SOL     OW37732   0.877   2.372   5.712 -0.3477  0.2997  0.1600
 8757SOL    HW137733   0.944   2.430   5.748 -0.5025  1.0454 -0.7617
 8757SOL    HW237734   0.876   2.414   5.626 -0.0213 -0.1559 -0.0664
 8758SOL     OW37735   1.131   0.828   6.234 -0.5359  0.0960  0.0929
 8758SOL    HW137736   1.106   0.914   6.201  2.3767  1.3829  1.2787
 8758SOL    HW237737   1.045   0.806   6.269 -1.0362  1.3416 -0.3505
 8759SOL     OW37738   4.675   2.356   2.666  0.3518 -0.0632  0.2766
 8759SOL    HW137739   0.023   2.406   2.705 -0.5036  0.1367  1.6251
 8759SOL    HW237740   4.619   2.348   2.744  0.0652  0.6111  0.1368
 8760SOL     OW37741   2.710   2.054   4.659  0.0944  0.2972  0.2652
 8760SOL    HW137742   2.657   2.077   4.582 -1.9492 -1.1641  1.2558
 8760SOL    HW237743   2.673   2.105   4.731 -0.3347  0.6460 -0.1922
 8761SOL     OW37744   1.010   2.191  16.269 -0.2678 -0.1691 -0.1473
 8761SOL    HW137745   1.045   2.114  16.314  0.3867  0.2118 -0.0068
 8761SOL    HW237746   0.921   2.183  16.305 -0.4912 -0.4672 -0.7577
 8762SOL     OW37747   2.717   1.379   8.604 -0.0135  0.5247 -0.1043
 8762SOL    HW137748   2.787   1.315   8.593 -1.4048 -0.8489 -0.9835
 8762SOL    HW237749   2.749   1.447   8.544  1.2528 -3.2083 -3.6675
 8763SOL     OW37750   0.242   2.536   4.071  0.1762 -0.5907 -0.0175
 8763SOL    HW137751   0.168   2.476   4.064 -0.7630  0.6305 -0.5458
 8763SOL    HW237752   0.226   2.570   4.159  2.0731 -0.6700  0.3557
 8764SOL     OW37753   3.348   1.548  11.228  0.3044  0.1412  0.4422
 8764SOL    HW137754   3.259   1.569  11.258  0.6804  1.8525  0.3752
 8764SOL    HW237755   3.402   1.577  11.301  1.6693  1.7159 -1.1932
 8765SOL     OW37756   4.060   1.208   0.345 -0.2001 -0.0393  0.1923
 8765SOL    HW137757   4.035   1.187   0.254 -0.5347 -3.5280  1.0826
 8765SOL    HW237758   4.124   1.279   0.334  1.7343 -2.0309 -1.4177
 8766SOL     OW37759   3.502   1.405   2.262 -0.6852 -0.1963 -0.4362
 8766SOL    HW137760   3.498   1.409   2.166  2.2305 -0.0935 -0.5562
 8766SOL    HW237761   3.577   1.348   2.281 -1.3806 -1.3270 -1.0689
 8767SOL     OW37762   1.002   2.401   9.170  0.0666 -0.2689  0.2988
 8767SOL    HW137763   1.018   2.315   9.209 -0.0179 -0.4654 -0.0953
 8767SOL    HW237764   0.906   2.408   9.168  0.1495  1.0057  0.9250
 8768SOL     OW37765   3.465   0.644   8.093 -0.0967 -0.4150  0.2804
 8768SOL    HW137766   3.529   0.575   8.073 -0.5401 -0.5322 -0.7308
 8768SOL    HW237767   3.477   0.655   8.187  0.9482 -0.8283  0.2013
 8769SOL     OW37768   3.642   2.605   2.773 -0.5011  0.4030 -0.1640
 8769SOL    HW137769   3.700   2.590   2.847  1.3530  2.0511 -1.2835
 8769SOL    HW237770   3.568   2.647   2.818 -0.8247  1.4605 -1.6745
 8770SOL     OW37771   1.188   0.767  10.774 -0.1591  0.6493 -0.1027
 8770SOL    HW137772   1.225   0.699  10.718 -1.1062 -0.8091  1.0655
 8770SOL    HW237773   1.246   0.759  10.849 -0.9200  1.9346  0.6285
 8771SOL     OW37774   2.019   1.818   9.735  0.2374  0.3924  0.8873
 8771SOL    HW137775   2.060   1.806   9.820  3.5606  2.1678 -0.4775
 8771SOL    HW237776   1.945   1.761   9.754 -0.7457  1.8266  1.4309
 8772SOL     OW37777   3.086   1.230   5.863 -0.7764 -0.3996 -0.5643
 8772SOL    HW137778   3.124   1.312   5.831 -0.8371 -0.4842 -0.8569
 8772SOL    HW237779   3.029   1.264   5.932 -1.9794 -1.3718 -1.0776
 8773SOL     OW37780   4.630   0.376   7.267 -0.0643 -0.3697 -0.2856
 8773SOL    HW137781   4.716   0.398   7.229  0.0931  0.0912  0.3385
 8773SOL    HW237782   4.642   0.286   7.298  2.1305 -0.4253 -1.2461
 8774SOL     OW37783   3.855   0.824   3.134 -0.1922 -0.0580  0.3219
 8774SOL    HW137784   3.791   0.878   3.088  1.8904  1.7182 -0.4402
 8774SOL    HW237785   3.826   0.842   3.223  1.9298 -2.1519  1.4491
 8775SOL     OW37786   1.873   3.791   2.557  0.0533 -0.2063 -0.2487
 8775SOL    HW137787   1.851   3.877   2.592  3.6691  0.6302 -0.0366
 8775SOL    HW237788   1.950   3.781   2.613  1.6151 -1.5532 -2.5863
 8776SOL     OW37789   0.306   2.991  15.847 -0.2645  0.4021 -0.1944
 8776SOL    HW137790   0.337   3.021  15.762  2.1004  1.5163  1.0600
 8776SOL    HW237791   0.345   2.905  15.864 -0.4696  0.3726  0.1213
 8777SOL     OW37792   0.157   3.977   3.780  0.4804  0.0464 -0.1954
 8777SOL    HW137793   0.243   3.954   3.745  0.1128  0.4439 -1.3473
 8777SOL    HW237794   0.092   3.917   3.745 -1.0210  2.3323 -1.2984
 8778SOL     OW37795   0.186   4.444   4.217 -0.2227  0.8552  0.0573
 8778SOL    HW137796   0.164   4.356   4.247  2.0453  0.1361 -0.3630
 8778SOL    HW237797   0.253   4.422   4.153 -2.2590 -0.7034 -1.5342
 8779SOL     OW37798   0.722   1.203  15.855  0.4623  0.1740  0.3738
 8779SOL    HW137799   0.738   1.143  15.782  2.1389  1.4234 -0.2838
 8779SOL    HW237800   0.638   1.249  15.848 -0.4011 -1.8646 -2.4921
 8780SOL     OW37801   2.894   2.388  14.803 -0.1540  0.1374  0.2527
 8780SOL    HW137802   2.844   2.468  14.789  0.2156  0.6265  1.7464
 8780SOL    HW237803   2.969   2.426  14.848  0.8356  0.5989 -1.7750
 8781SOL     OW37804   3.939   3.624   2.293  0.4388  0.1077 -0.0925
 8781SOL    HW137805   3.906   3.534   2.303 -1.0962  0.6821 -0.0350
 8781SOL    HW237806   4.004   3.607   2.225  1.0047 -3.6111  1.3653
 8782SOL     OW37807   2.560   4.237  17.553 -0.0307  0.3591  0.1347
 8782SOL    HW137808   2.629   4.287  17.597  0.4994 -1.0097  0.8312
 8782SOL    HW237809   2.613   4.168  17.514  1.5001  2.2511 -1.1716
 8783SOL     OW37810   3.972   3.742   6.542  0.2995  0.2876  0.2522
 8783SOL    HW137811   4.049   3.789   6.513  0.8757 -0.2217  0.9479
 8783SOL    HW237812   3.947   3.794   6.618  2.0964  0.0331  1.0078
 8784SOL     OW37813   2.772   4.029  13.763 -0.1613 -0.4120 -0.8982
 8784SOL    HW137814   2.745   4.034  13.671 -1.6435 -2.3584 -0.5558
 8784SOL    HW237815   2.687   4.012  13.802 -0.6582  2.4378 -0.7030
 8785SOL     OW37816   3.188   3.635  12.418  0.3588  0.1851  0.7551
 8785SOL    HW137817   3.154   3.637  12.328 -2.0852 -0.1474  1.6712
 8785SOL    HW237818   3.103   3.630  12.462  1.1666  0.3682  2.3116
 8786SOL     OW37819   0.927   1.796   9.096  0.3337 -0.2776  0.2534
 8786SOL    HW137820   0.924   1.749   9.179 -1.4267 -0.7174 -0.0584
 8786SOL    HW237821   0.837   1.827   9.089 -0.0914 -2.0062 -2.2396
 8787SOL     OW37822   3.190   4.233   4.051  0.1961  0.5717 -0.5608
 8787SOL    HW137823   3.157   4.322   4.066 -0.5707  0.2957 -0.5823
 8787SOL    HW237824   3.167   4.214   3.960 -1.7786 -0.6607  0.1918
 8788SOL     OW37825   3.781   3.361   3.779  0.9242 -0.5020 -0.2601
 8788SOL    HW137826   3.752   3.328   3.694  0.3090 -0.5004 -0.0524
 8788SOL    HW237827   3.872   3.332   3.786 -0.0182 -3.6964 -1.2171
 8789SOL     OW37828   2.489   1.094  10.127 -0.7832 -0.6603 -0.2629
 8789SOL    HW137829   2.582   1.116  10.133 -0.4729 -2.3721  1.2642
 8789SOL    HW237830   2.491   1.001  10.101 -1.6113 -0.9868  0.8329
 8790SOL     OW37831   4.646   1.342   3.825  0.0710  0.7086 -0.3120
 8790SOL    HW137832   4.608   1.428   3.840 -0.2802  0.4663  0.2141
 8790SOL    HW237833   4.595   1.297   3.893  1.4124  0.8136  0.7655
 8791SOL     OW37834   4.213   3.459   6.710 -0.0077 -0.0901  0.0220
 8791SOL    HW137835   4.283   3.502   6.661 -0.7706  1.1108 -0.0135
 8791SOL    HW237836   4.251   3.371   6.702  0.0252  0.0240 -1.1794
 8792SOL     OW37837   0.878   1.513   4.008 -1.0979  0.8155 -0.1579
 8792SOL    HW137838   0.783   1.523   4.005 -1.1558  0.1826 -0.4037
 8792SOL    HW237839   0.905   1.577   3.942  0.2051 -0.4341 -0.8387
 8793SOL     OW37840   1.754   3.446   0.081  0.7328  0.6289 -0.4991
 8793SOL    HW137841   1.820   3.378   0.067 -1.5311 -1.5010 -0.7365
 8793SOL    HW237842   1.761   3.503   0.004 -1.5707  1.0746 -0.3856
 8794SOL     OW37843   2.360   1.105   6.121 -0.2616  0.0321 -0.1266
 8794SOL    HW137844   2.377   1.012   6.107  2.0263  0.5253 -0.6366
 8794SOL    HW237845   2.310   1.093   6.201 -0.1228 -0.1406 -0.0664
 8795SOL     OW37846   2.676   3.938  11.620 -0.1492  0.0443  0.5156
 8795SOL    HW137847   2.705   4.028  11.601  1.5370 -0.6266 -0.1421
 8795SOL    HW237848   2.676   3.938  11.715  1.2905  1.2309  0.5260
 8796SOL     OW37849   1.138   1.837   2.741 -0.1613 -0.0308 -0.2462
 8796SOL    HW137850   1.087   1.901   2.690  0.8052  0.6211 -0.3989
 8796SOL    HW237851   1.182   1.788   2.672  0.1669 -0.5030  0.3051
 8797SOL     OW37852   0.551   0.686   0.387  0.2399 -0.4299  0.3840
 8797SOL    HW137853   0.646   0.670   0.383  0.4884  0.5166  2.2179
 8797SOL    HW237854   0.537   0.667   0.479 -1.0131 -2.2413 -0.1917
 8798SOL     OW37855   1.776   1.521   2.459 -0.2453 -0.5316 -0.4637
 8798SOL    HW137856   1.817   1.470   2.528 -1.4240  0.0731  0.6940
 8798SOL    HW237857   1.729   1.591   2.505  1.5858  1.2097 -1.2189
 8799SOL     OW37858   2.018   0.109  12.911 -0.7729 -0.6286 -0.1944
 8799SOL    HW137859   2.074   0.055  12.854 -0.2263 -0.0000 -0.2458
 8799SOL    HW237860   2.072   0.181  12.943 -1.6219 -0.9820  1.9761
 8800SOL     OW37861   1.844   4.475   7.048  0.5646  0.4131  0.2090
 8800SOL    HW137862   1.882   4.555   7.082 -1.1303  1.4712 -0.4075
 8800SOL    HW237863   1.844   4.494   6.954  0.0357  0.1216  0.1524
 8801SOL     OW37864   1.163   1.072   9.047  0.1360  0.5270  0.3564
 8801SOL    HW137865   1.204   1.156   9.067  0.6681  0.0240  1.3702
 8801SOL    HW237866   1.077   1.084   9.088  0.7361  1.4043  1.3778
 8802SOL     OW37867   2.033   0.622   6.228  0.5558 -0.3446  0.5779
 8802SOL    HW137868   1.998   0.594   6.313 -0.9496  1.0174  0.4140
 8802SOL    HW237869   2.123   0.648   6.249  0.3980  0.2113  0.5836
 8803SOL     OW37870   4.463   2.806   7.595 -0.2649 -0.3352  0.3864
 8803SOL    HW137871   4.414   2.762   7.664 -0.7008 -0.6640 -0.1392
 8803SOL    HW237872   4.525   2.737   7.568 -1.5297 -1.2649 -0.1148
 8804SOL     OW37873   1.863   3.783   8.491  0.2950  0.3100  0.2865
 8804SOL    HW137874   1.810   3.853   8.530  0.0110  0.3275 -0.1323
 8804SOL    HW237875   1.931   3.844   8.461 -0.2873  0.6209 -0.4028
 8805SOL     OW37876   2.106   4.710   1.239 -0.1697 -0.3649 -0.1237
 8805SOL    HW137877   2.109   0.053   1.171  3.0331 -2.6819 -2.2767
 8805SOL    HW237878   2.052   4.641   1.199 -0.3070 -0.4358  0.1826
 8806SOL     OW37879   2.825   2.690  17.553 -0.7296  0.1290 -0.4154
 8806SOL    HW137880   2.787   2.697  17.466  0.0918 -1.2016 -0.8722
 8806SOL    HW237881   2.915   2.673  17.525 -0.4831  0.6240  0.0736
 8807SOL     OW37882   3.835   4.719   7.213 -0.6459 -0.0838 -0.0181
 8807SOL    HW137883   3.907   0.037   7.260 -0.9926 -0.2096  0.6207
 8807SOL    HW237884   3.760   0.023   7.265 -0.0058  0.3288  0.6891
 8808SOL     OW37885   2.829   1.513   5.025 -0.1525 -0.2907 -0.5368
 8808SOL    HW137886   2.859   1.601   5.049  0.8967  0.0208 -3.0235
 8808SOL    HW237887   2.869   1.492   4.941  0.5290 -0.3454 -0.1953
 8809SOL     OW37888   1.779   2.454   0.755  0.3433  0.3871 -0.5070
 8809SOL    HW137889   1.831   2.452   0.836 -0.4266  1.1432  0.0115
 8809SOL    HW237890   1.789   2.548   0.741  1.2012  0.0675 -2.0102
 8810SOL     OW37891   2.924   2.141   5.842  0.1424  0.1790 -0.3906
 8810SOL    HW137892   2.940   2.229   5.876  1.8390 -0.3271  0.1170
 8810SOL    HW237893   2.997   2.089   5.875 -1.2904 -2.1280 -0.8319
 8811SOL     OW37894   0.522   1.850   8.340 -0.0970 -0.3483  0.0696
 8811SOL    HW137895   0.563   1.836   8.425  1.1790  2.3219 -0.1065
 8811SOL    HW237896   0.458   1.917   8.362  0.5067  0.2876 -0.1038
 8812SOL     OW37897   2.727   2.511   0.033 -0.0089 -0.2825 -0.7848
 8812SOL    HW137898   2.783   2.567  17.676  1.3716  1.0351  1.9542
 8812SOL    HW237899   2.652   2.488  17.677 -1.7662 -0.5397  1.7926
 8813SOL     OW37900   0.088   2.045   8.250 -0.4133  0.0761 -0.1675
 8813SOL    HW137901   0.068   2.076   8.162  0.4681 -0.4745 -0.5654
 8813SOL    HW237902   0.018   1.982   8.265  0.0973  0.0516  2.1142
 8814SOL     OW37903   0.589   2.285  16.164 -0.6607  0.7641 -0.0929
 8814SOL    HW137904   0.599   2.281  16.069 -0.7378  0.1293 -0.0754
 8814SOL    HW237905   0.519   2.220  16.167  0.2464 -0.2467 -0.6270
 8815SOL     OW37906   3.229   1.205   2.626 -0.0761  0.3179 -0.1076
 8815SOL    HW137907   3.239   1.256   2.545  0.4401  2.4870  1.3107
 8815SOL    HW237908   3.134   1.212   2.635 -0.1273  2.7318 -2.4822
 8816SOL     OW37909   3.153   2.048   6.527 -0.5982 -0.2502  0.7243
 8816SOL    HW137910   3.164   2.136   6.564 -2.6156  0.7948 -1.1582
 8816SOL    HW237911   3.240   2.023   6.496  0.6784  2.0942  2.3333
 8817SOL     OW37912   4.609   2.094   0.202  0.3743 -0.4218 -0.0677
 8817SOL    HW137913   4.648   2.182   0.192  2.9320 -1.4608  0.7833
 8817SOL    HW237914   4.681   2.046   0.243  1.5576  0.8344 -0.6580
 8818SOL     OW37915   4.313   4.288   2.750  0.9490 -0.3077 -0.1648
 8818SOL    HW137916   4.393   4.239   2.732  0.0917 -0.6223 -3.1023
 8818SOL    HW237917   4.342   4.371   2.789  0.1252 -1.5210  3.0277
 8819SOL     OW37918   4.358   1.204  11.836  0.4182  0.8475  0.4167
 8819SOL    HW137919   4.429   1.193  11.774  0.6946 -0.7775  1.0318
 8819SOL    HW237920   4.302   1.267  11.790  1.3756  0.2976 -1.4876
 8820SOL     OW37921   4.255   0.973  12.446  0.6083 -0.4383 -0.4340
 8820SOL    HW137922   4.287   0.910  12.511  0.5849  0.2332  0.2304
 8820SOL    HW237923   4.195   1.027  12.498  0.2127 -2.1132  0.8340
 8821SOL     OW37924   2.199   0.365   7.139  0.7076 -0.1644 -0.1583
 8821SOL    HW137925   2.141   0.425   7.185 -0.1810 -1.0800 -0.0799
 8821SOL    HW237926   2.144   0.292   7.110  0.9554  0.2150 -1.5456
 8822SOL     OW37927   1.863   4.110   3.448 -0.1397 -0.5339 -0.1986
 8822SOL    HW137928   1.878   4.061   3.529  2.1584 -0.3190 -0.4906
 8822SOL    HW237929   1.828   4.193   3.482  1.8879  0.2679 -0.0662
 8823SOL     OW37930   2.029   4.394  10.453  0.2088  0.3234  0.0401
 8823SOL    HW137931   1.953   4.416  10.507 -0.6355 -2.0241 -0.1789
 8823SOL    HW237932   2.024   4.299  10.440 -2.5533  0.5364 -0.4912
 8824SOL     OW37933   3.329   0.643  16.377 -0.0735 -0.3131 -0.4364
 8824SOL    HW137934   3.241   0.608  16.370  0.8850 -2.6871 -0.3910
 8824SOL    HW237935   3.378   0.562  16.364 -0.2133 -0.3867 -0.4911
 8825SOL     OW37936   2.101   2.763  14.449 -0.0296  0.1719 -0.0734
 8825SOL    HW137937   2.174   2.805  14.402 -0.3109 -0.5659 -1.1582
 8825SOL    HW237938   2.055   2.711  14.383  0.3785  1.0484 -1.0542
 8826SOL     OW37939   1.497   3.994   8.925 -1.1287  0.1573 -0.2332
 8826SOL    HW137940   1.521   3.935   8.996  3.1851 -0.2123 -2.0120
 8826SOL    HW237941   1.575   4.045   8.904 -1.1857  0.3053 -0.0871
 8827SOL     OW37942   1.117   1.793  13.705 -0.0617 -0.0904  0.1390
 8827SOL    HW137943   1.148   1.704  13.688  2.8859  1.0615 -0.4955
 8827SOL    HW237944   1.031   1.770  13.740  0.0706  0.5916  0.9165
 8828SOL     OW37945   4.711   1.526   4.550  0.5765  0.8980 -0.0191
 8828SOL    HW137946   0.076   1.492   4.561  1.4140  3.4411  1.0804
 8828SOL    HW237947   4.683   1.529   4.641 -1.6895  2.7035 -0.7949
 8829SOL     OW37948   0.738   2.817  16.734 -0.4226 -0.1431 -0.0692
 8829SOL    HW137949   0.666   2.805  16.796  0.7828 -1.1130  1.1248
 8829SOL    HW237950   0.740   2.731  16.693  0.9626 -0.2647  0.2328
 8830SOL     OW37951   4.164   1.910   1.782 -0.1547  0.2916 -0.2809
 8830SOL    HW137952   4.176   1.852   1.857  1.3442  0.8358 -0.1063
 8830SOL    HW237953   4.238   1.873   1.734  0.2296  1.9635 -0.9509
 8831SOL     OW37954   0.673   2.538   2.827 -0.4710 -0.0837  0.1372
 8831SOL    HW137955   0.630   2.531   2.742  1.6568  1.1602 -1.0427
 8831SOL    HW237956   0.725   2.459   2.828  1.5820  1.2585 -1.4145
 8832SOL     OW37957   3.193   1.659   4.724  0.3823  0.2116 -0.0540
 8832SOL    HW137958   3.200   1.754   4.711  0.3701  0.4415  1.6934
 8832SOL    HW237959   3.279   1.640   4.762  0.8527  0.3644 -1.0377
 8833SOL     OW37960   0.090   1.307  11.370  0.5275  0.2167 -0.2980
 8833SOL    HW137961   0.026   1.342  11.432 -0.2213 -1.4569 -0.1258
 8833SOL    HW237962   0.049   1.226  11.339 -1.3031  0.2790  1.8837
 8834SOL     OW37963   0.141   2.760  16.809 -1.0935  0.1668  0.6632
 8834SOL    HW137964   0.145   2.844  16.765  0.7781  0.3428  1.1629
 8834SOL    HW237965   0.135   2.783  16.902 -0.0126 -2.0252  1.2849
 8835SOL     OW37966   0.416   0.530   3.794 -0.4298  0.0245 -0.1556
 8835SOL    HW137967   0.493   0.481   3.766 -0.8393 -0.2891 -0.7553
 8835SOL    HW237968   0.374   0.544   3.709  2.7593  0.9166 -1.5617
 8836SOL     OW37969   2.599   3.237   8.211 -0.2308  0.4702 -0.0386
 8836SOL    HW137970   2.617   3.221   8.119  1.1220 -1.0368  0.4839
 8836SOL    HW237971   2.555   3.154   8.231 -0.2688  1.0176  2.1336
 8837SOL     OW37972   2.541   2.500   2.830 -0.0152  0.2059 -0.1685
 8837SOL    HW137973   2.522   2.560   2.902  0.2229 -0.2211  0.2505
 8837SOL    HW237974   2.564   2.421   2.880 -1.8755  0.5493  1.2393
 8838SOL     OW37975   4.019   4.566   6.044 -0.4649  0.1927  0.0949
 8838SOL    HW137976   4.053   4.504   5.979  2.0160  2.8951 -1.1816
 8838SOL    HW237977   3.933   4.593   6.012 -1.0270 -0.7036  0.8441
 8839SOL     OW37978   0.394   1.285   8.422 -0.1072 -0.4847 -0.9383
 8839SOL    HW137979   0.429   1.196   8.431 -0.7093 -0.7310 -1.0376
 8839SOL    HW237980   0.412   1.305   8.330  0.9186  1.5624 -0.2861
 8840SOL     OW37981   0.641   1.760   4.555  0.1137 -0.2349 -0.0156
 8840SOL    HW137982   0.617   1.669   4.573  0.4186 -0.5477 -1.1814
 8840SOL    HW237983   0.736   1.749   4.556  0.4510  2.7809  1.1209
 8841SOL     OW37984   1.885   1.852   8.833 -0.0919 -0.0042 -0.3050
 8841SOL    HW137985   1.974   1.823   8.856 -0.9376 -2.5622 -0.3186
 8841SOL    HW237986   1.894   1.948   8.837 -1.6523  0.1852 -1.4420
 8842SOL     OW37987   1.946   2.019   3.815  0.2572 -0.8428 -0.5509
 8842SOL    HW137988   1.908   2.079   3.751 -1.6118 -0.3237  1.0494
 8842SOL    HW237989   1.911   1.935   3.788 -1.3274 -1.1491  2.3883
 8843SOL     OW37990   2.701   3.142   5.670  0.2707  0.2653  0.0324
 8843SOL    HW137991   2.622   3.195   5.665  0.0386 -0.2200 -1.6198
 8843SOL    HW237992   2.715   3.133   5.576 -0.9953  2.1730 -0.3277
 8844SOL     OW37993   1.276   4.666   2.398 -0.5724 -0.0548  0.8323
 8844SOL    HW137994   1.198   4.720   2.391 -1.5701 -1.7539 -1.4054
 8844SOL    HW237995   1.262   4.609   2.322  0.9722  2.2413 -1.1737
 8845SOL     OW37996   4.115   4.681   2.501 -0.1267  0.1858  0.7171
 8845SOL    HW137997   4.096   4.691   2.408 -0.2244  0.9766  0.8301
 8845SOL    HW237998   4.103   0.046   2.532 -0.6217  1.1979 -2.3936
 8846SOL     OW37999   4.365   1.637   2.670 -0.0969  0.0970 -0.9487
 8846SOL    HW138000   4.319   1.608   2.748  3.2023  1.1437  1.3736
 8846SOL    HW238001   4.294   1.639   2.607 -0.4010  0.1948 -0.5988
 8847SOL     OW38002   1.343   4.619   2.821  0.1716 -0.3706  0.0846
 8847SOL    HW138003   1.323   4.642   2.912 -0.1163 -1.8414  0.3904
 8847SOL    HW238004   1.295   4.537   2.810  1.3278 -1.2930  1.9364
 8848SOL     OW38005   1.105   4.249   4.410 -0.8682 -1.1765  0.3501
 8848SOL    HW138006   1.157   4.184   4.362  0.0477 -0.6377  0.6146
 8848SOL    HW238007   1.021   4.205   4.398 -0.2604 -2.3769  0.4568
 8849SOL     OW38008   4.105   0.303   5.139  0.5532 -0.2159 -0.5223
 8849SOL    HW138009   4.052   0.268   5.067  0.3909  0.3517 -0.6864
 8849SOL    HW238010   4.038   0.320   5.206  1.1450 -0.7421  0.2018
 8850SOL     OW38011   0.912   4.249  12.254  0.0978  0.3157  0.5982
 8850SOL    HW138012   0.942   4.233  12.164 -1.0012  1.0800  0.0939
 8850SOL    HW238013   0.903   4.161  12.291 -0.2511 -0.3368 -1.0340
 8851SOL     OW38014   3.188   3.133   1.965 -0.0800  0.0738  0.5987
 8851SOL    HW138015   3.226   3.108   2.049  1.8363 -1.1314 -0.6084
 8851SOL    HW238016   3.233   3.062   1.918 -1.0503 -0.6907  0.8222
 8852SOL     OW38017   0.097   2.181  17.434  0.3151  0.6279 -0.4538
 8852SOL    HW138018   0.182   2.153  17.470  0.3820 -0.1397 -1.2021
 8852SOL    HW238019   0.044   2.102  17.426  2.8593 -1.4167  2.4421
 8853SOL     OW38020   3.588   1.899   6.698  0.2522 -0.2319 -0.4281
 8853SOL    HW138021   3.521   1.901   6.629  1.1219  2.5148 -1.1979
 8853SOL    HW238022   3.588   1.983   6.743 -1.3720 -0.4717  0.0065
 8854SOL     OW38023   3.426   3.356  11.947 -0.3026  0.1960  0.3659
 8854SOL    HW138024   3.388   3.329  11.864 -1.4886  1.3062  0.5515
 8854SOL    HW238025   3.359   3.415  11.980  1.2293  1.4627  1.2223
 8855SOL     OW38026   1.970   4.212   1.306  0.1021 -0.2942 -0.5819
 8855SOL    HW138027   1.950   4.243   1.218 -1.7192 -2.4251 -0.9307
 8855SOL    HW238028   2.024   4.135   1.286  1.1433  1.0392 -2.7790
 8856SOL     OW38029   1.673   4.443   2.541 -0.2675 -0.2880  0.0416
 8856SOL    HW138030   1.596   4.404   2.501  0.7661 -0.5812 -1.6355
 8856SOL    HW238031   1.632   4.504   2.603  2.4521  0.6791  0.8863
 8857SOL     OW38032   3.641   0.591   4.823  0.6198  0.3500  0.1846
 8857SOL    HW138033   3.730   0.625   4.836  0.4448  1.1787 -0.7719
 8857SOL    HW238034   3.654   0.508   4.869  0.7158  0.5817  0.5756
 8858SOL     OW38035   3.781   0.361   2.287  0.0344 -0.8028  0.2795
 8858SOL    HW138036   3.827   0.396   2.210  0.6212  0.1531  1.0694
 8858SOL    HW238037   3.716   0.431   2.299  0.6559  0.0712 -1.3875
 8859SOL     OW38038   3.209   3.636  16.912  0.0592  0.2111 -0.8758
 8859SOL    HW138039   3.255   3.709  16.870 -0.1440  0.1574 -1.1938
 8859SOL    HW238040   3.235   3.648  17.003 -1.4420 -0.8449 -0.3120
 8860SOL     OW38041   1.959   0.853   1.497  0.5411  0.0099 -0.8292
 8860SOL    HW138042   1.963   0.941   1.534 -1.0743 -1.1768  2.1391
 8860SOL    HW238043   1.887   0.864   1.434  0.1884  1.9240 -0.0868
 8861SOL     OW38044   1.127   4.435   2.760 -0.2371  0.5855  0.0458
 8861SOL    HW138045   1.056   4.374   2.785 -1.2662  1.3506 -0.9998
 8861SOL    HW238046   1.086   4.517   2.787 -0.4915  0.2251  0.7706
 8862SOL     OW38047   4.607   4.041   5.783  0.1298 -0.2480  0.0288
 8862SOL    HW138048   4.519   4.007   5.767  0.1773 -0.1284 -0.4939
 8862SOL    HW238049   4.653   3.982   5.723  0.7983 -1.2610  1.5524
 8863SOL     OW38050   0.745   2.108  14.116  0.1106 -0.0531 -0.0430
 8863SOL    HW138051   0.834   2.102  14.080  1.3303  0.6217  2.8752
 8863SOL    HW238052   0.764   2.082  14.206  0.5558  0.6717  0.0687
 8864SOL     OW38053   2.186   4.441   5.870 -0.0556  0.0376  0.0322
 8864SOL    HW138054   2.124   4.502   5.828 -1.7545 -0.3699  1.9472
 8864SOL    HW238055   2.150   4.448   5.958  1.2697  0.4910  0.5284
 8865SOL     OW38056   3.785   2.532   2.991  0.2067  0.0992  0.2089
 8865SOL    HW138057   3.832   2.615   3.004  0.5105  0.1934 -1.5077
 8865SOL    HW238058   3.866   2.485   2.971  1.2220  2.1863 -0.6068
 8866SOL     OW38059   1.467   0.653  12.694 -0.2113  0.1860  0.3249
 8866SOL    HW138060   1.529   0.604  12.641 -1.3232  1.5654 -2.2553
 8866SOL    HW238061   1.386   0.653  12.643 -1.2270 -1.4082  1.8906
 8867SOL     OW38062   0.702   0.882  11.549  0.6883 -0.0491  0.2888
 8867SOL    HW138063   0.763   0.952  11.572 -2.3004  1.6333  3.0988
 8867SOL    HW238064   0.613   0.917  11.557  0.3187 -0.6318 -1.3401
 8868SOL     OW38065   4.441   1.493  12.532 -0.3164  0.1776 -0.0222
 8868SOL    HW138066   4.395   1.458  12.455  1.5465 -0.8419 -0.6691
 8868SOL    HW238067   4.441   1.417  12.591  1.1396 -0.1871 -0.4813
 8869SOL     OW38068   0.784   1.494   0.989 -0.0639  0.4187  0.2075
 8869SOL    HW138069   0.835   1.424   1.029  0.2022  0.9533  0.7939
 8869SOL    HW238070   0.828   1.496   0.904 -1.3917 -2.1463 -0.5362
 8870SOL     OW38071   2.856   4.163   6.407 -0.2719  0.2988  0.0955
 8870SOL    HW138072   2.928   4.133   6.350  0.0869  0.2049  0.5932
 8870SOL    HW238073   2.837   4.255   6.389 -0.6754 -0.1527 -1.7533
 8871SOL     OW38074   1.599   4.152   2.782  0.9041  0.0698  0.0089
 8871SOL    HW138075   1.540   4.078   2.768 -1.6732  2.5778 -2.4562
 8871SOL    HW238076   1.532   4.219   2.792  1.3112  0.2974  1.2727
 8872SOL     OW38077   3.300   1.144  13.163  0.1186 -0.1939 -0.1998
 8872SOL    HW138078   3.229   1.187  13.211  1.8414  0.1657  2.0224
 8872SOL    HW238079   3.341   1.222  13.126 -0.1769  0.1356  0.1569
 8873SOL     OW38080   1.652   3.614   2.571  0.0970  0.0257 -0.9381
 8873SOL    HW138081   1.732   3.664   2.586 -0.2486  0.2729  0.1086
 8873SOL    HW238082   1.584   3.680   2.561 -0.4658 -0.6730 -1.7701
 8874SOL     OW38083   3.629   2.746  17.083 -0.0268  0.7983 -0.1560
 8874SOL    HW138084   3.612   2.685  17.010  0.0795  0.0302  0.4592
 8874SOL    HW238085   3.724   2.739  17.082  0.0617  1.8782  1.9797
 8875SOL     OW38086   0.004   0.062  16.924 -0.2411  0.5140 -0.1354
 8875SOL    HW138087   0.028   0.125  16.991  0.4025 -0.3891  0.4923
 8875SOL    HW238088   0.076   0.066  16.860 -0.6759 -0.6670 -0.7074
 8876SOL     OW38089   3.035   2.359  16.940  0.2944  0.2783  0.0552
 8876SOL    HW138090   2.979   2.428  16.975 -0.0903  1.5253 -2.9817
 8876SOL    HW238091   3.016   2.286  16.999 -1.5908  0.0597 -0.8269
 8877SOL     OW38092   1.118   2.090  15.008  0.5924 -0.2518  0.2861
 8877SOL    HW138093   1.160   2.112  14.924 -2.5082  1.9596 -0.7130
 8877SOL    HW238094   1.142   2.167  15.060  1.2640 -1.1098  1.2226
 8878SOL     OW38095   0.090   4.353   3.579  0.3494  0.0036  0.6313
 8878SOL    HW138096   0.004   4.314   3.562  0.1606  1.0167 -0.7612
 8878SOL    HW238097   0.099   4.428   3.520  0.1235  0.0680  0.6760
 8879SOL     OW38098   3.635   1.224   5.329 -0.5650 -0.2990  0.0477
 8879SOL    HW138099   3.603   1.183   5.409  0.3420 -0.1059  0.5103
 8879SOL    HW238100   3.569   1.189   5.269 -0.6632  1.5352 -0.9116
 8880SOL     OW38101   1.766   3.458   2.372 -0.6543 -0.1209 -0.0401
 8880SOL    HW138102   1.787   3.398   2.444  1.3576  3.0386  1.9942
 8880SOL    HW238103   1.720   3.521   2.427 -1.2321 -0.4241 -0.1751
 8881SOL     OW38104   1.795   4.641   2.353 -0.7867  0.0608  0.1999
 8881SOL    HW138105   1.742   4.624   2.275 -2.0816 -0.6725  1.2647
 8881SOL    HW238106   1.773   4.573   2.415  0.7726 -1.4537 -0.8987
 8882SOL     OW38107   1.525   4.350   5.831  0.5216  0.2969 -0.0589
 8882SOL    HW138108   1.578   4.325   5.906  0.8027 -0.8185 -0.6240
 8882SOL    HW238109   1.544   4.290   5.759 -0.6537 -1.6111  1.2261
 8883SOL     OW38110   4.698   1.723   1.911 -0.2347  0.3687  0.3831
 8883SOL    HW138111   4.636   1.796   1.903  0.2427  0.9396  1.9049
 8883SOL    HW238112   4.645   1.652   1.874 -0.0275 -0.0091  0.8138
 8884SOL     OW38113   0.656   1.220  17.007 -0.4469 -0.2448 -0.2532
 8884SOL    HW138114   0.598   1.163  17.056 -0.0394  2.2623  3.1683
 8884SOL    HW238115   0.729   1.253  17.060  0.0908 -2.0634  0.1455
 8885SOL     OW38116   1.723   1.285   4.025  0.1366 -0.2802 -0.4412
 8885SOL    HW138117   1.636   1.245   4.033 -1.1041  2.2484 -1.2835
 8885SOL    HW238118   1.744   1.277   3.932 -1.4921  0.0871 -0.8566
 8886SOL     OW38119   3.379   3.418  14.749 -0.9131  0.5461  0.0634
 8886SOL    HW138120   3.440   3.434  14.677  0.2942  0.9472  1.1814
 8886SOL    HW238121   3.430   3.451  14.823 -2.7947  1.3884  0.9708
 8887SOL     OW38122   1.289   2.059  16.661 -0.3454  0.0956  0.3159
 8887SOL    HW138123   1.354   2.064  16.731  0.0382 -0.8889  0.0235
 8887SOL    HW238124   1.202   2.077  16.698 -1.2855 -0.9709 -1.3988
 8888SOL     OW38125   4.707   3.044   8.372  0.5459 -0.0460 -0.2000
 8888SOL    HW138126   0.007   3.108   8.305  0.6483  1.6202  1.4240
 8888SOL    HW238127   0.018   3.094   8.446 -0.1616 -0.5183  0.4660
 8889SOL     OW38128   3.204   1.523   6.001 -0.0807 -0.3129  0.2092
 8889SOL    HW138129   3.192   1.501   5.908  1.2390  0.0201 -0.0448
 8889SOL    HW238130   3.299   1.516   6.009 -0.1101  0.9211  1.5548
 8890SOL     OW38131   1.218   2.663  15.839  0.5322 -0.3783 -0.1057
 8890SOL    HW138132   1.154   2.735  15.842  2.6049  1.4021  0.7966
 8890SOL    HW238133   1.191   2.611  15.915  2.0937 -2.0793 -0.7325
 8891SOL     OW38134   3.124   1.914   3.194  0.1308  0.5705  0.2736
 8891SOL    HW138135   3.065   1.876   3.129 -1.7693 -0.0749  2.3650
 8891SOL    HW238136   3.124   2.007   3.169  0.9527  0.6845  0.6848
 8892SOL     OW38137   0.006   3.509  13.562 -0.0666 -0.3728 -0.0782
 8892SOL    HW138138   0.099   3.488  13.572 -0.0849 -1.1165 -1.4105
 8892SOL    HW238139   4.697   3.450  13.630  1.0689  0.1920  0.9667
 8893SOL     OW38140   2.576   3.683  10.048  0.6330 -0.2984 -0.2061
 8893SOL    HW138141   2.606   3.635  10.125 -0.9433  0.3604  0.8259
 8893SOL    HW238142   2.504   3.726  10.094  0.2918 -2.4628  1.2861
 8894SOL     OW38143   3.620   1.866   7.047  0.0510  0.3123  0.4223
 8894SOL    HW138144   3.601   1.835   6.959 -1.3493  0.3117  0.7112
 8894SOL    HW238145   3.656   1.953   7.033 -1.7255  0.6972 -1.8122
 8895SOL     OW38146   1.480   1.145   7.055  0.3803  0.4410  0.1170
 8895SOL    HW138147   1.425   1.068   7.042 -0.3955  1.0131  0.0542
 8895SOL    HW238148   1.461   1.196   6.977  0.1171 -0.0446 -0.1396
 8896SOL     OW38149   1.043   3.308  11.679 -0.4987 -0.1058  0.8028
 8896SOL    HW138150   1.004   3.346  11.600 -1.1993 -0.3718  1.0191
 8896SOL    HW238151   1.073   3.228  11.636 -2.8910 -0.3507 -0.3973
 8897SOL     OW38152   2.695   1.734   7.236 -0.2936  0.0039  0.3372
 8897SOL    HW138153   2.662   1.822   7.222 -0.5002 -0.0960  0.1879
 8897SOL    HW238154   2.608   1.694   7.232 -0.0880 -0.3224 -1.1200
 8898SOL     OW38155   4.167   2.872   8.533 -0.4478 -0.2597 -0.3479
 8898SOL    HW138156   4.155   2.925   8.612 -0.6948 -0.2998 -0.3573
 8898SOL    HW238157   4.106   2.802   8.556  2.2421 -3.0751 -1.8320
 8899SOL     OW38158   2.281   3.050   8.472  0.0232  0.1509 -0.8099
 8899SOL    HW138159   2.242   3.000   8.543 -0.5556  0.4927 -0.8886
 8899SOL    HW238160   2.248   3.131   8.510  0.7749  0.7089 -1.3364
 8900SOL     OW38161   1.428   4.230  12.765 -0.1306  0.2608 -0.4189
 8900SOL    HW138162   1.504   4.171  12.757 -0.1245  0.0701  1.0425
 8900SOL    HW238163   1.437   4.241  12.859 -0.5766 -1.8402 -0.1166
 8901SOL     OW38164   4.515   2.661   0.197  0.4890 -0.1401  0.3345
 8901SOL    HW138165   4.462   2.701   0.267 -0.1486  0.0079 -0.2378
 8901SOL    HW238166   4.588   2.723   0.200 -0.4721  1.0472 -0.6500
 8902SOL     OW38167   1.659   3.228   8.178  0.3894  0.0271  0.2721
 8902SOL    HW138168   1.639   3.198   8.090 -1.2996 -0.3139  0.7711
 8902SOL    HW238169   1.624   3.317   8.175  1.2819  0.4535  2.2600
 8903SOL     OW38170   4.689   4.605   6.842  0.2807  0.1150  0.9920
 8903SOL    HW138171   4.608   4.633   6.883  0.9818  0.8661  1.8512
 8903SOL    HW238172   4.712   4.682   6.789  0.1230 -0.8751 -0.5201
 8904SOL     OW38173   3.883   3.133   3.045 -0.4144  0.1764 -0.4365
 8904SOL    HW138174   3.903   3.226   3.040  2.6007 -0.4198  0.7396
 8904SOL    HW238175   3.924   3.114   2.961 -1.2174 -0.1495 -0.7611
 8905SOL     OW38176   4.321   0.636   2.318  0.2806  0.1003  0.2868
 8905SOL    HW138177   4.410   0.657   2.349  0.2964  1.3118 -0.5650
 8905SOL    HW238178   4.343   0.569   2.254 -1.5809 -0.8207  0.6342
 8906SOL     OW38179   1.904   2.641   2.818 -0.1967  0.1861 -0.2150
 8906SOL    HW138180   1.975   2.647   2.754 -2.0672 -0.3020 -2.3750
 8906SOL    HW238181   1.916   2.554   2.855  0.4197  0.1834 -0.4294
 8907SOL     OW38182   2.014   4.142   2.270 -0.0155 -0.6437  0.0028
 8907SOL    HW138183   1.920   4.136   2.287 -0.2255  1.1641 -0.5196
 8907SOL    HW238184   2.028   4.190   2.188  1.9725  0.3735  0.9355
 8908SOL     OW38185   1.657   1.298  15.416  0.3719  0.6022  0.1016
 8908SOL    HW138186   1.662   1.359  15.343  1.2575 -0.6518 -0.8781
 8908SOL    HW238187   1.561   1.291  15.416  0.5636 -2.0097  0.6880
 8909SOL     OW38188   2.239   1.380   6.213  0.1797 -0.0679  0.2197
 8909SOL    HW138189   2.196   1.464   6.230 -0.2018 -0.7179  2.4883
 8909SOL    HW238190   2.183   1.343   6.144 -1.3088 -2.4239  2.6757
 8910SOL     OW38191   1.076   0.760   6.667 -0.1213  0.1881 -0.4098
 8910SOL    HW138192   1.123   0.841   6.650 -0.5278  0.9072  1.8501
 8910SOL    HW238193   1.135   0.724   6.734 -2.3420 -2.5360  0.0998
 8911SOL     OW38194   4.451   0.067   7.268  0.2979 -0.1948 -0.2382
 8911SOL    HW138195   4.402   0.070   7.350  0.7730  0.4549  0.0178
 8911SOL    HW238196   4.538   0.066   7.307  0.6840 -1.6754 -1.1207
 8912SOL     OW38197   0.581   0.809   4.801 -0.0417  0.3506 -0.3614
 8912SOL    HW138198   0.625   0.884   4.841 -1.7704  1.7635 -1.1098
 8912SOL    HW238199   0.603   0.740   4.864  0.3386 -0.0110 -0.8921
 8913SOL     OW38200   0.633   0.775   6.393 -0.5562  0.5504  0.0234
 8913SOL    HW138201   0.551   0.737   6.361 -0.1859 -0.5039  0.3198
 8913SOL    HW238202   0.604   0.834   6.463 -1.4402  1.7837 -1.3926
 8914SOL     OW38203   1.823   2.947   4.807 -0.8226 -0.0567  0.2508
 8914SOL    HW138204   1.737   2.909   4.790  0.4613 -2.5301 -0.8351
 8914SOL    HW238205   1.797   3.005   4.878  1.4526 -0.3570  1.3217
 8915SOL     OW38206   0.170   1.724  13.314 -0.0414  0.2625  0.0500
 8915SOL    HW138207   0.085   1.768  13.305 -0.2950 -0.7737 -2.5970
 8915SOL    HW238208   0.195   1.717  13.222  1.4664 -2.1376  0.6421
 8916SOL     OW38209   2.345   1.348   8.544 -0.9682 -0.2993 -0.0603
 8916SOL    HW138210   2.259   1.383   8.518 -0.7810 -1.2487 -1.9413
 8916SOL    HW238211   2.335   1.342   8.639  0.3417 -1.8748 -0.0280
 8917SOL     OW38212   2.788   4.258   0.390  0.4068 -0.0107 -0.6940
 8917SOL    HW138213   2.700   4.296   0.385  0.2397 -0.3070 -0.0412
 8917SOL    HW238214   2.770   4.167   0.364  1.3272 -0.3981  0.0326
 8918SOL     OW38215   3.841   0.596   6.834 -0.4531 -0.3015 -0.2621
 8918SOL    HW138216   3.791   0.537   6.779  0.1356  0.4718 -1.6219
 8918SOL    HW238217   3.879   0.540   6.902  1.9855  0.5859 -0.8860
 8919SOL     OW38218   2.956   2.585   9.271 -0.0465 -0.4878 -0.0345
 8919SOL    HW138219   3.047   2.559   9.281 -0.1299 -1.0746 -0.7830
 8919SOL    HW238220   2.904   2.507   9.290 -2.3620  1.5143  1.8993
 8920SOL     OW38221   0.753   4.598   5.317 -0.0591  0.3445 -0.2136
 8920SOL    HW138222   0.673   4.599   5.369  1.6424  0.1044  2.3975
 8920SOL    HW238223   0.750   4.666   5.249  0.9670 -0.6970 -1.2960
 8921SOL     OW38224   1.628   4.202   7.655 -0.7493  0.2178 -0.0920
 8921SOL    HW138225   1.694   4.156   7.707 -0.4260  1.5543  0.6676
 8921SOL    HW238226   1.557   4.168   7.709 -1.3304  1.3908 -0.1359
 8922SOL     OW38227   4.649   2.675   4.186 -0.2444 -0.3568 -0.0331
 8922SOL    HW138228   4.650   2.585   4.156 -0.1092  0.6097 -2.9575
 8922SOL    HW238229   0.013   2.711   4.187 -1.1483  1.8542  1.7324
 8923SOL     OW38230   2.162   1.867   1.704  0.2571 -0.2117 -0.0415
 8923SOL    HW138231   2.120   1.944   1.741  0.7455  0.4889 -0.9497
 8923SOL    HW238232   2.138   1.796   1.764  0.9345 -0.0324  0.4265
 8924SOL     OW38233   2.341   0.294   6.167 -0.2156  0.2019 -0.0590
 8924SOL    HW138234   2.371   0.337   6.086  2.5050 -1.6776 -0.0425
 8924SOL    HW238235   2.391   0.343   6.232  0.9353 -1.1332  0.0515
 8925SOL     OW38236   0.265   3.879  14.698  0.1075  1.4371  0.0639
 8925SOL    HW138237   0.320   3.860  14.774 -0.1352  0.7834  0.0812
 8925SOL    HW238238   0.321   3.931  14.641 -0.8239  1.0655 -1.1981
 8926SOL     OW38239   4.611   1.724  10.554  0.1275 -0.2006  0.1147
 8926SOL    HW138240   4.571   1.810  10.568 -0.1791 -0.4194  0.6118
 8926SOL    HW238241   4.530   1.676  10.534  0.1294 -1.1862  2.3644
 8927SOL     OW38242   2.633   3.119   7.942  0.5989 -0.0365 -0.1688
 8927SOL    HW138243   2.661   3.040   7.895  3.8375  0.6520  0.6042
 8927SOL    HW238244   2.605   3.183   7.877 -0.7696 -0.1782  0.2836
 8928SOL     OW38245   0.853   1.981  14.965 -0.3421  0.5184  0.1583
 8928SOL    HW138246   0.944   2.006  14.979  0.3426 -2.2789  0.8164
 8928SOL    HW238247   0.826   1.990  15.056  1.0619 -1.3508  0.7636
 8929SOL     OW38248   2.706   4.710  13.582 -0.0881 -0.2247 -0.3987
 8929SOL    HW138249   2.778   4.652  13.605  1.7990  1.3457 -2.4329
 8929SOL    HW238250   2.751   0.025  13.508 -0.5608 -0.6839 -0.9286
 8930SOL     OW38251   2.536   1.806   8.848  0.4334  0.1577 -0.3803
 8930SOL    HW138252   2.631   1.811   8.857  0.1527  3.6745  0.8606
 8930SOL    HW238253   2.526   1.731   8.790  2.1701  1.6424 -2.6403
 8931SOL     OW38254   0.253   0.642  12.965  0.5384 -0.2327  0.5471
 8931SOL    HW138255   0.295   0.593  13.036  1.2533  0.9116  0.9060
 8931SOL    HW238256   0.203   0.567  12.932  1.4012 -0.6324  0.1503
 8932SOL     OW38257   0.120   0.601   5.384  0.2181  0.1244  0.3344
 8932SOL    HW138258   0.193   0.542   5.402  0.1238 -0.6998 -2.0130
 8932SOL    HW238259   0.173   0.670   5.342 -0.8610  0.1546 -0.9623
 8933SOL     OW38260   0.520   3.735   1.523 -0.8634 -0.4175  0.5393
 8933SOL    HW138261   0.602   3.699   1.558 -0.0503 -0.2317 -1.1616
 8933SOL    HW238262   0.530   3.820   1.565  0.2079 -0.6510  0.7749
 8934SOL     OW38263   1.151   2.114   2.925  0.7054  0.2180  0.4892
 8934SOL    HW138264   1.138   2.176   2.854 -1.0238 -2.5737 -1.6059
 8934SOL    HW238265   1.202   2.050   2.876 -1.3111 -0.4942 -0.6592
 8935SOL     OW38266   0.833   3.980   3.833  0.0026  0.4813 -0.4640
 8935SOL    HW138267   0.861   4.012   3.748 -1.6729  1.6461 -0.5783
 8935SOL    HW238268   0.914   3.944   3.869 -0.0053  0.9268 -0.0116
 8936SOL     OW38269   1.008   1.158  15.591  0.2976  0.2053  0.7875
 8936SOL    HW138270   1.015   1.254  15.596  2.8714  0.0263  0.5659
 8936SOL    HW238271   0.916   1.143  15.615  0.3096 -0.9336  0.0937
 8937SOL     OW38272   1.071   3.815  14.872  0.1162  0.0342  0.5773
 8937SOL    HW138273   1.030   3.893  14.910 -2.5621  0.4888 -3.2323
 8937SOL    HW238274   1.165   3.831  14.860 -0.1413  0.7898 -0.3750
 8938SOL     OW38275   4.063   3.876   3.029 -0.8796 -0.4868  0.8310
 8938SOL    HW138276   4.113   3.947   2.988 -0.7985 -0.0038  1.7727
 8938SOL    HW238277   4.122   3.802   3.012  1.5377  1.6937 -0.2401
 8939SOL     OW38278   2.415   0.287   9.375 -0.1658  0.1706  0.1384
 8939SOL    HW138279   2.482   0.322   9.434  0.3871 -1.8769  0.7667
 8939SOL    HW238280   2.438   0.194   9.371  1.3966  0.4333  2.9658
 8940SOL     OW38281   3.718   1.618   7.103 -0.2079 -0.2339  0.2286
 8940SOL    HW138282   3.645   1.557   7.089  0.4799 -0.8085 -0.8232
 8940SOL    HW238283   3.679   1.705   7.092  0.3039 -0.3958 -2.7671
 8941SOL     OW38284   4.330   3.113   1.522  0.3151  0.2873 -0.0405
 8941SOL    HW138285   4.352   3.133   1.431  2.8110 -1.5886  0.1422
 8941SOL    HW238286   4.236   3.104   1.512  0.7000 -2.1925 -1.4163
 8942SOL     OW38287   2.541   3.780   0.681 -0.3896  0.3785  0.0296
 8942SOL    HW138288   2.471   3.768   0.745 -1.0754 -0.5765 -0.8909
 8942SOL    HW238289   2.497   3.848   0.630  0.3268  0.7070 -0.1500
 8943SOL     OW38290   1.793   4.462  17.679  0.0299 -0.4685 -0.3065
 8943SOL    HW138291   1.833   4.540   0.021 -1.0684  0.4199 -0.9405
 8943SOL    HW238292   1.701   4.486  17.672  0.6241  1.8847 -0.2587
 8944SOL     OW38293   4.574   0.444   3.905  0.4678 -0.1487  0.5241
 8944SOL    HW138294   4.565   0.360   3.951  1.0241  0.7310  2.2259
 8944SOL    HW238295   4.666   0.457   3.926  0.4938  0.6079 -0.0500
 8945SOL     OW38296   4.151   1.967   7.579 -0.2301  0.3708 -0.1290
 8945SOL    HW138297   4.219   2.035   7.590  1.1282 -0.9681 -0.2741
 8945SOL    HW238298   4.167   1.911   7.655  1.9526 -1.3240 -1.8192
 8946SOL     OW38299   1.150   4.478   5.582  0.1966  0.2199 -0.1726
 8946SOL    HW138300   1.099   4.456   5.504  0.6950 -2.8049  0.3686
 8946SOL    HW238301   1.148   4.574   5.587 -0.6390  0.1522  0.8009
 8947SOL     OW38302   4.676   3.934  14.329 -0.0906  0.9597 -0.0997
 8947SOL    HW138303   0.005   3.855  14.332  0.4499  1.2641 -1.6226
 8947SOL    HW238304   0.014   4.006  14.318  0.0676  0.7283 -0.6972
 8948SOL     OW38305   0.168   0.746  10.777  0.4470  0.9710  0.0974
 8948SOL    HW138306   0.245   0.797  10.752  1.1301 -0.1155 -0.0028
 8948SOL    HW238307   0.202   0.681  10.839  1.8329 -0.1847 -1.8843
 8949SOL     OW38308   1.186   0.197   8.044  0.4355  0.4839  0.0905
 8949SOL    HW138309   1.134   0.119   8.022  1.5242 -0.1193 -0.3217
 8949SOL    HW238310   1.163   0.217   8.135  0.5438 -0.9006  0.4339
 8950SOL     OW38311   1.953   2.165   5.150  1.0120 -0.0636  0.7485
 8950SOL    HW138312   1.925   2.229   5.215 -0.6496  0.4016 -0.4304
 8950SOL    HW238313   1.890   2.183   5.080  1.2079  3.0453  1.3702
 8951SOL     OW38314   3.547   1.321   3.315 -1.0650  0.4971  0.4870
 8951SOL    HW138315   3.531   1.414   3.302 -1.9712  0.3780  0.7432
 8951SOL    HW238316   3.492   1.289   3.243  1.8184 -0.0027 -1.4960
 8952SOL     OW38317   1.156   2.991   6.848  0.0657  0.0566  0.4896
 8952SOL    HW138318   1.207   3.034   6.917  1.1440  0.7866 -0.7290
 8952SOL    HW238319   1.191   2.903   6.836 -0.3531  0.4235 -3.4703
 8953SOL     OW38320   1.817   0.605   1.703  0.6253  0.8226 -0.0393
 8953SOL    HW138321   1.749   0.596   1.636  0.2075 -0.8587  0.6299
 8953SOL    HW238322   1.793   0.537   1.765  0.0819  0.6724 -0.4104
 8954SOL     OW38323   4.583   0.878  13.009 -0.3797  0.0258  0.0163
 8954SOL    HW138324   4.652   0.917  12.955 -0.2672  0.3582  0.4059
 8954SOL    HW238325   4.573   0.786  12.982  0.7878 -0.6716  1.9503
 8955SOL     OW38326   0.989   0.846   1.922  0.0868 -0.1513 -0.2478
 8955SOL    HW138327   1.002   0.798   2.003 -0.9571  0.1658  0.1128
 8955SOL    HW238328   0.949   0.925   1.959  0.2036 -1.0060  1.6706
 8956SOL     OW38329   1.269   4.658   6.121 -0.1991  0.5607 -0.1969
 8956SOL    HW138330   1.228   4.669   6.035 -1.4110  0.7098  0.4026
 8956SOL    HW238331   1.244   0.018   6.158 -2.2515  0.1479 -0.6876
 8957SOL     OW38332   2.837   1.097   8.910 -0.5037 -0.1979  0.0893
 8957SOL    HW138333   2.869   1.016   8.948  0.5143 -0.3794 -1.1505
 8957SOL    HW238334   2.754   1.111   8.955  0.7785  3.0659  1.4100
 8958SOL     OW38335   1.368   0.249   5.021  0.0524  0.5448 -0.3141
 8958SOL    HW138336   1.446   0.212   4.979  0.8434  0.9741  0.7905
 8958SOL    HW238337   1.302   0.200   4.971 -1.6150  1.8154  0.6859
 8959SOL     OW38338   4.381   3.999   1.298 -0.3160 -0.5822  0.1313
 8959SOL    HW138339   4.400   4.003   1.204 -1.1294 -0.3214 -0.0226
 8959SOL    HW238340   4.296   3.958   1.310 -0.0103 -0.9049  1.2338
 8960SOL     OW38341   0.524   4.611   8.023 -0.4459  0.1910  0.2647
 8960SOL    HW138342   0.545   4.695   8.065 -0.9391  0.1470  0.6000
 8960SOL    HW238343   0.605   4.571   7.992 -1.6474 -2.1077  0.1030
 8961SOL     OW38344   4.205   3.238  14.662 -0.2675  0.0012 -0.0637
 8961SOL    HW138345   4.297   3.224  14.685  0.6375  1.3608 -2.8512
 8961SOL    HW238346   4.201   3.330  14.637 -3.5988 -0.5211 -1.3530
 8962SOL     OW38347   1.682   0.901   6.949  0.0572 -0.5256  0.4683
 8962SOL    HW138348   1.612   0.881   7.011 -0.7747 -2.5594 -1.1414
 8962SOL    HW238349   1.719   0.983   6.983 -0.4509  0.1737 -0.6634
 8963SOL     OW38350   1.729   0.689   0.553  0.7090 -0.0861  0.0889
 8963SOL    HW138351   1.664   0.678   0.623  0.9748  1.9082  0.6511
 8963SOL    HW238352   1.807   0.695   0.609  1.1227 -0.7826 -0.4099
 8964SOL     OW38353   0.285   1.747  12.159  0.4372 -0.5865  0.2256
 8964SOL    HW138354   0.271   1.771  12.251  1.3064 -0.5377  0.3495
 8964SOL    HW238355   0.211   1.687  12.155 -0.0045 -0.1054  1.0192
 8965SOL     OW38356   0.390   3.062  16.964 -0.4487 -0.3253 -0.5116
 8965SOL    HW138357   0.327   3.008  17.012  1.4358 -0.9646  1.2090
 8965SOL    HW238358   0.320   3.110  16.919 -0.8699 -0.1215  0.3670
 8966SOL     OW38359   1.634   0.635   1.511 -0.4694  0.5312  0.2071
 8966SOL    HW138360   1.669   0.658   1.426 -1.7777 -0.6066 -0.6502
 8966SOL    HW238361   1.586   0.718   1.520 -0.5567  0.5630 -0.5865
 8967SOL     OW38362   0.421   4.134  14.607 -0.2243 -0.3155  0.1028
 8967SOL    HW138363   0.502   4.101  14.566  0.0632 -0.9197  1.1621
 8967SOL    HW238364   0.380   4.171  14.529  1.2343 -0.3416 -0.6914
 8968SOL     OW38365   2.592   2.237   0.587  0.1697 -0.3285  0.3636
 8968SOL    HW138366   2.643   2.221   0.508 -2.0798 -0.6545 -1.0196
 8968SOL    HW238367   2.593   2.332   0.580  3.0292 -0.5780 -2.3909
 8969SOL     OW38368   3.199   0.014   6.869  0.4314  0.3699  0.5774
 8969SOL    HW138369   3.158   4.656   6.895 -0.4542  0.4364 -0.5858
 8969SOL    HW238370   3.246   0.039   6.949  0.6878  1.2431  0.1499
 8970SOL     OW38371   0.317   3.120   2.709  0.3963 -0.4293 -0.0435
 8970SOL    HW138372   0.330   3.199   2.657  1.1406 -1.6244 -1.6640
 8970SOL    HW238373   0.270   3.155   2.785  2.1448  0.9375  0.4084
 8971SOL     OW38374   1.639   1.995  15.374 -0.2860  0.0708  0.1071
 8971SOL    HW138375   1.657   2.080  15.334  1.7511 -0.7886 -0.8345
 8971SOL    HW238376   1.554   1.962  15.344 -0.6667  0.8217  0.3616
 8972SOL     OW38377   4.057   3.895   4.491 -0.3166 -0.3315 -0.0620
 8972SOL    HW138378   4.152   3.883   4.488 -0.2402  1.0107 -3.5744
 8972SOL    HW238379   4.046   3.943   4.409 -0.0982 -1.0894 -0.5367
 8973SOL     OW38380   1.942   1.990   8.240 -0.4241  0.3871 -0.3839
 8973SOL    HW138381   1.987   2.065   8.201  2.2701 -0.6244  0.7708
 8973SOL    HW238382   1.986   1.994   8.325 -0.2530 -1.1255 -0.4097
 8974SOL     OW38383   2.173   0.502   5.703  0.4038 -0.4361 -0.1646
 8974SOL    HW138384   2.219   0.572   5.657 -0.0607 -0.0863 -0.0993
 8974SOL    HW238385   2.150   0.441   5.633 -0.1879 -1.2358  0.7317
 8975SOL     OW38386   2.901   1.984  10.635  0.3750  0.2552  0.6167
 8975SOL    HW138387   2.954   1.955  10.561  0.3377  0.6980  0.4174
 8975SOL    HW238388   2.817   1.965  10.593 -0.0460 -3.5074  3.1281
 8976SOL     OW38389   4.697   3.726   6.097 -0.4132 -0.5418 -0.1902
 8976SOL    HW138390   0.011   3.788   6.159  1.9030 -1.8894 -0.2484
 8976SOL    HW238391   4.633   3.775   6.046  0.8662 -1.4584 -2.6496
 8977SOL     OW38392   0.119   3.913   6.248 -0.3858 -0.1123  0.6554
 8977SOL    HW138393   0.121   3.991   6.193  2.2474  0.8552  2.1089
 8977SOL    HW238394   0.064   3.943   6.320 -0.3338 -0.5546  0.8774
 8978SOL     OW38395   4.651   2.099  13.652 -0.0001  0.3497 -0.0094
 8978SOL    HW138396   4.677   2.089  13.743 -0.9690  0.0728  0.2397
 8978SOL    HW238397   4.702   2.175  13.626  0.1915  0.1269 -0.2892
 8979SOL     OW38398   3.339   4.062  17.240  0.5353  0.4246 -0.6232
 8979SOL    HW138399   3.412   4.006  17.265  0.9649  1.8944  1.4848
 8979SOL    HW238400   3.294   4.065  17.325 -0.0827  2.5321 -1.0364
 8980SOL     OW38401   4.343   2.512   1.638  0.0155 -0.5916 -0.1497
 8980SOL    HW138402   4.430   2.540   1.664 -1.3539  1.8179  1.8070
 8980SOL    HW238403   4.301   2.479   1.717  0.7804 -0.2762  0.3796
 8981SOL     OW38404   4.096   3.176   5.440  0.3379  0.0342 -0.1589
 8981SOL    HW138405   4.146   3.164   5.359  3.3314 -1.4943  1.9422
 8981SOL    HW238406   4.067   3.268   5.434  0.5575  0.0632 -0.7915
 8982SOL     OW38407   3.073   4.686   7.230 -0.3342  0.7384  0.2430
 8982SOL    HW138408   3.156   4.688   7.277  1.2615  3.2993 -2.6722
 8982SOL    HW238409   3.047   0.048   7.262 -1.5202 -0.5078  2.5883
 8983SOL     OW38410   3.864   2.991   3.262 -0.0506 -0.2920  0.3870
 8983SOL    HW138411   3.904   3.045   3.194  0.0377 -2.8727 -1.6097
 8983SOL    HW238412   3.775   3.010   3.232  0.0728 -0.9751 -0.4044
 8984SOL     OW38413   1.023   2.268   7.168  0.1304 -0.3434  0.3281
 8984SOL    HW138414   0.950   2.329   7.171  1.4107  1.1945  0.1525
 8984SOL    HW238415   1.039   2.261   7.262 -0.4224 -0.8346  0.3821
 8985SOL     OW38416   2.315   2.447  16.699 -0.6788  0.0720 -0.0285
 8985SOL    HW138417   2.243   2.388  16.721  2.2547 -3.1855  0.7495
 8985SOL    HW238418   2.336   2.423  16.609  0.2361 -0.5946  0.3632
 8986SOL     OW38419   1.028   2.795  10.138  0.1098  0.0308 -0.4935
 8986SOL    HW138420   0.939   2.815  10.111 -0.2266  1.2944  1.5119
 8986SOL    HW238421   1.032   2.838  10.223 -0.7238  0.2447 -0.5649
 8987SOL     OW38422   0.896   3.865   5.020 -0.1970  0.6028  0.0123
 8987SOL    HW138423   0.977   3.823   5.046 -0.2318  1.9000  2.1482
 8987SOL    HW238424   0.902   3.943   5.074  2.1305  0.3407  0.1272
 8988SOL     OW38425   2.332   4.008   2.963  0.1186  0.4417 -0.3573
 8988SOL    HW138426   2.296   3.931   3.008 -0.4571  0.2644 -1.1151
 8988SOL    HW238427   2.392   3.979   2.895 -1.5191  1.6822 -2.3332
 8989SOL     OW38428   0.228   0.482   8.663  0.7921  0.3119 -0.2032
 8989SOL    HW138429   0.297   0.524   8.714  0.2210 -2.6439  2.9956
 8989SOL    HW238430   0.194   0.552   8.608  3.1904  2.0723  0.5545
 8990SOL     OW38431   3.899   3.389   3.306  0.6397  0.3894  0.0100
 8990SOL    HW138432   3.920   3.340   3.227 -0.7137 -0.8570  0.4040
 8990SOL    HW238433   3.836   3.453   3.274 -0.1453 -1.2946 -1.8218
 8991SOL     OW38434   1.183   0.605   5.973 -0.8115 -0.0514  0.3447
 8991SOL    HW138435   1.276   0.625   5.960 -0.7918 -1.9229 -2.6137
 8991SOL    HW238436   1.164   0.591   5.880  0.4241  0.3400  0.0259
 8992SOL     OW38437   4.342   3.752   2.350  0.1039 -0.0651 -0.1135
 8992SOL    HW138438   4.406   3.691   2.387  0.1034 -0.0701 -0.1210
 8992SOL    HW238439   4.373   3.771   2.262  0.1527 -3.4896 -0.8308
 8993SOL     OW38440   3.861   3.548  15.814  0.4637 -0.1538 -0.6441
 8993SOL    HW138441   3.953   3.546  15.787  0.3274  2.0488 -1.2656
 8993SOL    HW238442   3.851   3.631  15.861  1.7974  0.3493 -1.2622
 8994SOL     OW38443   4.106   0.907   8.306  0.2750  0.5175 -0.2233
 8994SOL    HW138444   4.156   0.909   8.225  3.4158 -0.9125  1.6803
 8994SOL    HW238445   4.099   0.816   8.335  0.6967  0.1902 -1.1705
 8995SOL     OW38446   0.464   0.600   6.654  0.1959  0.3343 -0.2482
 8995SOL    HW138447   0.472   0.508   6.677  1.3603  0.5438  0.2019
 8995SOL    HW238448   0.544   0.637   6.691  0.0400  0.0760  0.3406
 8996SOL     OW38449   1.160   3.165   9.365 -0.2765 -0.2676 -0.4271
 8996SOL    HW138450   1.218   3.094   9.394 -0.5125 -0.3660 -0.1982
 8996SOL    HW238451   1.222   3.224   9.322  1.3887  0.2264  2.6841
 8997SOL     OW38452   0.812   0.637   8.942  0.5255 -0.1681  0.2500
 8997SOL    HW138453   0.798   0.594   8.858  2.4919  0.0704 -0.1883
 8997SOL    HW238454   0.732   0.613   8.990  1.8725  0.9684  3.0681
 8998SOL     OW38455   0.789   4.189   5.001  0.3134  0.3034  0.1405
 8998SOL    HW138456   0.872   4.181   4.954  0.2093 -0.4224  0.0819
 8998SOL    HW238457   0.750   4.263   4.954  0.9067  0.9387  0.6522
 8999SOL     OW38458   2.028   2.921  12.280 -0.7540  0.1994 -0.4185
 8999SOL    HW138459   2.045   2.900  12.372 -0.5632 -1.0935 -0.7471
 8999SOL    HW238460   1.936   2.945  12.291 -0.7391  0.9076 -1.8632
 9000SOL     OW38461   0.135   2.366   1.960  0.2192 -0.6391 -0.2390
 9000SOL    HW138462   0.178   2.447   1.933  0.9185 -0.4145  1.5486
 9000SOL    HW238463   0.208   2.305   1.965 -0.0844 -0.8872  1.0042
 9001SOL     OW38464   4.714   0.259   4.659  0.2583 -0.0628  0.0618
 9001SOL    HW138465   4.634   0.284   4.705 -1.1882 -1.6019 -1.5646
 9001SOL    HW238466   4.669   0.202   4.596  0.7724 -1.2609  0.7795
 9002SOL     OW38467   2.082   1.694   9.489  0.7126 -0.2448 -0.9049
 9002SOL    HW138468   2.055   1.718   9.577  0.9896 -0.7335 -0.6850
 9002SOL    HW238469   2.001   1.657   9.453  0.7672 -0.4745 -0.7942
 9003SOL     OW38470   0.293   0.824   0.237  0.7360  0.3027 -0.6821
 9003SOL    HW138471   0.286   0.919   0.229  3.9338  0.6419  0.7191
 9003SOL    HW238472   0.382   0.825   0.271 -0.1302  0.7604  1.5597
 9004SOL     OW38473   3.802   1.218   7.226  0.2864  0.4750  0.3513
 9004SOL    HW138474   3.755   1.200   7.308 -0.4997 -0.8599 -0.3789
 9004SOL    HW238475   3.853   1.298   7.231  1.1339 -0.0749  0.6566
 9005SOL     OW38476   1.811   4.519   9.408  0.5362  0.2374 -0.2694
 9005SOL    HW138477   1.811   4.479   9.321  2.4005  2.2245 -1.1704
 9005SOL    HW238478   1.735   4.578   9.408  0.4169  0.0856  0.7089
 9006SOL     OW38479   0.570   0.867   0.735 -0.1161  0.5292  0.0892
 9006SOL    HW138480   0.566   0.786   0.684  2.5063  1.5036 -1.6124
 9006SOL    HW238481   0.665   0.872   0.740 -0.1665  2.4918 -0.8492
 9007SOL     OW38482   3.636   3.326   7.411 -0.1198 -0.0988 -0.8168
 9007SOL    HW138483   3.661   3.406   7.365 -0.5132  0.1658 -0.5751
 9007SOL    HW238484   3.660   3.255   7.352 -1.7964 -1.9011  0.6644
 9008SOL     OW38485   4.216   0.915   6.181 -0.3391  0.0369 -0.3168
 9008SOL    HW138486   4.206   0.928   6.087 -1.3487  0.8523 -0.1025
 9008SOL    HW238487   4.309   0.931   6.200 -0.6692  1.1646  0.3660
 9009SOL     OW38488   1.485   3.766   6.381  0.2125 -0.2969  0.6515
 9009SOL    HW138489   1.524   3.740   6.298 -0.2495 -3.0125  1.3008
 9009SOL    HW238490   1.549   3.767   6.452  0.9745  0.9481 -0.0449
 9010SOL     OW38491   2.434   3.110   6.806 -0.1757  0.2462  0.5125
 9010SOL    HW138492   2.435   3.136   6.898 -2.8865  1.5577  0.1647
 9010SOL    HW238493   2.503   3.168   6.774 -0.6263 -0.9832 -2.7113
 9011SOL     OW38494   1.498   3.308   5.732 -0.7832 -0.3131  0.0891
 9011SOL    HW138495   1.528   3.272   5.816  1.7469 -1.5643 -1.3498
 9011SOL    HW238496   1.428   3.369   5.758 -1.4701 -0.6824 -0.9197
 9012SOL     OW38497   2.635   1.422   3.042  0.0499 -0.8386 -0.4845
 9012SOL    HW138498   2.600   1.333   3.049  1.2832 -1.3115 -0.3483
 9012SOL    HW238499   2.684   1.418   2.960  1.2356 -0.9610  0.2378
 9013SOL     OW38500   0.307   0.320   5.949 -0.2072  0.4099  0.0313
 9013SOL    HW138501   0.255   0.358   5.879 -0.8685 -0.9409 -0.2219
 9013SOL    HW238502   0.352   0.400   5.976 -1.1718  1.8847 -2.7378
 9014SOL     OW38503   1.429   1.727  15.483 -0.4497  0.2075 -0.4858
 9014SOL    HW138504   1.467   1.694  15.564  0.1049  0.6226 -0.5742
 9014SOL    HW238505   1.396   1.812  15.513  2.7781  1.7313 -1.2368
 9015SOL     OW38506   4.057   2.550  14.573  0.5703 -0.5741  0.0863
 9015SOL    HW138507   4.014   2.595  14.500 -0.0329  0.3195  0.9725
 9015SOL    HW238508   4.039   2.608  14.647 -0.1064 -2.3354  1.3189
 9016SOL     OW38509   1.198   2.931  17.492  0.2076 -0.4270  0.2534
 9016SOL    HW138510   1.166   2.885  17.414 -1.5692  0.7519  0.2877
 9016SOL    HW238511   1.127   2.903  17.550  1.0262 -0.4858  1.2177
 9017SOL     OW38512   2.378   2.740   2.602 -0.1277  0.1445  0.7130
 9017SOL    HW138513   2.331   2.699   2.675  0.3462  2.5745  2.3751
 9017SOL    HW238514   2.309   2.732   2.536 -0.3192  1.0813  0.8074
 9018SOL     OW38515   0.138   3.638   7.928 -0.6523 -0.1662 -0.5845
 9018SOL    HW138516   0.222   3.626   7.973  0.0431  0.2819 -1.7593
 9018SOL    HW238517   0.149   3.716   7.874 -0.5191  0.8000  0.8511
 9019SOL     OW38518   0.745   3.472   4.145  0.2703  0.1902 -0.0175
 9019SOL    HW138519   0.808   3.522   4.093  0.5485 -0.2536 -0.1018
 9019SOL    HW238520   0.662   3.517   4.126 -0.2936 -0.9936 -0.3360
 9020SOL     OW38521   1.833   1.928   2.903 -0.4368 -0.6404  0.0270
 9020SOL    HW138522   1.765   1.993   2.886  0.3555  0.0843 -0.2867
 9020SOL    HW238523   1.778   1.865   2.951 -0.1593 -0.1799  0.9475
 9021SOL     OW38524   1.054   3.049   5.705 -0.0446  0.0494 -0.0332
 9021SOL    HW138525   1.144   3.065   5.677  0.0749 -2.9099 -1.2923
 9021SOL    HW238526   1.056   3.093   5.790 -0.2851  0.8721 -0.4533
 9022SOL     OW38527   2.654   1.933   1.617  0.2094 -0.2055 -0.0690
 9022SOL    HW138528   2.675   1.861   1.676 -2.2616 -0.7147  0.1802
 9022SOL    HW238529   2.560   1.949   1.623  0.0097 -2.3876  2.5403
 9023SOL     OW38530   1.334   0.740   4.141  0.1346 -0.0614 -0.2454
 9023SOL    HW138531   1.295   0.668   4.190 -0.1021 -1.3214 -2.2984
 9023SOL    HW238532   1.417   0.746   4.190  0.1616 -1.5378 -0.1023
 9024SOL     OW38533   4.490   2.594   6.423  0.2602  0.0780  0.0511
 9024SOL    HW138534   4.447   2.591   6.509 -2.0518  4.0515 -0.9688
 9024SOL    HW238535   4.518   2.502   6.421 -0.0387 -0.0305  0.8445
 9025SOL     OW38536   2.692   2.116   6.398 -0.2698  0.2542  0.0725
 9025SOL    HW138537   2.632   2.151   6.332 -0.6391 -1.7454 -0.6371
 9025SOL    HW238538   2.772   2.163   6.375  0.0439  0.0964  0.8299
 9026SOL     OW38539   3.728   4.685  14.652  0.3474 -0.6000  0.5547
 9026SOL    HW138540   3.700   4.634  14.576  3.2077 -0.7922 -0.3653
 9026SOL    HW238541   3.785   4.619  14.691 -0.9266  0.1679  3.7206
 9027SOL     OW38542   2.864   4.219   9.230 -0.9289  0.2215 -0.1966
 9027SOL    HW138543   2.840   4.310   9.247  2.0543  1.2449 -1.5767
 9027SOL    HW238544   2.929   4.229   9.161 -1.6875  0.9041 -0.8138
 9028SOL     OW38545   0.435   2.183   2.352  0.5022 -0.4479  0.4992
 9028SOL    HW138546   0.465   2.139   2.272 -1.6257  2.7534 -2.0707
 9028SOL    HW238547   0.515   2.224   2.384 -0.1884  1.2537  0.0372
 9029SOL     OW38548   2.747   0.449   5.961  0.0128 -0.0612  0.4408
 9029SOL    HW138549   2.673   0.450   5.900 -0.7837  3.3017  1.4671
 9029SOL    HW238550   2.779   0.539   5.964 -0.6344  0.1850 -0.0242
 9030SOL     OW38551   0.936   0.535   1.881  0.1821  0.2656  0.0171
 9030SOL    HW138552   0.993   0.576   1.946  0.8272 -0.1009 -0.3157
 9030SOL    HW238553   0.999   0.465   1.862  0.0291  0.0075  0.4630
 9031SOL     OW38554   3.556   0.007   5.945 -0.6417  0.5298  0.0684
 9031SOL    HW138555   3.585   0.071   6.010  2.9718 -2.3383  1.2764
 9031SOL    HW238556   3.633   4.678   5.926  0.8447  2.6898  0.0997
 9032SOL     OW38557   2.425   4.642   4.174 -0.3453  0.1878 -0.5145
 9032SOL    HW138558   2.462   4.639   4.085 -0.7756 -0.5963 -0.6587
 9032SOL    HW238559   2.351   4.584   4.158 -0.4819  0.5226 -1.1082
 9033SOL     OW38560   1.782   2.252   9.082 -0.0354  0.1345 -0.6188
 9033SOL    HW138561   1.713   2.303   9.124 -0.0728 -1.7349  1.5726
 9033SOL    HW238562   1.806   2.180   9.140 -0.9508  0.3534  0.0236
 9034SOL     OW38563   2.416   3.787  15.589 -0.8425  1.3565 -0.2377
 9034SOL    HW138564   2.474   3.721  15.550 -0.4397  1.0609  0.8802
 9034SOL    HW238565   2.349   3.789  15.520  1.0960 -3.0379 -2.2620
 9035SOL     OW38566   4.049   4.433   2.117  0.4727 -0.2592 -0.0433
 9035SOL    HW138567   3.992   4.376   2.168  0.0587  1.1388  1.0576
 9035SOL    HW238568   4.031   4.393   2.032  0.4464 -2.3488  0.9561
 9036SOL     OW38569   4.553   0.734   8.653  0.1695 -0.6709  0.1287
 9036SOL    HW138570   4.575   0.703   8.741  2.7225 -1.0030 -0.6111
 9036SOL    HW238571   4.640   0.733   8.613 -0.0408  1.4468 -0.3562
 9037SOL     OW38572   2.454   2.659   3.525  0.0933  0.7175  0.1957
 9037SOL    HW138573   2.441   2.720   3.453 -0.6848 -0.4817 -0.6821
 9037SOL    HW238574   2.386   2.686   3.587 -0.6291 -2.7400  0.9390
 9038SOL     OW38575   2.342   2.537  11.066  0.0138  0.7643  0.7066
 9038SOL    HW138576   2.263   2.552  11.118 -0.3512 -1.2795  0.7279
 9038SOL    HW238577   2.376   2.461  11.113 -2.0792 -0.1088  0.8111
 9039SOL     OW38578   0.961   3.465   1.638 -0.1669  0.6559 -0.2947
 9039SOL    HW138579   0.946   3.444   1.730  0.5075  0.8062 -0.1491
 9039SOL    HW238580   1.031   3.528   1.655 -2.5886  2.6828  2.1651
 9040SOL     OW38581   2.806   0.980  15.468 -0.0119  0.0950  0.1197
 9040SOL    HW138582   2.848   1.066  15.465 -2.9192  1.4333 -1.8950
 9040SOL    HW238583   2.736   0.991  15.403 -0.7351  0.3548  0.9405
 9041SOL     OW38584   4.633   3.720   7.444  0.1344  0.2685 -0.2928
 9041SOL    HW138585   4.577   3.773   7.501  1.5617 -0.1205  1.4837
 9041SOL    HW238586   4.565   3.687   7.385  1.5482 -2.4280 -0.4314
 9042SOL     OW38587   2.598   4.066   6.241 -0.5111 -0.5426  0.3142
 9042SOL    HW138588   2.601   4.161   6.247 -0.4595 -0.6306  1.7073
 9042SOL    HW238589   2.526   4.029   6.191  0.2728 -3.8479  1.6036
 9043SOL     OW38590   1.523   3.052  11.032 -0.6892 -0.5414  0.6573
 9043SOL    HW138591   1.465   3.079  11.104 -0.0754 -0.4848  1.1305
 9043SOL    HW238592   1.564   3.126  10.986  1.0158 -2.2487 -0.5587
 9044SOL     OW38593   3.170   0.886   3.155 -0.3191  0.8581 -0.4105
 9044SOL    HW138594   3.133   0.872   3.067 -0.4733 -0.7137 -0.1093
 9044SOL    HW238595   3.089   0.897   3.204  0.5333 -0.9463  1.3973
 9045SOL     OW38596   2.329   4.293   4.904  0.2373  0.0853 -0.4171
 9045SOL    HW138597   2.311   4.387   4.896  0.0764  0.0237 -0.7731
 9045SOL    HW238598   2.393   4.287   4.975  0.7427 -0.8743 -0.9648
 9046SOL     OW38599   1.044   0.583  15.298 -0.0395  0.1436  0.3019
 9046SOL    HW138600   1.104   0.639  15.249 -0.1315 -0.2760 -0.2976
 9046SOL    HW238601   1.010   0.643  15.364 -2.0849 -0.7486  0.0829
 9047SOL     OW38602   0.370   4.396   4.946  0.4036 -0.2318 -0.0451
 9047SOL    HW138603   0.430   4.470   4.960  0.8730 -0.8905  1.4418
 9047SOL    HW238604   0.345   4.385   5.038  1.2192  3.3166  0.6212
 9048SOL     OW38605   3.911   0.374   5.339  0.4023 -0.2143  0.3362
 9048SOL    HW138606   3.817   0.383   5.358  0.0465  2.2901 -2.5762
 9048SOL    HW238607   3.931   0.466   5.322 -1.0176  0.0141 -0.1224
 9049SOL     OW38608   4.205   1.670   5.839 -0.1361  0.8451  0.4211
 9049SOL    HW138609   4.262   1.640   5.768 -1.0985 -1.0019  0.4502
 9049SOL    HW238610   4.238   1.760   5.845  0.5569  0.7410 -1.7284
 9050SOL     OW38611   1.014   2.937   8.719 -0.0869  0.2072  0.0600
 9050SOL    HW138612   1.106   2.925   8.741 -0.0967  0.5614  0.2920
 9050SOL    HW238613   1.025   2.981   8.634 -1.5585 -3.1364 -1.8457
 9051SOL     OW38614   4.372   1.588   4.604  0.4281 -0.1670  0.2937
 9051SOL    HW138615   4.443   1.527   4.623 -0.7033 -1.2028  1.1833
 9051SOL    HW238616   4.426   1.649   4.553 -0.9792  1.4028  0.6622
 9052SOL     OW38617   2.555   0.913   4.686  0.1971 -0.3710  0.4330
 9052SOL    HW138618   2.524   0.914   4.776 -1.2724 -0.0296 -0.0704
 9052SOL    HW238619   2.612   0.990   4.688 -0.3156  0.2256 -5.4223
 9053SOL     OW38620   2.882   4.478  10.710  0.3698  0.0211 -0.9610
 9053SOL    HW138621   2.946   4.485  10.640  0.1676  1.0827 -1.0364
 9053SOL    HW238622   2.819   4.543  10.680 -2.2193 -0.8046  2.5392
 9054SOL     OW38623   1.710   2.410   6.342  0.0904  0.2559 -0.4816
 9054SOL    HW138624   1.717   2.505   6.343 -2.4104  0.4582 -0.4688
 9054SOL    HW238625   1.773   2.383   6.275  0.7346  2.8779 -0.9240
 9055SOL     OW38626   1.681   2.024  10.785 -0.3780 -0.3167 -0.0700
 9055SOL    HW138627   1.716   2.105  10.746 -1.8539  1.0823  1.5165
 9055SOL    HW238628   1.648   1.974  10.710 -1.4195 -1.4712  1.1676
 9056SOL     OW38629   2.128   1.380  16.837 -0.4187  0.1104  0.3021
 9056SOL    HW138630   2.064   1.321  16.878 -0.5572  0.1028  0.0735
 9056SOL    HW238631   2.209   1.330  16.833  0.3786  1.5781 -1.4640
 9057SOL     OW38632   3.149   3.603   4.774  0.2551  0.0768 -0.4300
 9057SOL    HW138633   3.094   3.549   4.829  0.4079 -1.8681 -2.1840
 9057SOL    HW238634   3.205   3.538   4.732 -0.2026 -0.9906  0.6414
 9058SOL     OW38635   3.327   4.330   2.729  0.1573 -0.4388 -0.1182
 9058SOL    HW138636   3.414   4.369   2.741 -1.8164  4.0512 -0.3588
 9058SOL    HW238637   3.269   4.400   2.761  0.2274 -1.1301  1.5092
 9059SOL     OW38638   2.688   4.053   8.963 -0.2228 -0.3144  0.1074
 9059SOL    HW138639   2.693   4.029   9.056 -2.2660 -0.7022  0.1036
 9059SOL    HW238640   2.775   4.040   8.926  0.4581  1.6563  1.0128
 9060SOL     OW38641   4.325   1.109  17.347 -1.1740  0.9242  0.0820
 9060SOL    HW138642   4.275   1.105  17.428 -1.2505  3.3508  0.1473
 9060SOL    HW238643   4.336   1.021  17.311 -0.3928  0.3996  1.6309
 9061SOL     OW38644   4.722   2.250   4.556 -0.1148  0.4070 -0.7376
 9061SOL    HW138645   4.673   2.171   4.582 -0.2612  0.8042  0.1707
 9061SOL    HW238646   4.679   2.272   4.473 -0.5359  1.6105 -0.1986
 9062SOL     OW38647   2.650   4.635   5.502 -0.6689  0.6899  0.3989
 9062SOL    HW138648   2.706   4.564   5.531  0.2755  1.2376 -0.0707
 9062SOL    HW238649   2.701   4.698   5.451  0.8582  1.1843  2.5332
 9063SOL     OW38650   4.057   0.500   6.117 -0.1259  0.4118  0.0822
 9063SOL    HW138651   4.132   0.544   6.077 -1.6356  1.9097 -1.1250
 9063SOL    HW238652   4.013   0.583   6.138 -0.1218  0.3968  0.1497
 9064SOL     OW38653   0.928   1.534   0.769  0.1575  0.4341 -0.0977
 9064SOL    HW138654   0.857   1.544   0.706  1.0191 -2.2493 -1.4982
 9064SOL    HW238655   0.985   1.474   0.720  0.2543 -0.3733  0.9817
 9065SOL     OW38656   3.681   0.012   8.230  0.2617 -0.3879  0.0430
 9065SOL    HW138657   3.643   4.679   8.297  0.4224  0.1930  0.6353
 9065SOL    HW238658   3.744   0.056   8.287 -1.2565 -0.2957  1.6582
 9066SOL     OW38659   0.410   3.294   0.738 -0.1781  0.3995 -0.3017
 9066SOL    HW138660   0.497   3.330   0.754 -0.5635  1.9168 -1.6190
 9066SOL    HW238661   0.352   3.366   0.764  0.3623  1.4058 -1.8684
 9067SOL     OW38662   0.655   0.761  15.107 -0.1375 -0.1106  0.1094
 9067SOL    HW138663   0.679   0.823  15.037  1.5022 -0.8591  0.0132
 9067SOL    HW238664   0.629   0.683  15.058  0.9453  0.1042 -0.8002
 9068SOL     OW38665   0.079   3.685   4.642  0.0744  0.4011 -0.2790
 9068SOL    HW138666   0.170   3.657   4.646  0.5602  2.0326  0.0170
 9068SOL    HW238667   0.037   3.603   4.614  0.2022  0.4229 -0.5233
 9069SOL     OW38668   0.232   4.720   6.396  0.7536  0.0669  0.3985
 9069SOL    HW138669   0.254   0.034   6.311 -0.9841 -1.1401 -0.5873
 9069SOL    HW238670   0.321   4.697   6.423  0.4979 -1.1339  0.2359
 9070SOL     OW38671   4.372   1.261   4.128 -0.0817  0.5817 -0.6831
 9070SOL    HW138672   4.299   1.211   4.165  1.6142 -1.1928  0.3038
 9070SOL    HW238673   4.339   1.289   4.042  0.0969  0.7184 -0.7064
 9071SOL     OW38674   0.920   2.162   5.542  0.7001 -0.3327  1.1493
 9071SOL    HW138675   0.895   2.218   5.615 -0.2732 -0.0605  0.6099
 9071SOL    HW238676   1.008   2.185   5.514 -0.2725  1.3207 -0.5500
 9072SOL     OW38677   4.472   0.050   8.018 -0.5754 -0.7707 -0.5825
 9072SOL    HW138678   4.546   0.010   8.064 -1.0061 -0.2840  0.5338
 9072SOL    HW238679   4.512   0.074   7.934  0.8224  0.1045  0.3395
 9073SOL     OW38680   4.179   1.405  17.293  0.2313 -0.5371  0.9692
 9073SOL    HW138681   4.133   1.340  17.346 -0.5059  0.8389  2.0213
 9073SOL    HW238682   4.221   1.351  17.227 -1.0605  0.2808 -0.5091
 9074SOL     OW38683   0.876   4.625  16.407 -0.1841 -0.1179 -0.2364
 9074SOL    HW138684   0.798   4.574  16.385  1.4687 -1.7076 -2.3225
 9074SOL    HW238685   0.911   4.648  16.321  0.1994 -0.0829 -0.0720
 9075SOL     OW38686   2.730   2.120  17.327 -0.1807  0.8831 -0.3780
 9075SOL    HW138687   2.637   2.098  17.323 -0.5128  2.4590 -1.2258
 9075SOL    HW238688   2.748   2.108  17.420  1.5406  0.6704 -0.7386
 9076SOL     OW38689   0.012   1.639   3.436  0.0743 -0.5670 -0.0933
 9076SOL    HW138690   4.651   1.675   3.460  1.1223  0.5574  1.9219
 9076SOL    HW238691   4.723   1.544   3.435  0.6158 -0.6102 -2.7777
 9077SOL     OW38692   4.575   4.299   7.005  0.2618  0.6784 -0.0894
 9077SOL    HW138693   4.602   4.244   6.932 -1.1005  1.3240 -1.0900
 9077SOL    HW238694   4.527   4.369   6.961 -1.9021 -1.9311 -1.8679
 9078SOL     OW38695   0.891   1.523   5.660 -0.4844  0.0077  0.3892
 9078SOL    HW138696   0.896   1.454   5.593 -0.9218  1.1711 -0.8280
 9078SOL    HW238697   0.833   1.586   5.617  0.2422  1.0900  1.0030
 9079SOL     OW38698   4.599   0.250   6.308  0.5919 -0.8642  0.0421
 9079SOL    HW138699   4.517   0.300   6.306  0.9037 -0.4108 -1.2564
 9079SOL    HW238700   4.567   0.171   6.264  0.3977  0.0825 -1.5064
 9080SOL     OW38701   0.781   0.217   4.344  0.3608 -0.3118  0.1565
 9080SOL    HW138702   0.791   0.308   4.315 -2.3071 -0.1205 -0.1842
 9080SOL    HW238703   0.777   0.166   4.263  0.4302 -2.0951  1.2944
 9081SOL     OW38704   4.209   3.953   7.428  0.2391 -0.1700 -0.5411
 9081SOL    HW138705   4.152   3.974   7.502  1.0406 -0.8211  0.2486
 9081SOL    HW238706   4.193   4.033   7.378 -0.8782 -0.3241 -0.4422
 9082SOL     OW38707   0.258   0.961   5.621 -0.1835  0.0710  0.2856
 9082SOL    HW138708   0.312   0.891   5.584 -0.2482  0.1842 -0.0195
 9082SOL    HW238709   0.325   1.029   5.617 -1.5597  1.4226  0.3160
 9083SOL     OW38710   1.217   2.772   3.698 -0.2086  0.0427  0.1905
 9083SOL    HW138711   1.205   2.865   3.715  0.5809 -0.0608  1.3774
 9083SOL    HW238712   1.129   2.736   3.688  0.2258 -0.6245 -1.1762
 9084SOL     OW38713   0.609   2.820   7.839 -0.0774  0.5414 -0.4030
 9084SOL    HW138714   0.684   2.845   7.893  0.8541 -2.4981 -0.2671
 9084SOL    HW238715   0.609   2.725   7.831  1.0546  0.4873  0.2429
 9085SOL     OW38716   1.356   1.951   8.482 -0.7621  0.0311  0.1585
 9085SOL    HW138717   1.393   1.941   8.569 -2.3212  4.6742  1.3223
 9085SOL    HW238718   1.393   2.037   8.462  0.2417  0.0044  1.8830
 9086SOL     OW38719   4.680   2.140  13.931 -0.2090 -0.6770  0.4458
 9086SOL    HW138720   4.715   2.098  14.009  0.0310 -0.8693  0.2365
 9086SOL    HW238721   4.598   2.182  13.958 -0.0015 -2.0914  3.2380
 9087SOL     OW38722   4.609   4.073   2.855 -0.1318 -0.2180 -0.0310
 9087SOL    HW138723   4.536   4.049   2.797  1.1727  1.4884 -2.3612
 9087SOL    HW238724   4.627   4.164   2.834 -0.0545 -0.2318 -0.0229
 9088SOL     OW38725   1.959   3.518  15.818 -0.0803  0.3890 -0.1610
 9088SOL    HW138726   1.975   3.603  15.777 -1.1202  0.7579  0.1890
 9088SOL    HW238727   2.008   3.536  15.898 -2.4101 -0.2736  1.4259
 9089SOL     OW38728   2.708   2.748   7.296  0.3680 -0.0369 -0.1792
 9089SOL    HW138729   2.712   2.698   7.215 -0.7829 -2.8648  1.5129
 9089SOL    HW238730   2.734   2.683   7.361 -0.5874 -0.4181 -0.1813
 9090SOL     OW38731   4.422   2.409   3.958 -0.3545  0.1956  0.3844
 9090SOL    HW138732   4.398   2.465   4.032 -0.5124  0.0692  0.4297
 9090SOL    HW238733   4.340   2.365   3.939  0.0452  0.2743 -1.5379
 9091SOL     OW38734   3.024   3.274   8.810  0.1977  0.0724  0.3051
 9091SOL    HW138735   3.015   3.181   8.828  0.2437 -0.2568 -1.3448
 9091SOL    HW238736   3.119   3.288   8.819  0.4027 -0.6263 -0.7941
 9092SOL     OW38737   3.177   4.470   5.849  0.0223  0.3506 -0.4251
 9092SOL    HW138738   3.258   4.499   5.892 -0.7216 -1.0739  1.8870
 9092SOL    HW238739   3.190   4.377   5.833  2.7891  0.5435  0.5864
 9093SOL     OW38740   2.364   3.384  16.351  0.2745  0.0084 -0.0612
 9093SOL    HW138741   2.419   3.352  16.422  2.4644  3.2773 -0.2763
 9093SOL    HW238742   2.281   3.351  16.385  0.8624 -0.8772  0.4832
 9094SOL     OW38743   2.991   1.915  15.641  0.0702  0.2874 -0.1896
 9094SOL    HW138744   3.052   1.930  15.569 -0.1593  1.6706 -0.0915
 9094SOL    HW238745   3.036   1.845  15.689 -0.3213  0.5185  0.5142
 9095SOL     OW38746   2.779   4.660   4.249 -0.4895 -0.0332 -0.2281
 9095SOL    HW138747   2.870   4.648   4.277 -0.9390 -1.8860  0.4597
 9095SOL    HW238748   2.783   4.656   4.154 -0.7499 -0.9173 -0.2048
 9096SOL     OW38749   1.828   2.635   9.169  0.1649  0.4343  0.3061
 9096SOL    HW138750   1.758   2.572   9.184  0.2362  0.1263 -0.6513
 9096SOL    HW238751   1.882   2.609   9.243 -1.4793  3.2944  2.5175
 9097SOL     OW38752   4.638   4.614  11.510 -0.5819  0.0460  0.4302
 9097SOL    HW138753   4.616   4.657  11.427 -0.4473 -0.0972  0.3189
 9097SOL    HW238754   4.597   4.527  11.503  1.5336 -0.7390 -2.2471
 9098SOL     OW38755   4.543   0.435  12.602  0.0139 -0.0053 -0.0455
 9098SOL    HW138756   4.605   0.363  12.609  0.1894  0.2573  1.1171
 9098SOL    HW238757   4.556   0.467  12.512  0.8522  0.0569  0.0967
 9099SOL     OW38758   1.916   3.363   0.890  0.0951 -0.8783  0.1404
 9099SOL    HW138759   1.999   3.409   0.907 -0.9954  0.8417  0.7965
 9099SOL    HW238760   1.894   3.329   0.977  0.7827 -1.1163  0.2218
 9100SOL     OW38761   4.619   4.461   8.620  0.4064 -0.3094 -0.0046
 9100SOL    HW138762   4.708   4.426   8.614 -0.0776 -1.6687  0.9652
 9100SOL    HW238763   4.581   4.442   8.534  0.1435  0.0227  0.0403
 9101SOL     OW38764   3.451   3.454  12.316 -0.0300 -0.1876 -0.1861
 9101SOL    HW138765   3.408   3.395  12.254 -2.0199  0.0406  0.9548
 9101SOL    HW238766   3.425   3.537  12.276 -0.1578  0.2764  0.8580
 9102SOL     OW38767   2.225   4.618  15.113  0.2352  0.0719  0.5082
 9102SOL    HW138768   2.178   4.546  15.155  1.6239 -0.1794  1.6285
 9102SOL    HW238769   2.318   4.593  15.114  0.1788 -0.1747 -2.2125
 9103SOL     OW38770   1.899   3.975   3.964  0.7854 -0.1849 -0.3514
 9103SOL    HW138771   1.811   3.986   4.002  1.9976  0.4000  2.2922
 9103SOL    HW238772   1.945   3.919   4.027  1.0206 -0.2416 -0.5754
 9104SOL     OW38773   4.566   0.213   5.622  0.3261 -0.0499  0.0586
 9104SOL    HW138774   4.618   0.139   5.652 -0.6408 -0.7255  0.0636
 9104SOL    HW238775   4.613   0.238   5.542 -0.5673 -0.7631 -0.6887
 9105SOL     OW38776   0.007   1.635   4.311  0.1138 -0.2930 -0.2969
 9105SOL    HW138777   4.705   1.613   4.401  1.0372 -1.1261 -0.2230
 9105SOL    HW238778   4.674   1.578   4.260 -0.0205 -1.3218  0.9755
 9106SOL     OW38779   3.779   3.463   2.010  0.6179  0.0833 -0.2731
 9106SOL    HW138780   3.866   3.467   2.050 -0.3028 -1.3079  1.8432
 9106SOL    HW238781   3.789   3.526   1.939  2.6220  0.5341  0.4196
 9107SOL     OW38782   2.571   4.288   9.570  0.2361 -0.3649  0.7778
 9107SOL    HW138783   2.645   4.235   9.541 -0.0060  0.0931 -0.6952
 9107SOL    HW238784   2.604   4.321   9.653  1.0064  0.3271  0.1845
 9108SOL     OW38785   3.382   3.858  16.293  0.2057 -0.1340 -0.2667
 9108SOL    HW138786   3.312   3.824  16.238  0.8593  1.5336 -2.1449
 9108SOL    HW238787   3.394   3.787  16.356 -0.4145 -0.3723 -0.4237
 9109SOL     OW38788   4.616   3.209   1.631  0.2240 -0.1571 -0.0373
 9109SOL    HW138789   4.619   3.295   1.590  0.3325  1.8306  4.1672
 9109SOL    HW238790   4.597   3.146   1.562  0.8870  1.4014 -1.6299
 9110SOL     OW38791   4.705   4.403  13.425  0.0436 -0.3925 -0.1276
 9110SOL    HW138792   4.688   4.372  13.337 -1.0540 -0.8189  0.2394
 9110SOL    HW238793   4.670   4.493  13.425 -0.9762 -0.7944 -0.0038
 9111SOL     OW38794   0.524   0.946  12.261  0.2057 -0.1595 -0.2849
 9111SOL    HW138795   0.519   1.037  12.293 -0.7970 -0.0661 -0.6909
 9111SOL    HW238796   0.457   0.947  12.192  0.1124 -3.1239 -0.2158
 9112SOL     OW38797   0.726   2.098   4.121 -0.3585  0.7538 -0.0943
 9112SOL    HW138798   0.789   2.100   4.049 -0.5021  1.7577 -0.1844
 9112SOL    HW238799   0.774   2.099   4.204 -2.2250  4.5164  0.9152
 9113SOL     OW38800   2.079   2.985   7.243  0.4932  0.2757 -0.5068
 9113SOL    HW138801   2.083   2.914   7.178 -1.2553 -0.7191  0.4774
 9113SOL    HW238802   2.103   2.941   7.325 -3.3430 -3.3887 -1.3501
 9114SOL     OW38803   4.462   2.634   7.034  0.3319  0.4154 -0.5319
 9114SOL    HW138804   4.383   2.587   7.007 -1.1926  0.5414  3.6638
 9114SOL    HW238805   4.487   2.668   6.948  1.1789 -1.6485 -1.0950
 9115SOL     OW38806   0.366   3.885   3.611 -0.2146 -0.1886  0.5047
 9115SOL    HW138807   0.450   3.840   3.611  0.1149  0.4104 -2.2796
 9115SOL    HW238808   0.366   3.932   3.528 -0.3618  0.7430  1.0335
 9116SOL     OW38809   1.610   3.921  13.376  0.1130  0.4109  0.3997
 9116SOL    HW138810   1.599   4.004  13.330 -2.3113  1.3267  2.6496
 9116SOL    HW238811   1.568   3.943  13.459  2.7807  2.3589  1.2368
 9117SOL     OW38812   3.100   0.632   6.229 -0.5774 -0.7422 -0.0134
 9117SOL    HW138813   3.184   0.609   6.270 -0.6939  0.0980  0.6857
 9117SOL    HW238814   3.086   0.540   6.207 -0.6763 -0.5426 -0.7903
 9118SOL     OW38815   1.728   1.992   7.685 -0.1659  0.3069 -0.1180
 9118SOL    HW138816   1.686   1.907   7.682  2.6205 -1.1801  2.7770
 9118SOL    HW238817   1.809   1.967   7.729 -1.0009 -0.8036  0.7896
 9119SOL     OW38818   1.944   3.551   8.193  0.4660 -0.0521 -0.0008
 9119SOL    HW138819   1.886   3.513   8.127 -1.6847  1.2094  1.1636
 9119SOL    HW238820   1.909   3.640   8.191  0.8421  0.1089  0.4615
 9120SOL     OW38821   4.309   0.508   9.709  0.1211 -0.7018  0.1675
 9120SOL    HW138822   4.279   0.514   9.800 -2.1725 -0.3503 -0.6032
 9120SOL    HW238823   4.233   0.530   9.655  0.4002  0.7324  0.3669
 9121SOL     OW38824   3.856   1.520   2.756 -0.4310  0.4948  0.2099
 9121SOL    HW138825   3.933   1.562   2.719 -0.2843  0.6713  0.7074
 9121SOL    HW238826   3.862   1.441   2.703  2.2170  0.1151  1.1219
 9122SOL     OW38827   1.176   2.760   7.471  0.4865  0.7365  0.0263
 9122SOL    HW138828   1.241   2.698   7.503 -0.9207  0.0924  1.6808
 9122SOL    HW238829   1.214   2.836   7.516  1.0882 -0.0241  0.7939
 9123SOL     OW38830   1.771   1.074   4.366  1.0462 -0.1453 -0.0041
 9123SOL    HW138831   1.749   1.166   4.349  0.9593 -0.0672  0.5123
 9123SOL    HW238832   1.865   1.067   4.351  0.6734  1.1997 -2.8416
 9124SOL     OW38833   0.920   0.064   7.305  0.4739  0.5212  0.0622
 9124SOL    HW138834   0.856   0.132   7.325  0.3357  0.3432  0.2272
 9124SOL    HW238835   0.872   4.722   7.255  2.7383 -1.4861  0.5272
 9125SOL     OW38836   3.760   2.211   7.610  0.3806  0.3948  0.4551
 9125SOL    HW138837   3.819   2.170   7.672  0.8837 -0.5348 -0.6290
 9125SOL    HW238838   3.711   2.267   7.671  1.0600  0.5137  0.8853
 9126SOL     OW38839   1.052   1.992  12.624  0.1363 -0.2030  0.1040
 9126SOL    HW138840   1.027   1.929  12.692  1.3637 -0.1335  0.6223
 9126SOL    HW238841   1.021   2.068  12.672  2.5841  0.9841 -0.1826
 9127SOL     OW38842   1.566   0.436   4.215  0.6565 -0.4948 -1.0427
 9127SOL    HW138843   1.599   0.346   4.206 -0.9504 -1.4434  2.4312
 9127SOL    HW238844   1.525   0.427   4.301  1.0972  1.5702 -0.6253
 9128SOL     OW38845   4.549   0.685   8.227 -0.7418  0.9375  0.0004
 9128SOL    HW138846   4.595   0.641   8.156 -1.0010  4.1109 -2.1262
 9128SOL    HW238847   4.581   0.775   8.213  2.8025 -0.0865  1.5021
 9129SOL     OW38848   3.420   3.355   5.007  0.3576 -0.3714 -0.0594
 9129SOL    HW138849   3.413   3.260   4.998  0.3453 -0.4900  1.2750
 9129SOL    HW238850   3.359   3.383   4.937 -0.3718  0.1678  0.7922
 9130SOL     OW38851   2.878   3.158   3.067  0.3444 -0.0231 -0.5280
 9130SOL    HW138852   2.790   3.168   3.102  1.2986  2.1797  1.2698
 9130SOL    HW238853   2.885   3.237   3.013 -1.0358  1.5406  1.5785
 9131SOL     OW38854   0.975   2.546  16.575 -0.3435  0.1110  0.4053
 9131SOL    HW138855   1.028   2.617  16.539 -1.3930 -0.2188 -1.7717
 9131SOL    HW238856   0.886   2.579  16.560  0.0452  1.2256  0.5172
 9132SOL     OW38857   2.897   0.748  13.874 -0.1653  0.0758 -0.4336
 9132SOL    HW138858   2.925   0.834  13.906  0.9704 -1.2339  2.0926
 9132SOL    HW238859   2.811   0.741  13.916  0.9293 -0.0121  1.7605
 9133SOL     OW38860   1.746   0.890   7.361 -0.1244  0.0145  0.1713
 9133SOL    HW138861   1.711   0.873   7.449 -1.4116 -0.7153 -0.4834
 9133SOL    HW238862   1.732   0.802   7.326 -1.9747  0.1792  0.5137
 9134SOL     OW38863   2.146   0.254  11.222  0.3363 -0.8453 -0.1606
 9134SOL    HW138864   2.162   0.200  11.144  1.1842 -0.6810 -0.0965
 9134SOL    HW238865   2.054   0.229  11.236  0.0713 -1.3462 -2.6962
 9135SOL     OW38866   4.414   1.247  16.175 -0.6414 -0.2347 -0.3739
 9135SOL    HW138867   4.335   1.298  16.158 -1.2465 -0.8507  0.5802
 9135SOL    HW238868   4.463   1.270  16.096  2.1552 -1.9975  0.8664
 9136SOL     OW38869   4.392   1.758   7.562 -0.5356 -0.7256  0.6214
 9136SOL    HW138870   4.448   1.835   7.571 -3.1541  1.4633 -1.5649
 9136SOL    HW238871   4.325   1.765   7.630 -1.0936 -0.1717  0.0137
 9137SOL     OW38872   4.698   3.914   4.789  0.0420  0.1270  0.1226
 9137SOL    HW138873   0.001   3.843   4.731 -1.5847 -0.5450  0.2012
 9137SOL    HW238874   4.711   3.883   4.878 -0.3151  0.6841  0.3688
 9138SOL     OW38875   4.183   2.922   9.258  0.6492  0.3898  0.3538
 9138SOL    HW138876   4.162   2.876   9.177  0.4958  2.7630 -0.9422
 9138SOL    HW238877   4.147   3.010   9.249 -2.4111 -1.1207 -2.3220
 9139SOL     OW38878   1.078   2.825   4.326  0.1912 -0.0233  0.7159
 9139SOL    HW138879   1.012   2.789   4.386  2.0604 -0.2503  2.6120
 9139SOL    HW238880   1.136   2.882   4.377 -0.1588 -0.7386  1.9135
 9140SOL     OW38881   2.321   1.990   7.941  0.1224 -0.4258 -0.1485
 9140SOL    HW138882   2.241   1.940   7.933 -1.3311  1.9960 -0.6689
 9140SOL    HW238883   2.389   1.939   7.897  1.1826  0.2975  0.6482
 9141SOL     OW38884   3.301   0.063   3.313  0.0703 -0.2611  0.2206
 9141SOL    HW138885   3.288   0.035   3.223 -0.9350 -0.5811  0.4696
 9141SOL    HW238886   3.362   0.136   3.297  0.1638 -0.4702 -0.3694
 9142SOL     OW38887   0.281   0.057   2.100  0.4400  0.0505 -0.3025
 9142SOL    HW138888   0.270   0.079   2.007 -3.5997 -1.9178 -0.2861
 9142SOL    HW238889   0.201   0.097   2.132  1.2972  1.0503  0.5929
 9143SOL     OW38890   4.267   4.272  12.390 -0.5960 -0.2216 -0.5095
 9143SOL    HW138891   4.293   4.216  12.317  0.4833 -0.9986  0.4638
 9143SOL    HW238892   4.237   4.211  12.457  0.1310 -1.7200 -1.5433
 9144SOL     OW38893   0.952   4.215   3.601  0.1136  0.2760 -0.5596
 9144SOL    HW138894   0.950   4.307   3.575  1.0931  0.3956 -0.1941
 9144SOL    HW238895   1.046   4.205   3.612  0.7743  3.4213 -3.3897
 9145SOL     OW38896   2.232   3.629   6.216 -0.0402 -0.7844 -0.4431
 9145SOL    HW138897   2.175   3.575   6.270  0.5955  1.3689  2.3494
 9145SOL    HW238898   2.263   3.703   6.268  0.6346 -0.2253 -1.6344
 9146SOL     OW38899   1.067   1.993   1.986 -0.1501 -0.0982 -0.1864
 9146SOL    HW138900   1.110   1.933   1.926 -2.2637 -1.9141  0.1150
 9146SOL    HW238901   1.103   1.993   2.075 -1.0623  2.6127  0.1891
 9147SOL     OW38902   0.993   2.573   5.851  0.1933  0.1064  0.7207
 9147SOL    HW138903   0.964   2.663   5.838  3.5153  1.1353  0.4272
 9147SOL    HW238904   1.010   2.582   5.945 -0.1125 -0.5346  0.8421
 9148SOL     OW38905   3.941   0.988   1.199 -0.3601 -0.2836 -0.2068
 9148SOL    HW138906   3.928   0.941   1.282 -1.3951  2.5694  1.2479
 9148SOL    HW238907   3.972   1.075   1.224  1.1109 -1.1351  0.9250
 9149SOL     OW38908   2.962   3.273   5.803  0.0367  0.0312 -0.5755
 9149SOL    HW138909   2.916   3.339   5.751  2.8658  2.0882 -0.4504
 9149SOL    HW238910   2.907   3.272   5.881  1.5961  0.4698  0.5183
 9150SOL     OW38911   1.540   1.381   5.787  0.1672  0.3510  0.1897
 9150SOL    HW138912   1.523   1.474   5.775  2.0185  0.9021  1.8708
 9150SOL    HW238913   1.462   1.340   5.749  1.2365 -1.8186  0.3374
 9151SOL     OW38914   3.451   1.025   8.115 -0.3046 -0.2115  0.0930
 9151SOL    HW138915   3.484   1.109   8.147  0.6597 -0.5503 -0.0162
 9151SOL    HW238916   3.361   1.042   8.086 -0.1136  0.8861  0.1267
 9152SOL     OW38917   2.677   2.347   3.332 -0.4399  0.4975 -0.3018
 9152SOL    HW138918   2.684   2.407   3.406 -0.9409  0.6656 -0.3957
 9152SOL    HW238919   2.606   2.297   3.372  1.0479 -2.0432 -0.8057
 9153SOL     OW38920   2.664   0.347   4.404  0.2046 -0.2097 -0.5560
 9153SOL    HW138921   2.736   0.314   4.350 -0.3335 -0.1464 -1.3269
 9153SOL    HW238922   2.639   0.419   4.346 -2.3900  1.0136  2.0679
 9154SOL     OW38923   0.877   2.837   4.698 -0.2411 -0.2586 -0.3430
 9154SOL    HW138924   0.823   2.912   4.723 -0.6363  0.3605 -2.9954
 9154SOL    HW238925   0.873   2.783   4.776  1.6932  0.3647  0.1983
 9155SOL     OW38926   2.608   0.479   2.460  0.3265 -0.4448 -0.4800
 9155SOL    HW138927   2.582   0.391   2.490 -0.7003  1.0496  3.0272
 9155SOL    HW238928   2.697   0.460   2.430  1.2951  1.9154  0.9528
 9156SOL     OW38929   1.065   3.140  17.034 -0.2994  0.1464  0.9938
 9156SOL    HW138930   1.029   3.214  16.984  2.9161  0.7290 -0.5022
 9156SOL    HW238931   1.120   3.191  17.093  3.0017  1.1389 -2.8890
 9157SOL     OW38932   0.538   2.646   7.337  0.6073  0.2537 -0.7466
 9157SOL    HW138933   0.499   2.729   7.311  3.0642  1.2994 -1.0723
 9157SOL    HW238934   0.632   2.649   7.320  0.9259 -1.8615  0.5741
 9158SOL     OW38935   4.014   1.543   7.548  0.4276 -0.0027 -0.4645
 9158SOL    HW138936   3.921   1.552   7.528  0.3811  0.7316  0.0588
 9158SOL    HW238937   4.017   1.448   7.547  2.7921  0.0313  1.6689
 9159SOL     OW38938   0.579   1.083   8.359  0.1941  0.2825  0.2461
 9159SOL    HW138939   0.659   1.133   8.344 -0.5672  1.5440  0.3459
 9159SOL    HW238940   0.601   1.009   8.415  0.5516  0.1280 -0.0965
 9160SOL     OW38941   0.531   3.165  13.776  0.3457  0.2298  0.2647
 9160SOL    HW138942   0.531   3.224  13.701  0.8791  2.7856  2.2817
 9160SOL    HW238943   0.596   3.101  13.746 -1.0141 -0.5012 -1.1383
 9161SOL     OW38944   1.752   4.674   7.983  0.0557  0.2862 -0.0661
 9161SOL    HW138945   1.827   4.652   8.038 -0.5695  0.0781  0.7174
 9161SOL    HW238946   1.736   0.039   8.014 -0.7551  0.4315 -0.9105
 9162SOL     OW38947   3.785   4.336   2.138  0.3201  0.5446 -0.2473
 9162SOL    HW138948   3.774   4.429   2.158  0.1686 -0.0655  2.5996
 9162SOL    HW238949   3.697   4.308   2.165  0.4609 -0.4188 -0.7936
 9163SOL     OW38950   4.483   1.906  16.799  0.2385  0.3646  0.0955
 9163SOL    HW138951   4.534   1.977  16.837 -2.7002  2.0512  0.9128
 9163SOL    HW238952   4.479   1.839  16.867  0.4842  1.2701  0.9983
 9164SOL     OW38953   4.666   0.906   7.725  0.2908 -0.5182 -0.1917
 9164SOL    HW138954   0.013   0.870   7.672  0.8634  0.5349 -0.1439
 9164SOL    HW238955   4.615   0.928   7.648  0.7877 -0.1330 -0.4118
 9165SOL     OW38956   0.321   3.867  11.916  0.2770  0.3342  0.2953
 9165SOL    HW138957   0.295   3.948  11.961  1.4505  0.9386 -0.1117
 9165SOL    HW238958   0.238   3.821  11.904 -1.2772  3.2410 -0.1591
 9166SOL     OW38959   3.305   3.063   2.506  0.1525  0.0922  0.4568
 9166SOL    HW138960   3.219   3.082   2.545 -0.7657 -4.4456  0.6630
 9166SOL    HW238961   3.356   3.022   2.576  0.6230 -1.6389 -0.9072
 9167SOL     OW38962   3.296   3.831   0.757  0.5937 -0.1051 -0.6241
 9167SOL    HW138963   3.278   3.799   0.669 -1.6253  0.0840 -0.2551
 9167SOL    HW238964   3.382   3.792   0.768 -0.0737 -0.9183  1.9464
 9168SOL     OW38965   3.309   3.117   9.479 -0.2577 -0.0592 -0.1489
 9168SOL    HW138966   3.279   3.187   9.421 -1.6179 -2.5408 -2.4337
 9168SOL    HW238967   3.334   3.160   9.561  1.3198  0.0370 -0.6675
 9169SOL     OW38968   1.957   0.912  13.079 -0.4252  0.2697 -0.8494
 9169SOL    HW138969   2.044   0.899  13.116 -0.8704  1.2964  0.5850
 9169SOL    HW238970   1.967   1.002  13.049  0.0713 -0.1429 -1.9130
 9170SOL     OW38971   2.720   3.826   7.061 -0.4440  0.5790  0.0961
 9170SOL    HW138972   2.794   3.855   7.113  0.7339 -2.8273  0.3427
 9170SOL    HW238973   2.758   3.795   6.978  0.2722  1.6920  0.0111
 9171SOL     OW38974   0.678   4.147  11.950 -0.7227 -0.2790 -0.6580
 9171SOL    HW138975   0.638   4.135  12.036 -0.6571  1.7704 -0.3480
 9171SOL    HW238976   0.688   4.242  11.961  0.1777 -0.5469  0.7007
 9172SOL     OW38977   3.590   4.279   2.340  0.0067 -0.1581 -0.0337
 9172SOL    HW138978   3.626   4.348   2.395  1.7982  0.5757 -2.1180
 9172SOL    HW238979   3.499   4.306   2.330  0.0880  0.4155  0.8394
 9173SOL     OW38980   1.717   3.256   0.677 -0.2415  0.0204  0.4210
 9173SOL    HW138981   1.769   3.311   0.737  3.2543 -2.0216 -0.6952
 9173SOL    HW238982   1.665   3.319   0.628  2.1902  2.5918  1.1244
 9174SOL     OW38983   2.840   3.299   8.122 -0.0637  0.1012  0.2440
 9174SOL    HW138984   2.896   3.323   8.195  1.8461  0.8322 -1.4696
 9174SOL    HW238985   2.759   3.275   8.168 -0.7204 -1.1104 -1.5325
 9175SOL     OW38986   4.720   1.127  15.963  0.3607 -0.2617 -0.4427
 9175SOL    HW138987   0.071   1.154  15.909  0.2746 -1.7100 -1.3011
 9175SOL    HW238988   4.707   1.207  16.013 -2.5608 -1.7598  1.1935
 9176SOL     OW38989   1.579   0.521   9.062  0.0928 -0.1805  0.6106
 9176SOL    HW138990   1.534   0.452   9.109  0.4542 -0.7889  0.0639
 9176SOL    HW238991   1.659   0.538   9.112  1.6845 -1.4803 -1.5017
 9177SOL     OW38992   3.379   1.740   6.903 -0.5052  0.1579  0.5642
 9177SOL    HW138993   3.456   1.704   6.859 -1.8017 -2.3712  0.3490
 9177SOL    HW238994   3.332   1.772   6.827 -0.5418 -0.8339  0.1637
 9178SOL     OW38995   0.967   4.590   2.908  0.3272 -0.1675 -0.5585
 9178SOL    HW138996   0.887   4.576   2.858  0.3755  0.9947 -0.9723
 9178SOL    HW238997   0.945   4.669   2.957  0.8862  0.1044 -0.7354
 9179SOL     OW38998   1.412   2.185   9.993 -0.2476 -0.1728 -0.0760
 9179SOL    HW138999   1.381   2.270  10.022  0.7365 -0.5569  2.0730
 9179SOL    HW239000   1.382   2.140  10.072 -0.3469 -0.0272 -0.0322
 9180SOL     OW39001   1.988   2.368   2.601  0.4282  0.1766  0.6982
 9180SOL    HW139002   2.076   2.401   2.619  1.0534 -1.7375  1.1810
 9180SOL    HW239003   2.004   2.280   2.567 -1.5951  0.7018 -1.6301
 9181SOL     OW39004   2.383   2.142  13.257 -0.0611 -0.0519 -0.5601
 9181SOL    HW139005   2.386   2.195  13.177 -0.8441  1.4389  0.4087
 9181SOL    HW239006   2.458   2.085  13.238 -0.3211 -0.0269 -1.6536
 9182SOL     OW39007   0.592   1.760  13.800  0.4204 -0.0903  0.8460
 9182SOL    HW139008   0.532   1.807  13.857 -0.3776 -0.4474  0.3057
 9182SOL    HW239009   0.575   1.668  13.816 -0.4506  0.2326  1.7908
 9183SOL     OW39010   2.247   4.265   7.458  0.6013 -0.2261 -0.0691
 9183SOL    HW139011   2.249   4.212   7.378  1.5742  0.6874 -0.6380
 9183SOL    HW239012   2.155   4.257   7.485  0.1245  1.5730 -1.1395
 9184SOL     OW39013   3.683   2.735  16.711 -0.3772 -0.6184 -0.6510
 9184SOL    HW139014   3.647   2.647  16.695 -2.2871 -0.0963  0.8510
 9184SOL    HW239015   3.633   2.787  16.648 -0.7294  0.1702  0.2823
 9185SOL     OW39016   1.518   1.353   3.349 -0.2439  0.0864  0.8056
 9185SOL    HW139017   1.586   1.413   3.318 -1.4230  1.1615  0.2903
 9185SOL    HW239018   1.518   1.282   3.285  0.3679  1.2540 -0.4975
 9186SOL     OW39019   1.161   3.278   5.378 -0.3061 -0.2157 -0.1822
 9186SOL    HW139020   1.121   3.361   5.405 -4.0643 -1.8617 -0.6368
 9186SOL    HW239021   1.234   3.316   5.329 -0.2616  1.1294  0.9210
 9187SOL     OW39022   0.444   3.374   2.650 -0.2725 -0.0396  0.4556
 9187SOL    HW139023   0.422   3.459   2.611 -0.3349  0.2475  1.1170
 9187SOL    HW239024   0.509   3.343   2.588 -0.3173  2.8792 -1.0483
 9188SOL     OW39025   3.608   0.823   8.568  0.1022 -0.0745 -0.3544
 9188SOL    HW139026   3.633   0.833   8.476 -1.2231  3.0891 -0.3581
 9188SOL    HW239027   3.520   0.860   8.567  0.5528  1.0319  1.0732
 9189SOL     OW39028   3.010   3.721   3.252 -0.1368  0.0518  0.1644
 9189SOL    HW139029   2.925   3.744   3.215  0.9809  1.1729 -1.7196
 9189SOL    HW239030   3.065   3.720   3.174  2.5600 -1.2425  2.0922
 9190SOL     OW39031   3.685   0.358  11.552  0.3838 -0.3775  0.0843
 9190SOL    HW139032   3.604   0.394  11.589  0.9649  0.2517  0.7507
 9190SOL    HW239033   3.672   0.264  11.564 -0.7462 -0.0907  1.2053
 9191SOL     OW39034   0.987   1.687   8.125 -0.5602  0.5002  0.1732
 9191SOL    HW139035   1.053   1.724   8.067 -0.9187  0.0109 -0.5341
 9191SOL    HW239036   0.942   1.624   8.069 -0.9012  0.4466  0.5016
 9192SOL     OW39037   1.793   3.417   1.448  0.4889  0.1640 -0.1931
 9192SOL    HW139038   1.756   3.480   1.387  0.3712  0.7678  0.4956
 9192SOL    HW239039   1.861   3.472   1.487  0.2838 -0.2211  0.7216
 9193SOL     OW39040   0.198   0.400  16.103  0.0062 -0.4686  0.1793
 9193SOL    HW139041   0.113   0.357  16.089  0.4945 -0.2623 -3.4613
 9193SOL    HW239042   0.257   0.331  16.072  0.6036 -0.5485  1.4876
 9194SOL     OW39043   2.565   1.501  12.743 -0.1403  0.1727 -0.0474
 9194SOL    HW139044   2.601   1.518  12.656  1.6972 -0.1006  0.6455
 9194SOL    HW239045   2.582   1.580  12.795 -0.7257  0.2313  0.0519
 9195SOL     OW39046   3.626   2.698   4.463 -0.1786 -0.4667  0.2523
 9195SOL    HW139047   3.618   2.790   4.491 -3.2517 -0.3961 -0.9539
 9195SOL    HW239048   3.538   2.672   4.438  0.2305  0.5088 -2.2066
 9196SOL     OW39049   1.585   0.641  15.082  0.0033  0.6484 -0.1634
 9196SOL    HW139050   1.674   0.608  15.081  0.1540  1.1722 -2.4621
 9196SOL    HW239051   1.531   0.562  15.093  1.4067 -0.0700  1.6353
 9197SOL     OW39052   0.210   2.548  12.886 -0.1158 -0.1017  0.1831
 9197SOL    HW139053   0.197   2.500  12.968 -0.4469 -0.2634  0.0333
 9197SOL    HW239054   0.258   2.625  12.917  1.8117 -1.6667  1.1052
 9198SOL     OW39055   3.071   2.864   2.654 -0.4039 -0.1357 -0.4355
 9198SOL    HW139056   3.120   2.802   2.707 -0.7732 -0.4864 -0.5003
 9198SOL    HW239057   2.984   2.864   2.694  0.2668  0.6818  1.0453
 9199SOL     OW39058   2.518   2.050  11.082 -0.6867  0.1250  0.3782
 9199SOL    HW139059   2.460   2.118  11.117 -0.9604 -0.3930  0.9386
 9199SOL    HW239060   2.561   2.008  11.156  2.2343  1.2046 -0.7253
 9200SOL     OW39061   1.224   0.457   2.587  0.5429 -0.2378 -0.1207
 9200SOL    HW139062   1.141   0.498   2.564  0.6509 -0.4776 -0.9776
 9200SOL    HW239063   1.216   0.455   2.682  0.4308  2.7239 -0.0759
 9201SOL     OW39064   1.994   0.963   7.437 -0.1740  0.3720  0.0861
 9201SOL    HW139065   1.901   0.953   7.419  0.4657 -3.3911 -1.0312
 9201SOL    HW239066   1.984   1.024   7.510  0.6980  0.5081  0.0969
 9202SOL     OW39067   0.025   4.670   8.134  0.1520 -0.4314  0.3833
 9202SOL    HW139068   0.086   0.018   8.148 -0.8393  0.3271  0.6942
 9202SOL    HW239069   0.028   4.666   8.039 -0.3234 -0.1751  0.3644
 9203SOL     OW39070   2.853   4.182  11.666  0.1148  0.2387  0.0103
 9203SOL    HW139071   2.875   4.273  11.644 -0.6410  0.7011  1.1936
 9203SOL    HW239072   2.940   4.145  11.680  0.6034  2.8341  3.6832
 9204SOL     OW39073   3.495   0.974   4.431  0.2356  0.2639 -0.2051
 9204SOL    HW139074   3.446   0.911   4.484  1.0881 -0.6098 -0.4624
 9204SOL    HW239075   3.574   0.934   4.395  1.6430  0.3795  2.7536
 9205SOL     OW39076   3.761   4.488   8.701  0.1598  0.1569  0.8020
 9205SOL    HW139077   3.772   4.541   8.781  1.8100 -1.5266  1.6919
 9205SOL    HW239078   3.700   4.419   8.729 -0.3305  0.1594 -0.2869
 9206SOL     OW39079   3.067   3.672   6.477 -0.0143 -0.0881 -0.3719
 9206SOL    HW139080   3.153   3.631   6.466  0.9477  2.0345 -0.6652
 9206SOL    HW239081   3.019   3.590   6.465  1.0424 -0.4707 -1.9825
 9207SOL     OW39082   3.357   3.545   4.232 -0.0138  0.0035 -0.4687
 9207SOL    HW139083   3.400   3.540   4.146  1.3993  1.0238  0.1790
 9207SOL    HW239084   3.309   3.627   4.225 -1.7416 -1.0480 -1.1542
 9208SOL     OW39085   0.789   2.510   6.678 -0.5026  0.2465 -0.1667
 9208SOL    HW139086   0.840   2.495   6.757 -0.1526  2.3019 -0.0185
 9208SOL    HW239087   0.842   2.473   6.608 -0.3184  0.6970 -0.2584
 9209SOL     OW39088   3.313   1.501   9.790 -0.2296 -0.3437 -0.3443
 9209SOL    HW139089   3.237   1.443   9.784 -0.2857 -0.2375 -0.6624
 9209SOL    HW239090   3.270   1.586   9.782 -1.3079 -0.6032  2.6007
 9210SOL     OW39091   2.291   2.929   9.063 -0.0888  0.1068 -0.4436
 9210SOL    HW139092   2.260   2.872   9.133 -1.1188 -1.2292 -1.9897
 9210SOL    HW239093   2.385   2.933   9.079  0.2654 -1.4684 -2.1669
 9211SOL     OW39094   3.456   4.255   5.999  0.5552 -0.0309  0.0584
 9211SOL    HW139095   3.454   4.223   5.909  2.2713 -0.1747  0.0676
 9211SOL    HW239096   3.416   4.191   6.058  2.3198 -0.1907  1.0815
 9212SOL     OW39097   4.416   2.570  12.119 -0.1929 -0.0323 -0.2023
 9212SOL    HW139098   4.442   2.522  12.040  0.6861  0.4440 -0.1993
 9212SOL    HW239099   4.360   2.643  12.094  0.2324  0.7970  1.2987
 9213SOL     OW39100   1.948   1.244   7.019 -0.0186  0.0563 -0.5155
 9213SOL    HW139101   1.891   1.198   7.081  0.3076  1.0224  0.5059
 9213SOL    HW239102   2.020   1.182   7.007  0.2375  0.2412  0.0463
 9214SOL     OW39103   3.853   3.727  15.449  0.6347 -0.3717  0.4992
 9214SOL    HW139104   3.816   3.655  15.499 -1.5111  1.1056  1.0755
 9214SOL    HW239105   3.861   3.687  15.362 -1.1265  1.3381 -0.4640
 9215SOL     OW39106   2.474   3.316   8.469  0.3875  0.1643  0.0122
 9215SOL    HW139107   2.383   3.324   8.440  0.1606 -0.4538  0.5687
 9215SOL    HW239108   2.523   3.281   8.395 -0.0009 -0.7866  0.2106
 9216SOL     OW39109   2.982   2.527   8.516 -0.2091  0.3870 -0.0271
 9216SOL    HW139110   3.047   2.578   8.468 -0.8232 -0.8176 -2.1499
 9216SOL    HW239111   2.940   2.579   8.584  0.1952  1.2125 -0.4179
 9217SOL     OW39112   2.852   4.404   7.813 -0.3705 -0.0308  0.3267
 9217SOL    HW139113   2.891   4.318   7.794  0.0977 -0.2818  2.3646
 9217SOL    HW239114   2.882   4.454   7.736 -2.9479  1.8284  0.5557
 9218SOL     OW39115   4.432   0.880   3.185 -0.4722  0.1845  0.0613
 9218SOL    HW139116   4.369   0.902   3.254 -2.2491  0.1153 -1.5172
 9218SOL    HW239117   4.385   0.918   3.111  0.4227  0.4546 -0.3641
 9219SOL     OW39118   3.488   1.616   4.121  0.2570  0.6266  0.0614
 9219SOL    HW139119   3.461   1.542   4.068  0.3657  1.0103 -0.5249
 9219SOL    HW239120   3.428   1.618   4.196 -0.1096 -1.6568 -0.1878
 9220SOL     OW39121   0.358   4.145   1.848 -0.3691  0.4482 -0.3383
 9220SOL    HW139122   0.433   4.162   1.905 -0.5484 -0.8035  0.2684
 9220SOL    HW239123   0.379   4.202   1.775  0.8907  0.6302  0.1610
 9221SOL     OW39124   1.919   1.038  11.110  0.5900 -0.0417  0.0055
 9221SOL    HW139125   1.843   1.055  11.054  0.3143  0.2867  0.4854
 9221SOL    HW239126   1.983   1.082  11.054 -2.2369  2.5517 -1.2351
 9222SOL     OW39127   2.442   1.829  13.879 -0.0218 -0.6242  0.2489
 9222SOL    HW139128   2.528   1.798  13.907 -0.5371 -1.5714  0.7777
 9222SOL    HW239129   2.470   1.821  13.788  1.0899  0.6421  0.4860
 9223SOL     OW39130   2.405   1.776   4.799  0.1984  0.0199 -0.3069
 9223SOL    HW139131   2.405   1.860   4.845 -3.7135 -1.0964  1.7223
 9223SOL    HW239132   2.370   1.715   4.865  1.1530 -1.7418 -1.4390
 9224SOL     OW39133   3.751   3.836   7.269  0.1842  0.3897 -0.5187
 9224SOL    HW139134   3.824   3.864   7.213  0.1108  0.8664 -0.3807
 9224SOL    HW239135   3.680   3.894   7.240  0.8306  0.7602 -1.3648
 9225SOL     OW39136   1.347   3.406   2.209 -0.2326  0.3371  0.4508
 9225SOL    HW139137   1.311   3.339   2.268  0.1371 -0.9939 -0.8311
 9225SOL    HW239138   1.330   3.373   2.121 -1.3593 -1.7293  1.4371
 9226SOL     OW39139   4.190   0.516   5.627  0.3842  0.7576  0.0938
 9226SOL    HW139140   4.128   0.461   5.676  0.6928  0.2534 -0.0845
 9226SOL    HW239141   4.237   0.448   5.579 -3.2736 -1.8348  0.2156
 9227SOL     OW39142   3.963   0.256   4.738  0.1262 -0.1640  0.2075
 9227SOL    HW139143   3.981   0.230   4.828 -1.5968 -0.7298  0.3864
 9227SOL    HW239144   3.994   0.175   4.696  1.3073  0.2672  0.2509
 9228SOL     OW39145   3.286   1.414   7.688 -0.1889  0.3241 -0.7546
 9228SOL    HW139146   3.259   1.502   7.661  2.1121  0.9076 -1.1129
 9228SOL    HW239147   3.324   1.378   7.608 -0.2781 -0.3094 -0.5092
 9229SOL     OW39148   2.807   2.042   4.248 -0.0111  0.3921  0.4904
 9229SOL    HW139149   2.760   2.012   4.170  0.7008  0.3146  0.0951
 9229SOL    HW239150   2.777   1.985   4.319  1.3794  1.5220  1.9800
 9230SOL     OW39151   1.582   3.583   8.802 -0.4633  0.7006  0.3153
 9230SOL    HW139152   1.626   3.536   8.873 -0.4601 -1.0546 -0.8324
 9230SOL    HW239153   1.490   3.564   8.818  0.4432 -2.3842  1.8448
 9231SOL     OW39154   2.291   2.790  17.176 -0.9229 -0.4674  0.1329
 9231SOL    HW139155   2.342   2.802  17.257 -0.0908 -2.0219 -0.1741
 9231SOL    HW239156   2.276   2.883  17.156 -0.8576  0.4726  4.3059
 9232SOL     OW39157   4.330   1.381   9.126  0.0554  0.1956 -0.3995
 9232SOL    HW139158   4.398   1.333   9.078  0.4487  1.5368 -1.1805
 9232SOL    HW239159   4.308   1.310   9.186  0.2520  1.1612  0.8337
 9233SOL     OW39160   0.001   0.112  14.618 -0.6937 -0.0694 -0.0238
 9233SOL    HW139161   0.013   0.197  14.662 -0.9051 -0.7941  1.4445
 9233SOL    HW239162   0.064   0.114  14.546 -0.8380  0.4175 -0.1355
 9234SOL     OW39163   2.681   4.395   1.820 -0.2492  0.0658  0.1617
 9234SOL    HW139164   2.622   4.371   1.748  1.0437  0.6989 -1.1076
 9234SOL    HW239165   2.737   4.318   1.807 -1.2251 -0.5033 -0.7437
 9235SOL     OW39166   2.715   0.689   7.075 -0.0958  0.5155 -0.2207
 9235SOL    HW139167   2.626   0.676   7.108 -0.0101  0.7950  0.1190
 9235SOL    HW239168   2.758   0.726   7.152  0.1451  0.1463 -0.1788
 9236SOL     OW39169   3.359   1.816   8.619  0.3235 -0.0271  0.1284
 9236SOL    HW139170   3.281   1.773   8.656 -0.2987  0.5418 -0.5106
 9236SOL    HW239171   3.413   1.825   8.697 -2.0249  1.1753  1.6436
 9237SOL     OW39172   2.845   1.207   9.234  0.1347 -0.5592  0.3601
 9237SOL    HW139173   2.878   1.217   9.323 -2.2063 -0.7276  1.2224
 9237SOL    HW239174   2.929   1.232   9.194 -0.5166 -0.2568 -0.8013
 9238SOL     OW39175   1.821   0.375   6.897 -0.0795 -0.0999  0.0998
 9238SOL    HW139176   1.751   0.366   6.962  0.1560  0.4548  0.4265
 9238SOL    HW239177   1.862   0.459   6.915  0.6030 -0.2748 -0.6286
 9239SOL     OW39178   2.229   1.120   4.466  0.7664  0.3214  0.1463
 9239SOL    HW139179   2.303   1.105   4.524 -0.2188 -2.2035  0.7351
 9239SOL    HW239180   2.174   1.178   4.519  0.1458 -1.2973  1.2517
 9240SOL     OW39181   2.829   1.389   7.893  0.0756  0.1580  0.1965
 9240SOL    HW139182   2.821   1.315   7.833 -0.3756  2.4303 -2.5279
 9240SOL    HW239183   2.919   1.419   7.880 -0.5272  2.1517  0.5924
 9241SOL     OW39184   1.695   1.013   5.608  0.0524 -0.4750  0.0459
 9241SOL    HW139185   1.777   0.964   5.596  0.6458  0.3796  0.6259
 9241SOL    HW239186   1.713   1.080   5.673  0.6076 -0.0391 -0.5507
 9242SOL     OW39187   4.012   0.887   9.175 -0.0162  0.4276  0.3087
 9242SOL    HW139188   3.957   0.941   9.232  0.1234  1.5430 -0.6334
 9242SOL    HW239189   4.101   0.917   9.193 -1.0751  2.1912  2.6622
 9243SOL     OW39190   0.847   4.160   8.255 -0.1902 -0.3469 -0.6907
 9243SOL    HW139191   0.871   4.081   8.304  2.7212 -0.5814 -2.5465
 9243SOL    HW239192   0.833   4.137   8.163 -2.6835 -0.0640 -0.3986
 9244SOL     OW39193   2.136   2.236  11.918  0.4026  0.0776 -0.5204
 9244SOL    HW139194   2.122   2.330  11.913  0.0153  0.0888  0.6980
 9244SOL    HW239195   2.169   2.236  12.008  1.2974  0.6642 -0.8418
 9245SOL     OW39196   0.557   3.150   6.185  0.3717 -0.0085 -0.2949
 9245SOL    HW139197   0.550   3.084   6.117  0.2213  0.3928 -0.6699
 9245SOL    HW239198   0.586   3.219   6.124 -1.3700 -2.1930 -3.5672
 9246SOL     OW39199   0.554   3.348   5.120 -0.2468  0.0039 -0.6840
 9246SOL    HW139200   0.628   3.299   5.156 -1.1108  0.7519  2.0979
 9246SOL    HW239201   0.602   3.396   5.052 -0.4112 -0.2876 -1.0128
 9247SOL     OW39202   4.277   4.671  10.615  1.0744  0.4927 -0.1515
 9247SOL    HW139203   4.235   0.033  10.625  0.6074  0.2308  0.1372
 9247SOL    HW239204   4.364   4.678  10.652  1.1172  2.2100 -0.5780
 9248SOL     OW39205   4.689   3.466   4.542 -0.0317  0.2688  0.1559
 9248SOL    HW139206   4.684   3.372   4.528 -0.4494  0.0942  1.5868
 9248SOL    HW239207   4.659   3.493   4.455  3.2944  1.8218 -0.5478
 9249SOL     OW39208   3.520   3.681   2.639  0.1984 -0.1465 -0.7096
 9249SOL    HW139209   3.588   3.739   2.605  2.2927 -2.6799 -0.8379
 9249SOL    HW239210   3.556   3.601   2.601  1.6360 -0.2605  0.8729
 9250SOL     OW39211   3.941   2.716   2.135  0.2521  0.1432  0.0105
 9250SOL    HW139212   4.025   2.713   2.090 -1.9948 -2.0064 -4.0172
 9250SOL    HW239213   3.975   2.740   2.222 -3.0902  0.5924  1.2147
 9251SOL     OW39214   1.232   3.365   4.550 -0.0965  0.2189  0.1655
 9251SOL    HW139215   1.141   3.336   4.549 -0.4577  1.3916 -1.3417
 9251SOL    HW239216   1.240   3.431   4.619  0.8612 -0.2496  0.4974
 9252SOL     OW39217   3.356   1.192  17.347  0.7655  0.0509 -0.1224
 9252SOL    HW139218   3.308   1.192  17.265 -2.1027 -0.2709  1.5286
 9252SOL    HW239219   3.431   1.134  17.337  0.3121 -0.8749  1.8582
 9253SOL     OW39220   4.702   1.144   9.486  0.0182  0.4687 -0.5368
 9253SOL    HW139221   0.053   1.139   9.427 -0.1854 -1.8185 -0.6212
 9253SOL    HW239222   4.718   1.229   9.527 -1.0926  0.7143 -0.6124
 9254SOL     OW39223   3.795   0.003   1.760  0.4780  0.0209  0.1317
 9254SOL    HW139224   3.819   0.075   1.702  0.6267  0.4953  0.7829
 9254SOL    HW239225   3.877   0.007   1.809  0.2597 -0.7169  0.5647
 9255SOL     OW39226   0.011   0.843   6.189  0.2252  0.4520 -0.1342
 9255SOL    HW139227   4.664   0.906   6.201 -0.0555  0.2538 -0.7596
 9255SOL    HW239228   4.684   0.764   6.172  0.9546 -0.1255  0.3658
 9256SOL     OW39229   1.022   3.999   2.713 -0.0889  0.4887 -0.4726
 9256SOL    HW139230   0.974   4.069   2.758  1.6666  1.4145 -0.0729
 9256SOL    HW239231   0.953   3.941   2.680  1.7023 -0.4256 -2.5456
 9257SOL     OW39232   1.774   2.245  16.187  0.3404  0.4759 -0.5886
 9257SOL    HW139233   1.706   2.208  16.130  0.6789  0.1369 -0.7684
 9257SOL    HW239234   1.717   2.254  16.263 -0.4558 -1.3858 -0.9659
 9258SOL     OW39235   0.310   1.650   8.245 -0.4272  0.5097 -0.0961
 9258SOL    HW139236   0.341   1.569   8.203  0.3148  1.2500 -0.9872
 9258SOL    HW239237   0.387   1.697   8.277 -0.0026 -0.6908  0.6655
 9259SOL     OW39238   3.577   3.085   6.357  0.2982 -0.0340 -0.2181
 9259SOL    HW139239   3.506   3.067   6.418  0.0589  1.1407 -0.1512
 9259SOL    HW239240   3.571   3.181   6.357  2.2839  0.0801  0.2137
 9260SOL     OW39241   2.553   2.727   1.684  0.5233  0.0017 -0.0137
 9260SOL    HW139242   2.622   2.663   1.665 -0.9754 -1.1219 -1.7130
 9260SOL    HW239243   2.584   2.817   1.675  0.0243  0.2082  0.2811
 9261SOL     OW39244   0.622   0.944  10.739 -0.1785 -0.3448  0.0760
 9261SOL    HW139245   0.625   0.958  10.833  0.3014 -0.6913  0.1111
 9261SOL    HW239246   0.527   0.934  10.726  0.1806 -2.2070 -1.1399
 9262SOL     OW39247   1.229   1.952   6.245 -0.0148 -0.6366  0.1887
 9262SOL    HW139248   1.153   1.897   6.261 -0.4238  0.2256  1.2266
 9262SOL    HW239249   1.295   1.900   6.291  0.6048  0.8642  1.0153
 9263SOL     OW39250   3.301   3.394   4.675  0.1631 -0.1110 -0.1907
 9263SOL    HW139251   3.294   3.394   4.580  0.2797 -0.4421 -0.1991
 9263SOL    HW239252   3.281   3.300   4.681  0.5074 -0.2257 -0.8927
 9264SOL     OW39253   3.214   1.941  12.965  0.1921  0.1531 -0.0723
 9264SOL    HW139254   3.226   2.034  12.944 -1.8882 -0.1851 -2.7650
 9264SOL    HW239255   3.144   1.946  13.030 -0.1688  0.8513 -0.5065
 9265SOL     OW39256   2.391   0.317   2.949 -0.1061 -0.2754 -0.4349
 9265SOL    HW139257   2.365   0.242   2.895  1.2466 -1.8136  1.0586
 9265SOL    HW239258   2.482   0.326   2.919 -0.4351  1.4725 -0.9430
 9266SOL     OW39259   4.617   0.790  10.819  0.1435  0.6396 -0.5773
 9266SOL    HW139260   4.557   0.717  10.803 -0.4463  1.5497 -2.5083
 9266SOL    HW239261   4.703   0.754  10.802  0.5458  0.5952  1.5318
 9267SOL     OW39262   1.315   3.547   8.899 -0.6293  0.2820 -0.2254
 9267SOL    HW139263   1.257   3.560   8.974  0.4410  2.6821  0.1926
 9267SOL    HW239264   1.267   3.596   8.832 -0.5238  1.5114  0.5811
 9268SOL     OW39265   2.245   2.424   2.730 -0.3916 -0.9605 -0.0374
 9268SOL    HW139266   2.290   2.450   2.650 -1.8847  1.3074 -0.1318
 9268SOL    HW239267   2.311   2.369   2.772 -1.2391 -1.8549  0.1159
 9269SOL     OW39268   1.011   2.813   9.722  0.0543  0.0108  0.1906
 9269SOL    HW139269   0.974   2.874   9.657  0.2700  1.1627  1.1530
 9269SOL    HW239270   1.061   2.870   9.780  1.2475 -1.9788  1.1222
 9270SOL     OW39271   4.706   0.103   6.696  0.3056  0.2267  0.2961
 9270SOL    HW139272   4.642   0.156   6.745 -0.4677  0.3178 -0.8242
 9270SOL    HW239273   4.716   0.159   6.619 -0.7928  0.3196  0.2168
 9271SOL     OW39274   3.347   0.153  12.129  0.3315 -0.1994  0.2357
 9271SOL    HW139275   3.292   0.092  12.078  0.7557 -0.1496 -0.2782
 9271SOL    HW239276   3.413   0.184  12.067 -0.1772 -2.3065 -1.3533
 9272SOL     OW39277   4.516   3.204   8.761  0.2164 -0.2057  0.3290
 9272SOL    HW139278   4.572   3.258   8.705  1.1479 -0.7718  0.7193
 9272SOL    HW239279   4.435   3.235   8.722 -0.1060 -1.6771 -0.1670
 9273SOL     OW39280   3.149   0.938   7.515  0.2669  0.5580  0.0879
 9273SOL    HW139281   3.169   0.915   7.424  0.6269  0.2149  0.2506
 9273SOL    HW239282   3.104   1.021   7.504 -0.1873  0.2163 -0.6602
 9274SOL     OW39283   3.375   3.136   4.451  0.0302 -0.1981 -0.7415
 9274SOL    HW139284   3.373   3.074   4.378  0.5371 -1.6542  0.4775
 9274SOL    HW239285   3.340   3.213   4.408 -0.0793  0.0247 -0.2443
 9275SOL     OW39286   0.453   0.951  11.610 -0.1536 -0.0818 -0.1489
 9275SOL    HW139287   0.433   0.932  11.701  0.3516 -0.9977 -0.2354
 9275SOL    HW239288   0.374   0.909  11.576 -0.5033  1.7032 -1.5679
 9276SOL     OW39289   4.050   4.134  11.912  0.3948  0.4417  0.6819
 9276SOL    HW139290   4.127   4.186  11.931  0.9230 -0.0107 -0.2065
 9276SOL    HW239291   3.987   4.191  11.868  0.6248 -0.9054 -1.4176
 9277SOL     OW39292   0.232   0.462   6.330  0.1891 -0.3514  0.2233
 9277SOL    HW139293   0.166   0.464   6.261  0.6598 -0.1061 -0.2226
 9277SOL    HW239294   0.213   0.376   6.367  0.1694 -0.4853 -0.1000
 9278SOL     OW39295   1.949   1.602   1.115 -0.2336 -0.2895 -0.3631
 9278SOL    HW139296   1.890   1.652   1.170 -1.9159 -0.9441 -1.5633
 9278SOL    HW239297   1.895   1.524   1.103  0.2477 -0.7731  0.6633
 9279SOL     OW39298   4.098   2.741  10.968 -0.1353 -0.3661 -0.5265
 9279SOL    HW139299   4.157   2.677  10.928  1.0798  1.5434 -1.7894
 9279SOL    HW239300   4.156   2.794  11.022 -1.0242 -0.9093  0.9752
 9280SOL     OW39301   2.561   4.565  13.342 -0.1671  0.5950 -0.2317
 9280SOL    HW139302   2.494   4.502  13.369 -0.5450  1.5090  0.9920
 9280SOL    HW239303   2.547   4.630  13.412 -0.5954 -1.0433  1.2184
 9281SOL     OW39304   3.040   3.134   0.773  0.3672  0.5757  0.5480
 9281SOL    HW139305   2.996   3.103   0.853 -0.8846 -1.7624 -1.0580
 9281SOL    HW239306   3.101   3.063   0.755  1.6457  1.9320 -0.3975
 9282SOL     OW39307   0.425   1.298   3.593 -0.0685  0.1303 -0.1166
 9282SOL    HW139308   0.506   1.348   3.592 -0.0793  0.1655  0.6782
 9282SOL    HW239309   0.413   1.290   3.687 -1.7051 -1.8798 -0.4905
 9283SOL     OW39310   4.637   1.867  13.328 -0.2443  0.5439 -0.1262
 9283SOL    HW139311   4.629   1.900  13.418  1.2280  1.2072 -0.2365
 9283SOL    HW239312   4.606   1.946  13.283  1.2658  1.3270  0.1959
 9284SOL     OW39313   3.577   3.065   4.224 -0.3531 -0.0810 -0.2708
 9284SOL    HW139314   3.591   3.151   4.264 -3.4978  0.1168  0.4223
 9284SOL    HW239315   3.669   3.037   4.219 -0.6764 -1.1027 -0.5607
 9285SOL     OW39316   3.939   4.146   8.473 -0.0183 -0.0223 -0.2312
 9285SOL    HW139317   3.962   4.057   8.448  1.8529  0.6492 -0.8795
 9285SOL    HW239318   4.024   4.160   8.514 -0.2347 -0.3113  0.3152
 9286SOL     OW39319   1.623   0.395   3.036 -0.3390  0.2736  0.0617
 9286SOL    HW139320   1.627   0.431   2.947 -1.5907 -1.0866 -0.5469
 9286SOL    HW239321   1.685   0.450   3.083 -0.1195  1.3845 -1.5175
 9287SOL     OW39322   2.319   1.265   9.074 -0.2551 -0.0890  0.7129
 9287SOL    HW139323   2.293   1.357   9.081 -1.1563 -0.2195 -0.8775
 9287SOL    HW239324   2.264   1.218   9.137  1.8069 -0.5984  2.1319
 9288SOL     OW39325   0.875   0.049   5.602  0.0245 -0.1362 -0.1856
 9288SOL    HW139326   0.901   4.713   5.532  1.1136  0.0139  0.0960
 9288SOL    HW239327   0.832   0.117   5.549  0.1140  0.9542  1.1476
 9289SOL     OW39328   4.038   3.967  12.675  0.1432 -0.5362 -0.2771
 9289SOL    HW139329   4.022   4.014  12.593  1.6499  0.0160 -0.2503
 9289SOL    HW239330   4.129   3.937  12.668  0.5329  0.3687  0.9815
 9290SOL     OW39331   3.952   0.421   6.589  0.1088 -0.1453  0.1774
 9290SOL    HW139332   3.989   0.423   6.677  2.7266  2.1908 -0.9986
 9290SOL    HW239333   3.905   0.338   6.602  0.7793 -0.6271 -0.5362
 9291SOL     OW39334   1.712   3.138   6.180  0.2296 -0.1824  0.2971
 9291SOL    HW139335   1.705   3.087   6.261  0.8644 -0.5747  0.1053
 9291SOL    HW239336   1.623   3.138   6.145 -0.7840 -0.7497  2.9229
 9292SOL     OW39337   1.995   0.085   2.400 -0.6088 -0.4204  0.1663
 9292SOL    HW139338   1.917   0.030   2.399 -0.8694 -0.0743  1.2896
 9292SOL    HW239339   2.057   0.033   2.349  1.6009  1.4622  0.8739
 9293SOL     OW39340   3.376   1.239   7.453 -0.1589  0.1383  0.4535
 9293SOL    HW139341   3.400   1.158   7.498 -2.0374 -0.1197  0.9928
 9293SOL    HW239342   3.350   1.200   7.370  1.0221  0.8993 -0.2673
 9294SOL     OW39343   2.703   2.038  12.287 -0.4176 -0.0440 -0.0794
 9294SOL    HW139344   2.794   2.009  12.288  0.4266  2.5866 -1.4992
 9294SOL    HW239345   2.662   1.954  12.307 -0.9973  0.3770  0.5291
 9295SOL     OW39346   4.270   4.465   1.357  0.1981 -0.2288 -0.2809
 9295SOL    HW139347   4.205   4.529   1.327 -0.3905  0.5434  2.6084
 9295SOL    HW239348   4.212   4.393   1.384 -0.2248  0.2260  0.0397
 9296SOL     OW39349   2.513   3.949   4.769  0.2513  0.3716  0.8149
 9296SOL    HW139350   2.528   3.919   4.680  0.7881  2.4094  0.2260
 9296SOL    HW239351   2.503   4.042   4.747  0.3879 -0.1464 -1.4331
 9297SOL     OW39352   0.676   3.894   5.724 -0.2233 -0.0168  0.5473
 9297SOL    HW139353   0.677   3.805   5.759 -0.9463  0.0813  0.8176
 9297SOL    HW239354   0.589   3.898   5.686  0.6100  0.2544 -1.3336
 9298SOL     OW39355   0.073   2.040  15.917 -0.4512  0.1414 -0.5998
 9298SOL    HW139356   0.103   1.980  15.848  0.8629  0.5797 -0.3989
 9298SOL    HW239357   4.706   2.048  15.889 -1.4460 -0.3949  2.5084
 9299SOL     OW39358   2.801   4.383   8.810  0.0418 -0.3896  0.2688
 9299SOL    HW139359   2.823   4.476   8.815 -0.0237 -0.5892  4.1564
 9299SOL    HW239360   2.835   4.356   8.724  2.6676  1.4904  0.7168
 9300SOL     OW39361   2.819   4.119   7.038 -0.0074  0.2858  0.0395
 9300SOL    HW139362   2.827   4.168   6.956 -0.9200 -0.3297 -0.4092
 9300SOL    HW239363   2.730   4.149   7.059  0.6000  1.8425  0.4671
 9301SOL     OW39364   3.373   0.758   7.855 -0.1365  0.0894  0.3031
 9301SOL    HW139365   3.448   0.817   7.846  0.5262 -1.1607 -2.4432
 9301SOL    HW239366   3.401   0.698   7.925  0.6426 -1.3041 -1.1826
 9302SOL     OW39367   3.161   4.677   6.240 -0.5759 -0.8813  0.3784
 9302SOL    HW139368   3.098   4.627   6.188 -0.3943 -0.4838 -0.2136
 9302SOL    HW239369   3.225   4.606   6.247  0.1374 -0.3328 -0.7087
 9303SOL     OW39370   3.887   1.145   2.870  0.1513 -0.7128 -0.4109
 9303SOL    HW139371   3.878   1.185   2.784 -0.2289 -2.2595 -1.0949
 9303SOL    HW239372   3.980   1.122   2.867 -0.1917 -2.2516  0.4920
 9304SOL     OW39373   1.057   0.053   3.854 -0.0300  0.2075 -0.5522
 9304SOL    HW139374   1.095   4.692   3.832  0.8941  0.9353 -1.7707
 9304SOL    HW239375   1.133   0.084   3.903  0.4084  0.8490 -1.6203
 9305SOL     OW39376   4.079   1.651   0.296 -0.0382 -0.3842  0.4147
 9305SOL    HW139377   4.005   1.590   0.294  1.2597 -1.9632 -0.0177
 9305SOL    HW239378   4.086   1.675   0.204 -2.5038  0.3390  0.4292
 9306SOL     OW39379   1.896   0.626   4.998 -0.3308 -0.6121 -0.2581
 9306SOL    HW139380   1.897   0.534   4.971 -0.9135 -0.7123  0.0645
 9306SOL    HW239381   1.961   0.609   5.067 -0.8736  0.7908  0.5936
 9307SOL     OW39382   0.218   4.187   0.223  0.0606  0.5415 -0.2028
 9307SOL    HW139383   0.284   4.242   0.180  0.2224 -0.9506 -1.8652
 9307SOL    HW239384   0.174   4.248   0.283 -1.3385  0.8659 -1.5664
 9308SOL     OW39385   2.966   3.776   1.563  0.1578 -0.2968  0.5625
 9308SOL    HW139386   2.972   3.795   1.470 -5.4674 -0.8460  0.0979
 9308SOL    HW239387   2.874   3.803   1.569  0.4383  0.9012 -0.5570
 9309SOL     OW39388   2.516   1.764  13.605  0.3491  0.0671 -0.1623
 9309SOL    HW139389   2.456   1.693  13.584 -0.9640  1.0367  0.2811
 9309SOL    HW239390   2.474   1.827  13.547  0.0538 -0.7522 -0.8343
 9310SOL     OW39391   4.544   1.283  11.439  0.1310  0.0508  0.7103
 9310SOL    HW139392   4.544   1.206  11.382  2.7762  0.0447  0.7164
 9310SOL    HW239393   4.551   1.247  11.528 -1.7416 -0.0244  0.8301
 9311SOL     OW39394   1.800   4.499   6.776  0.0647 -0.2913 -0.5126
 9311SOL    HW139395   1.780   4.593   6.776 -1.6652 -0.6588  0.6405
 9311SOL    HW239396   1.711   4.468   6.764  0.1089 -0.6210 -0.0087
 9312SOL     OW39397   1.597   2.218  14.043  0.0765  0.3432  0.0865
 9312SOL    HW139398   1.581   2.311  14.026  1.6185  0.0441 -3.1004
 9312SOL    HW239399   1.663   2.183  13.983  0.0680 -2.1455  1.5449
 9313SOL     OW39400   1.290   3.654   6.098 -0.0938  0.8693 -0.9674
 9313SOL    HW139401   1.254   3.719   6.158  0.1120  0.1360 -0.0345
 9313SOL    HW239402   1.229   3.580   6.111  0.2022  1.2957  3.0334
 9314SOL     OW39403   3.613   4.346   2.795  0.4414 -0.3243  0.4367
 9314SOL    HW139404   3.672   4.334   2.721  1.1587 -1.9518  1.2814
 9314SOL    HW239405   3.611   4.259   2.836 -0.5594 -0.6865 -0.3891
 9315SOL     OW39406   2.537   1.780  12.371  0.2267  0.6790 -0.0195
 9315SOL    HW139407   2.566   1.696  12.407 -0.1045  1.0033  1.0084
 9315SOL    HW239408   2.536   1.758  12.278 -1.5835 -2.7294  0.8095
 9316SOL     OW39409   3.887   2.029   3.347  0.3086  0.7873 -0.1404
 9316SOL    HW139410   3.833   1.978   3.287 -0.3683  0.6271  0.6119
 9316SOL    HW239411   3.970   2.024   3.299  0.4498  2.1058 -0.0145
 9317SOL     OW39412   1.220   3.925   6.255 -0.3638  0.1131  0.0327
 9317SOL    HW139413   1.223   3.856   6.322  0.0088  0.6614  0.5714
 9317SOL    HW239414   1.223   4.007   6.304  0.7865  0.0589  0.0530
 9318SOL     OW39415   0.686   2.453   0.374  0.7309  0.3771  0.2519
 9318SOL    HW139416   0.701   2.425   0.464 -0.9139  0.9365  0.7114
 9318SOL    HW239417   0.658   2.369   0.338  1.6476 -0.4690  1.5415
 9319SOL     OW39418   0.933   1.732   2.400 -0.3403  0.8152 -0.1488
 9319SOL    HW139419   0.945   1.667   2.469  0.0797  0.8584 -0.1773
 9319SOL    HW239420   0.951   1.677   2.323 -3.4526 -0.7544  0.2399
 9320SOL     OW39421   4.272   4.464  16.508  0.3775  0.1945  0.0264
 9320SOL    HW139422   4.344   4.525  16.491  1.0655 -0.8561 -0.8100
 9320SOL    HW239423   4.280   4.455  16.602  0.1700  0.6658  0.0901
 9321SOL     OW39424   3.184   2.021   5.893  0.8792 -0.5664  0.3034
 9321SOL    HW139425   3.200   2.061   5.978  0.1766 -0.9927  0.6444
 9321SOL    HW239426   3.176   1.928   5.915  2.4913 -0.2129  2.3101
 9322SOL     OW39427   3.118   3.924   5.792  0.3240  0.0555  0.3432
 9322SOL    HW139428   3.046   3.863   5.777 -0.2675  0.9942 -0.6731
 9322SOL    HW239429   3.143   3.900   5.881  1.7371  0.2276 -0.0177
 9323SOL     OW39430   2.930   1.250   6.942 -0.6981  0.5978  0.1838
 9323SOL    HW139431   2.883   1.331   6.960  1.9307  1.6708  2.1994
 9323SOL    HW239432   2.861   1.202   6.896 -2.0057  0.8107  1.9219
 9324SOL     OW39433   3.061   0.936   6.980 -0.0179  0.3767  0.2335
 9324SOL    HW139434   3.087   0.864   6.923  1.8197  1.1134  0.1381
 9324SOL    HW239435   3.137   0.989   6.956  1.0513 -1.5036 -0.5581
 9325SOL     OW39436   0.628   3.551  16.810 -0.7821  0.3191 -0.0480
 9325SOL    HW139437   0.615   3.498  16.732  2.0132 -0.7972  0.2346
 9325SOL    HW239438   0.653   3.489  16.879  2.5181  2.5589  0.7545
 9326SOL     OW39439   4.319   3.298  15.317  0.2976  0.3742  0.6805
 9326SOL    HW139440   4.381   3.234  15.352 -1.6706 -1.5895  0.5278
 9326SOL    HW239441   4.353   3.325  15.231 -0.1645 -3.2439 -0.6506
 9327SOL     OW39442   1.903   3.137  12.538  0.2084  0.2834  0.1148
 9327SOL    HW139443   1.890   3.144  12.443  0.2655  1.5413  0.1879
 9327SOL    HW239444   1.941   3.225  12.545  2.1658 -0.6565  1.0834
 9328SOL     OW39445   3.182   1.313  10.835  0.2223  0.0617 -0.2833
 9328SOL    HW139446   3.128   1.317  10.756 -0.0776 -1.0243 -0.1447
 9328SOL    HW239447   3.160   1.398  10.872  0.1270 -0.6013  1.1652
 9329SOL     OW39448   3.768   4.227   4.453  0.3353  0.4047  0.3222
 9329SOL    HW139449   3.728   4.155   4.404 -0.6020  0.3595  1.1635
 9329SOL    HW239450   3.730   4.299   4.404  1.3534  0.1351 -0.8768
 9330SOL     OW39451   1.996   3.182   1.475 -0.3921  0.2531 -0.2705
 9330SOL    HW139452   2.028   3.151   1.390 -1.0575 -2.2885  0.4128
 9330SOL    HW239453   1.974   3.273   1.453 -0.0144  0.7459  1.3638
 9331SOL     OW39454   4.540   2.468   0.007  0.2711  0.0335  0.4055
 9331SOL    HW139455   4.628   2.457  17.670 -0.7064  2.9820 -2.8990
 9331SOL    HW239456   4.546   2.553   0.051 -0.0102 -0.7717  1.9936
 9332SOL     OW39457   0.732   1.727  14.878  0.2452 -0.3853 -0.6939
 9332SOL    HW139458   0.786   1.806  14.867  0.4407 -0.7778 -2.5452
 9332SOL    HW239459   0.665   1.754  14.940  2.4489  0.7852  1.1927
 9333SOL     OW39460   1.327   0.363  12.462 -0.5284 -0.1547 -0.4720
 9333SOL    HW139461   1.417   0.392  12.453 -0.4396 -0.4434 -0.5117
 9333SOL    HW239462   1.286   0.430  12.516 -2.2435 -0.2037 -1.7049
 9334SOL     OW39463   2.424   4.262   8.529 -0.1011  0.2193 -0.6112
 9334SOL    HW139464   2.346   4.220   8.565 -0.9507  0.5972 -2.0005
 9334SOL    HW239465   2.480   4.184   8.531  1.6184  1.5300  1.2717
 9335SOL     OW39466   3.375   1.590   8.924 -0.1899 -0.1850 -0.1419
 9335SOL    HW139467   3.455   1.624   8.884  1.0040 -0.9752  1.6088
 9335SOL    HW239468   3.299   1.625   8.877  0.6123  2.0045  0.1666
 9336SOL     OW39469   2.065   1.398   8.456 -0.1716 -0.6411  0.1874
 9336SOL    HW139470   1.984   1.444   8.434  0.5528  0.3691 -0.4039
 9336SOL    HW239471   2.099   1.381   8.368 -0.2476  0.3569 -0.0439
 9337SOL     OW39472   0.926   4.609  11.898  0.5762  0.1684  0.1370
 9337SOL    HW139473   0.947   4.565  11.981  2.0243 -1.2097 -0.9546
 9337SOL    HW239474   0.943   4.701  11.918  0.3938  0.2794 -0.2173
 9338SOL     OW39475   3.994   4.613  10.464  0.1814 -0.1628 -0.9726
 9338SOL    HW139476   3.955   4.590  10.380 -0.5065  0.4449 -0.8076
 9338SOL    HW239477   4.031   4.698  10.440 -1.7469  1.3725  1.5563
 9339SOL     OW39478   3.134   2.102   5.231 -0.5890  0.1433  0.1730
 9339SOL    HW139479   3.125   2.184   5.280  0.2980 -0.3755  1.1964
 9339SOL    HW239480   3.094   2.121   5.147  2.4175  1.2296 -0.9944
 9340SOL     OW39481   2.516   0.182  13.028  0.0929  0.2289  0.7789
 9340SOL    HW139482   2.544   0.091  13.022  1.4849  0.6410  1.0678
 9340SOL    HW239483   2.438   0.168  13.082  0.8769 -0.4102  1.7382
 9341SOL     OW39484   1.726   2.373   0.065  0.2982  0.3622 -0.0418
 9341SOL    HW139485   1.737   2.416   0.150  0.9847 -0.8216  0.4795
 9341SOL    HW239486   1.655   2.423   0.025 -1.3305 -1.6713  0.3059
 9342SOL     OW39487   0.520   0.394  15.022 -0.0628  0.5847  0.3549
 9342SOL    HW139488   0.489   0.484  15.018 -1.2943  0.2487  1.8970
 9342SOL    HW239489   0.468   0.363  15.097 -1.0731 -1.7443 -1.2906
 9343SOL     OW39490   0.093   3.567   2.216  0.3476  0.1644 -0.1489
 9343SOL    HW139491   0.076   3.514   2.139 -0.9961 -0.5741  0.6790
 9343SOL    HW239492   0.079   3.516   2.295  0.0446  1.0081  0.3479
 9344SOL     OW39493   3.875   3.683   4.444  0.1879 -0.0104 -0.3749
 9344SOL    HW139494   3.848   3.715   4.358 -2.1323  0.4976  0.5595
 9344SOL    HW239495   3.936   3.750   4.476  0.0465 -0.2495  0.3903
 9345SOL     OW39496   1.962   2.534   9.411  0.0860  0.1094  0.2564
 9345SOL    HW139497   2.048   2.530   9.370  0.0326  2.0829 -0.0579
 9345SOL    HW239498   1.958   2.445   9.446 -0.0498  0.5844  1.4479
 9346SOL     OW39499   0.623   3.215   2.489 -0.0631 -0.4088  0.2229
 9346SOL    HW139500   0.652   3.130   2.457 -1.4708 -1.2341  1.1524
 9346SOL    HW239501   0.665   3.275   2.427  1.1478  0.0848  1.5238
 9347SOL     OW39502   1.976   2.615  17.047  0.0713  0.1751  0.1874
 9347SOL    HW139503   1.911   2.572  17.103 -0.6541  0.9354 -0.0771
 9347SOL    HW239504   2.041   2.627  17.116  0.1042  2.2741 -0.2046
 9348SOL     OW39505   1.593   1.936   7.125  0.2368  0.7255  0.0243
 9348SOL    HW139506   1.647   1.857   7.125  1.8811  1.8588  0.2473
 9348SOL    HW239507   1.621   1.983   7.047 -1.5819 -0.5634 -1.4168
 9349SOL     OW39508   1.673   1.051   4.614 -0.2010  0.6695 -0.1941
 9349SOL    HW139509   1.684   0.956   4.600  2.4181  0.9553 -0.1451
 9349SOL    HW239510   1.711   1.068   4.528  1.3003 -0.3977  0.2429
 9350SOL     OW39511   1.888   1.411   7.505 -0.0324  0.3797  0.0705
 9350SOL    HW139512   1.943   1.487   7.490  1.6610 -1.0509 -1.0386
 9350SOL    HW239513   1.800   1.442   7.483 -0.2527 -0.8409 -0.8472
 9351SOL     OW39514   3.958   2.445   2.227  0.2943 -0.4205  0.0479
 9351SOL    HW139515   3.923   2.422   2.141 -1.8573 -1.2071  1.1424
 9351SOL    HW239516   3.927   2.535   2.220 -0.9792 -0.7974  0.8938
 9352SOL     OW39517   2.779   0.608   3.306 -0.2107  0.4511 -0.2538
 9352SOL    HW139518   2.823   0.535   3.349 -0.1649  1.7374  1.9155
 9352SOL    HW239519   2.708   0.557   3.267  0.7281 -0.4043 -0.8453
 9353SOL     OW39520   0.533   3.641   8.581 -0.2805 -0.7330 -0.5927
 9353SOL    HW139521   0.501   3.696   8.652  1.3762 -0.0187 -0.4092
 9353SOL    HW239522   0.599   3.584   8.620 -0.0624 -0.3546 -0.4185
 9354SOL     OW39523   1.321   4.502   7.812 -0.3686 -0.1796  0.4683
 9354SOL    HW139524   1.412   4.473   7.804 -0.6198 -0.9416  0.3397
 9354SOL    HW239525   1.338   4.587   7.852 -0.0809 -0.4396  0.9028
 9355SOL     OW39526   4.352   1.512  11.596  0.6761  0.1664 -0.7295
 9355SOL    HW139527   4.419   1.451  11.568  1.2887  0.5380 -0.0422
 9355SOL    HW239528   4.284   1.456  11.634  1.1603  1.1811  1.6167
 9356SOL     OW39529   1.000   3.451  14.715  0.5464  0.3854  0.3159
 9356SOL    HW139530   0.984   3.412  14.801 -1.3507  0.2508 -0.1123
 9356SOL    HW239531   0.961   3.377  14.670  0.5056  1.6548 -1.7167
 9357SOL     OW39532   4.350   2.033  15.696 -0.0182  0.0996 -0.1657
 9357SOL    HW139533   4.331   2.000  15.608 -2.7437 -2.0505  1.2255
 9357SOL    HW239534   4.298   2.110  15.676 -1.0918 -1.0515 -1.7929
 9358SOL     OW39535   4.428   1.191   7.351  0.2376  0.5197  0.3459
 9358SOL    HW139536   4.354   1.249   7.369  0.6067  1.3850 -0.8913
 9358SOL    HW239537   4.500   1.254   7.360  1.9517 -1.3664 -0.1148
 9359SOL     OW39538   2.533   2.722   8.999 -0.7697 -0.0177  0.3562
 9359SOL    HW139539   2.538   2.659   9.072  0.8567  1.0818  1.1937
 9359SOL    HW239540   2.597   2.790   9.018 -1.8983  0.9085  0.8141
 9360SOL     OW39541   1.185   3.835   7.055  0.7285  0.6941 -0.4969
 9360SOL    HW139542   1.241   3.825   6.977 -0.5689 -0.9921 -1.2168
 9360SOL    HW239543   1.109   3.884   7.023 -0.3357  1.0874  2.7344
 9361SOL     OW39544   3.653   1.469   3.620  0.1682 -0.3517  0.1610
 9361SOL    HW139545   3.741   1.441   3.595  0.3963 -0.1256  0.7174
 9361SOL    HW239546   3.612   1.388   3.592  3.0686 -1.2763 -1.4246
 9362SOL     OW39547   1.812   4.292   1.510  0.3910  0.3678  0.1874
 9362SOL    HW139548   1.850   4.280   1.423 -0.7425 -0.9788 -0.1093
 9362SOL    HW239549   1.836   4.383   1.531 -1.2904  0.2505  2.6777
 9363SOL     OW39550   2.394   1.413   3.820  0.0656 -0.0781 -0.3193
 9363SOL    HW139551   2.324   1.442   3.760 -1.3652  0.0897  1.4255
 9363SOL    HW239552   2.353   1.427   3.905  0.2866 -2.8451  0.2405
 9364SOL     OW39553   4.255   2.548  14.793 -0.4994  0.2040  0.1796
 9364SOL    HW139554   4.338   2.583  14.826  0.6978 -1.1122 -1.4674
 9364SOL    HW239555   4.258   2.460  14.829 -0.1825  0.9431  1.9530
 9365SOL     OW39556   2.280   3.580  10.176  0.3781  0.1296  0.0623
 9365SOL    HW139557   2.357   3.525  10.191  0.8657  0.3605 -1.5303
 9365SOL    HW239558   2.326   3.664  10.173  1.4492 -0.4735 -0.4713
 9366SOL     OW39559   1.774   3.097   6.712  0.5163 -0.3578 -0.2514
 9366SOL    HW139560   1.735   3.068   6.794 -0.6369  1.6026 -0.0977
 9366SOL    HW239561   1.694   3.141   6.683 -0.6848 -0.6264  2.6864
 9367SOL     OW39562   3.796   4.443   3.025 -0.0739 -0.4055 -0.8954
 9367SOL    HW139563   3.827   4.450   2.934  1.1554 -1.4740 -0.5596
 9367SOL    HW239564   3.768   4.351   3.027  1.2150 -0.8363 -2.2285
 9368SOL     OW39565   3.926   0.263   1.351 -0.0794  0.5132 -0.3295
 9368SOL    HW139566   3.989   0.322   1.309  0.4047  0.0662 -0.2258
 9368SOL    HW239567   3.883   0.230   1.272  0.1049 -0.1667 -0.1462
 9369SOL     OW39568   4.218   0.315   0.848  0.0414 -0.1320  0.4379
 9369SOL    HW139569   4.251   0.234   0.809  0.4604  0.4991 -0.5012
 9369SOL    HW239570   4.298   0.367   0.844 -1.3186  1.9635  0.2838
 9370SOL     OW39571   2.313   1.652   3.021  0.6156 -0.2344  0.2139
 9370SOL    HW139572   2.287   1.566   2.985  0.0524  0.4898 -1.1149
 9370SOL    HW239573   2.352   1.697   2.946 -0.5338 -0.6421 -0.6324
 9371SOL     OW39574   1.448   4.607   1.960  0.2124  0.1132 -0.0999
 9371SOL    HW139575   1.359   4.575   1.948  1.3400 -2.8473 -0.6113
 9371SOL    HW239576   1.481   4.584   1.874 -1.0263  2.2477 -1.1276
 9372SOL     OW39577   2.523   2.833   4.175 -0.0716 -0.1166  0.6300
 9372SOL    HW139578   2.473   2.869   4.103 -0.8302 -1.5253  0.4377
 9372SOL    HW239579   2.544   2.908   4.231  1.2488 -0.3579  0.4584
 9373SOL     OW39580   1.854   3.100   8.592 -0.1081  1.0452  0.1994
 9373SOL    HW139581   1.862   3.111   8.497  1.1672 -0.2625  0.1635
 9373SOL    HW239582   1.790   3.169   8.612 -0.6374  0.1463  1.6067
 9374SOL     OW39583   4.497   0.759   0.796  0.3510 -0.2617 -0.0885
 9374SOL    HW139584   4.463   0.779   0.709  1.2344 -2.2436 -0.8953
 9374SOL    HW239585   4.592   0.762   0.785  0.2349 -2.5457 -1.5748
 9375SOL     OW39586   4.110   3.932   6.882 -0.0141 -0.2066 -0.1394
 9375SOL    HW139587   4.020   3.920   6.853  0.3263 -0.8142 -0.9449
 9375SOL    HW239588   4.113   4.022   6.916  3.0005 -0.0060 -0.9273
 9376SOL     OW39589   3.514   2.912   5.628 -0.6337 -0.2805  0.3048
 9376SOL    HW139590   3.555   2.884   5.710 -1.6561 -4.4980 -0.6264
 9376SOL    HW239591   3.573   2.853   5.580 -0.5869 -0.8571  1.0833
 9377SOL     OW39592   2.417   2.226   2.829 -0.0876  0.4275  0.5149
 9377SOL    HW139593   2.357   2.155   2.850  1.1427  0.1019  2.9420
 9377SOL    HW239594   2.483   2.228   2.899  0.3812 -1.6957  0.1488
 9378SOL     OW39595   0.686   2.585  14.343  0.2331  0.5083  0.0687
 9378SOL    HW139596   0.650   2.500  14.366  1.4211 -0.2865 -0.9924
 9378SOL    HW239597   0.631   2.621  14.273 -1.4750 -0.7305  0.7968
 9379SOL     OW39598   3.209   3.228   3.611 -0.4071 -0.2788  0.3283
 9379SOL    HW139599   3.236   3.302   3.666 -0.0788 -1.3536  1.6087
 9379SOL    HW239600   3.282   3.235   3.549  0.1608 -0.1668  1.0150
 9380SOL     OW39601   1.269   2.801   4.056 -0.0733  0.0662 -0.2450
 9380SOL    HW139602   1.200   2.738   4.073  1.0553 -1.4286 -1.1532
 9380SOL    HW239603   1.298   2.826   4.144 -1.6414 -1.0946  0.5802
 9381SOL     OW39604   0.433   3.912  14.297  0.0538  0.1952 -0.1724
 9381SOL    HW139605   0.512   3.943  14.342 -0.2646  1.0087 -0.1703
 9381SOL    HW239606   0.430   3.821  14.327  0.0920  0.2913  0.1218
 9382SOL     OW39607   4.667   0.303   9.178 -0.0504  0.4942 -0.1118
 9382SOL    HW139608   4.722   0.274   9.106  0.4872  0.4338  0.3214
 9382SOL    HW239609   4.613   0.224   9.182  2.8987 -1.6243 -1.9965
 9383SOL     OW39610   2.432   3.575   6.544 -0.2346  0.2370  0.8406
 9383SOL    HW139611   2.419   3.521   6.466  1.9307 -1.4527  1.6581
 9383SOL    HW239612   2.347   3.619   6.541 -1.6570 -2.4961  0.8162
 9384SOL     OW39613   3.059   0.280   4.823 -0.5234 -0.6543 -0.2055
 9384SOL    HW139614   3.140   0.314   4.860 -0.0668 -1.6264 -0.3154
 9384SOL    HW239615   3.075   0.301   4.731  0.3255 -0.8415 -0.1034
 9385SOL     OW39616   4.573   2.805   8.378  0.3838 -0.6616 -0.0178
 9385SOL    HW139617   4.514   2.823   8.451  0.0015  1.0208 -0.7321
 9385SOL    HW239618   4.617   2.890   8.378  0.6443 -0.7964  0.8340
 9386SOL     OW39619   2.960   2.338   2.362 -0.3537 -0.1971 -0.3741
 9386SOL    HW139620   2.900   2.402   2.400 -0.6908 -0.8040  0.1128
 9386SOL    HW239621   2.953   2.261   2.418  1.1664  2.5918  3.6450
 9387SOL     OW39622   3.398   3.221   3.912  0.3929  0.3097  0.4252
 9387SOL    HW139623   3.427   3.305   3.948 -2.9534  1.5506  0.1400
 9387SOL    HW239624   3.475   3.193   3.863 -0.0060  1.7782 -1.0179
 9388SOL     OW39625   2.903   3.305   5.010  0.8507  0.3610  0.3586
 9388SOL    HW139626   2.828   3.304   5.069 -0.3963  0.2687 -1.2282
 9388SOL    HW239627   2.906   3.390   4.967  1.8858 -0.0115 -0.3102
 9389SOL     OW39628   3.666   3.345   0.866 -0.0397  0.1313  0.2181
 9389SOL    HW139629   3.605   3.271   0.864 -0.2421  0.3037 -0.0619
 9389SOL    HW239630   3.601   3.414   0.851 -0.5699  0.0148  1.9902
 9390SOL     OW39631   1.343   0.525   8.231 -0.8428 -0.2614 -0.3457
 9390SOL    HW139632   1.397   0.543   8.307  1.8752 -1.4568 -1.9901
 9390SOL    HW239633   1.254   0.529   8.266 -0.1859  2.1643  1.0500
 9391SOL     OW39634   2.968   0.982   4.126  0.3525 -0.0248  0.0737
 9391SOL    HW139635   2.885   0.971   4.172  0.8851 -2.6001  0.4381
 9391SOL    HW239636   2.944   0.942   4.043 -1.6091  1.0111  0.1527
 9392SOL     OW39637   2.398   0.624   6.656 -0.2828 -0.6122 -0.2555
 9392SOL    HW139638   2.430   0.537   6.631 -2.3507 -1.7463  1.0324
 9392SOL    HW239639   2.335   0.597   6.722 -2.4743  1.3833 -1.5271
 9393SOL     OW39640   0.785   3.929   4.481  0.1021 -0.0106 -0.0601
 9393SOL    HW139641   0.803   4.001   4.421  0.4652 -1.8007 -2.1082
 9393SOL    HW239642   0.707   3.960   4.526  0.1142 -0.8907  0.5758
 9394SOL     OW39643   3.914   3.947  10.450 -0.2286 -0.0425 -0.4050
 9394SOL    HW139644   3.924   4.042  10.456 -0.0589 -0.1094  0.3476
 9394SOL    HW239645   3.888   3.921  10.538  1.7585  0.3131  0.2747
 9395SOL     OW39646   0.740   0.367   1.712 -0.5642  0.5573 -0.2719
 9395SOL    HW139647   0.772   0.280   1.737  0.1246  0.8150 -0.2434
 9395SOL    HW239648   0.803   0.429   1.748 -2.5504  2.3472  0.1071
 9396SOL     OW39649   0.712   2.962   1.589  0.2584 -1.0440 -0.3554
 9396SOL    HW139650   0.716   2.939   1.496 -0.1270 -1.5533 -0.2467
 9396SOL    HW239651   0.741   2.880   1.630 -3.3640 -1.0343  2.1951
 9397SOL     OW39652   3.917   4.672  10.721  0.0522 -0.3648 -0.2623
 9397SOL    HW139653   3.952   4.639  10.638 -0.2680  1.7878 -1.2656
 9397SOL    HW239654   3.927   0.043  10.713  0.9999 -0.5189 -0.9312
 9398SOL     OW39655   4.313   1.311   1.866 -0.0446  0.0699  0.6424
 9398SOL    HW139656   4.242   1.310   1.930 -0.0749 -0.3826  0.6063
 9398SOL    HW239657   4.288   1.394   1.825  0.9578  0.0470 -0.0041
 9399SOL     OW39658   1.175   0.833   8.836 -0.4693  0.3215  0.1555
 9399SOL    HW139659   1.187   0.914   8.886 -0.8806  1.3674 -1.4341
 9399SOL    HW239660   1.225   0.772   8.890 -0.3684 -1.9229 -2.5238
 9400SOL     OW39661   0.421   2.541   9.294  0.4006  0.0624 -0.0201
 9400SOL    HW139662   0.364   2.591   9.235 -0.0673 -3.0711 -2.1788
 9400SOL    HW239663   0.480   2.609   9.326 -0.5264  1.0422 -0.3800
 9401SOL     OW39664   4.602   1.791   4.623  0.2074 -0.1152  0.0965
 9401SOL    HW139665   4.581   1.776   4.530  2.9484 -0.8126 -0.3876
 9401SOL    HW239666   4.696   1.790   4.639 -0.0704  2.3917  1.8325
 9402SOL     OW39667   0.648   1.831   2.177 -0.3911 -0.0872 -0.2896
 9402SOL    HW139668   0.667   1.864   2.089  2.2856 -1.5700 -0.2730
 9402SOL    HW239669   0.666   1.738   2.163 -0.5456  0.1399 -2.0970
 9403SOL     OW39670   3.229   3.363   1.720 -0.2016  0.4649  0.1484
 9403SOL    HW139671   3.299   3.310   1.681 -2.9016 -0.4467 -3.4322
 9403SOL    HW239672   3.205   3.410   1.640  1.3614  2.2829  0.7510
 9404SOL     OW39673   2.325   2.136   1.235 -0.4333 -0.1845 -0.2210
 9404SOL    HW139674   2.345   2.192   1.310 -1.7627 -2.7179  2.0186
 9404SOL    HW239675   2.266   2.078   1.283  0.7167 -3.1190 -2.3491
 9405SOL     OW39676   0.938   1.393   4.480 -0.0800 -0.5464 -0.5130
 9405SOL    HW139677   0.968   1.435   4.400  0.2510 -1.2400 -0.7521
 9405SOL    HW239678   0.847   1.384   4.451  0.2375 -0.1553 -1.6318
 9406SOL     OW39679   0.984   3.204   8.545 -0.1294 -0.3084 -0.1966
 9406SOL    HW139680   0.963   3.202   8.452 -2.4169  0.0412  0.3192
 9406SOL    HW239681   0.895   3.208   8.580 -1.4634  1.6644 -3.7838
 9407SOL     OW39682   3.128   3.984   5.379 -0.1651  0.1716  0.7351
 9407SOL    HW139683   3.053   3.983   5.438 -0.4461 -1.5823  0.3387
 9407SOL    HW239684   3.137   4.072   5.343 -1.8307  0.5352  1.2160
 9408SOL     OW39685   4.007   1.981   8.081 -0.3760  0.4262  0.1139
 9408SOL    HW139686   4.050   2.021   8.006  2.5865  0.7376  1.9824
 9408SOL    HW239687   4.081   1.954   8.134 -0.7776 -1.3597 -0.2293
 9409SOL     OW39688   1.217   4.526  14.355 -0.4501  0.4888 -0.1358
 9409SOL    HW139689   1.186   4.436  14.346  1.0489  0.1503 -1.8718
 9409SOL    HW239690   1.133   4.568  14.338  0.5834  2.2987 -0.8559
 9410SOL     OW39691   3.622   4.720  14.925 -0.2236  0.0483 -0.0623
 9410SOL    HW139692   3.660   0.015  14.839  1.3097  0.2837  0.6743
 9410SOL    HW239693   3.574   0.079  14.932  0.0617  0.4862 -3.1567
 9411SOL     OW39694   0.371   3.266   8.322 -0.5111 -0.8259 -0.1744
 9411SOL    HW139695   0.434   3.233   8.386 -0.4834 -0.9444 -0.2629
 9411SOL    HW239696   0.387   3.205   8.250  1.1538 -1.3296  0.6176
 9412SOL     OW39697   0.565   1.437   1.905 -0.1316 -0.2566 -1.0056
 9412SOL    HW139698   0.481   1.482   1.897 -0.3202 -1.0605 -3.7231
 9412SOL    HW239699   0.596   1.493   1.976 -0.9967 -0.9393 -0.0855
 9413SOL     OW39700   3.913   3.778   3.337  0.1603  0.7217 -0.3734
 9413SOL    HW139701   3.954   3.864   3.346 -0.5432  1.0367 -0.1866
 9413SOL    HW239702   3.994   3.738   3.305  1.5129  2.5142  0.7690
 9414SOL     OW39703   4.271   3.791  12.601 -0.0036 -0.0669  0.3330
 9414SOL    HW139704   4.363   3.813  12.610 -0.0298 -0.0399  0.5347
 9414SOL    HW239705   4.281   3.698  12.579 -3.5554 -0.4951  0.5044
 9415SOL     OW39706   4.642   2.229  16.633  0.2115 -0.5155  0.1421
 9415SOL    HW139707   0.013   2.220  16.633  0.0739 -2.0136  1.0675
 9415SOL    HW239708   4.635   2.298  16.567  2.3688  2.1744  2.7267
 9416SOL     OW39709   1.090   2.000  11.180 -0.3125  0.2646  1.3257
 9416SOL    HW139710   1.025   2.070  11.186 -1.8978 -1.0793  0.1053
 9416SOL    HW239711   1.142   2.014  11.259  1.1991 -0.7692  0.5123
 9417SOL     OW39712   3.771   4.030   5.900 -0.2453 -0.5582  0.5809
 9417SOL    HW139713   3.742   4.015   5.810  1.6149  1.0097 -0.2878
 9417SOL    HW239714   3.728   4.111   5.926  1.4333  1.1208 -1.8759
 9418SOL     OW39715   4.480   0.971   8.349  0.1050 -0.8634  0.1649
 9418SOL    HW139716   4.540   1.031   8.305 -0.7035 -1.4294 -1.7242
 9418SOL    HW239717   4.534   0.939   8.421  0.7257  2.3220  1.0768
 9419SOL     OW39718   0.294   0.400   5.456 -0.0034  0.0403 -0.1825
 9419SOL    HW139719   0.277   0.314   5.416  1.1692  0.2431 -1.1045
 9419SOL    HW239720   0.255   0.388   5.542  0.7562  1.4183  0.3401
 9420SOL     OW39721   2.326   4.088  10.388  0.1431  0.4240  0.1056
 9420SOL    HW139722   2.386   4.039  10.444 -1.0625 -2.7351 -1.3690
 9420SOL    HW239723   2.364   4.093  10.300  0.1956 -2.7376 -0.0463
 9421SOL     OW39724   2.963   0.540  13.173 -0.0450 -0.5583  0.1460
 9421SOL    HW139725   2.948   0.571  13.263 -0.5687 -1.8740  0.5033
 9421SOL    HW239726   3.053   0.569  13.162 -0.2267 -1.3457 -3.3284
 9422SOL     OW39727   1.691   2.301   7.218  0.7476  0.3062 -0.4773
 9422SOL    HW139728   1.648   2.265   7.140 -0.2837  0.6497 -0.0706
 9422SOL    HW239729   1.753   2.228   7.229 -0.6917 -1.0348 -1.2031
 9423SOL     OW39730   4.018   4.255   3.723  0.4127  0.3020  0.0365
 9423SOL    HW139731   3.990   4.346   3.735  2.1896  1.2730 -2.9707
 9423SOL    HW239732   4.085   4.271   3.656  1.2333 -0.7814  0.6032
 9424SOL     OW39733   3.512   1.173   8.489  0.0324  0.0748 -0.1452
 9424SOL    HW139734   3.583   1.235   8.472 -1.1589  1.3450 -0.4250
 9424SOL    HW239735   3.459   1.153   8.413 -1.1437 -0.0279  0.6997
 9425SOL     OW39736   1.110   0.552   8.374  0.6782  0.0136 -0.2443
 9425SOL    HW139737   1.081   0.599   8.296  0.7835 -0.5958 -0.6475
 9425SOL    HW239738   1.095   0.619   8.441 -0.0551  0.6632 -1.0698
 9426SOL     OW39739   0.986   3.318   2.193  0.5466 -0.1605  0.2609
 9426SOL    HW139740   0.933   3.357   2.123  1.2067 -1.6096 -1.0458
 9426SOL    HW239741   1.054   3.275   2.141 -1.1700  0.2868 -2.3747
 9427SOL     OW39742   2.899   1.776   7.897 -0.9337  0.2575 -0.2322
 9427SOL    HW139743   2.853   1.829   7.961  1.3468  1.2049  0.6497
 9427SOL    HW239744   2.840   1.769   7.822 -1.6587 -0.5984  0.4190
 9428SOL     OW39745   0.495   2.041   1.839 -0.9407 -0.3374  0.1875
 9428SOL    HW139746   0.528   1.996   1.917  0.7112  1.3859  0.4776
 9428SOL    HW239747   0.430   1.983   1.799 -1.2080  0.5505 -0.6577
 9429SOL     OW39748   2.176   2.133   6.173  0.5983 -0.2247  0.6006
 9429SOL    HW139749   2.153   2.203   6.234  0.5015  0.4940 -0.2739
 9429SOL    HW239750   2.127   2.063   6.218  0.9001  0.8682  2.6102
 9430SOL     OW39751   0.314   3.830   4.814 -0.3522 -0.0113 -0.3385
 9430SOL    HW139752   0.312   3.740   4.782  1.0371 -0.0193 -0.3794
 9430SOL    HW239753   0.394   3.852   4.768 -0.8385  0.0652 -1.1477
 9431SOL     OW39754   3.788   3.064   7.902  0.1491 -0.0633 -0.3449
 9431SOL    HW139755   3.769   2.986   7.850  0.0104  0.1649 -0.6386
 9431SOL    HW239756   3.727   3.059   7.975 -1.1806 -2.2908 -1.6222
 9432SOL     OW39757   0.442   0.164  14.476  0.0812 -0.1540 -0.4363
 9432SOL    HW139758   0.524   0.137  14.436  1.3070  0.3787  1.7231
 9432SOL    HW239759   0.457   0.125  14.562  0.7780 -0.9019 -0.8981
 9433SOL     OW39760   2.724   2.748  15.921 -0.2483 -0.1189  0.2772
 9433SOL    HW139761   2.750   2.763  16.012 -0.3588  2.7259 -0.1480
 9433SOL    HW239762   2.795   2.787  15.869  0.0640  1.1654  1.6593
 9434SOL     OW39763   0.201   4.090  12.385 -0.0514  0.1266  0.4843
 9434SOL    HW139764   0.169   4.052  12.467  0.2268 -0.9260  0.0951
 9434SOL    HW239765   0.245   4.170  12.414 -1.9417  0.8560  1.2802
 9435SOL     OW39766   3.314   4.212   7.581  0.0385  0.1962  0.2927
 9435SOL    HW139767   3.320   4.220   7.676  1.3270  0.5139  0.1750
 9435SOL    HW239768   3.318   4.301   7.547  0.1242 -0.1886 -0.7040
 9436SOL     OW39769   1.990   3.360   3.180  0.0817 -0.3582  0.5802
 9436SOL    HW139770   1.895   3.365   3.191  0.4539  0.2296  3.7543
 9436SOL    HW239771   2.009   3.454   3.178 -2.8435  0.1834 -1.3718
 9437SOL     OW39772   1.793   3.121   3.837 -0.7001 -0.1825  0.7735
 9437SOL    HW139773   1.863   3.185   3.841 -0.0824 -0.9779  2.8456
 9437SOL    HW239774   1.822   3.057   3.902  2.6372  1.3751  0.7990
 9438SOL     OW39775   0.766   4.319  11.628 -0.3962  0.2371  0.0014
 9438SOL    HW139776   0.772   4.414  11.625  2.3092  0.0776  0.4698
 9438SOL    HW239777   0.744   4.296  11.719  1.2877  0.0858  0.3650
 9439SOL     OW39778   4.126   1.376   2.486 -0.3529 -0.5076 -0.0290
 9439SOL    HW139779   4.135   1.472   2.491  0.5562 -0.5508 -0.8591
 9439SOL    HW239780   4.195   1.352   2.425 -0.0849 -1.6610  0.7328
 9440SOL     OW39781   2.798   1.151   3.811 -0.4604 -0.3662 -0.1909
 9440SOL    HW139782   2.758   1.237   3.795  2.5677  0.7852 -1.7929
 9440SOL    HW239783   2.724   1.092   3.824 -1.4333  1.0218  0.5379
 9441SOL     OW39784   2.188   2.741  13.806 -0.3304  0.6009  0.8404
 9441SOL    HW139785   2.164   2.805  13.873 -1.4004  1.7089 -0.5929
 9441SOL    HW239786   2.283   2.746  13.798 -0.5267  2.7366 -0.2302
 9442SOL     OW39787   1.622   3.553   8.539  0.0185 -0.6646 -0.1297
 9442SOL    HW139788   1.588   3.559   8.629  0.8110 -1.6183  0.2313
 9442SOL    HW239789   1.667   3.638   8.540  2.6255 -2.0309 -0.9711
 9443SOL     OW39790   1.470   1.189  13.709  0.3292 -0.1646  0.2531
 9443SOL    HW139791   1.462   1.100  13.743  2.7587 -0.7937 -0.8548
 9443SOL    HW239792   1.553   1.221  13.744  0.8750 -0.5259 -0.7277
 9444SOL     OW39793   0.587   3.317   5.493 -0.0435  0.1595 -0.3318
 9444SOL    HW139794   0.599   3.374   5.569  1.9657 -0.2201 -0.3587
 9444SOL    HW239795   0.678   3.296   5.472  0.1033 -0.8139  1.2535
 9445SOL     OW39796   0.249   1.047   4.553  0.4565  0.7752  0.2088
 9445SOL    HW139797   0.254   1.015   4.643  0.8751 -0.1811 -0.1465
 9445SOL    HW239798   0.193   0.980   4.513  3.3816 -1.4443 -0.1902
 9446SOL     OW39799   0.678   2.297   6.431 -0.0053  0.2073 -0.3040
 9446SOL    HW139800   0.735   2.358   6.384  0.8555 -0.6635 -0.3796
 9446SOL    HW239801   0.640   2.263   6.350 -0.7234 -0.3399  0.2652
 9447SOL     OW39802   2.381   2.343   7.848 -0.1506 -0.6262  0.3427
 9447SOL    HW139803   2.463   2.346   7.798 -1.1301 -2.7262 -1.3938
 9447SOL    HW239804   2.407   2.305   7.931  2.5230  1.3087  0.3867
 9448SOL     OW39805   0.401   1.289   3.891 -0.0493 -0.5227 -0.2135
 9448SOL    HW139806   0.431   1.206   3.928 -1.8844 -0.5288  1.2503
 9448SOL    HW239807   0.319   1.248   3.863 -1.2730 -0.2065  2.8522
 9449SOL     OW39808   1.105   3.267   3.964 -0.0907 -0.3340  0.2043
 9449SOL    HW139809   1.017   3.262   3.999 -0.8879 -0.2459 -1.7620
 9449SOL    HW239810   1.115   3.362   3.973  1.1213 -0.6612  2.3160
 9450SOL     OW39811   2.879   2.660   8.893 -0.2770  0.3998 -0.0078
 9450SOL    HW139812   2.971   2.685   8.890 -0.1358  0.1795  2.3723
 9450SOL    HW239813   2.850   2.745   8.927 -0.0221  0.6536 -0.4239
 9451SOL     OW39814   0.380   1.831   4.450  0.5467 -0.0791  0.1631
 9451SOL    HW139815   0.405   1.853   4.360 -1.2000  1.3737  0.0455
 9451SOL    HW239816   0.470   1.831   4.483  1.1898 -3.6401 -1.5502
 9452SOL     OW39817   2.858   2.261   4.498  0.6747 -0.3904 -0.3728
 9452SOL    HW139818   2.810   2.182   4.522  0.1743  0.5204  1.6257
 9452SOL    HW239819   2.946   2.223   4.486  0.1743 -1.2680 -1.2839
 9453SOL     OW39820   1.463   0.068   6.721  0.3032  0.3170  0.3798
 9453SOL    HW139821   1.460   4.701   6.749  0.9089  0.2272  0.1506
 9453SOL    HW239822   1.379   0.059   6.675  1.0536  3.0257 -1.5369
 9454SOL     OW39823   2.387   0.945   4.935 -0.7375  0.0080 -0.0172
 9454SOL    HW139824   2.338   0.879   4.886  0.0382 -1.3704  1.0782
 9454SOL    HW239825   2.335   0.950   5.015 -0.1122  1.4101  0.3022
 9455SOL     OW39826   0.616   3.106  16.839  0.0969 -0.3810  0.1743
 9455SOL    HW139827   0.644   3.193  16.868 -0.4941 -0.4427  0.9472
 9455SOL    HW239828   0.541   3.087  16.895 -0.9345  1.5148 -0.5782
 9456SOL     OW39829   0.518   4.070   7.769  0.0605 -0.5549 -0.5626
 9456SOL    HW139830   0.531   4.089   7.862  1.9000 -1.9058 -0.5410
 9456SOL    HW239831   0.544   3.978   7.763  2.8339  0.2525 -1.1970
 9457SOL     OW39832   4.108   2.667  14.260 -0.2025  0.5053 -0.3645
 9457SOL    HW139833   4.149   2.697  14.341  1.2034 -0.3549 -0.7458
 9457SOL    HW239834   4.035   2.612  14.287 -2.5416  3.6101 -0.4429
 9458SOL     OW39835   0.898   2.018   7.007 -0.1715  0.1248  0.2525
 9458SOL    HW139836   0.967   2.058   7.061 -0.9341 -0.8645  1.9413
 9458SOL    HW239837   0.920   2.047   6.918 -2.4442  1.2892  0.0743
 9459SOL     OW39838   0.704   3.598  14.737 -0.1534 -0.0877  0.4111
 9459SOL    HW139839   0.636   3.621  14.673  1.0191  0.6605 -0.5774
 9459SOL    HW239840   0.787   3.626  14.697 -0.2779 -2.2468 -1.3922
 9460SOL     OW39841   3.615   0.371  14.301  0.7580  0.3022 -0.3518
 9460SOL    HW139842   3.601   0.392  14.394 -0.8136 -2.1159 -0.0585
 9460SOL    HW239843   3.559   0.434  14.256 -0.7868 -1.3681 -0.7681
 9461SOL     OW39844   4.246   2.520   1.397  0.2068  0.2899  0.2249
 9461SOL    HW139845   4.314   2.466   1.356 -0.2635  0.1784 -0.4173
 9461SOL    HW239846   4.279   2.532   1.486  0.9248  0.0781 -0.0094
 9462SOL     OW39847   4.552   1.068   2.846  0.2628 -0.6254 -0.4229
 9462SOL    HW139848   4.556   1.164   2.844  0.2224 -0.6128 -0.0337
 9462SOL    HW239849   4.602   1.044   2.924  0.3320 -0.5675 -0.4491
 9463SOL     OW39850   1.640   2.196  16.982  0.2504  0.3920  0.1617
 9463SOL    HW139851   1.706   2.154  17.039  0.6063  0.5428 -0.1388
 9463SOL    HW239852   1.602   2.259  17.043  0.7385 -1.1837  2.1147
 9464SOL     OW39853   4.184   2.405   3.125 -0.2341 -0.7879 -0.0215
 9464SOL    HW139854   4.133   2.470   3.172  0.0516  0.8324 -1.9459
 9464SOL    HW239855   4.252   2.458   3.085  2.0265 -2.0823  2.0726
 9465SOL     OW39856   3.366   0.887  13.231 -0.2898 -0.2607  0.3206
 9465SOL    HW139857   3.457   0.892  13.203 -0.3877  0.9273  0.2386
 9465SOL    HW239858   3.341   0.979  13.220  0.1108 -0.0761  0.9521
 9466SOL     OW39859   3.776   3.471  10.709 -0.3960 -0.3809 -0.0933
 9466SOL    HW139860   3.847   3.533  10.694 -0.1317 -0.3619  1.2087
 9466SOL    HW239861   3.802   3.409  10.641 -1.3798 -0.5937 -0.2770
 9467SOL     OW39862   1.677   3.435   9.295  0.3408  0.2094 -0.1696
 9467SOL    HW139863   1.739   3.400   9.360  0.5685  2.5030  0.8502
 9467SOL    HW239864   1.602   3.438   9.354  0.3488 -0.6484 -0.1189
 9468SOL     OW39865   3.449   2.593   6.956  0.4923 -0.2974 -0.0618
 9468SOL    HW139866   3.383   2.653   6.921  0.7483 -0.2987 -0.5388
 9468SOL    HW239867   3.523   2.636   6.913 -1.1414  0.9960 -1.6076
 9469SOL     OW39868   0.318   2.839   8.728 -0.2214 -0.0981  0.1310
 9469SOL    HW139869   0.333   2.893   8.806  2.7339 -1.0278  0.2354
 9469SOL    HW239870   0.252   2.776   8.756 -0.6662 -0.6317 -2.0546
 9470SOL     OW39871   0.204   4.608   6.094  0.2874 -0.1318 -0.2528
 9470SOL    HW139872   0.290   4.575   6.122  0.4385 -0.5826 -1.2420
 9470SOL    HW239873   0.152   4.544   6.143 -0.1109 -0.3546 -0.9645
 9471SOL     OW39874   2.533   1.298  12.472 -0.3544 -0.4094  0.1661
 9471SOL    HW139875   2.546   1.241  12.396  0.1076  1.5226 -1.2170
 9471SOL    HW239876   2.481   1.247  12.534 -2.0283  0.7061 -0.3190
 9472SOL     OW39877   4.529   1.520   1.798 -0.0591  0.1170 -0.1202
 9472SOL    HW139878   4.451   1.530   1.744 -0.0631 -0.6012 -0.2414
 9472SOL    HW239879   4.567   1.436   1.775 -1.4851 -0.0765 -1.7559
 9473SOL     OW39880   4.548   1.777  11.479 -0.2862 -0.0298 -0.2872
 9473SOL    HW139881   4.587   1.721  11.412  1.9279  0.6627  0.4109
 9473SOL    HW239882   4.597   1.859  11.473 -0.9981  0.3813 -0.5422
 9474SOL     OW39883   4.418   0.475   2.943 -0.5178  0.2780 -0.1031
 9474SOL    HW139884   4.337   0.435   2.974  1.2881 -2.2496  1.3729
 9474SOL    HW239885   4.486   0.410   2.960  1.4736  2.4355  0.2490
 9475SOL     OW39886   1.434   1.845   2.646  0.1530  0.1113  0.3075
 9475SOL    HW139887   1.392   1.810   2.567 -1.2909  0.0683  1.0822
 9475SOL    HW239888   1.523   1.814   2.630  0.6113  1.4104  0.3537
 9476SOL     OW39889   2.281   1.260  15.538  0.3381  0.1604  0.0252
 9476SOL    HW139890   2.264   1.354  15.532 -2.0358 -0.2792  0.1443
 9476SOL    HW239891   2.209   1.222  15.488  0.3773 -0.6674  0.5910
 9477SOL     OW39892   1.286   2.452   7.865 -0.6013  0.4987 -0.1019
 9477SOL    HW139893   1.201   2.491   7.842  0.0740  1.0303 -1.6809
 9477SOL    HW239894   1.321   2.466   7.777 -1.2000 -1.2514 -0.6223
 9478SOL     OW39895   2.325   2.227   4.546 -0.0727 -0.4374 -0.2327
 9478SOL    HW139896   2.415   2.203   4.524 -0.2452 -2.4236  1.1472
 9478SOL    HW239897   2.288   2.227   4.458  1.4129 -0.5890 -0.8637
 9479SOL     OW39898   0.077   2.655   5.096  0.0275 -0.0269 -0.1502
 9479SOL    HW139899   0.148   2.684   5.153  0.9512 -0.6459 -0.9843
 9479SOL    HW239900   0.046   2.572   5.132  1.9814 -1.0185 -0.7278
 9480SOL     OW39901   2.223   4.529   8.770  0.1586 -0.5635  0.7739
 9480SOL    HW139902   2.201   4.546   8.679  0.2847  0.8818  1.0118
 9480SOL    HW239903   2.144   4.572   8.803 -0.6465 -1.6122  0.2226
 9481SOL     OW39904   3.214   2.609   4.161  0.2501 -0.1687 -0.2508
 9481SOL    HW139905   3.130   2.564   4.175  1.5087 -2.8937 -1.4954
 9481SOL    HW239906   3.206   2.650   4.075  0.0299 -1.2467 -0.7474
 9482SOL     OW39907   2.238   2.491  12.516  0.8880 -0.0523 -0.3437
 9482SOL    HW139908   2.159   2.437  12.513  0.0024  1.3522 -2.2448
 9482SOL    HW239909   2.238   2.545  12.595 -0.8729 -0.3221 -0.1703
 9483SOL     OW39910   1.038   1.886  16.365  0.8489 -0.1151 -0.2176
 9483SOL    HW139911   1.063   1.860  16.277 -0.8698  1.1241 -1.0740
 9483SOL    HW239912   1.117   1.933  16.393 -0.7733  1.7946  1.1439
 9484SOL     OW39913   0.158   2.272   7.213  0.0119  0.0561  1.0170
 9484SOL    HW139914   0.253   2.286   7.211 -0.0788  0.4557 -1.1360
 9484SOL    HW239915   0.118   2.356   7.190 -0.5199 -0.1645  1.1398
 9485SOL     OW39916   2.140   2.867   4.072 -0.0778  0.2591  0.6354
 9485SOL    HW139917   2.204   2.925   4.030 -1.4766 -0.4655 -2.4842
 9485SOL    HW239918   2.171   2.897   4.158  1.3125  0.6555  0.0058
 9486SOL     OW39919   1.321   4.151   3.350  0.4720  0.1929 -0.0362
 9486SOL    HW139920   1.276   4.066   3.350 -0.6194  0.7804  2.4844
 9486SOL    HW239921   1.291   4.198   3.428  3.2737  1.5674  0.1900
 9487SOL     OW39922   3.176   3.798  16.085 -0.2895  0.2475 -0.0130
 9487SOL    HW139923   3.118   3.808  16.010 -2.7059 -0.5208  1.7638
 9487SOL    HW239924   3.248   3.755  16.039 -0.5800 -0.6039  0.3444
 9488SOL     OW39925   3.807   2.406  14.542 -0.5176 -0.3008  0.2178
 9488SOL    HW139926   3.798   2.481  14.601 -1.0573 -0.7762  0.7411
 9488SOL    HW239927   3.724   2.410  14.494 -0.7267 -1.8614  0.4395
 9489SOL     OW39928   1.006   4.416   9.803 -0.3598 -0.2145 -0.3379
 9489SOL    HW139929   1.011   4.472   9.726 -3.2044  1.1159  0.4340
 9489SOL    HW239930   1.098   4.411   9.832 -0.2014  2.8078 -0.2871
 9490SOL     OW39931   4.204   2.432  16.706 -0.1617  0.2060  0.8508
 9490SOL    HW139932   4.276   2.460  16.764  1.2525 -0.6174 -0.4998
 9490SOL    HW239933   4.245   2.354  16.668 -0.8095  1.7958 -3.0404
 9491SOL     OW39934   2.145   0.629   8.299  0.3199 -0.0427  0.3189
 9491SOL    HW139935   2.183   0.544   8.279 -0.3703  0.3001 -2.5415
 9491SOL    HW239936   2.226   0.680   8.301  0.6844 -0.6451  0.6674
 9492SOL     OW39937   4.532   0.803   7.246 -0.2861  0.0052 -0.6144
 9492SOL    HW139938   4.478   0.802   7.167 -0.5310  0.1959 -0.4506
 9492SOL    HW239939   4.516   0.719   7.290  1.9039 -0.9117 -1.6232
 9493SOL     OW39940   3.032   0.814   2.938 -0.0111 -0.1998 -0.0901
 9493SOL    HW139941   2.964   0.824   3.005 -0.0235  0.4430 -0.2046
 9493SOL    HW239942   2.991   0.754   2.875 -2.0546  0.6547  0.3987
 9494SOL     OW39943   1.177   0.479   5.363  0.6404 -0.1156 -0.5338
 9494SOL    HW139944   1.196   0.573   5.369  0.4647 -0.2300  1.8495
 9494SOL    HW239945   1.241   0.455   5.429 -0.3282  1.7498  1.0839
 9495SOL     OW39946   4.483   0.892   3.603  1.2207  0.0099 -0.4167
 9495SOL    HW139947   4.434   0.883   3.522  1.0514  2.3971 -0.5712
 9495SOL    HW239948   4.483   0.987   3.616 -0.0150 -0.2362  1.4166
 9496SOL     OW39949   2.006   3.460  16.326  0.5968  0.6755 -0.0503
 9496SOL    HW139950   1.988   3.524  16.394  1.0594  0.6762  0.0727
 9496SOL    HW239951   2.044   3.388  16.377  1.7465  0.2436 -1.5134
 9497SOL     OW39952   2.068   2.929  11.359 -0.4823  0.0880  0.0651
 9497SOL    HW139953   1.992   2.946  11.304 -0.6244  0.8044  0.4931
 9497SOL    HW239954   2.076   3.013  11.404  1.3638 -0.4777  0.7833
 9498SOL     OW39955   1.561   2.508  14.026  0.3639  0.8478  0.2775
 9498SOL    HW139956   1.592   2.545  14.109 -0.0908 -0.2756  0.9529
 9498SOL    HW239957   1.574   2.575  13.960 -0.1478  1.0778  0.4113
 9499SOL     OW39958   1.147   2.433   2.542  0.3008  0.1091 -0.1593
 9499SOL    HW139959   1.074   2.495   2.545 -0.5235 -0.7641 -2.2277
 9499SOL    HW239960   1.220   2.492   2.561  0.5281 -0.4332  0.6214
 9500SOL     OW39961   4.164   1.254  17.028 -0.1483  0.3505 -0.3010
 9500SOL    HW139962   4.110   1.207  16.964  0.2652 -0.3991 -0.1028
 9500SOL    HW239963   4.236   1.191  17.030 -0.2208  0.3609  2.2871
 9501SOL     OW39964   3.335   2.596   7.293 -0.4117  0.0760  0.1777
 9501SOL    HW139965   3.335   2.570   7.201  0.6161  0.6668  0.0184
 9501SOL    HW239966   3.428   2.602   7.313 -0.6361  1.9402  0.6863
 9502SOL     OW39967   2.304   4.260   8.810  0.3185  0.1993 -0.0758
 9502SOL    HW139968   2.257   4.343   8.799  1.1136  0.5317 -1.0013
 9502SOL    HW239969   2.386   4.292   8.847 -0.3720  2.4176 -0.4180
 9503SOL     OW39970   2.382   0.457  13.536  0.0927 -0.0773  0.0180
 9503SOL    HW139971   2.322   0.398  13.582  1.3111 -3.1060 -2.2414
 9503SOL    HW239972   2.445   0.395  13.498 -1.8583 -2.2711  0.3265
 9504SOL     OW39973   4.103   0.770  10.264 -0.4801 -0.1783 -0.6899
 9504SOL    HW139974   4.033   0.739  10.321 -0.3222  1.6271  0.4630
 9504SOL    HW239975   4.131   0.686  10.227  0.3188 -0.1064 -0.2416
 9505SOL     OW39976   4.351   0.906   6.616 -0.4150  0.3806  0.0929
 9505SOL    HW139977   4.419   0.907   6.548 -2.5696 -0.5339 -2.0503
 9505SOL    HW239978   4.370   0.984   6.669  0.5083  0.7782 -0.8106
 9506SOL     OW39979   3.708   4.417   4.280 -0.3408 -0.7770 -0.1135
 9506SOL    HW139980   3.638   4.387   4.222 -0.4583  0.4543 -0.6107
 9506SOL    HW239981   3.785   4.379   4.238  0.6697  2.3465 -1.0377
 9507SOL     OW39982   3.218   1.781   5.666 -0.3240 -0.2982 -0.0628
 9507SOL    HW139983   3.220   1.847   5.596  0.2116 -1.0935 -0.8108
 9507SOL    HW239984   3.295   1.808   5.716 -1.2784  0.8347  0.7573
 9508SOL     OW39985   3.945   0.027   9.119 -0.2699 -0.3264 -0.3554
 9508SOL    HW139986   3.988   0.051   9.037 -3.5370  0.1825 -1.8890
 9508SOL    HW239987   3.942   4.657   9.102 -0.1499  0.1548 -3.0411
 9509SOL     OW39988   2.415   0.235   7.608  0.0793 -0.5511 -0.0959
 9509SOL    HW139989   2.506   0.250   7.583 -0.0040 -0.7525 -0.5286
 9509SOL    HW239990   2.375   0.208   7.525  1.0694 -2.4235  0.0193
 9510SOL     OW39991   1.029   0.182   2.076  0.0984 -0.7601  0.6261
 9510SOL    HW139992   1.061   0.095   2.054  1.0735  0.1420 -1.5032
 9510SOL    HW239993   1.078   0.237   2.015  3.0534 -1.8935  1.9916
 9511SOL     OW39994   4.492   0.810   9.100 -0.0729 -0.2346  0.3967
 9511SOL    HW139995   4.542   0.805   9.018 -1.2227 -1.7373 -0.2226
 9511SOL    HW239996   4.444   0.728   9.092  0.7953 -0.5018 -2.2590
 9512SOL     OW39997   2.245   3.843   7.022  0.1144  0.4195  0.0389
 9512SOL    HW139998   2.156   3.873   7.040 -0.5562 -1.9950  0.7982
 9512SOL    HW239999   2.291   3.892   7.090  0.7489 -0.3393  0.1519
 9513SOL     OW40000   4.261   4.572   1.937 -0.2346 -0.3774  0.1406
 9513SOL    HW140001   4.344   4.526   1.921  1.1930  3.0785 -2.2416
 9513SOL    HW240002   4.206   4.508   1.983 -0.0472 -0.6134  0.0358
 9514SOL     OW40003   3.942   3.678  10.640  0.2353 -0.3244 -0.3680
 9514SOL    HW140004   3.951   3.703  10.732 -0.7297  1.6608 -0.8015
 9514SOL    HW240005   4.027   3.646  10.610 -0.5704 -2.4221 -0.3714
 9515SOL     OW40006   0.670   1.557  15.945  0.4813 -0.0993  0.0143
 9515SOL    HW140007   0.753   1.574  15.901 -0.2887  3.0341 -0.2638
 9515SOL    HW240008   0.681   1.606  16.026  0.1382 -0.7950  0.4825
 9516SOL     OW40009   1.211   4.315   8.752 -0.1015 -0.0958  0.1259
 9516SOL    HW140010   1.267   4.390   8.732  0.3303 -0.9604 -1.9261
 9516SOL    HW240011   1.252   4.284   8.833  0.6569 -0.5640 -0.4397
 9517SOL     OW40012   0.364   1.988  16.696  0.0737  0.5513 -0.0675
 9517SOL    HW140013   0.458   1.973  16.703  0.0472  1.8617  3.1376
 9517SOL    HW240014   0.360   1.971  16.602 -0.2903  1.2693 -0.1839
 9518SOL     OW40015   0.134   4.221  15.216 -0.2514  0.1856  0.0105
 9518SOL    HW140016   0.052   4.269  15.211 -0.9129 -0.8188  1.0333
 9518SOL    HW240017   0.196   4.284  15.180  1.0119 -0.2769  1.3751
 9519SOL     OW40018   1.766   4.276   3.847  0.0553  0.0876 -0.4157
 9519SOL    HW140019   1.860   4.282   3.861  0.1456  0.0614 -1.0387
 9519SOL    HW240020   1.744   4.284   3.755 -0.8311  0.9122 -0.1335
 9520SOL     OW40021   0.469   4.068   1.001  0.6954  0.3656  0.3127
 9520SOL    HW140022   0.472   4.014   1.080  0.8753 -0.2363 -0.1157
 9520SOL    HW240023   0.419   4.018   0.937  1.0554 -0.6789  0.8591
 9521SOL     OW40024   3.214   3.264  16.031  0.3709  0.4681  0.7010
 9521SOL    HW140025   3.216   3.308  15.946 -0.1412 -1.5284 -0.3336
 9521SOL    HW240026   3.306   3.260  16.058  0.8968 -2.1137 -1.4228
 9522SOL     OW40027   3.425   1.629   4.861  0.2206  0.0716  0.0905
 9522SOL    HW140028   3.440   1.585   4.945 -1.0822 -1.0164 -0.2365
 9522SOL    HW240029   3.520   1.638   4.850 -0.1675  4.1712  0.1124
 9523SOL     OW40030   1.972   3.948   7.067  0.0945  0.7242  0.6583
 9523SOL    HW140031   1.901   3.945   7.004  0.5533 -0.3303  0.2011
 9523SOL    HW240032   1.953   3.878   7.130  1.6195  1.5607  2.0531
 9524SOL     OW40033   2.613   2.660   7.850  0.5669  0.4863  0.3996
 9524SOL    HW140034   2.694   2.620   7.882  0.8362 -0.3432 -1.3203
 9524SOL    HW240035   2.630   2.750   7.878  0.5287  0.7890 -0.5462
 9525SOL     OW40036   3.984   1.465  10.696  0.0289  0.0033 -0.3829
 9525SOL    HW140037   4.077   1.477  10.679 -0.2062 -0.6119 -2.1241
 9525SOL    HW240038   3.951   1.456  10.607 -1.1171  1.7624 -0.1401
 9526SOL     OW40039   2.017   1.797  15.100 -0.2791  0.4699  0.4296
 9526SOL    HW140040   2.044   1.718  15.053  1.5552  1.5718 -0.3570
 9526SOL    HW240041   1.928   1.813  15.068  0.2611  1.9773 -0.3010
 9527SOL     OW40042   3.645   0.430   8.763 -0.5217 -0.0771  0.0905
 9527SOL    HW140043   3.696   0.373   8.819 -0.8371  0.1685  0.6339
 9527SOL    HW240044   3.553   0.405   8.772 -0.5257 -0.2539 -0.4818
 9528SOL     OW40045   3.725   4.386   4.837  0.8517 -0.3206 -0.4001
 9528SOL    HW140046   3.720   4.335   4.918 -2.2350 -0.6304 -0.7892
 9528SOL    HW240047   3.690   4.324   4.773 -1.3372 -0.4200  0.8976
 9529SOL     OW40048   3.803   4.058  11.705  0.3439 -0.0759 -0.2308
 9529SOL    HW140049   3.896   4.055  11.728  0.7382 -1.1937 -1.9325
 9529SOL    HW240050   3.792   4.013  11.621  2.1638  2.4688 -1.8340
 9530SOL     OW40051   2.254   1.657   8.663 -0.0255  0.0251  0.0849
 9530SOL    HW140052   2.243   1.689   8.574  1.5823 -1.8609 -0.7910
 9530SOL    HW240053   2.347   1.635   8.670  0.3709  0.8850 -2.7988
 9531SOL     OW40054   4.086   0.275   0.117  0.0124  0.0264 -0.6304
 9531SOL    HW140055   4.148   0.223   0.065  1.8321  0.0105  1.5252
 9531SOL    HW240056   4.145   0.337   0.160  0.8140 -1.2023  0.0654
 9532SOL     OW40057   1.934   2.659  12.318  0.7151 -0.0105 -0.2271
 9532SOL    HW140058   1.998   2.724  12.289  0.7421 -0.0090 -0.1637
 9532SOL    HW240059   1.850   2.705  12.314  0.7236  0.1351  1.3258
 9533SOL     OW40060   0.493   4.677   7.189  0.3359  0.1093  0.3800
 9533SOL    HW140061   0.459   4.587   7.185 -0.0299  0.3175 -1.3642
 9533SOL    HW240062   0.579   4.685   7.150 -0.3264 -0.8481 -1.2822
 9534SOL     OW40063   0.162   3.583  12.004 -0.0248 -0.3342 -0.0150
 9534SOL    HW140064   0.189   3.553  12.091  0.2485 -1.1436 -0.3795
 9534SOL    HW240065   0.077   3.595  12.047  0.1559 -0.3474  0.3475
 9535SOL     OW40066   0.239   0.693   3.164  0.0539 -0.0188  0.1918
 9535SOL    HW140067   0.276   0.648   3.088  1.1574  1.3474 -0.0880
 9535SOL    HW240068   0.317   0.745   3.185 -0.9952  1.3359  0.6747
 9536SOL     OW40069   0.482   0.182   0.548  0.2400 -0.3207  0.6285
 9536SOL    HW140070   0.459   0.271   0.574  0.2727 -0.1334  0.0229
 9536SOL    HW240071   0.418   0.134   0.601 -0.8737 -0.7975 -1.1667
 9537SOL     OW40072   3.216   3.148  15.601 -0.3059 -0.4865  0.2837
 9537SOL    HW140073   3.136   3.135  15.652  0.7586 -0.0151  2.0650
 9537SOL    HW240074   3.283   3.182  15.659  1.0952 -0.0195 -1.6048
 9538SOL     OW40075   3.423   1.657   3.062  0.2745  0.1351  0.5485
 9538SOL    HW140076   3.502   1.603   3.052  0.5932  0.6816  0.0898
 9538SOL    HW240077   3.454   1.747   3.063 -3.1276  1.3128 -1.9181
 9539SOL     OW40078   1.619   3.823  14.024  0.5969 -0.0151 -0.3010
 9539SOL    HW140079   1.674   3.901  14.032  1.2834 -0.5774  0.5024
 9539SOL    HW240080   1.634   3.796  13.934 -1.4099  1.1233 -0.9777
 9540SOL     OW40081   1.077   2.186  15.322  0.4125 -0.1899 -0.1949
 9540SOL    HW140082   1.113   2.176  15.410 -2.3340 -1.8448  0.7599
 9540SOL    HW240083   1.007   2.121  15.320  0.0834  0.1224  0.9652
 9541SOL     OW40084   2.609   0.499  11.157 -0.0501 -0.3477  0.3810
 9541SOL    HW140085   2.665   0.432  11.117 -2.4173 -2.1023  0.0818
 9541SOL    HW240086   2.639   0.512  11.247 -2.0570 -1.4657  1.1935
 9542SOL     OW40087   2.526   1.565   8.720  0.0023  0.2562  0.0412
 9542SOL    HW140088   2.586   1.516   8.663 -3.1325 -0.6283 -2.5002
 9542SOL    HW240089   2.532   1.511   8.798 -0.8609 -3.7284 -2.6519
 9543SOL     OW40090   1.521   1.407   4.775  0.1496  0.2554  0.0994
 9543SOL    HW140091   1.602   1.357   4.761 -1.8100 -1.8151 -4.1294
 9543SOL    HW240092   1.471   1.339   4.821  2.1762 -2.3787 -1.5688
 9544SOL     OW40093   0.052   1.318   2.309 -0.3009 -0.0659 -0.4108
 9544SOL    HW140094   0.065   1.402   2.265 -0.3461 -0.4646 -1.1877
 9544SOL    HW240095   4.696   1.280   2.274 -0.3105 -1.5342  1.2094
 9545SOL     OW40096   4.510   4.050   8.455  0.0406 -0.0558 -0.5878
 9545SOL    HW140097   4.531   3.978   8.395  2.3761  1.1037 -1.1881
 9545SOL    HW240098   4.560   4.031   8.535  1.0180  3.8287 -0.2524
 9546SOL     OW40099   3.697   1.037   3.022  0.0369 -0.3087  0.3185
 9546SOL    HW140100   3.718   1.100   3.091  0.6938 -0.5399  0.3370
 9546SOL    HW240101   3.765   1.058   2.958 -0.9753  1.2290 -0.2457
 9547SOL     OW40102   2.174   2.153   3.857  0.0058 -0.7232  0.4594
 9547SOL    HW140103   2.121   2.214   3.909 -0.4813 -0.0138 -0.8522
 9547SOL    HW240104   2.108   2.095   3.819 -0.1467 -0.1826 -0.0911
 9548SOL     OW40105   2.622   1.515   3.315  0.0613  0.1589  0.2159
 9548SOL    HW140106   2.612   1.495   3.222 -2.3825 -0.7186  0.6657
 9548SOL    HW240107   2.667   1.434   3.341  0.2933  0.0696 -0.4663
 9549SOL     OW40108   1.337   0.889   7.765 -0.0544 -0.1133  0.3405
 9549SOL    HW140109   1.349   0.978   7.732 -1.1839 -0.0373  0.1360
 9549SOL    HW240110   1.261   0.899   7.823  0.5311  2.2926  0.7145
 9550SOL     OW40111   2.920   3.756   9.029  0.0729  0.1774  0.2589
 9550SOL    HW140112   2.826   3.744   9.015  0.4436 -1.2144 -1.1191
 9550SOL    HW240113   2.960   3.676   8.994  0.0021 -0.1116  0.8388
 9551SOL     OW40114   1.823   0.346   2.202 -0.0361 -0.6116  0.1162
 9551SOL    HW140115   1.902   0.399   2.186 -0.0565 -1.0292 -1.4119
 9551SOL    HW240116   1.843   0.262   2.161 -0.7743 -1.0489  0.6781
 9552SOL     OW40117   0.518   2.620   4.084  0.1281 -0.1796  0.5184
 9552SOL    HW140118   0.471   2.552   4.130 -0.1519  0.5969  1.3775
 9552SOL    HW240119   0.446   2.656   4.032  0.5951 -0.3405 -0.2496
 9553SOL     OW40120   1.437   3.708   1.913 -0.2156  0.6205 -0.2661
 9553SOL    HW140121   1.510   3.689   1.972  0.1555 -0.1077 -0.9586
 9553SOL    HW240122   1.373   3.723   1.983  1.3484  3.3737  0.5730
 9554SOL     OW40123   4.317   4.573   9.074 -0.5373 -0.3978 -0.1846
 9554SOL    HW140124   4.354   4.512   9.138 -2.7278  1.1347  2.5712
 9554SOL    HW240125   4.298   4.507   9.007  0.5605 -0.9289  0.0309
 9555SOL     OW40126   4.262   3.066   8.746 -0.4478 -0.0182 -0.1810
 9555SOL    HW140127   4.269   3.088   8.839  0.2383  0.2653 -0.3017
 9555SOL    HW240128   4.237   3.153   8.715  0.3156 -0.2065 -1.3125
 9556SOL     OW40129   1.899   4.440   2.804 -0.0894 -0.3784  0.4569
 9556SOL    HW140130   1.803   4.448   2.804 -0.1181 -0.7689 -1.7622
 9556SOL    HW240131   1.917   4.437   2.710 -1.1015 -2.2177  0.3161
 9557SOL     OW40132   4.326   3.457   7.054  0.0504  0.6272  0.3042
 9557SOL    HW140133   4.266   3.529   7.072  0.5645  0.9407  0.7739
 9557SOL    HW240134   4.357   3.481   6.967 -1.8730 -0.1816 -0.6001
 9558SOL     OW40135   0.782   3.165   4.789 -0.2683  0.4058 -0.1885
 9558SOL    HW140136   0.707   3.223   4.803 -0.0200  0.9059 -0.9599
 9558SOL    HW240137   0.747   3.135   4.705  0.2120 -0.1429 -0.1918
 9559SOL     OW40138   0.791   3.571   3.527  0.3689  0.5286  0.2396
 9559SOL    HW140139   0.863   3.553   3.465 -0.4577  1.0198 -0.8702
 9559SOL    HW240140   0.716   3.540   3.477  1.8807 -1.4546 -0.8144
 9560SOL     OW40141   3.980   0.738   4.338  0.1907  0.2138  0.7400
 9560SOL    HW140142   4.020   0.652   4.344  0.7626  0.3556 -0.9697
 9560SOL    HW240143   3.896   0.727   4.292  2.2401  1.1540 -3.2336
 9561SOL     OW40144   3.895   1.356  10.461  0.7017  0.3974  0.0842
 9561SOL    HW140145   3.827   1.335  10.396  0.5356 -0.8373  0.6523
 9561SOL    HW240146   3.975   1.316  10.428 -0.2340 -1.0445 -0.4847
 9562SOL     OW40147   4.300   3.228   7.681 -0.3465  0.2599 -0.2420
 9562SOL    HW140148   4.388   3.249   7.650 -0.4563 -0.1738 -0.8552
 9562SOL    HW240149   4.280   3.147   7.635  1.3574  0.6436 -1.6416
 9563SOL     OW40150   2.759   2.935   3.834  1.0039  0.0434  0.4591
 9563SOL    HW140151   2.774   3.024   3.800 -0.2828  0.5367  1.1650
 9563SOL    HW240152   2.829   2.891   3.786 -0.4499 -1.5273 -0.1740
 9564SOL     OW40153   0.306   3.646   1.769  0.7095  0.5773 -0.1545
 9564SOL    HW140154   0.304   3.738   1.744  3.0039  0.2295 -1.7007
 9564SOL    HW240155   0.343   3.646   1.857 -0.1821  0.6766  0.2100
 9565SOL     OW40156   3.878   2.149   0.782  0.1599 -0.0620  0.6216
 9565SOL    HW140157   3.837   2.087   0.841  1.0363  0.5690  1.8970
 9565SOL    HW240158   3.972   2.133   0.794  0.1763 -0.7716 -0.4674
 9566SOL     OW40159   0.889   2.681   4.479 -0.1303  0.0821 -0.1050
 9566SOL    HW140160   0.807   2.637   4.455 -1.2844  1.0676  2.1210
 9566SOL    HW240161   0.865   2.723   4.561 -0.8184 -0.2627 -0.1303
 9567SOL     OW40162   0.545   1.564   4.256  0.0603  0.2978  0.4181
 9567SOL    HW140163   0.575   1.540   4.168 -3.2039 -0.5195 -0.4579
 9567SOL    HW240164   0.462   1.611   4.249 -0.3626 -0.3735  0.9562
 9568SOL     OW40165   3.058   3.146   3.876  0.5089  0.2139 -0.1849
 9568SOL    HW140166   2.984   3.193   3.915  1.1676  0.7223  0.4604
 9568SOL    HW240167   3.094   3.204   3.809  1.6831  0.5997  0.7834
   4.72420   4.72420  17.69840
